<event>
12    7  0.2426980E-007  0.1771707E+04  0.7818608E-02  0.8721492E-01
         -1   -1    0    0    0  501 -0.00000000000E+00  0.00000000000E+00  0.53365967595E+03  0.53365967595E+03  0.00000000000E+00 0.  1.
          2   -1    0    0  501    0  0.00000000000E+00 -0.00000000000E+00 -0.14704812655E+04  0.14704812655E+04  0.00000000000E+00 0. -1.
         24    2    1    2    0    0 -0.14599934720E+03  0.42339065258E+03  0.19274912286E+03  0.49414081482E+03  0.80296117162E+02 0.  0.
        254    2    1    2    0    0  0.14599934720E+03 -0.42339065258E+03 -0.11295707124E+04  0.15100001267E+04  0.89643456764E+03 0.  0.
         23    2    4    4    0    0  0.32827303916E+03 -0.51025779572E+03 -0.11333977242E+04  0.12889436708E+04  0.93054709711E+02 0.  0.
         23    2    4    4    0    0 -0.18227369195E+03  0.86867143138E+02  0.38270117396E+01  0.22105645587E+03  0.89898338844E+02 0.  0.
          2    1    3    3  502    0 -0.46288007313E+02  0.22322118446E+03  0.67148065301E+02  0.23765340201E+03  0.00000000000E+00 0. -1.
         -1    1    3    3    0  502 -0.99711339892E+02  0.20016946812E+03  0.12560105756E+03  0.25648741281E+03  0.00000000000E+00 0.  1.
         13    1    5    5    0    0  0.24458690570E+03 -0.32331380459E+03 -0.68491564273E+03  0.79590452212E+03  0.00000000000E+00 0.  1.
        -13    1    5    5    0    0  0.83686133460E+02 -0.18694399113E+03 -0.44848208143E+03  0.49303914866E+03  0.00000000000E+00 0. -1.
          3    1    6    6  503    0 -0.35894008654E+02  0.24491551559E+02  0.38672434569E+02  0.58170208445E+02  0.00000000000E+00 0. -1.
         -3    1    6    6    0  503 -0.14637968330E+03  0.62375591579E+02 -0.34845422829E+02  0.16288624742E+03  0.00000000000E+00 0.  1.
<mgrwt>
<rscale>  0 0.17717071E+04</rscale>
<asrwt>0</asrwt>
<pdfrwt beam="1">  1        2 0.22622789E+00 0.17717071E+04</pdfrwt>
<pdfrwt beam="2">  1       -1 0.82101489E-01 0.17717071E+04</pdfrwt>
<totfact> 0.20989802E+01</totfact>
</mgrwt>
</event>
<event>
12    7  0.2426980E-007  0.1945742E+04  0.7818608E-02  0.8632417E-01
         -1   -1    0    0    0  501 -0.00000000000E+00  0.00000000000E+00  0.48885412489E+03  0.48885412489E+03  0.00000000000E+00 0.  1.
          2   -1    0    0  501    0  0.00000000000E+00 -0.00000000000E+00 -0.19361162732E+04  0.19361162732E+04  0.00000000000E+00 0. -1.
         24    2    1    2    0    0 -0.62411860040E+03 -0.38123859171E+03 -0.84093504033E+03  0.11172769430E+04  0.79177863335E+02 0.  0.
        254    2    1    2    0    0  0.62411860040E+03  0.38123859171E+03 -0.60632710799E+03  0.13076934551E+04  0.89864493521E+03 0.  0.
         23    2    4    4    0    0  0.46114543192E+03  0.38903890716E+03  0.62340862091E+02  0.61330437260E+03  0.90826701442E+02 0.  0.
         23    2    4    4    0    0  0.16297316847E+03 -0.78003154454E+01 -0.66866797008E+03  0.69438908255E+03  0.91859921549E+02 0.  0.
          4    1    3    3  502    0 -0.55738161439E+02 -0.62832925074E+02 -0.10303307877E+03  0.13293056245E+03  0.00000000000E+00 0. -1.
         -3    1    3    3    0  502 -0.56838043896E+03 -0.31840566664E+03 -0.73790196157E+03  0.98434638051E+03  0.00000000000E+00 0.  1.
         13    1    5    5    0    0  0.42519549394E+03  0.35472046010E+03  0.31106276888E+02  0.55460383459E+03  0.00000000000E+00 0. -1.
        -13    1    5    5    0    0  0.35949937979E+02  0.34318447059E+02  0.31234585203E+02  0.58700538005E+02  0.00000000000E+00 0.  1.
          1    1    6    6  503    0  0.10022346592E+03  0.42494797578E+01 -0.55500266926E+03  0.56399535821E+03  0.00000000000E+00 0. -1.
         -1    1    6    6    0  503  0.62749702559E+02 -0.12049795203E+02 -0.11366530082E+03  0.13039372433E+03  0.00000000000E+00 0.  1.
<mgrwt>
<rscale>  0 0.19457425E+04</rscale>
<asrwt>0</asrwt>
<pdfrwt beam="1">  1        2 0.29786405E+00 0.19457425E+04</pdfrwt>
<pdfrwt beam="2">  1       -1 0.75208326E-01 0.19457425E+04</pdfrwt>
<totfact> 0.13693861E+01</totfact>
</mgrwt>
</event>
<event>
12    7  0.2426980E-007  0.3056953E+04  0.7818608E-02  0.8227652E-01
          2   -1    0    0  501    0  0.00000000000E+00  0.00000000000E+00  0.11212156193E+04  0.11212156193E+04  0.00000000000E+00 0. -1.
         -1   -1    0    0    0  501 -0.00000000000E+00 -0.00000000000E+00 -0.20836679119E+04  0.20836679119E+04  0.00000000000E+00 0.  1.
         24    2    1    2    0    0 -0.12975280586E+04 -0.34571415451E+03 -0.43407403326E+02  0.13458991660E+04  0.80392927915E+02 0.  0.
        254    2    1    2    0    0  0.12975280586E+04  0.34571415451E+03 -0.91904488932E+03  0.18589843652E+04  0.89893382509E+03 0.  0.
         23    2    4    4    0    0 -0.90184632269E+02  0.68185657843E+02 -0.25313893205E+03  0.29230602001E+03  0.92633355654E+02 0.  0.
         23    2    4    4    0    0  0.13877126909E+04  0.27752849667E+03 -0.66590595727E+03  0.15666783452E+04  0.91003925210E+02 0.  0.
          4    1    3    3  502    0 -0.48728140641E+03 -0.16106383712E+03  0.82238316216E+01  0.51327610510E+03  0.00000000000E+00 0. -1.
         -3    1    3    3    0  502 -0.81024665223E+03 -0.18465031739E+03 -0.51631234947E+02  0.83262306092E+03  0.00000000000E+00 0.  1.
         13    1    5    5    0    0  0.36205486878E+00 -0.15530777282E+02 -0.70744184694E+01  0.17069959678E+02  0.00000000000E+00 0. -1.
        -13    1    5    5    0    0 -0.90546687137E+02  0.83716435125E+02 -0.24606451358E+03  0.27523606033E+03  0.00000000000E+00 0.  1.
          3    1    6    6  503    0  0.36039886835E+03  0.11304982684E+03 -0.17899067446E+03  0.41797759413E+03  0.00000000000E+00 0. -1.
         -3    1    6    6    0  503  0.10273138226E+04  0.16447866983E+03 -0.48691528281E+03  0.11487007511E+04  0.00000000000E+00 0.  1.
<mgrwt>
<rscale>  0 0.30569534E+04</rscale>
<asrwt>0</asrwt>
<pdfrwt beam="1">  1        2 0.17249471E+00 0.30569534E+04</pdfrwt>
<pdfrwt beam="2">  1       -1 0.32056429E+00 0.30569534E+04</pdfrwt>
<totfact> 0.49797550E-01</totfact>
</mgrwt>
</event>
<event>
12    7  0.2426980E-007  0.1729406E+04  0.7818608E-02  0.8744769E-01
         -3   -1    0    0    0  501 -0.00000000000E+00  0.00000000000E+00  0.32271204703E+03  0.32271204703E+03  0.00000000000E+00 0.  1.
          2   -1    0    0  501    0  0.00000000000E+00 -0.00000000000E+00 -0.23169609727E+04  0.23169609727E+04  0.00000000000E+00 0. -1.
         24    2    1    2    0    0 -0.57644991660E+03 -0.15222892573E+03 -0.43180732068E+03  0.74045300052E+03  0.79655079034E+02 0.  0.
        254    2    1    2    0    0  0.57644991660E+03  0.15222892573E+03 -0.15624416050E+04  0.18992200192E+04  0.90019151305E+03 0.  0.
         23    2    4    4    0    0 -0.19216865475E+03  0.18680030964E+03 -0.59816733104E+03  0.66222237474E+03  0.94398994374E+02 0.  0.
         23    2    4    4    0    0  0.76861857134E+03 -0.34571383906E+02 -0.96427427400E+03  0.12369976445E+04  0.91480097362E+02 0.  0.
          2    1    3    3  502    0 -0.49218891334E+03 -0.10278789563E+03 -0.37689513975E+03  0.62838302353E+03  0.00000000000E+00 0. -1.
         -1    1    3    3    0  502 -0.84261003262E+02 -0.49441030097E+02 -0.54912180933E+02  0.11206997699E+03  0.00000000000E+00 0.  1.
         13    1    5    5    0    0 -0.10492753198E+03  0.84242456563E+02 -0.19307198845E+03  0.23533671872E+03  0.00000000000E+00 0. -1.
        -13    1    5    5    0    0 -0.87241122770E+02  0.10255785307E+03 -0.40509534258E+03  0.42688565602E+03  0.00000000000E+00 0.  1.
          2    1    6    6  503    0  0.18793000744E+03 -0.33860857591E+02 -0.28891836723E+03  0.34632075926E+03  0.00000000000E+00 0. -1.
         -2    1    6    6    0  503  0.58068856391E+03 -0.71052631496E+00 -0.67535590677E+03  0.89067688525E+03  0.00000000000E+00 0.  1.
<mgrwt>
<rscale>  0 0.17294059E+04</rscale>
<asrwt>0</asrwt>
<pdfrwt beam="1">  1        2 0.35645553E+00 0.17294059E+04</pdfrwt>
<pdfrwt beam="2">  1       -3 0.49648008E-01 0.17294059E+04</pdfrwt>
<totfact> 0.10914720E+01</totfact>
</mgrwt>
</event>
<event>
12    7  0.2426980E-007  0.3510997E+04  0.7818608E-02  0.8111189E-01
          2   -1    0    0  501    0  0.00000000000E+00  0.00000000000E+00  0.32586493775E+04  0.32586493775E+04  0.00000000000E+00 0. -1.
         -1   -1    0    0    0  501 -0.00000000000E+00 -0.00000000000E+00 -0.94572129474E+03  0.94572129474E+03  0.00000000000E+00 0.  1.
         24    2    1    2    0    0  0.70588640993E+03  0.13041701093E+04  0.19198491340E+04  0.24272152999E+04  0.80113150250E+02 0.  0.
        254    2    1    2    0    0 -0.70588640993E+03 -0.13041701093E+04  0.39307894868E+03  0.17771553723E+04  0.89701441440E+03 0.  0.
         23    2    4    4    0    0 -0.13048789163E+03 -0.90298560090E+03 -0.88938192527E+02  0.92116970136E+03  0.90738808216E+02 0.  0.
         23    2    4    4    0    0 -0.57539851830E+03 -0.40118450842E+03  0.48201714121E+03  0.85598567094E+03  0.91315276812E+02 0.  0.
          2    1    3    3  502    0  0.63285126307E+03  0.11550459375E+04  0.17427534509E+04  0.21844499147E+04  0.00000000000E+00 0. -1.
         -1    1    3    3    0  502  0.73035146860E+02  0.14912417183E+03  0.17709568309E+03  0.24276538524E+03  0.00000000000E+00 0.  1.
         13    1    5    5    0    0 -0.67383399244E+02 -0.40063182835E+03 -0.83956385534E+02  0.41484341510E+03  0.00000000000E+00 0.  1.
        -13    1    5    5    0    0 -0.63104492383E+02 -0.50235377255E+03 -0.49818069933E+01  0.50632628626E+03  0.00000000000E+00 0. -1.
          2    1    6    6  503    0 -0.55782804813E+03 -0.38540146419E+03  0.44151269914E+03  0.80909819143E+03  0.00000000000E+00 0. -1.
         -2    1    6    6    0  503 -0.17570470173E+02 -0.15783044228E+02  0.40504442072E+02  0.46887479509E+02  0.00000000000E+00 0.  1.
<mgrwt>
<rscale>  0 0.35109965E+04</rscale>
<asrwt>0</asrwt>
<pdfrwt beam="1">  1        2 0.50133067E+00 0.35109965E+04</pdfrwt>
<pdfrwt beam="2">  1       -1 0.14549558E+00 0.35109965E+04</pdfrwt>
<totfact> 0.41829071E-01</totfact>
</mgrwt>
</event>
<event>
12    7  0.2426980E-007  0.2117150E+04  0.7818608E-02  0.8553726E-01
          2   -1    0    0  501    0  0.00000000000E+00  0.00000000000E+00  0.10409299718E+04  0.10409299718E+04  0.00000000000E+00 0. -1.
         -1   -1    0    0    0  501 -0.00000000000E+00 -0.00000000000E+00 -0.10765194287E+04  0.10765194287E+04  0.00000000000E+00 0.  1.
         24    2    1    2    0    0 -0.78136187851E+03 -0.16425273685E+03 -0.34482101593E+03  0.87362603070E+03  0.82556415487E+02 0.  0.
        254    2    1    2    0    0  0.78136187851E+03  0.16425273685E+03  0.30923155906E+03  0.12438233699E+04  0.90220123671E+03 0.  0.
         23    2    4    4    0    0  0.18480128447E+03 -0.64010652423E+02  0.52177788096E+03  0.56466304389E+03  0.91341763275E+02 0.  0.
         23    2    4    4    0    0  0.59656059404E+03  0.22826338927E+03 -0.21254632190E+03  0.67916032596E+03  0.89967172680E+02 0.  0.
          2    1    3    3  502    0 -0.16400492193E+03 -0.12757105957E+01 -0.63072182609E+02  0.17571949827E+03  0.00000000000E+00 0. -1.
         -3    1    3    3    0  502 -0.61735695659E+03 -0.16297702625E+03 -0.28174883332E+03  0.69790653243E+03  0.00000000000E+00 0.  1.
         13    1    5    5    0    0  0.37587109624E+02 -0.54491546879E+02  0.12689252275E+03  0.14312173776E+03  0.00000000000E+00 0.  1.
        -13    1    5    5    0    0  0.14721417485E+03 -0.95191055437E+01  0.39488535821E+03  0.42154130613E+03  0.00000000000E+00 0. -1.
          3    1    6    6  503    0  0.51143793751E+03  0.16001976059E+03 -0.17321214672E+03  0.56318516979E+03  0.00000000000E+00 0. -1.
         -3    1    6    6    0  503  0.85122656535E+02  0.68243628687E+02 -0.39334175177E+02  0.11597515617E+03  0.00000000000E+00 0.  1.
<mgrwt>
<rscale>  0 0.21171503E+04</rscale>
<asrwt>0</asrwt>
<pdfrwt beam="1">  1        2 0.16014307E+00 0.21171503E+04</pdfrwt>
<pdfrwt beam="2">  1       -1 0.16561837E+00 0.21171503E+04</pdfrwt>
<totfact> 0.66008544E+00</totfact>
</mgrwt>
</event>
<event>
12    7  0.2426980E-007  0.2025019E+04  0.7818608E-02  0.8595012E-01
          2   -1    0    0  501    0  0.00000000000E+00  0.00000000000E+00  0.66686693060E+03  0.66686693060E+03  0.00000000000E+00 0. -1.
         -1   -1    0    0    0  501 -0.00000000000E+00 -0.00000000000E+00 -0.15373021705E+04  0.15373021705E+04  0.00000000000E+00 0.  1.
         24    2    1    2    0    0 -0.14531496564E+03 -0.28028655705E+03 -0.11622288098E+04  0.12069616314E+04  0.79395088364E+02 0.  0.
        254    2    1    2    0    0  0.14531496564E+03  0.28028655705E+03  0.29179356990E+03  0.99720746969E+03  0.89977900446E+03 0.  0.
         23    2    4    4    0    0 -0.18259833471E+03  0.20614483151E+03  0.50987248053E+03  0.58648770833E+03  0.90332952090E+02 0.  0.
         23    2    4    4    0    0  0.32791330035E+03  0.74141725542E+02 -0.21807891063E+03  0.41071976136E+03  0.90045450182E+02 0.  0.
          4    1    3    3  502    0 -0.54886344721E+02 -0.13280874266E+03 -0.39106968357E+03  0.41663673671E+03  0.00000000000E+00 0. -1.
         -3    1    3    3    0  502 -0.90428620917E+02 -0.14747781438E+03 -0.77115912621E+03  0.79032489468E+03  0.00000000000E+00 0.  1.
         13    1    5    5    0    0 -0.67966770689E+02  0.10582320821E+03  0.31472713793E+03  0.33892654759E+03  0.00000000000E+00 0. -1.
        -13    1    5    5    0    0 -0.11463156402E+03  0.10032162329E+03  0.19514534260E+03  0.24756116074E+03  0.00000000000E+00 0.  1.
          3    1    6    6  503    0  0.13058559783E+03 -0.96219954674E+01 -0.10803264314E+03  0.16975344810E+03  0.00000000000E+00 0. -1.
         -3    1    6    6    0  503  0.19732770251E+03  0.83763721009E+02 -0.11004626749E+03  0.24096631326E+03  0.00000000000E+00 0.  1.
<mgrwt>
<rscale>  0 0.20250195E+04</rscale>
<asrwt>0</asrwt>
<pdfrwt beam="1">  1        2 0.10259491E+00 0.20250195E+04</pdfrwt>
<pdfrwt beam="2">  1       -1 0.23650803E+00 0.20250195E+04</pdfrwt>
<totfact> 0.39404571E+00</totfact>
</mgrwt>
</event>
<event>
12    7  0.2426980E-007  0.3128868E+04  0.7818608E-02  0.8207860E-01
          2   -1    0    0  501    0  0.00000000000E+00  0.00000000000E+00  0.18550535370E+04  0.18550535370E+04  0.00000000000E+00 0. -1.
         -3   -1    0    0    0  501 -0.00000000000E+00 -0.00000000000E+00 -0.13193440228E+04  0.13193440228E+04  0.00000000000E+00 0.  1.
         24    2    1    2    0    0  0.82595172835E+03 -0.33455268984E+03  0.13858989225E+04  0.16496610616E+04  0.80895208246E+02 0.  0.
        254    2    1    2    0    0 -0.82595172835E+03  0.33455268984E+03 -0.85018940833E+03  0.15247364983E+04  0.89882011509E+03 0.  0.
         23    2    4    4    0    0 -0.37914374677E+03  0.27791119140E+03 -0.94146940351E+03  0.10561945446E+04  0.90540970002E+02 0.  0.
         23    2    4    4    0    0 -0.44680798158E+03  0.56641498439E+02  0.91279995176E+02  0.46854195370E+03  0.91399634027E+02 0.  0.
          2    1    3    3  502    0  0.12794424101E+03 -0.47317624647E+02  0.26932215620E+03  0.30189917229E+03  0.00000000000E+00 0. -1.
         -1    1    3    3    0  502  0.69800748735E+03 -0.28723506519E+03  0.11165767663E+04  0.13477618893E+04  0.00000000000E+00 0.  1.
         13    1    5    5    0    0 -0.27748253355E+03  0.16055388554E+03 -0.57803963072E+03  0.66098708102E+03  0.00000000000E+00 0. -1.
        -13    1    5    5    0    0 -0.10166121322E+03  0.11735730585E+03 -0.36342977278E+03  0.39520746356E+03  0.00000000000E+00 0.  1.
          1    1    6    6  503    0 -0.22003719361E+03  0.68614362276E+01  0.85899041924E+02  0.23630931273E+03  0.00000000000E+00 0. -1.
         -1    1    6    6    0  503 -0.22677078798E+03  0.49780062212E+02  0.53809532525E+01  0.23223264097E+03  0.00000000000E+00 0.  1.
<mgrwt>
<rscale>  0 0.31288680E+04</rscale>
<asrwt>0</asrwt>
<pdfrwt beam="1">  1        2 0.28539285E+00 0.31288680E+04</pdfrwt>
<pdfrwt beam="2">  1       -3 0.20297600E+00 0.31288680E+04</pdfrwt>
<totfact> 0.60382694E-01</totfact>
</mgrwt>
</event>
<event>
12    7  0.2426980E-007  0.3001671E+04  0.7818608E-02  0.8243254E-01
          2   -1    0    0  501    0  0.00000000000E+00  0.00000000000E+00  0.28501827005E+04  0.28501827005E+04  0.00000000000E+00 0. -1.
         -1   -1    0    0    0  501 -0.00000000000E+00 -0.00000000000E+00 -0.79030283274E+03  0.79030283274E+03  0.00000000000E+00 0.  1.
         24    2    1    2    0    0  0.11009888448E+04 -0.53011365604E+03  0.19867925042E+03  0.12400442837E+04  0.70989128718E+02 0.  0.
        254    2    1    2    0    0 -0.11009888448E+04  0.53011365604E+03  0.18612006174E+04  0.24004412495E+04  0.89713629384E+03 0.  0.
         23    2    4    4    0    0 -0.66922149423E+03  0.10489924479E+03  0.15890122153E+04  0.17298346859E+04  0.92233183103E+02 0.  0.
         23    2    4    4    0    0 -0.43176735055E+03  0.42521441125E+03  0.27218840204E+03  0.67060656367E+03  0.91631307419E+02 0.  0.
          2    1    3    3  502    0  0.77699400613E+03 -0.40847426557E+03  0.15052545872E+03  0.89063394552E+03  0.00000000000E+00 0. -1.
         -1    1    3    3    0  502  0.32399483865E+03 -0.12163939047E+03  0.48153791704E+02  0.34941033820E+03  0.00000000000E+00 0.  1.
         13    1    5    5    0    0 -0.46689599027E+03  0.96559876679E+02  0.10217933213E+04  0.11275536648E+04  0.00000000000E+00 0. -1.
        -13    1    5    5    0    0 -0.20232550396E+03  0.83393681158E+01  0.56721889403E+03  0.60228102108E+03  0.00000000000E+00 0.  1.
          1    1    6    6  503    0 -0.18624769206E+03  0.24345715912E+03  0.11837030079E+03  0.32858959088E+03  0.00000000000E+00 0. -1.
         -1    1    6    6    0  503 -0.24551965849E+03  0.18175725213E+03  0.15381810125E+03  0.34201697280E+03  0.00000000000E+00 0.  1.
<mgrwt>
<rscale>  0 0.30016712E+04</rscale>
<asrwt>0</asrwt>
<pdfrwt beam="1">  1        2 0.43848964E+00 0.30016712E+04</pdfrwt>
<pdfrwt beam="2">  1       -1 0.12158505E+00 0.30016712E+04</pdfrwt>
<totfact> 0.12559334E+00</totfact>
</mgrwt>
</event>
<event>
12    7  0.2426980E-007  0.1485222E+04  0.7818608E-02  0.8894340E-01
         -1   -1    0    0    0  501 -0.00000000000E+00  0.00000000000E+00  0.10626828170E+04  0.10626828170E+04  0.00000000000E+00 0.  1.
          2   -1    0    0  501    0  0.00000000000E+00 -0.00000000000E+00 -0.51894217788E+03  0.51894217788E+03  0.00000000000E+00 0. -1.
         24    2    1    2    0    0  0.48238937585E+02 -0.43589286247E+03  0.33411701485E+03  0.55741786379E+03  0.82163937394E+02 0.  0.
        254    2    1    2    0    0 -0.48238937585E+02  0.43589286247E+03  0.20962362427E+03  0.10242071311E+04  0.90151461488E+03 0.  0.
         23    2    4    4    0    0  0.25682715920E+01  0.37930454341E+02 -0.33082720903E+03  0.34500317150E+03  0.90195513887E+02 0.  0.
         23    2    4    4    0    0 -0.50807209177E+02  0.39796240813E+03  0.54045083330E+03  0.67920395957E+03  0.90969581135E+02 0.  0.
          4    1    3    3  502    0 -0.21416002768E+02 -0.11746514219E+03  0.74840097836E+02  0.14091751150E+03  0.00000000000E+00 0. -1.
         -3    1    3    3    0  502  0.69654940353E+02 -0.31842772028E+03  0.25927691702E+03  0.41650035229E+03  0.00000000000E+00 0.  1.
         13    1    5    5    0    0 -0.21577473715E+02  0.54888216401E+02 -0.14010639882E+03  0.15201350816E+03  0.00000000000E+00 0. -1.
        -13    1    5    5    0    0  0.24145745307E+02 -0.16957762060E+02 -0.19072081021E+03  0.19298966335E+03  0.00000000000E+00 0.  1.
          4    1    6    6  503    0  0.13623333922E+02  0.12940472784E+03  0.22519842864E+03  0.26008750658E+03  0.00000000000E+00 0. -1.
         -4    1    6    6    0  503 -0.64430543099E+02  0.26855768029E+03  0.31525240466E+03  0.41911645300E+03  0.00000000000E+00 0.  1.
<mgrwt>
<rscale>  0 0.14852218E+04</rscale>
<asrwt>0</asrwt>
<pdfrwt beam="1">  1        2 0.79837258E-01 0.14852218E+04</pdfrwt>
<pdfrwt beam="2">  1       -1 0.16348966E+00 0.14852218E+04</pdfrwt>
<totfact> 0.17931480E+01</totfact>
</mgrwt>
</event>
<event>
12    7  0.2426980E-007  0.2437551E+04  0.7818608E-02  0.8425577E-01
         -1   -1    0    0    0  501 -0.00000000000E+00  0.00000000000E+00  0.19590124185E+04  0.19590124185E+04  0.00000000000E+00 0.  1.
          2   -1    0    0  501    0  0.00000000000E+00 -0.00000000000E+00 -0.75824628226E+03  0.75824628226E+03  0.00000000000E+00 0. -1.
         24    2    1    2    0    0  0.75359020924E+03 -0.73268853028E+03  0.49893948757E+03  0.11662639477E+04  0.80624422634E+02 0.  0.
        254    2    1    2    0    0 -0.75359020924E+03  0.73268853028E+03  0.70182664864E+03  0.15509947530E+04  0.89905138528E+03 0.  0.
         23    2    4    4    0    0 -0.39007409133E+03  0.70385803188E+02  0.67709374859E+03  0.78979536029E+03  0.90602476421E+02 0.  0.
         23    2    4    4    0    0 -0.36351611791E+03  0.66230272709E+03  0.24732900055E+02  0.76119939276E+03  0.89576385857E+02 0.  0.
          2    1    3    3  502    0  0.42805890014E+03 -0.36542155514E+03  0.28543944983E+03  0.63106498435E+03  0.00000000000E+00 0. -1.
         -1    1    3    3    0  502  0.32553130910E+03 -0.36726697514E+03  0.21350003774E+03  0.53519896333E+03  0.00000000000E+00 0.  1.
         13    1    5    5    0    0 -0.21709965907E+03  0.83849741243E+02  0.37117134748E+03  0.43809954378E+03  0.00000000000E+00 0.  1.
        -13    1    5    5    0    0 -0.17297443227E+03 -0.13463938056E+02  0.30592240111E+03  0.35169581650E+03  0.00000000000E+00 0. -1.
          1    1    6    6  503    0 -0.27262124761E+03  0.51040997936E+03  0.56329321659E+02  0.58138944276E+03  0.00000000000E+00 0. -1.
         -1    1    6    6    0  503 -0.90894870299E+02  0.15189274773E+03 -0.31596421604E+02  0.17980995000E+03  0.00000000000E+00 0.  1.
<mgrwt>
<rscale>  0 0.24375511E+04</rscale>
<asrwt>0</asrwt>
<pdfrwt beam="1">  1        2 0.11665327E+00 0.24375511E+04</pdfrwt>
<pdfrwt beam="2">  1       -1 0.30138652E+00 0.24375511E+04</pdfrwt>
<totfact> 0.12231643E+00</totfact>
</mgrwt>
</event>
<event>
12    7  0.2426980E-007  0.2403464E+04  0.7818608E-02  0.8438208E-01
         -1   -1    0    0    0  501 -0.00000000000E+00  0.00000000000E+00  0.32832442980E+03  0.32832442980E+03  0.00000000000E+00 0.  1.
          2   -1    0    0  501    0  0.00000000000E+00 -0.00000000000E+00 -0.43985759167E+04  0.43985759167E+04  0.00000000000E+00 0. -1.
         24    2    1    2    0    0  0.74746614700E+03 -0.27160180830E+03 -0.46248708024E+03  0.92309798951E+03  0.75778728374E+02 0.  0.
        254    2    1    2    0    0 -0.74746614700E+03  0.27160180830E+03 -0.36077644067E+04  0.38038023570E+04  0.90580084675E+03 0.  0.
         23    2    4    4    0    0  0.80863807335E+02  0.89681897594E+02 -0.71439794006E+02  0.16617981419E+03  0.89052166640E+02 0.  0.
         23    2    4    4    0    0 -0.82832995433E+03  0.18191991070E+03 -0.35363246127E+04  0.36376225428E+04  0.86490639608E+02 0.  0.
          4    1    3    3  502    0  0.39680883989E+03 -0.15746217138E+03 -0.28922113955E+03  0.51565536785E+03  0.00000000000E+00 0. -1.
         -3    1    3    3    0  502  0.35065730711E+03 -0.11413963692E+03 -0.17326594069E+03  0.40744262166E+03  0.00000000000E+00 0.  1.
         13    1    5    5    0    0  0.48440724353E+02  0.10244871194E+03 -0.43022244904E+02  0.12121532870E+03  0.00000000000E+00 0. -1.
        -13    1    5    5    0    0  0.32423082982E+02 -0.12766814348E+02 -0.28417549101E+02  0.44964485492E+02  0.00000000000E+00 0.  1.
          3    1    6    6  503    0 -0.55778018034E+03  0.89135278434E+02 -0.22403337969E+04  0.23104457035E+04  0.00000000000E+00 0. -1.
         -3    1    6    6    0  503 -0.27054977399E+03  0.92784632271E+02 -0.12959908158E+04  0.13271768393E+04  0.00000000000E+00 0.  1.
<mgrwt>
<rscale>  0 0.24034641E+04</rscale>
<asrwt>0</asrwt>
<pdfrwt beam="1">  1        2 0.67670397E+00 0.24034641E+04</pdfrwt>
<pdfrwt beam="2">  1       -1 0.50511452E-01 0.24034641E+04</pdfrwt>
<totfact> 0.62406959E-01</totfact>
</mgrwt>
</event>
<event>
12    7  0.2426980E-007  0.1664822E+04  0.7818608E-02  0.8781686E-01
          4   -1    0    0  501    0  0.00000000000E+00  0.00000000000E+00  0.79270725373E+03  0.79270725373E+03  0.00000000000E+00 0. -1.
         -3   -1    0    0    0  501 -0.00000000000E+00 -0.00000000000E+00 -0.87410308838E+03  0.87410308838E+03  0.00000000000E+00 0.  1.
         24    2    1    2    0    0 -0.38919455914E+03 -0.39413648923E+03  0.16247149323E+03  0.58282379290E+03  0.80440104738E+02 0.  0.
        254    2    1    2    0    0  0.38919455914E+03  0.39413648923E+03 -0.24386732787E+03  0.10839865492E+04  0.89929949865E+03 0.  0.
         23    2    4    4    0    0  0.37439938764E+03 -0.11159376340E+03  0.15919955639E+03  0.43067768803E+03  0.86664310518E+02 0.  0.
         23    2    4    4    0    0  0.14795171493E+02  0.50573025263E+03 -0.40306688426E+03  0.65330886118E+03  0.91474419276E+02 0.  0.
          4    1    3    3  502    0 -0.31401192740E+03 -0.27760862581E+03  0.14263605372E+03  0.44273590717E+03  0.00000000000E+00 0. -1.
         -3    1    3    3    0  502 -0.75182631739E+02 -0.11652786342E+03  0.19835439507E+02  0.14008788573E+03  0.00000000000E+00 0.  1.
         13    1    5    5    0    0  0.97229519902E+02 -0.16189083489E+02  0.31956870154E+01  0.98619868080E+02  0.00000000000E+00 0.  1.
        -13    1    5    5    0    0  0.27716986774E+03 -0.95404679915E+02  0.15600386937E+03  0.33205781995E+03  0.00000000000E+00 0. -1.
          3    1    6    6  503    0  0.16709442711E+02  0.50832399278E+03 -0.40444172694E+03  0.64980427638E+03  0.00000000000E+00 0. -1.
         -3    1    6    6    0  503 -0.19142712178E+01 -0.25937401430E+01  0.13748426836E+01  0.35045848012E+01  0.00000000000E+00 0.  1.
<mgrwt>
<rscale>  0 0.16648217E+04</rscale>
<asrwt>0</asrwt>
<pdfrwt beam="1">  1        4 0.12195496E+00 0.16648217E+04</pdfrwt>
<pdfrwt beam="2">  1       -3 0.13447740E+00 0.16648217E+04</pdfrwt>
<totfact> 0.47321887E-01</totfact>
</mgrwt>
</event>
<event>
12    7  0.2426980E-007  0.2046454E+04  0.7818608E-02  0.8585205E-01
          2   -1    0    0  501    0  0.00000000000E+00  0.00000000000E+00  0.12482090672E+04  0.12482090672E+04  0.00000000000E+00 0. -1.
         -1   -1    0    0    0  501 -0.00000000000E+00 -0.00000000000E+00 -0.83879660119E+03  0.83879660119E+03  0.00000000000E+00 0.  1.
         24    2    1    2    0    0  0.18538745497E+03 -0.49846482315E+03 -0.47366087924E+03  0.71649367516E+03  0.78567611963E+02 0.  0.
        254    2    1    2    0    0 -0.18538745497E+03  0.49846482315E+03  0.88307334520E+03  0.13705119932E+04  0.90313282637E+03 0.  0.
         23    2    4    4    0    0  0.20950663491E+03  0.49703006870E+03  0.21266030250E+03  0.58700114247E+03  0.91727955059E+02 0.  0.
         23    2    4    4    0    0 -0.39489408988E+03  0.14347544458E+01  0.67041304270E+03  0.78351085071E+03  0.92153158465E+02 0.  0.
          4    1    3    3  502    0  0.63236954044E+01 -0.50526051924E+00 -0.73919015152E-01  0.63442789803E+01  0.00000000000E+00 0. -1.
         -3    1    3    3    0  502  0.17906375957E+03 -0.49795956263E+03 -0.47358696023E+03  0.71014939618E+03  0.00000000000E+00 0.  1.
         13    1    5    5    0    0  0.93779183776E+02  0.29144295526E+03  0.80420178990E+02  0.31654531535E+03  0.00000000000E+00 0.  1.
        -13    1    5    5    0    0  0.11572745113E+03  0.20558711344E+03  0.13224012351E+03  0.27045582712E+03  0.00000000000E+00 0. -1.
          3    1    6    6  503    0 -0.14252817921E+03  0.44469795280E+02  0.23537898796E+03  0.27873843032E+03  0.00000000000E+00 0. -1.
         -3    1    6    6    0  503 -0.25236591066E+03 -0.43035040835E+02  0.43503405474E+03  0.50477242039E+03  0.00000000000E+00 0.  1.
<mgrwt>
<rscale>  0 0.20464540E+04</rscale>
<asrwt>0</asrwt>
<pdfrwt beam="1">  1        2 0.19203216E+00 0.20464540E+04</pdfrwt>
<pdfrwt beam="2">  1       -1 0.12904563E+00 0.20464540E+04</pdfrwt>
<totfact> 0.96669771E+00</totfact>
</mgrwt>
</event>
<event>
12    7  0.2426980E-007  0.1340215E+04  0.7818608E-02  0.8998268E-01
          2   -1    0    0  501    0  0.00000000000E+00  0.00000000000E+00  0.10558695103E+04  0.10558695103E+04  0.00000000000E+00 0. -1.
         -1   -1    0    0    0  501 -0.00000000000E+00 -0.00000000000E+00 -0.42528391709E+03  0.42528391709E+03  0.00000000000E+00 0.  1.
         24    2    1    2    0    0  0.35712889386E+03 -0.64093990363E+02  0.26019278942E+03  0.45350084646E+03  0.79458439709E+02 0.  0.
        254    2    1    2    0    0 -0.35712889386E+03  0.64093990363E+02  0.37039280380E+03  0.10276525809E+04  0.88725977684E+03 0.  0.
         23    2    4    4    0    0 -0.30200343787E+03  0.45371897186E+03  0.17992914726E+03  0.58105441027E+03  0.90458541611E+02 0.  0.
         23    2    4    4    0    0 -0.55125455992E+02 -0.38962498150E+03  0.19046365654E+03  0.44659817068E+03  0.91252832734E+02 0.  0.
          2    1    3    3  502    0  0.76489746678E+02  0.20783051055E+01  0.92126674067E+02  0.11975944545E+03  0.00000000000E+00 0. -1.
         -1    1    3    3    0  502  0.28063914718E+03 -0.66172295469E+02  0.16806611535E+03  0.33374140101E+03  0.00000000000E+00 0.  1.
         13    1    5    5    0    0 -0.49714323633E+02  0.91625808032E+02 -0.58507848447E+00  0.10424559937E+03  0.00000000000E+00 0.  1.
        -13    1    5    5    0    0 -0.25228911424E+03  0.36209316383E+03  0.18051422575E+03  0.47680881090E+03  0.00000000000E+00 0. -1.
          3    1    6    6  503    0 -0.71793075432E+02 -0.36021902592E+03  0.18822369876E+03  0.41272285264E+03  0.00000000000E+00 0. -1.
         -3    1    6    6    0  503  0.16667619440E+02 -0.29405955578E+02  0.22399577807E+01  0.33875318037E+02  0.00000000000E+00 0.  1.
<mgrwt>
<rscale>  0 0.13402154E+04</rscale>
<asrwt>0</asrwt>
<pdfrwt beam="1">  1        2 0.16244146E+00 0.13402154E+04</pdfrwt>
<pdfrwt beam="2">  1       -1 0.65428295E-01 0.13402154E+04</pdfrwt>
<totfact> 0.61284184E+01</totfact>
</mgrwt>
</event>
<event>
12    7  0.2426980E-007  0.2297596E+04  0.7818608E-02  0.8478869E-01
         -1   -1    0    0    0  501 -0.00000000000E+00  0.00000000000E+00  0.79492157495E+03  0.79492157495E+03  0.00000000000E+00 0.  1.
          2   -1    0    0  501    0  0.00000000000E+00 -0.00000000000E+00 -0.16602106478E+04  0.16602106478E+04  0.00000000000E+00 0. -1.
         24    2    1    2    0    0 -0.35621750592E+03  0.25291925570E+03 -0.12932466416E+04  0.13674765675E+04  0.81524385433E+02 0.  0.
        254    2    1    2    0    0  0.35621750592E+03 -0.25291925570E+03  0.42795756870E+03  0.10876556552E+04  0.89943764781E+03 0.  0.
         23    2    4    4    0    0  0.36088419432E+03  0.23921469757E+03  0.38285742239E+03  0.58524801051E+03  0.92056258290E+02 0.  0.
         23    2    4    4    0    0 -0.46666884031E+01 -0.49213395327E+03  0.45100146312E+02  0.50240764471E+03  0.90342749127E+02 0.  0.
          4    1    3    3  502    0 -0.14640755699E+03  0.10398911900E+03 -0.65896118742E+03  0.68299250080E+03  0.00000000000E+00 0. -1.
         -3    1    3    3    0  502 -0.20980994893E+03  0.14893013670E+03 -0.63428545413E+03  0.68448406673E+03  0.00000000000E+00 0.  1.
         13    1    5    5    0    0  0.82119446496E+02  0.77766833579E+02  0.55552285486E+02  0.12600531862E+03  0.00000000000E+00 0. -1.
        -13    1    5    5    0    0  0.27876474783E+03  0.16144786399E+03  0.32730513690E+03  0.45924269189E+03  0.00000000000E+00 0.  1.
          3    1    6    6  503    0  0.39864989160E+02 -0.29866725632E+03  0.15784337417E+02  0.30172917105E+03  0.00000000000E+00 0. -1.
         -3    1    6    6    0  503 -0.44531677564E+02 -0.19346669695E+03  0.29315808895E+02  0.20067847365E+03  0.00000000000E+00 0.  1.
<mgrwt>
<rscale>  0 0.22975964E+04</rscale>
<asrwt>0</asrwt>
<pdfrwt beam="1">  1        2 0.25541702E+00 0.22975964E+04</pdfrwt>
<pdfrwt beam="2">  1       -1 0.12229563E+00 0.22975964E+04</pdfrwt>
<totfact> 0.62968921E+00</totfact>
</mgrwt>
</event>
<event>
12    7  0.2426980E-007  0.2607004E+04  0.7818608E-02  0.8365826E-01
          2   -1    0    0  501    0  0.00000000000E+00  0.00000000000E+00  0.11538727677E+04  0.11538727677E+04  0.00000000000E+00 0. -1.
         -3   -1    0    0    0  501 -0.00000000000E+00 -0.00000000000E+00 -0.14725346341E+04  0.14725346341E+04  0.00000000000E+00 0.  1.
         24    2    1    2    0    0 -0.85049612217E+03 -0.63876620092E+03  0.29414437050E+03  0.11065106691E+04  0.80492464734E+02 0.  0.
        254    2    1    2    0    0  0.85049612217E+03  0.63876620092E+03 -0.61280623695E+03  0.15198967327E+04  0.89620794503E+03 0.  0.
         23    2    4    4    0    0  0.87945990716E+03  0.15868102729E+03 -0.44435003179E+03  0.10022064524E+04  0.91331406229E+02 0.  0.
         23    2    4    4    0    0 -0.28963784992E+02  0.48008517363E+03 -0.16845620516E+03  0.51769028029E+03  0.91132093511E+02 0.  0.
          2    1    3    3  502    0 -0.48513572033E+03 -0.33309321778E+03  0.13008425134E+03  0.60268538336E+03  0.00000000000E+00 0. -1.
         -1    1    3    3    0  502 -0.36536040185E+03 -0.30567298313E+03  0.16406011916E+03  0.50382528574E+03  0.00000000000E+00 0.  1.
         13    1    5    5    0    0  0.58008595236E+03  0.70491025631E+02 -0.25858321080E+03  0.63901015150E+03  0.00000000000E+00 0. -1.
        -13    1    5    5    0    0  0.29937395481E+03  0.88190001658E+02 -0.18576682099E+03  0.36319630090E+03  0.00000000000E+00 0.  1.
          4    1    6    6  503    0  0.27999908807E+02  0.17520183160E+03 -0.39368463132E+02  0.18174034384E+03  0.00000000000E+00 0. -1.
         -4    1    6    6    0  503 -0.56963693799E+02  0.30488334203E+03 -0.12908774203E+03  0.33594993645E+03  0.00000000000E+00 0.  1.
<mgrwt>
<rscale>  0 0.26070041E+04</rscale>
<asrwt>0</asrwt>
<pdfrwt beam="1">  1        2 0.17751889E+00 0.26070041E+04</pdfrwt>
<pdfrwt beam="2">  1       -3 0.22654379E+00 0.26070041E+04</pdfrwt>
<totfact> 0.11289236E+00</totfact>
</mgrwt>
</event>
<event>
12    7  0.2426980E-007  0.1311102E+04  0.7818608E-02  0.9020807E-01
          2   -1    0    0  501    0  0.00000000000E+00  0.00000000000E+00  0.32204536865E+04  0.32204536865E+04  0.00000000000E+00 0. -1.
         -1   -1    0    0    0  501 -0.00000000000E+00 -0.00000000000E+00 -0.13344307462E+03  0.13344307462E+03  0.00000000000E+00 0.  1.
         24    2    1    2    0    0 -0.28920521723E+02  0.33170796559E+03  0.66270547464E+03  0.74616564196E+03  0.81963699979E+02 0.  0.
        254    2    1    2    0    0  0.28920521723E+02 -0.33170796559E+03  0.24243051372E+04  0.26077311191E+04  0.90118789404E+03 0.  0.
         23    2    4    4    0    0 -0.38869589984E+03 -0.20457523329E+03  0.74090520794E+03  0.86618394238E+03  0.91643691879E+02 0.  0.
         23    2    4    4    0    0  0.41761642156E+03 -0.12713273231E+03  0.16833999293E+04  0.17415471767E+04  0.92655489822E+02 0.  0.
          4    1    3    3  502    0  0.67837035440E+01  0.49447877202E+02  0.17042857723E+03  0.17758662993E+03  0.00000000000E+00 0. -1.
         -3    1    3    3    0  502 -0.35704225267E+02  0.28226008839E+03  0.49227689741E+03  0.56857901203E+03  0.00000000000E+00 0.  1.
         13    1    5    5    0    0 -0.27683470692E+03 -0.10317876965E+03  0.53046515906E+03  0.60718744918E+03  0.00000000000E+00 0. -1.
        -13    1    5    5    0    0 -0.11186119292E+03 -0.10139646364E+03  0.21044004887E+03  0.25899649320E+03  0.00000000000E+00 0.  1.
          4    1    6    6  503    0  0.20243381009E+03 -0.10938225686E+03  0.89783352067E+03  0.92684893937E+03  0.00000000000E+00 0. -1.
         -4    1    6    6    0  503  0.21518261148E+03 -0.17750475450E+02  0.78556640859E+03  0.81469823736E+03  0.00000000000E+00 0.  1.
<mgrwt>
<rscale>  0 0.13111022E+04</rscale>
<asrwt>0</asrwt>
<pdfrwt beam="1">  1        2 0.49545435E+00 0.13111022E+04</pdfrwt>
<pdfrwt beam="2">  1       -1 0.20529706E-01 0.13111022E+04</pdfrwt>
<totfact> 0.27869326E+01</totfact>
</mgrwt>
</event>
<event>
12    7  0.2426980E-007  0.1829365E+04  0.7818608E-02  0.8690837E-01
          2   -1    0    0  501    0  0.00000000000E+00  0.00000000000E+00  0.42892906948E+03  0.42892906948E+03  0.00000000000E+00 0. -1.
         -1   -1    0    0    0  501 -0.00000000000E+00 -0.00000000000E+00 -0.19505419858E+04  0.19505419858E+04  0.00000000000E+00 0.  1.
         24    2    1    2    0    0 -0.10957990952E+03  0.57296770623E+03 -0.10659263492E+04  0.12177730995E+04  0.80452414941E+02 0.  0.
        254    2    1    2    0    0  0.10957990952E+03 -0.57296770623E+03 -0.45568656708E+03  0.11616979557E+04  0.89531678411E+03 0.  0.
         23    2    4    4    0    0  0.10823058780E+03 -0.56969778280E+03 -0.69205019289E+03  0.90741776993E+03  0.90576574467E+02 0.  0.
         23    2    4    4    0    0  0.13493217248E+01 -0.32699234249E+01  0.23636362581E+03  0.25428018577E+03  0.93691708295E+02 0.  0.
          2    1    3    3  502    0 -0.11490129972E+03  0.49082172083E+03 -0.87426278021E+03  0.10091797061E+04  0.00000000000E+00 0. -1.
         -1    1    3    3    0  502  0.53213901953E+01  0.82145985397E+02 -0.19166356899E+03  0.20859339344E+03  0.00000000000E+00 0.  1.
         13    1    5    5    0    0  0.54687751030E+02 -0.41379926768E+03 -0.54537816287E+03  0.68677356136E+03  0.00000000000E+00 0. -1.
        -13    1    5    5    0    0  0.53542836766E+02 -0.15589851512E+03 -0.14667203002E+03  0.22064420857E+03  0.00000000000E+00 0.  1.
          3    1    6    6  503    0 -0.10638656750E+02 -0.28410533849E+02  0.21978120265E+03  0.22186508623E+03  0.00000000000E+00 0. -1.
         -3    1    6    6    0  503  0.11987978475E+02  0.25140610424E+02  0.16582423159E+02  0.32415099541E+02  0.00000000000E+00 0.  1.
<mgrwt>
<rscale>  0 0.18293651E+04</rscale>
<asrwt>0</asrwt>
<pdfrwt beam="1">  1        2 0.65989088E-01 0.18293651E+04</pdfrwt>
<pdfrwt beam="2">  1       -1 0.30008338E+00 0.18293651E+04</pdfrwt>
<totfact> 0.26116474E+00</totfact>
</mgrwt>
</event>
<event>
12    7  0.2426980E-007  0.2898933E+04  0.7818608E-02  0.8273195E-01
          2   -1    0    0  501    0  0.00000000000E+00  0.00000000000E+00  0.32501995621E+04  0.32501995621E+04  0.00000000000E+00 0. -1.
         -1   -1    0    0    0  501 -0.00000000000E+00 -0.00000000000E+00 -0.64640732139E+03  0.64640732139E+03  0.00000000000E+00 0.  1.
         24    2    1    2    0    0 -0.12468012771E+04  0.36920135401E+03  0.97893782052E+03  0.16295195209E+04  0.78686390231E+02 0.  0.
        254    2    1    2    0    0  0.12468012771E+04 -0.36920135401E+03  0.16248544202E+04  0.22670873626E+04  0.89928313586E+03 0.  0.
         23    2    4    4    0    0  0.11355270147E+04 -0.61546574091E+03  0.13258237848E+04  0.18532364336E+04  0.91961357584E+02 0.  0.
         23    2    4    4    0    0  0.11127426245E+03  0.24626438690E+03  0.29903063540E+03  0.41385092899E+03  0.93942326878E+02 0.  0.
          4    1    3    3  502    0 -0.72928080566E+03  0.19218961245E+03  0.52788978921E+03  0.92057317481E+03  0.00000000000E+00 0. -1.
         -3    1    3    3    0  502 -0.51752047148E+03  0.17701174156E+03  0.45104803132E+03  0.70894634607E+03  0.00000000000E+00 0.  1.
         13    1    5    5    0    0  0.77854951320E+03 -0.40117292713E+03  0.84198161687E+03  0.12149123858E+04  0.00000000000E+00 0. -1.
        -13    1    5    5    0    0  0.35697750148E+03 -0.21429281378E+03  0.48384216792E+03  0.63832404785E+03  0.00000000000E+00 0.  1.
          4    1    6    6  503    0  0.50005935331E+02  0.13209136802E+03  0.22196480281E+03  0.26309142282E+03  0.00000000000E+00 0. -1.
         -4    1    6    6    0  503  0.61268327120E+02  0.11417301888E+03  0.77065832586E+02  0.15075950617E+03  0.00000000000E+00 0.  1.
<mgrwt>
<rscale>  0 0.28989328E+04</rscale>
<asrwt>0</asrwt>
<pdfrwt beam="1">  1        2 0.50003069E+00 0.28989328E+04</pdfrwt>
<pdfrwt beam="2">  1       -1 0.99447282E-01 0.28989328E+04</pdfrwt>
<totfact> 0.11373114E+00</totfact>
</mgrwt>
</event>
<event>
12    7  0.2426980E-007  0.2453065E+04  0.7818608E-02  0.8419900E-01
         -1   -1    0    0    0  501 -0.00000000000E+00  0.00000000000E+00  0.65545660220E+03  0.65545660220E+03  0.00000000000E+00 0.  1.
          2   -1    0    0  501    0  0.00000000000E+00 -0.00000000000E+00 -0.22951666360E+04  0.22951666360E+04  0.00000000000E+00 0. -1.
         24    2    1    2    0    0  0.81326988135E+03 -0.16565103410E+03  0.82331044065E+02  0.83782828562E+03  0.79559225409E+02 0.  0.
        254    2    1    2    0    0 -0.81326988135E+03  0.16565103410E+03 -0.17220410779E+04  0.21127949526E+04  0.89979379460E+03 0.  0.
         23    2    4    4    0    0 -0.17474387877E+03 -0.31078398794E+03 -0.86021427364E+03  0.93563739268E+03  0.91250335255E+02 0.  0.
         23    2    4    4    0    0 -0.63852600259E+03  0.47643502204E+03 -0.86182680423E+03  0.11771575599E+04  0.90822321912E+02 0.  0.
          4    1    3    3  502    0  0.53153602518E+03 -0.10119945469E+03  0.16094861517E+02  0.54132330475E+03  0.00000000000E+00 0. -1.
         -3    1    3    3    0  502  0.28173385617E+03 -0.64451579404E+02  0.66236182548E+02  0.29650498087E+03  0.00000000000E+00 0.  1.
         13    1    5    5    0    0 -0.10774463668E+03 -0.21103673216E+03 -0.66982815777E+03  0.71050346234E+03  0.00000000000E+00 0. -1.
        -13    1    5    5    0    0 -0.66999242084E+02 -0.99747255776E+02 -0.19038611587E+03  0.22513393034E+03  0.00000000000E+00 0.  1.
          3    1    6    6  503    0 -0.33787531799E+03  0.20023945498E+03 -0.39578441585E+03  0.55758485781E+03  0.00000000000E+00 0. -1.
         -3    1    6    6    0  503 -0.30065068460E+03  0.27619556705E+03 -0.46604238838E+03  0.61957270209E+03  0.00000000000E+00 0.  1.
<mgrwt>
<rscale>  0 0.24530651E+04</rscale>
<asrwt>0</asrwt>
<pdfrwt beam="1">  1        2 0.35310256E+00 0.24530651E+04</pdfrwt>
<pdfrwt beam="2">  1       -1 0.10083948E+00 0.24530651E+04</pdfrwt>
<totfact> 0.43440206E+00</totfact>
</mgrwt>
</event>
<event>
12    7  0.2426980E-007  0.1283943E+04  0.7818608E-02  0.9042396E-01
         -1   -1    0    0    0  501 -0.00000000000E+00  0.00000000000E+00  0.99860794898E+03  0.99860794898E+03  0.00000000000E+00 0.  1.
          2   -1    0    0  501    0  0.00000000000E+00 -0.00000000000E+00 -0.41270191463E+03  0.41270191463E+03  0.00000000000E+00 0. -1.
         24    2    1    2    0    0  0.11731846186E+03 -0.28444681820E+03  0.60239746370E+02  0.32385953649E+03  0.81132967733E+02 0.  0.
        254    2    1    2    0    0 -0.11731846186E+03  0.28444681820E+03  0.52566628798E+03  0.10874503271E+04  0.90086045188E+03 0.  0.
         23    2    4    4    0    0 -0.18283703843E+03 -0.65297852880E+02 -0.18731795333E+03  0.28597792890E+03  0.94879755303E+02 0.  0.
         23    2    4    4    0    0  0.65518576570E+02  0.34974467108E+03  0.71298424131E+03  0.80147239822E+03  0.86008475892E+02 0.  0.
          2    1    3    3  502    0  0.25121292066E+02 -0.15485739097E+03  0.10542748943E+02  0.15723562067E+03  0.00000000000E+00 0. -1.
         -1    1    3    3    0  502  0.92197169795E+02 -0.12958942723E+03  0.49696997428E+02  0.16662391582E+03  0.00000000000E+00 0.  1.
         13    1    5    5    0    0 -0.11386805199E+03 -0.80226118785E+02 -0.90261248851E+02  0.16597968684E+03  0.00000000000E+00 0. -1.
        -13    1    5    5    0    0 -0.68968986442E+02  0.14928265905E+02 -0.97056704481E+02  0.11999824206E+03  0.00000000000E+00 0.  1.
          1    1    6    6  503    0  0.46786816500E+02  0.14423859379E+03  0.22158619118E+03  0.26850366526E+03  0.00000000000E+00 0. -1.
         -1    1    6    6    0  503  0.18731760070E+02  0.20550607729E+03  0.49139805014E+03  0.53296873296E+03  0.00000000000E+00 0.  1.
<mgrwt>
<rscale>  0 0.12839430E+04</rscale>
<asrwt>0</asrwt>
<pdfrwt beam="1">  1        2 0.63492602E-01 0.12839430E+04</pdfrwt>
<pdfrwt beam="2">  1       -1 0.15363199E+00 0.12839430E+04</pdfrwt>
<totfact> 0.28179733E+01</totfact>
</mgrwt>
</event>
<event>
12    7  0.2426980E-007  0.3008919E+04  0.7818608E-02  0.8241189E-01
          2   -1    0    0  501    0  0.00000000000E+00  0.00000000000E+00  0.10292452640E+04  0.10292452640E+04  0.00000000000E+00 0. -1.
         -1   -1    0    0    0  501 -0.00000000000E+00 -0.00000000000E+00 -0.21990857075E+04  0.21990857075E+04  0.00000000000E+00 0.  1.
         24    2    1    2    0    0  0.34015232564E+02  0.67511172701E+03 -0.18089589118E+04  0.19327528456E+04  0.79172835601E+02 0.  0.
        254    2    1    2    0    0 -0.34015232564E+02 -0.67511172701E+03  0.63911846819E+03  0.12955781258E+04  0.90173021673E+03 0.  0.
         23    2    4    4    0    0 -0.21585312067E+03  0.90700028753E+02 -0.37338529984E+02  0.25406445118E+03  0.91299039505E+02 0.  0.
         23    2    4    4    0    0  0.18183788810E+03 -0.76581175576E+03  0.67645699817E+03  0.10415136747E+04  0.87315527275E+02 0.  0.
          2    1    3    3  502    0 -0.53729248335E+01  0.10150568776E+03 -0.20412016759E+03  0.22802919941E+03  0.00000000000E+00 0. -1.
         -1    1    3    3    0  502  0.39388157398E+02  0.57360603925E+03 -0.16048387442E+04  0.17047236462E+04  0.00000000000E+00 0.  1.
         13    1    5    5    0    0 -0.83550103806E+02  0.14620190247E+02 -0.53983597223E+02  0.10054152663E+03  0.00000000000E+00 0. -1.
        -13    1    5    5    0    0 -0.13230301686E+03  0.76079838507E+02  0.16645067239E+02  0.15352292455E+03  0.00000000000E+00 0.  1.
          4    1    6    6  503    0  0.14439865998E+03 -0.54152248770E+03  0.52772526398E+03  0.76979967000E+03  0.00000000000E+00 0. -1.
         -4    1    6    6    0  503  0.37439228122E+02 -0.22428926806E+03  0.14873173420E+03  0.27171400466E+03  0.00000000000E+00 0.  1.
<mgrwt>
<rscale>  0 0.30089191E+04</rscale>
<asrwt>0</asrwt>
<pdfrwt beam="1">  1        2 0.15834543E+00 0.30089191E+04</pdfrwt>
<pdfrwt beam="2">  1       -1 0.33832088E+00 0.30089191E+04</pdfrwt>
<totfact> 0.43642809E-01</totfact>
</mgrwt>
</event>
<event>
12    7  0.2426980E-007  0.1287435E+04  0.7818608E-02  0.9039589E-01
         -1   -1    0    0    0  501 -0.00000000000E+00  0.00000000000E+00  0.11159753196E+04  0.11159753196E+04  0.00000000000E+00 0.  1.
          2   -1    0    0  501    0  0.00000000000E+00 -0.00000000000E+00 -0.37130965836E+03  0.37130965836E+03  0.00000000000E+00 0. -1.
         24    2    1    2    0    0  0.10972939493E+03  0.23138178792E+03  0.41590103575E+03  0.49499956457E+03  0.80453871826E+02 0.  0.
        254    2    1    2    0    0 -0.10972939493E+03 -0.23138178792E+03  0.32876462548E+03  0.99228541338E+03  0.90053655714E+03 0.  0.
         23    2    4    4    0    0 -0.14617338556E+03 -0.70081425771E+02  0.61879392272E+03  0.64614803625E+03  0.91232127363E+02 0.  0.
         23    2    4    4    0    0  0.36443990630E+02 -0.16130036214E+03 -0.29002929724E+03  0.34613737713E+03  0.91368043139E+02 0.  0.
          2    1    3    3  502    0  0.92663122138E+02  0.21043816416E+03  0.31158222593E+03  0.38723914918E+03  0.00000000000E+00 0. -1.
         -1    1    3    3    0  502  0.17066272795E+02  0.20943623759E+02  0.10431880982E+03  0.10776041539E+03  0.00000000000E+00 0.  1.
         13    1    5    5    0    0 -0.95743162678E+02 -0.21723763112E+02  0.48885213860E+03  0.49861316519E+03  0.00000000000E+00 0. -1.
        -13    1    5    5    0    0 -0.50430222885E+02 -0.48357662659E+02  0.12994178412E+03  0.14753487106E+03  0.00000000000E+00 0.  1.
          1    1    6    6  503    0 -0.15898205740E+02 -0.12020451146E+03 -0.20484265431E+03  0.23803863247E+03  0.00000000000E+00 0. -1.
         -1    1    6    6    0  503  0.52342196369E+02 -0.41095850686E+02 -0.85186642929E+02  0.10809874466E+03  0.00000000000E+00 0.  1.
<mgrwt>
<rscale>  0 0.12874353E+04</rscale>
<asrwt>0</asrwt>
<pdfrwt beam="1">  1        2 0.57124563E-01 0.12874353E+04</pdfrwt>
<pdfrwt beam="2">  1       -1 0.17168851E+00 0.12874353E+04</pdfrwt>
<totfact> 0.23221695E+01</totfact>
</mgrwt>
</event>
<event>
12    7  0.2426980E-007  0.2848095E+04  0.7818608E-02  0.8288490E-01
          2   -1    0    0  501    0  0.00000000000E+00  0.00000000000E+00  0.14711984025E+04  0.14711984025E+04  0.00000000000E+00 0. -1.
         -1   -1    0    0    0  501 -0.00000000000E+00 -0.00000000000E+00 -0.13784079388E+04  0.13784079388E+04  0.00000000000E+00 0.  1.
         24    2    1    2    0    0 -0.88937912003E+03 -0.91973998466E+03 -0.15865217653E+01  0.12821344816E+04  0.83363381308E+02 0.  0.
        254    2    1    2    0    0  0.88937912003E+03  0.91973998466E+03  0.94376985443E+02  0.15674718597E+04  0.90063541850E+03 0.  0.
         23    2    4    4    0    0  0.39687173870E+03 -0.71290318190E+02  0.18560986979E+03  0.45339680699E+03  0.92348006906E+02 0.  0.
         23    2    4    4    0    0  0.49250738134E+03  0.99103030285E+03 -0.91232884345E+02  0.11140750527E+04  0.90195355018E+02 0.  0.
          4    1    3    3  502    0 -0.16184328536E+03 -0.12552253399E+03  0.89112719931E+01  0.20500869817E+03  0.00000000000E+00 0. -1.
         -3    1    3    3    0  502 -0.72753583468E+03 -0.79421745067E+03 -0.10497793758E+02  0.10771257834E+04  0.00000000000E+00 0.  1.
         13    1    5    5    0    0  0.24087297036E+03 -0.30908380797E+00  0.12672588371E+03  0.27217518804E+03  0.00000000000E+00 0. -1.
        -13    1    5    5    0    0  0.15599876834E+03 -0.70981234382E+02  0.58883986075E+02  0.18122161894E+03  0.00000000000E+00 0.  1.
          1    1    6    6  503    0  0.18702387824E+03  0.31347345340E+03 -0.62066660232E+02  0.37026450995E+03  0.00000000000E+00 0. -1.
         -1    1    6    6    0  503  0.30548350310E+03  0.67755684946E+03 -0.29166224114E+02  0.74381054277E+03  0.00000000000E+00 0.  1.
<mgrwt>
<rscale>  0 0.28480952E+04</rscale>
<asrwt>0</asrwt>
<pdfrwt beam="1">  1        2 0.22633822E+00 0.28480952E+04</pdfrwt>
<pdfrwt beam="2">  1       -1 0.21206276E+00 0.28480952E+04</pdfrwt>
<totfact> 0.16193878E+00</totfact>
</mgrwt>
</event>
<event>
12    7  0.2426980E-007  0.3639830E+04  0.7818608E-02  0.8081429E-01
          2   -1    0    0  501    0  0.00000000000E+00  0.00000000000E+00  0.44286138849E+04  0.44286138849E+04  0.00000000000E+00 0. -1.
         -1   -1    0    0    0  501 -0.00000000000E+00 -0.00000000000E+00 -0.74788408292E+03  0.74788408292E+03  0.00000000000E+00 0.  1.
         24    2    1    2    0    0 -0.16295117459E+04  0.26800938362E+03  0.11101893245E+04  0.19916199729E+04  0.83019399613E+02 0.  0.
        254    2    1    2    0    0  0.16295117459E+04 -0.26800938362E+03  0.25705404775E+04  0.31848779949E+04  0.89923964351E+03 0.  0.
         23    2    4    4    0    0  0.31405961301E+03 -0.44208057442E+03  0.77449987115E+03  0.95004889421E+03  0.93135257447E+02 0.  0.
         23    2    4    4    0    0  0.13154521329E+04  0.17407119080E+03  0.17960406064E+04  0.22348291007E+04  0.89354106942E+02 0.  0.
          4    1    3    3  502    0 -0.22188979041E+03  0.61888287611E+02  0.17188753792E+03  0.28742053671E+03  0.00000000000E+00 0. -1.
         -3    1    3    3    0  502 -0.14076219555E+04  0.20612109600E+03  0.93830178659E+03  0.17041994362E+04  0.00000000000E+00 0.  1.
         13    1    5    5    0    0  0.14220552902E+03 -0.27719842746E+03  0.45920592913E+03  0.55491572875E+03  0.00000000000E+00 0. -1.
        -13    1    5    5    0    0  0.17185408400E+03 -0.16488214696E+03  0.31529394202E+03  0.39513316546E+03  0.00000000000E+00 0.  1.
          2    1    6    6  503    0  0.93086552982E+03  0.88784787667E+02  0.12255408642E+04  0.15415394198E+04  0.00000000000E+00 0. -1.
         -2    1    6    6    0  503  0.38458660303E+03  0.85286403137E+02  0.57049974218E+03  0.69328968088E+03  0.00000000000E+00 0.  1.
<mgrwt>
<rscale>  0 0.36398296E+04</rscale>
<asrwt>0</asrwt>
<pdfrwt beam="1">  1        2 0.68132520E+00 0.36398296E+04</pdfrwt>
<pdfrwt beam="2">  1       -1 0.11505909E+00 0.36398296E+04</pdfrwt>
<totfact> 0.90666514E-02</totfact>
</mgrwt>
</event>
<event>
12    7  0.2426980E-007  0.1895158E+04  0.7818608E-02  0.8657270E-01
         -1   -1    0    0    0  501 -0.00000000000E+00  0.00000000000E+00  0.17455532098E+04  0.17455532098E+04  0.00000000000E+00 0.  1.
          2   -1    0    0  501    0  0.00000000000E+00 -0.00000000000E+00 -0.51439608289E+03  0.51439608289E+03  0.00000000000E+00 0. -1.
         24    2    1    2    0    0  0.21308080279E+03 -0.61899634790E+03  0.89242084609E+02  0.66548865706E+03  0.79693762484E+02 0.  0.
        254    2    1    2    0    0 -0.21308080279E+03  0.61899634790E+03  0.11419150423E+04  0.15944606356E+04  0.89987490659E+03 0.  0.
         23    2    4    4    0    0 -0.28752596065E+03  0.80166533112E+03  0.10576010022E+04  0.13608951110E+04  0.90427551404E+02 0.  0.
         23    2    4    4    0    0  0.74445157854E+02 -0.18266898322E+03  0.84314040129E+02  0.23356552468E+03  0.92379424091E+02 0.  0.
          2    1    3    3  502    0  0.14882152971E+03 -0.42252725148E+03  0.23542391131E+02  0.44858819660E+03  0.00000000000E+00 0. -1.
         -1    1    3    3    0  502  0.64259273083E+02 -0.19646909642E+03  0.65699693478E+02  0.21690046046E+03  0.00000000000E+00 0.  1.
         13    1    5    5    0    0 -0.69406002988E+01  0.35801579128E+02  0.21744186844E+02  0.42458622941E+02  0.00000000000E+00 0.  1.
        -13    1    5    5    0    0 -0.28058536035E+03  0.76586375199E+03  0.10358568153E+04  0.13184364880E+04  0.00000000000E+00 0. -1.
          1    1    6    6  503    0  0.33900864932E+02 -0.11878049962E+03  0.45307291968E+01  0.12360664723E+03  0.00000000000E+00 0. -1.
         -1    1    6    6    0  503  0.40544292922E+02 -0.63888483603E+02  0.79783310933E+02  0.10995887745E+03  0.00000000000E+00 0.  1.
<mgrwt>
<rscale>  0 0.18951578E+04</rscale>
<asrwt>0</asrwt>
<pdfrwt beam="1">  1        2 0.79137859E-01 0.18951578E+04</pdfrwt>
<pdfrwt beam="2">  1       -1 0.26854665E+00 0.18951578E+04</pdfrwt>
<totfact> 0.33681601E+00</totfact>
</mgrwt>
</event>
<event>
12    7  0.2426980E-007  0.4291579E+04  0.7818608E-02  0.7948177E-01
          2   -1    0    0  501    0  0.00000000000E+00  0.00000000000E+00  0.12342139610E+04  0.12342139610E+04  0.00000000000E+00 0. -1.
         -1   -1    0    0    0  501 -0.00000000000E+00 -0.00000000000E+00 -0.37306439439E+04  0.37306439439E+04  0.00000000000E+00 0.  1.
         24    2    1    2    0    0  0.15825961903E+04  0.88117400432E+03 -0.23059591771E+04  0.29334037600E+04  0.79571134628E+02 0.  0.
        254    2    1    2    0    0 -0.15825961903E+04 -0.88117400432E+03 -0.19047080580E+03  0.20314541449E+04  0.89969355210E+03 0.  0.
         23    2    4    4    0    0 -0.88514559173E+03 -0.90788069008E+03 -0.32906949948E+03  0.13132196206E+04  0.92352424797E+02 0.  0.
         23    2    4    4    0    0 -0.69745059854E+03  0.26706685760E+02  0.13859869368E+03  0.71823452436E+03  0.97471275849E+02 0.  0.
          4    1    3    3  502    0  0.11936919035E+04  0.69343259211E+03 -0.17927220603E+04  0.22626536424E+04  0.00000000000E+00 0. -1.
         -3    1    3    3    0  502  0.38890428682E+03  0.18774141221E+03 -0.51323711685E+03  0.67075011761E+03  0.00000000000E+00 0.  1.
         13    1    5    5    0    0 -0.61314560106E+01 -0.21376980070E+02 -0.11520052416E+02  0.25045591177E+02  0.00000000000E+00 0. -1.
        -13    1    5    5    0    0 -0.87901413572E+03 -0.88650371001E+03 -0.31754944706E+03  0.12881740294E+04  0.00000000000E+00 0.  1.
          3    1    6    6  503    0 -0.78917293895E+02  0.24419416672E+02  0.40370914016E+02  0.91945950888E+02  0.00000000000E+00 0. -1.
         -3    1    6    6    0  503 -0.61853330465E+03  0.22872690880E+01  0.98227779661E+02  0.62628857347E+03  0.00000000000E+00 0.  1.
<mgrwt>
<rscale>  0 0.42915791E+04</rscale>
<asrwt>0</asrwt>
<pdfrwt beam="1">  1        2 0.18987908E+00 0.42915791E+04</pdfrwt>
<pdfrwt beam="2">  1       -1 0.57394521E+00 0.42915791E+04</pdfrwt>
<totfact> 0.90879384E-03</totfact>
</mgrwt>
</event>
<event>
12    7  0.2426980E-007  0.3048525E+04  0.7818608E-02  0.8230008E-01
          2   -1    0    0  501    0  0.00000000000E+00  0.00000000000E+00  0.13506875603E+04  0.13506875603E+04  0.00000000000E+00 0. -1.
         -1   -1    0    0    0  501 -0.00000000000E+00 -0.00000000000E+00 -0.17201435615E+04  0.17201435615E+04  0.00000000000E+00 0.  1.
         24    2    1    2    0    0 -0.24810647757E+03 -0.75229902576E+02 -0.15449859330E+04  0.15686242831E+04  0.79901476536E+02 0.  0.
        254    2    1    2    0    0  0.24810647757E+03  0.75229902576E+02  0.11755299318E+04  0.15022068388E+04  0.89863140580E+03 0.  0.
         23    2    4    4    0    0 -0.74625036661E+02  0.15625984370E+03  0.11377123852E+04  0.11549503384E+04  0.97646187275E+02 0.  0.
         23    2    4    4    0    0  0.32273151423E+03 -0.81029941123E+02  0.37817546596E+02  0.34725650039E+03  0.91844589352E+02 0.  0.
          2    1    3    3  502    0 -0.60686340275E+02  0.15820011838E+02 -0.33181958363E+03  0.33769415268E+03  0.00000000000E+00 0. -1.
         -1    1    3    3    0  502 -0.18742013730E+03 -0.91049914414E+02 -0.12131663493E+04  0.12309301304E+04  0.00000000000E+00 0.  1.
         13    1    5    5    0    0  0.56441257182E+01  0.90149508847E+02  0.65230347649E+03  0.65852761183E+03  0.00000000000E+00 0. -1.
        -13    1    5    5    0    0 -0.80269162379E+02  0.66110334851E+02  0.48540890867E+03  0.49642272653E+03  0.00000000000E+00 0.  1.
          1    1    6    6  503    0  0.17487192604E+02 -0.19085089106E+01 -0.20034699610E+02  0.26661460948E+02  0.00000000000E+00 0. -1.
         -1    1    6    6    0  503  0.30524432163E+03 -0.79121432212E+02  0.57852246205E+02  0.32059503944E+03  0.00000000000E+00 0.  1.
<mgrwt>
<rscale>  0 0.30485252E+04</rscale>
<asrwt>0</asrwt>
<pdfrwt beam="1">  1        2 0.20779809E+00 0.30485252E+04</pdfrwt>
<pdfrwt beam="2">  1       -1 0.26463747E+00 0.30485252E+04</pdfrwt>
<totfact> 0.83972202E-01</totfact>
</mgrwt>
</event>
<event>
12    7  0.2426980E-007  0.1360908E+04  0.7818608E-02  0.8982612E-01
         -1   -1    0    0    0  501 -0.00000000000E+00  0.00000000000E+00  0.18394490806E+03  0.18394490806E+03  0.00000000000E+00 0.  1.
          2   -1    0    0  501    0  0.00000000000E+00 -0.00000000000E+00 -0.25171521372E+04  0.25171521372E+04  0.00000000000E+00 0. -1.
         24    2    1    2    0    0 -0.11536383130E+03 -0.26681142356E+03 -0.18494791044E+03  0.35404678828E+03  0.81524532472E+02 0.  0.
        254    2    1    2    0    0  0.11536383130E+03  0.26681142356E+03 -0.21482593187E+04  0.23470502570E+04  0.89951634733E+03 0.  0.
         23    2    4    4    0    0 -0.43719157929E+02 -0.31612563169E+03 -0.83960055129E+03  0.90279212305E+03  0.90872173594E+02 0.  0.
         23    2    4    4    0    0  0.15908298923E+03  0.58293705526E+03 -0.13086587675E+04  0.14442581340E+04  0.90392367306E+02 0.  0.
          4    1    3    3  502    0 -0.11641881820E+02 -0.37260602636E+02 -0.63168997331E+02  0.74257714380E+02  0.00000000000E+00 0. -1.
         -3    1    3    3    0  502 -0.10372194948E+03 -0.22955082093E+03 -0.12177891311E+03  0.27978907390E+03  0.00000000000E+00 0.  1.
         13    1    5    5    0    0 -0.13629884082E+02 -0.20720674403E+03 -0.42422969254E+03  0.47232535454E+03  0.00000000000E+00 0. -1.
        -13    1    5    5    0    0 -0.30089273847E+02 -0.10891888766E+03 -0.41537085875E+03  0.43046676851E+03  0.00000000000E+00 0.  1.
          1    1    6    6  503    0  0.15473871848E+03  0.58154227037E+03 -0.13078076658E+04  0.14396167455E+04  0.00000000000E+00 0. -1.
         -1    1    6    6    0  503  0.43442707478E+01  0.13947848883E+01 -0.85110170377E+00  0.46413885126E+01  0.00000000000E+00 0.  1.
<mgrwt>
<rscale>  0 0.13609075E+04</rscale>
<asrwt>0</asrwt>
<pdfrwt beam="1">  1        2 0.38725419E+00 0.13609075E+04</pdfrwt>
<pdfrwt beam="2">  1       -1 0.28299216E-01 0.13609075E+04</pdfrwt>
<totfact> 0.42925102E+01</totfact>
</mgrwt>
</event>
<event>
12    7  0.2426980E-007  0.1517361E+04  0.7818608E-02  0.8872990E-01
         -1   -1    0    0    0  501 -0.00000000000E+00  0.00000000000E+00  0.67202457324E+03  0.67202457324E+03  0.00000000000E+00 0.  1.
          2   -1    0    0  501    0  0.00000000000E+00 -0.00000000000E+00 -0.85651011615E+03  0.85651011615E+03  0.00000000000E+00 0. -1.
         24    2    1    2    0    0 -0.24820833518E+03  0.38977142711E+03 -0.21317752517E+03  0.51617077289E+03  0.86362413733E+02 0.  0.
        254    2    1    2    0    0  0.24820833518E+03 -0.38977142711E+03  0.28691982264E+02  0.10123639165E+04  0.90029346690E+03 0.  0.
         23    2    4    4    0    0 -0.18692606308E+03  0.16219218528E+03  0.13393466316E+03  0.29590220686E+03  0.91498437173E+02 0.  0.
         23    2    4    4    0    0  0.43513439826E+03 -0.55196361239E+03 -0.10524268090E+03  0.71646170964E+03  0.90750126955E+02 0.  0.
          2    1    3    3  502    0 -0.15607520442E+03  0.28877101643E+03 -0.18427931267E+03  0.37643994799E+03  0.00000000000E+00 0. -1.
         -1    1    3    3    0  502 -0.92133130769E+02  0.10100041068E+03 -0.28898212497E+02  0.13973082490E+03  0.00000000000E+00 0.  1.
         13    1    5    5    0    0 -0.48756188395E+02  0.78605072777E+02  0.88808196974E+02  0.12822955674E+03  0.00000000000E+00 0. -1.
        -13    1    5    5    0    0 -0.13816987468E+03  0.83587112505E+02  0.45126466188E+02  0.16767265012E+03  0.00000000000E+00 0.  1.
          4    1    6    6  503    0  0.14748912416E+03 -0.25902381695E+03 -0.39440259999E+02  0.30066910983E+03  0.00000000000E+00 0. -1.
         -4    1    6    6    0  503  0.28764527410E+03 -0.29293979544E+03 -0.65802420898E+02  0.41579259981E+03  0.00000000000E+00 0.  1.
<mgrwt>
<rscale>  0 0.15173607E+04</rscale>
<asrwt>0</asrwt>
<pdfrwt beam="1">  1        2 0.13177079E+00 0.15173607E+04</pdfrwt>
<pdfrwt beam="2">  1       -1 0.10338840E+00 0.15173607E+04</pdfrwt>
<totfact> 0.30541971E+01</totfact>
</mgrwt>
</event>
<event>
12    7  0.2426980E-007  0.1592416E+04  0.7818608E-02  0.8825221E-01
          2   -1    0    0  501    0  0.00000000000E+00  0.00000000000E+00  0.10303006652E+04  0.10303006652E+04  0.00000000000E+00 0. -1.
         -1   -1    0    0    0  501 -0.00000000000E+00 -0.00000000000E+00 -0.61530305755E+03  0.61530305755E+03  0.00000000000E+00 0.  1.
         24    2    1    2    0    0 -0.38576349239E+03  0.77123585043E+02 -0.23665601778E+03  0.46595463161E+03  0.79662591845E+02 0.  0.
        254    2    1    2    0    0  0.38576349239E+03 -0.77123585043E+02  0.65165362539E+03  0.11796490911E+04  0.90119809766E+03 0.  0.
         23    2    4    4    0    0 -0.16410144118E+02 -0.73984031412E+02 -0.20009273408E+03  0.23324145670E+03  0.92852275995E+02 0.  0.
         23    2    4    4    0    0  0.40217363650E+03 -0.31395536314E+01  0.85174635947E+03  0.94640763440E+03  0.91989449861E+02 0.  0.
          4    1    3    3  502    0 -0.25472342756E+01  0.30024604620E+01  0.53923558886E+01  0.66768760143E+01  0.00000000000E+00 0. -1.
         -3    1    3    3    0  502 -0.38321625811E+03  0.74121124581E+02 -0.24204837367E+03  0.45927775559E+03  0.00000000000E+00 0.  1.
         13    1    5    5    0    0 -0.35077237668E+02  0.89795815456E+00 -0.10538023121E+03  0.11106850166E+03  0.00000000000E+00 0. -1.
        -13    1    5    5    0    0  0.18667093551E+02 -0.74881989566E+02 -0.94712502876E+02  0.12217295504E+03  0.00000000000E+00 0.  1.
          3    1    6    6  503    0  0.34460463789E+03  0.59269897544E+01  0.64138063517E+03  0.72811853763E+03  0.00000000000E+00 0. -1.
         -3    1    6    6    0  503  0.57568998611E+02 -0.90665433858E+01  0.21036572430E+03  0.21828909677E+03  0.00000000000E+00 0.  1.
<mgrwt>
<rscale>  0 0.15924160E+04</rscale>
<asrwt>0</asrwt>
<pdfrwt beam="1">  1        2 0.15850779E+00 0.15924160E+04</pdfrwt>
<pdfrwt beam="2">  1       -1 0.94662009E-01 0.15924160E+04</pdfrwt>
<totfact> 0.28467623E+01</totfact>
</mgrwt>
</event>
<event>
12    7  0.2426980E-007  0.1582774E+04  0.7818608E-02  0.8831201E-01
         -1   -1    0    0    0  501 -0.00000000000E+00  0.00000000000E+00  0.30414970284E+03  0.30414970284E+03  0.00000000000E+00 0.  1.
          2   -1    0    0  501    0  0.00000000000E+00 -0.00000000000E+00 -0.20591623872E+04  0.20591623872E+04  0.00000000000E+00 0. -1.
         24    2    1    2    0    0 -0.24283549566E+03 -0.36801853317E+03 -0.15376009467E+03  0.47432144201E+03  0.83258302450E+02 0.  0.
        254    2    1    2    0    0  0.24283549566E+03  0.36801853317E+03 -0.16012525897E+04  0.18889906480E+04  0.89992727129E+03 0.  0.
         23    2    4    4    0    0  0.48243221198E+03  0.28982849843E+02 -0.12287817023E+04  0.13235850458E+04  0.91608169908E+02 0.  0.
         23    2    4    4    0    0 -0.23959671631E+03  0.33903568333E+03 -0.37247088740E+03  0.56540560224E+03  0.92720828526E+02 0.  0.
          2    1    3    3  502    0 -0.64944644913E+02 -0.15858932942E+03 -0.83843761712E+02  0.19078301467E+03  0.00000000000E+00 0. -1.
         -1    1    3    3    0  502 -0.17789085075E+03 -0.20942920376E+03 -0.69916332957E+02  0.28353842734E+03  0.00000000000E+00 0.  1.
         13    1    5    5    0    0  0.38977833043E+03  0.56913118340E+02 -0.10217738446E+04  0.10950744447E+04  0.00000000000E+00 0.  1.
        -13    1    5    5    0    0  0.92653881542E+02 -0.27930268498E+02 -0.20700785770E+03  0.22851060109E+03  0.00000000000E+00 0. -1.
          1    1    6    6  503    0  0.24187352133E+01  0.89336246202E+01 -0.31014162277E+02  0.32365694657E+02  0.00000000000E+00 0. -1.
         -1    1    6    6    0  503 -0.24201545153E+03  0.33010205871E+03 -0.34145672512E+03  0.53303990758E+03  0.00000000000E+00 0.  1.
<mgrwt>
<rscale>  0 0.15827743E+04</rscale>
<asrwt>0</asrwt>
<pdfrwt beam="1">  1        2 0.31679422E+00 0.15827743E+04</pdfrwt>
<pdfrwt beam="2">  1       -1 0.46792261E-01 0.15827743E+04</pdfrwt>
<totfact> 0.30836859E+01</totfact>
</mgrwt>
</event>
<event>
12    7  0.2426980E-007  0.1744393E+04  0.7818608E-02  0.8736443E-01
         -1   -1    0    0    0  501 -0.00000000000E+00  0.00000000000E+00  0.48147355965E+03  0.48147355965E+03  0.00000000000E+00 0.  1.
          2   -1    0    0  501    0  0.00000000000E+00 -0.00000000000E+00 -0.15799964424E+04  0.15799964424E+04  0.00000000000E+00 0. -1.
         24    2    1    2    0    0 -0.11862937000E+03  0.62249103217E+03 -0.47554691879E+03  0.79622390935E+03  0.79117819065E+02 0.  0.
        254    2    1    2    0    0  0.11862937000E+03 -0.62249103217E+03 -0.62297596394E+03  0.12652460927E+04  0.90065565610E+03 0.  0.
         23    2    4    4    0    0  0.29538522366E+03 -0.76329530339E+03 -0.34137503274E+03  0.89180910260E+03  0.94416163715E+02 0.  0.
         23    2    4    4    0    0 -0.17675585366E+03  0.14080427122E+03 -0.28160093121E+03  0.37343699009E+03  0.95329043384E+02 0.  0.
          4    1    3    3  502    0 -0.48559112704E+01  0.22343146272E+03 -0.17521755970E+03  0.28398308336E+03  0.00000000000E+00 0. -1.
         -3    1    3    3    0  502 -0.11377345873E+03  0.39905956944E+03 -0.30032935909E+03  0.51224082598E+03  0.00000000000E+00 0.  1.
         13    1    5    5    0    0  0.16935409797E+03 -0.31226181561E+03 -0.13450140406E+03  0.37984059773E+03  0.00000000000E+00 0. -1.
        -13    1    5    5    0    0  0.12603112570E+03 -0.45103348778E+03 -0.20687362868E+03  0.51196850487E+03  0.00000000000E+00 0.  1.
          4    1    6    6  503    0 -0.17700402524E+03  0.13670468097E+03 -0.22694216963E+03  0.31862414081E+03  0.00000000000E+00 0. -1.
         -4    1    6    6    0  503  0.24817157382E+00  0.40995902498E+01 -0.54658761572E+02  0.54812849278E+02  0.00000000000E+00 0.  1.
<mgrwt>
<rscale>  0 0.17443927E+04</rscale>
<asrwt>0</asrwt>
<pdfrwt beam="1">  1        2 0.24307638E+00 0.17443927E+04</pdfrwt>
<pdfrwt beam="2">  1       -1 0.74072854E-01 0.17443927E+04</pdfrwt>
<totfact> 0.22686020E+01</totfact>
</mgrwt>
</event>
<event>
12    7  0.2426980E-007  0.1958127E+04  0.7818608E-02  0.8626452E-01
          2   -1    0    0  501    0  0.00000000000E+00  0.00000000000E+00  0.21521179046E+04  0.21521179046E+04  0.00000000000E+00 0. -1.
         -1   -1    0    0    0  501 -0.00000000000E+00 -0.00000000000E+00 -0.44540553030E+03  0.44540553030E+03  0.00000000000E+00 0.  1.
         24    2    1    2    0    0  0.96619119085E+02  0.20572870630E+03 -0.30099357622E+03  0.38551953067E+03  0.79803639219E+02 0.  0.
        254    2    1    2    0    0 -0.96619119085E+02 -0.20572870630E+03  0.20077059506E+04  0.22120039043E+04  0.90023248876E+03 0.  0.
         23    2    4    4    0    0 -0.20835289238E+03 -0.52164369180E+03  0.10711815177E+04  0.12129113314E+04  0.90559290877E+02 0.  0.
         23    2    4    4    0    0  0.11173377330E+03  0.31591498550E+03  0.93652443289E+03  0.99909257283E+03  0.93921464687E+02 0.  0.
          2    1    3    3  502    0  0.10334723505E+02  0.65474287066E+02 -0.41555376451E+02  0.78233867914E+02  0.00000000000E+00 0. -1.
         -1    1    3    3    0  502  0.86284395580E+02  0.14025441923E+03 -0.25943819977E+03  0.30728566275E+03  0.00000000000E+00 0.  1.
         13    1    5    5    0    0  0.41021704941E+01 -0.19292476926E+02  0.17229024858E+02  0.26189058140E+02  0.00000000000E+00 0. -1.
        -13    1    5    5    0    0 -0.21245506288E+03 -0.50235121487E+03  0.10539524928E+04  0.11867222733E+04  0.00000000000E+00 0.  1.
          3    1    6    6  503    0  0.79113126628E+02  0.12796328996E+03  0.51268033437E+03  0.53429824596E+03  0.00000000000E+00 0. -1.
         -3    1    6    6    0  503  0.32620646671E+02  0.18795169554E+03  0.42384409852E+03  0.46479432688E+03  0.00000000000E+00 0.  1.
<mgrwt>
<rscale>  0 0.19581269E+04</rscale>
<asrwt>0</asrwt>
<pdfrwt beam="1">  1        2 0.33109506E+00 0.19581269E+04</pdfrwt>
<pdfrwt beam="2">  1       -1 0.68523929E-01 0.19581269E+04</pdfrwt>
<totfact> 0.12568757E+01</totfact>
</mgrwt>
</event>
<event>
12    7  0.2426980E-007  0.2005988E+04  0.7818608E-02  0.8603826E-01
         -1   -1    0    0    0  501 -0.00000000000E+00  0.00000000000E+00  0.73314022714E+03  0.73314022714E+03  0.00000000000E+00 0.  1.
          2   -1    0    0  501    0  0.00000000000E+00 -0.00000000000E+00 -0.13721758710E+04  0.13721758710E+04  0.00000000000E+00 0. -1.
         24    2    1    2    0    0 -0.35462907361E+03  0.70389371071E+03 -0.11955546292E+03  0.80118082484E+03  0.79806450563E+02 0.  0.
        254    2    1    2    0    0  0.35462907361E+03 -0.70389371071E+03 -0.51948018092E+03  0.13041352733E+04  0.89982276968E+03 0.  0.
         23    2    4    4    0    0  0.12436317441E+02 -0.16367075130E+03  0.24089516203E+03  0.30666262221E+03  0.95229763988E+02 0.  0.
         23    2    4    4    0    0  0.34219275617E+03 -0.54022295941E+03 -0.76037534295E+03  0.99747265108E+03  0.88568048584E+02 0.  0.
          4    1    3    3  502    0 -0.82820044877E+02  0.99296432991E+02 -0.17286776600E+02  0.13045219080E+03  0.00000000000E+00 0. -1.
         -3    1    3    3    0  502 -0.27180902873E+03  0.60459727772E+03 -0.10226868632E+03  0.67072863405E+03  0.00000000000E+00 0.  1.
         13    1    5    5    0    0 -0.15142389403E+02  0.69315939813E+00  0.18731672163E+01  0.15273545175E+02  0.00000000000E+00 0. -1.
        -13    1    5    5    0    0  0.27578706844E+02 -0.16436391069E+03  0.23902199482E+03  0.29138907703E+03  0.00000000000E+00 0.  1.
          3    1    6    6  503    0  0.14745146017E+03 -0.20100546861E+03 -0.23596050485E+03  0.34325280970E+03  0.00000000000E+00 0. -1.
         -3    1    6    6    0  503  0.19474129600E+03 -0.33921749080E+03 -0.52441483810E+03  0.65421984138E+03  0.00000000000E+00 0.  1.
<mgrwt>
<rscale>  0 0.20059884E+04</rscale>
<asrwt>0</asrwt>
<pdfrwt beam="1">  1        2 0.21110398E+00 0.20059884E+04</pdfrwt>
<pdfrwt beam="2">  1       -1 0.11279080E+00 0.20059884E+04</pdfrwt>
<totfact> 0.11425348E+01</totfact>
</mgrwt>
</event>
<event>
12    7  0.2426980E-007  0.2158008E+04  0.7818608E-02  0.8536112E-01
          2   -1    0    0  501    0  0.00000000000E+00  0.00000000000E+00  0.10192708806E+04  0.10192708806E+04  0.00000000000E+00 0. -1.
         -1   -1    0    0    0  501 -0.00000000000E+00 -0.00000000000E+00 -0.11422382056E+04  0.11422382056E+04  0.00000000000E+00 0.  1.
         24    2    1    2    0    0  0.43924937710E+02 -0.70258084513E+03 -0.59302901420E+03  0.92413454734E+03  0.82413626320E+02 0.  0.
        254    2    1    2    0    0 -0.43924937710E+02  0.70258084513E+03  0.47006168921E+03  0.12373745389E+04  0.90254557431E+03 0.  0.
         23    2    4    4    0    0 -0.34505602589E+03  0.32529293251E+03 -0.91332729778E+02  0.49134194057E+03  0.90532215776E+02 0.  0.
         23    2    4    4    0    0  0.30113108818E+03  0.37728791263E+03  0.56139441899E+03  0.74603259831E+03  0.91514167109E+02 0.  0.
          2    1    3    3  502    0 -0.12946469632E+01 -0.12028363388E+03 -0.64747511528E+02  0.13660918322E+03  0.00000000000E+00 0. -1.
         -1    1    3    3    0  502  0.45219584673E+02 -0.58229721125E+03 -0.52828150267E+03  0.78752536412E+03  0.00000000000E+00 0.  1.
         13    1    5    5    0    0 -0.27421680924E+03  0.20711008148E+03 -0.81689093896E+02  0.35321742933E+03  0.00000000000E+00 0.  1.
        -13    1    5    5    0    0 -0.70839216646E+02  0.11818285103E+03 -0.96436358824E+01  0.13812451124E+03  0.00000000000E+00 0. -1.
          4    1    6    6  503    0  0.31522748979E+02  0.98782736590E+02  0.12036921039E+03  0.15887246319E+03  0.00000000000E+00 0. -1.
         -4    1    6    6    0  503  0.26960833920E+03  0.27850517604E+03  0.44102520860E+03  0.58716013511E+03  0.00000000000E+00 0.  1.
<mgrwt>
<rscale>  0 0.21580085E+04</rscale>
<asrwt>0</asrwt>
<pdfrwt beam="1">  1        2 0.15681090E+00 0.21580085E+04</pdfrwt>
<pdfrwt beam="2">  1       -1 0.17572896E+00 0.21580085E+04</pdfrwt>
<totfact> 0.57222496E+00</totfact>
</mgrwt>
</event>
<event>
12    7  0.2426980E-007  0.1483225E+04  0.7818608E-02  0.8895685E-01
          2   -1    0    0  501    0  0.00000000000E+00  0.00000000000E+00  0.69023330060E+03  0.69023330060E+03  0.00000000000E+00 0. -1.
         -1   -1    0    0    0  501 -0.00000000000E+00 -0.00000000000E+00 -0.79681601224E+03  0.79681601224E+03  0.00000000000E+00 0.  1.
         24    2    1    2    0    0  0.12282485429E+03 -0.44679652280E+03 -0.19204366682E+02  0.47065061716E+03  0.80188017232E+02 0.  0.
        254    2    1    2    0    0 -0.12282485429E+03  0.44679652280E+03 -0.87378344961E+02  0.10163986957E+04  0.90039894258E+03 0.  0.
         23    2    4    4    0    0 -0.15210283974E+03  0.31326133484E+03  0.37839183777E+03  0.52212513254E+03  0.90367767320E+02 0.  0.
         23    2    4    4    0    0  0.29277985442E+02  0.13353518796E+03 -0.46577018273E+03  0.49427356315E+03  0.93143143878E+02 0.  0.
          4    1    3    3  502    0  0.23774918691E+02 -0.13751973636E+03  0.28426865005E+02  0.14242545876E+03  0.00000000000E+00 0. -1.
         -3    1    3    3    0  502  0.99049935602E+02 -0.30927678644E+03 -0.47631231687E+02  0.32822515840E+03  0.00000000000E+00 0.  1.
         13    1    5    5    0    0 -0.11644844812E+03  0.24529802256E+03  0.23334081143E+03  0.35802136140E+03  0.00000000000E+00 0. -1.
        -13    1    5    5    0    0 -0.35654391620E+02  0.67963312287E+02  0.14505102634E+03  0.16410377114E+03  0.00000000000E+00 0.  1.
          1    1    6    6  503    0  0.89646001253E+01  0.78729012093E+02 -0.39313824338E+03  0.40104401231E+03  0.00000000000E+00 0. -1.
         -1    1    6    6    0  503  0.20313385316E+02  0.54806175866E+02 -0.72631939354E+02  0.93229550843E+02  0.00000000000E+00 0.  1.
<mgrwt>
<rscale>  0 0.14832248E+04</rscale>
<asrwt>0</asrwt>
<pdfrwt beam="1">  1        2 0.10618974E+00 0.14832248E+04</pdfrwt>
<pdfrwt beam="2">  1       -1 0.12258708E+00 0.14832248E+04</pdfrwt>
<totfact> 0.27078831E+01</totfact>
</mgrwt>
</event>
<event>
12    7  0.2426980E-007  0.1493993E+04  0.7818608E-02  0.8888458E-01
          2   -1    0    0  501    0  0.00000000000E+00  0.00000000000E+00  0.58318943870E+03  0.58318943870E+03  0.00000000000E+00 0. -1.
         -1   -1    0    0    0  501 -0.00000000000E+00 -0.00000000000E+00 -0.95681334943E+03  0.95681334943E+03  0.00000000000E+00 0.  1.
         24    2    1    2    0    0 -0.14594345502E+03 -0.31421658109E+03 -0.45287920105E+03  0.57570982740E+03  0.79439805707E+02 0.  0.
        254    2    1    2    0    0  0.14594345502E+03  0.31421658109E+03  0.79255290317E+02  0.96429296073E+03  0.89640836742E+03 0.  0.
         23    2    4    4    0    0  0.43852286101E+03  0.22132886521E+03  0.29104954570E+03  0.57840727626E+03  0.92500664713E+02 0.  0.
         23    2    4    4    0    0 -0.29257940599E+03  0.92887715883E+02 -0.21179425538E+03  0.38588568447E+03  0.99096510004E+02 0.  0.
          4    1    3    3  502    0 -0.76510572346E+02 -0.16425792632E+03 -0.17207576162E+03  0.24988917899E+03  0.00000000000E+00 0. -1.
         -3    1    3    3    0  502 -0.69432882674E+02 -0.14995865477E+03 -0.28080343943E+03  0.32582064841E+03  0.00000000000E+00 0.  1.
         13    1    5    5    0    0  0.95451198254E+02  0.92000030345E+02  0.64581537670E+02  0.14746427309E+03  0.00000000000E+00 0.  1.
        -13    1    5    5    0    0  0.34307166276E+03  0.12932883486E+03  0.22646800803E+03  0.43094300316E+03  0.00000000000E+00 0. -1.
          2    1    6    6  503    0 -0.25079343420E+03  0.58426731115E+02 -0.20900039009E+03  0.33165070873E+03  0.00000000000E+00 0. -1.
         -2    1    6    6    0  503 -0.41785971794E+02  0.34460984769E+02 -0.27938652903E+01  0.54234975738E+02  0.00000000000E+00 0.  1.
<mgrwt>
<rscale>  0 0.14939926E+04</rscale>
<asrwt>0</asrwt>
<pdfrwt beam="1">  1        2 0.89721454E-01 0.14939926E+04</pdfrwt>
<pdfrwt beam="2">  1       -1 0.14720205E+00 0.14939926E+04</pdfrwt>
<totfact> 0.20811596E+01</totfact>
</mgrwt>
</event>
<event>
12    7  0.2426980E-007  0.3016796E+04  0.7818608E-02  0.8238951E-01
         -1   -1    0    0    0  501 -0.00000000000E+00  0.00000000000E+00  0.26865300717E+04  0.26865300717E+04  0.00000000000E+00 0.  1.
          2   -1    0    0  501    0  0.00000000000E+00 -0.00000000000E+00 -0.84691592503E+03  0.84691592503E+03  0.00000000000E+00 0. -1.
         24    2    1    2    0    0 -0.24781702229E+03 -0.80367153292E+03 -0.43229481477E+03  0.94908998803E+03  0.81189833915E+02 0.  0.
        254    2    1    2    0    0  0.24781702229E+03  0.80367153292E+03  0.22719089614E+04  0.25843560087E+04  0.90001357835E+03 0.  0.
         23    2    4    4    0    0  0.12629487725E+03 -0.16309162206E+03  0.24431077273E+03  0.33266879702E+03  0.91823208563E+02 0.  0.
         23    2    4    4    0    0  0.12152214503E+03  0.96676315499E+03  0.20275981887E+04  0.22516872116E+04  0.97684465292E+02 0.  0.
          2    1    3    3  502    0 -0.11405602950E+03 -0.42800248978E+03 -0.26867777635E+03  0.51805661528E+03  0.00000000000E+00 0. -1.
         -1    1    3    3    0  502 -0.13376099279E+03 -0.37566904314E+03 -0.16361703842E+03  0.43103337276E+03  0.00000000000E+00 0.  1.
         13    1    5    5    0    0  0.13098290138E+03 -0.17114808487E+03  0.22703276748E+03  0.31303684275E+03  0.00000000000E+00 0. -1.
        -13    1    5    5    0    0 -0.46880241312E+01  0.80564628020E+01  0.17278005243E+02  0.19631954267E+02  0.00000000000E+00 0.  1.
          1    1    6    6  503    0  0.36603254755E+02  0.65225604516E+03  0.13744089322E+04  0.15217679388E+04  0.00000000000E+00 0. -1.
         -1    1    6    6    0  503  0.84918890278E+02  0.31450710983E+03  0.65318925652E+03  0.72991927286E+03  0.00000000000E+00 0.  1.
<mgrwt>
<rscale>  0 0.30167964E+04</rscale>
<asrwt>0</asrwt>
<pdfrwt beam="1">  1        2 0.13029476E+00 0.30167964E+04</pdfrwt>
<pdfrwt beam="2">  1       -1 0.41331231E+00 0.30167964E+04</pdfrwt>
<totfact> 0.18004054E-01</totfact>
</mgrwt>
</event>
<event>
12    7  0.2426980E-007  0.1701813E+04  0.7818608E-02  0.8760331E-01
          2   -1    0    0  501    0  0.00000000000E+00  0.00000000000E+00  0.87217052326E+03  0.87217052326E+03  0.00000000000E+00 0. -1.
         -1   -1    0    0    0  501 -0.00000000000E+00 -0.00000000000E+00 -0.83016082506E+03  0.83016082506E+03  0.00000000000E+00 0.  1.
         24    2    1    2    0    0 -0.60504838371E+03  0.64412262127E+02 -0.21201522609E+02  0.61382817084E+03  0.78121908690E+02 0.  0.
        254    2    1    2    0    0  0.60504838371E+03 -0.64412262127E+02  0.63211220804E+02  0.10885031775E+04  0.90033939312E+03 0.  0.
         23    2    4    4    0    0  0.78087895285E+03 -0.18718095051E+03  0.17887333518E+03  0.82780465033E+03  0.91957717611E+02 0.  0.
         23    2    4    4    0    0 -0.17583056915E+03  0.12276868838E+03 -0.11566211438E+03  0.26069852714E+03  0.92722475483E+02 0.  0.
          2    1    3    3  502    0 -0.10070433723E+03  0.17213021383E+02  0.24995719711E+02  0.10517812341E+03  0.00000000000E+00 0. -1.
         -1    1    3    3    0  502 -0.50434404648E+03  0.47199240744E+02 -0.46197242320E+02  0.50865004743E+03  0.00000000000E+00 0.  1.
         13    1    5    5    0    0  0.46620589666E+03 -0.76515342330E+02  0.13509246826E+03  0.49137817480E+03  0.00000000000E+00 0. -1.
        -13    1    5    5    0    0  0.31467305619E+03 -0.11066560818E+03  0.43780866921E+02  0.33642647553E+03  0.00000000000E+00 0.  1.
          4    1    6    6  503    0 -0.18011591060E+03  0.11044809503E+03 -0.12422299704E+03  0.24509564652E+03  0.00000000000E+00 0. -1.
         -4    1    6    6    0  503  0.42853414554E+01  0.12320593353E+02  0.85608826625E+01  0.15602880629E+02  0.00000000000E+00 0.  1.
<mgrwt>
<rscale>  0 0.17018129E+04</rscale>
<asrwt>0</asrwt>
<pdfrwt beam="1">  1        2 0.13418008E+00 0.17018129E+04</pdfrwt>
<pdfrwt beam="2">  1       -1 0.12771705E+00 0.17018129E+04</pdfrwt>
<totfact> 0.17643802E+01</totfact>
</mgrwt>
</event>
<event>
12    7  0.2426980E-007  0.1093895E+04  0.7818608E-02  0.9211163E-01
         -1   -1    0    0    0  501 -0.00000000000E+00  0.00000000000E+00  0.37362476128E+03  0.37362476128E+03  0.00000000000E+00 0.  1.
          2   -1    0    0  501    0  0.00000000000E+00 -0.00000000000E+00 -0.80067310292E+03  0.80067310292E+03  0.00000000000E+00 0. -1.
         24    2    1    2    0    0  0.15676961895E+03  0.40784889788E+02 -0.60554285933E+02  0.19043962406E+03  0.79751540468E+02 0.  0.
        254    2    1    2    0    0 -0.15676961895E+03 -0.40784889788E+02 -0.36649405571E+03  0.98385824014E+03  0.89856497993E+03 0.  0.
         23    2    4    4    0    0 -0.61691016622E+02 -0.45080356726E+03 -0.28266230252E+03  0.54513111739E+03  0.10119446672E+03 0.  0.
         23    2    4    4    0    0 -0.95078602332E+02  0.41001867747E+03 -0.83831753190E+02  0.43872712275E+03  0.91095932398E+02 0.  0.
          4    1    3    3  502    0  0.48862297764E+02  0.11859241052E+02 -0.60573005970E+02  0.78722644730E+02  0.00000000000E+00 0. -1.
         -3    1    3    3    0  502  0.10790732119E+03  0.28925648737E+02  0.18720036316E-01  0.11171697933E+03  0.00000000000E+00 0.  1.
         13    1    5    5    0    0 -0.68176976722E+02 -0.41216600785E+03 -0.28525868421E+03  0.50586701326E+03  0.00000000000E+00 0. -1.
        -13    1    5    5    0    0  0.64859601000E+01 -0.38637559406E+02  0.25963816942E+01  0.39264104131E+02  0.00000000000E+00 0.  1.
          1    1    6    6  503    0 -0.72507362913E+02  0.15863155871E+03 -0.56919889023E+01  0.17450985025E+03  0.00000000000E+00 0.  1.
         -1    1    6    6    0  503 -0.22571239419E+02  0.25138711876E+03 -0.78139764288E+02  0.26421727250E+03  0.00000000000E+00 0. -1.
<mgrwt>
<rscale>  0 0.10938945E+04</rscale>
<asrwt>0</asrwt>
<pdfrwt beam="1">  1        2 0.12318048E+00 0.10938945E+04</pdfrwt>
<pdfrwt beam="2">  1       -1 0.57480733E-01 0.10938945E+04</pdfrwt>
<totfact> 0.11957302E+02</totfact>
</mgrwt>
</event>
<event>
12    7  0.2426980E-007  0.1560133E+04  0.7818608E-02  0.8845421E-01
          2   -1    0    0  501    0  0.00000000000E+00  0.00000000000E+00  0.22582917068E+04  0.22582917068E+04  0.00000000000E+00 0. -1.
         -1   -1    0    0    0  501 -0.00000000000E+00 -0.00000000000E+00 -0.26945320258E+03  0.26945320258E+03  0.00000000000E+00 0.  1.
         24    2    1    2    0    0  0.50615373428E+02  0.49556890881E+03  0.89164325702E+03  0.10244336996E+04  0.79285861149E+02 0.  0.
        254    2    1    2    0    0 -0.50615373428E+02 -0.49556890881E+03  0.10971952472E+04  0.15033112097E+04  0.89886412956E+03 0.  0.
         23    2    4    4    0    0 -0.10734193467E+03  0.90915556573E+02 -0.77079543023E+02  0.18611815875E+03  0.94396947496E+02 0.  0.
         23    2    4    4    0    0  0.56726561241E+02 -0.58648446539E+03  0.11742747902E+04  0.13171930510E+04  0.94309701113E+02 0.  0.
          2    1    3    3  502    0  0.18411393263E+02  0.83775583713E+02  0.21764518524E+03  0.23393750124E+03  0.00000000000E+00 0. -1.
         -1    1    3    3    0  502  0.32203980165E+02  0.41179332510E+03  0.67399807178E+03  0.79049619841E+03  0.00000000000E+00 0.  1.
         13    1    5    5    0    0 -0.72486789032E+02  0.10758078699E+03 -0.50411510167E+02  0.13917356312E+03  0.00000000000E+00 0.  1.
        -13    1    5    5    0    0 -0.34855145638E+02 -0.16665230417E+02 -0.26668032855E+02  0.46944595628E+02  0.00000000000E+00 0. -1.
          2    1    6    6  503    0  0.19736488996E+02 -0.43208870004E+02  0.14750740906E+03  0.15496764557E+03  0.00000000000E+00 0. -1.
         -2    1    6    6    0  503  0.36990072245E+02 -0.54327559538E+03  0.10267673812E+04  0.11622254054E+04  0.00000000000E+00 0.  1.
<mgrwt>
<rscale>  0 0.15601332E+04</rscale>
<asrwt>0</asrwt>
<pdfrwt beam="1">  1        2 0.34742948E+00 0.15601332E+04</pdfrwt>
<pdfrwt beam="2">  1       -1 0.41454340E-01 0.15601332E+04</pdfrwt>
<totfact> 0.29944630E+01</totfact>
</mgrwt>
</event>
<event>
12    7  0.2426980E-007  0.1418192E+04  0.7818608E-02  0.8940754E-01
          2   -1    0    0  501    0  0.00000000000E+00  0.00000000000E+00  0.75679166588E+03  0.75679166588E+03  0.00000000000E+00 0. -1.
         -1   -1    0    0    0  501 -0.00000000000E+00 -0.00000000000E+00 -0.66440670392E+03  0.66440670392E+03  0.00000000000E+00 0.  1.
         24    2    1    2    0    0 -0.92564750816E+02  0.23085579730E+03  0.36675147320E+03  0.44882473695E+03  0.71234606514E+02 0.  0.
        254    2    1    2    0    0  0.92564750816E+02 -0.23085579730E+03 -0.27436651124E+03  0.97237363285E+03  0.89909447064E+03 0.  0.
         23    2    4    4    0    0  0.43909625444E+02 -0.22350255163E+03 -0.59046660689E+03  0.63963719855E+03  0.92754978920E+02 0.  0.
         23    2    4    4    0    0  0.48655125372E+02 -0.73532456704E+01  0.31610009566E+03  0.33273643430E+03  0.91503403178E+02 0.  0.
          4    1    3    3  502    0 -0.61370531985E+02  0.11983962747E+03  0.25436911328E+03  0.28780466345E+03  0.00000000000E+00 0. -1.
         -3    1    3    3    0  502 -0.31194218831E+02  0.11101616983E+03  0.11238235992E+03  0.16102007351E+03  0.00000000000E+00 0.  1.
         13    1    5    5    0    0  0.59346177099E+01 -0.32260386521E+02 -0.24254148906E+02  0.40794803162E+02  0.00000000000E+00 0. -1.
        -13    1    5    5    0    0  0.37975007734E+02 -0.19124216511E+03 -0.56621245799E+03  0.59884239538E+03  0.00000000000E+00 0.  1.
          4    1    6    6  503    0  0.28220063140E+02  0.20335585872E+02  0.34327226456E+02  0.48869893519E+02  0.00000000000E+00 0. -1.
         -4    1    6    6    0  503  0.20435062232E+02 -0.27688831542E+02  0.28177286920E+03  0.28386654079E+03  0.00000000000E+00 0.  1.
<mgrwt>
<rscale>  0 0.14181924E+04</rscale>
<asrwt>0</asrwt>
<pdfrwt beam="1">  1        2 0.11642949E+00 0.14181924E+04</pdfrwt>
<pdfrwt beam="2">  1       -1 0.10221642E+00 0.14181924E+04</pdfrwt>
<totfact> 0.37294757E+01</totfact>
</mgrwt>
</event>
<event>
12    7  0.2426980E-007  0.1667137E+04  0.7818608E-02  0.8780332E-01
         -1   -1    0    0    0  501 -0.00000000000E+00  0.00000000000E+00  0.48803073936E+03  0.48803073936E+03  0.00000000000E+00 0.  1.
          2   -1    0    0  501    0  0.00000000000E+00 -0.00000000000E+00 -0.14237556883E+04  0.14237556883E+04  0.00000000000E+00 0. -1.
         24    2    1    2    0    0 -0.40266114420E+03  0.20711482475E+03 -0.76221088177E+03  0.89010226057E+03  0.79272052518E+02 0.  0.
        254    2    1    2    0    0  0.40266114420E+03 -0.20711482475E+03 -0.17351406717E+03  0.10216841671E+04  0.89927685285E+03 0.  0.
         23    2    4    4    0    0 -0.21684983294E+03 -0.46888292236E+02 -0.27799924104E+03  0.36710178387E+03  0.90872326383E+02 0.  0.
         23    2    4    4    0    0  0.61951097714E+03 -0.16022653252E+03  0.10448517387E+03  0.65458238321E+03  0.89969730092E+02 0.  0.
          2    1    3    3  502    0 -0.15935509301E+03  0.10432112741E+03 -0.38595029331E+03  0.43038886161E+03  0.00000000000E+00 0. -1.
         -1    1    3    3    0  502 -0.24330605119E+03  0.10279369735E+03 -0.37626058846E+03  0.45971339896E+03  0.00000000000E+00 0.  1.
         13    1    5    5    0    0 -0.15055572394E+03  0.11695782283E+02 -0.16680210625E+03  0.22500391104E+03  0.00000000000E+00 0. -1.
        -13    1    5    5    0    0 -0.66294109003E+02 -0.58584074519E+02 -0.11119713480E+03  0.14209787283E+03  0.00000000000E+00 0.  1.
          3    1    6    6  503    0  0.32326541114E+03 -0.12982392810E+03  0.59361766692E+02  0.35338166009E+03  0.00000000000E+00 0. -1.
         -3    1    6    6    0  503  0.29624556600E+03 -0.30402604414E+02  0.45123407183E+02  0.30120072312E+03  0.00000000000E+00 0.  1.
<mgrwt>
<rscale>  0 0.16671371E+04</rscale>
<asrwt>0</asrwt>
<pdfrwt beam="1">  1        2 0.21903933E+00 0.16671371E+04</pdfrwt>
<pdfrwt beam="2">  1       -1 0.75081653E-01 0.16671371E+04</pdfrwt>
<totfact> 0.27200880E+01</totfact>
</mgrwt>
</event>
<event>
12    7  0.2426980E-007  0.1663659E+04  0.7818608E-02  0.8782367E-01
          2   -1    0    0  501    0  0.00000000000E+00  0.00000000000E+00  0.63241551387E+03  0.63241551387E+03  0.00000000000E+00 0. -1.
         -3   -1    0    0    0  501 -0.00000000000E+00 -0.00000000000E+00 -0.10941225487E+04  0.10941225487E+04  0.00000000000E+00 0.  1.
         24    2    1    2    0    0  0.43583970082E+02  0.58458158711E+03 -0.17475273182E+03  0.61703574311E+03  0.80990101595E+02 0.  0.
        254    2    1    2    0    0 -0.43583970082E+02 -0.58458158711E+03 -0.28695430302E+03  0.11095023195E+04  0.89722763580E+03 0.  0.
         23    2    4    4    0    0 -0.43001034579E+03 -0.28233678835E+03 -0.31437725506E+03  0.61026236647E+03  0.94679131183E+02 0.  0.
         23    2    4    4    0    0  0.38642637571E+03 -0.30224479877E+03  0.27422952043E+02  0.49923995300E+03  0.88381277158E+02 0.  0.
          4    1    3    3  502    0  0.34721974716E+02  0.46624679150E+03 -0.10429735791E+03  0.47902987900E+03  0.00000000000E+00 0. -1.
         -3    1    3    3    0  502  0.88619953657E+01  0.11833479562E+03 -0.70455373910E+02  0.13800586411E+03  0.00000000000E+00 0.  1.
         13    1    5    5    0    0 -0.30145137437E+03 -0.24377876163E+03 -0.25089899529E+03  0.46179142648E+03  0.00000000000E+00 0. -1.
        -13    1    5    5    0    0 -0.12855897142E+03 -0.38558026716E+02 -0.63478259776E+02  0.14847093999E+03  0.00000000000E+00 0.  1.
          1    1    6    6  503    0  0.21313086339E+03 -0.11975484364E+03  0.37737586844E+02  0.24736635375E+03  0.00000000000E+00 0. -1.
         -1    1    6    6    0  503  0.17329551232E+03 -0.18248995513E+03 -0.10314634801E+02  0.25187359926E+03  0.00000000000E+00 0.  1.
<mgrwt>
<rscale>  0 0.16636587E+04</rscale>
<asrwt>0</asrwt>
<pdfrwt beam="1">  1        2 0.97294695E-01 0.16636587E+04</pdfrwt>
<pdfrwt beam="2">  1       -3 0.16832654E+00 0.16636587E+04</pdfrwt>
<totfact> 0.66224179E+00</totfact>
</mgrwt>
</event>
<event>
12    7  0.2426980E-007  0.1904473E+04  0.7818608E-02  0.8652633E-01
          2   -1    0    0  501    0  0.00000000000E+00  0.00000000000E+00  0.18178399137E+04  0.18178399137E+04  0.00000000000E+00 0. -1.
         -1   -1    0    0    0  501 -0.00000000000E+00 -0.00000000000E+00 -0.49880843137E+03  0.49880843137E+03  0.00000000000E+00 0.  1.
         24    2    1    2    0    0 -0.31570027502E+03  0.58006984495E+03  0.11640894133E+03  0.67559116080E+03  0.82004184442E+02 0.  0.
        254    2    1    2    0    0  0.31570027502E+03 -0.58006984495E+03  0.12026225410E+04  0.16410571843E+04  0.90034438814E+03 0.  0.
         23    2    4    4    0    0 -0.21581033026E+03 -0.27737480301E+03  0.99872855933E+02  0.37696152361E+03  0.92814454348E+02 0.  0.
         23    2    4    4    0    0  0.53151060529E+03 -0.30269504194E+03  0.11027496851E+04  0.12640956607E+04  0.88052026875E+02 0.  0.
          2    1    3    3  502    0 -0.48839640730E+02  0.10832110139E+03  0.52271877254E+02  0.12981186643E+03  0.00000000000E+00 0. -1.
         -1    1    3    3    0  502 -0.26686063429E+03  0.47174874355E+03  0.64137064073E+02  0.54577929437E+03  0.00000000000E+00 0.  1.
         13    1    5    5    0    0 -0.20271503322E+03 -0.21512129985E+03  0.10365567575E+03  0.31323323173E+03  0.00000000000E+00 0. -1.
        -13    1    5    5    0    0 -0.13095297041E+02 -0.62253503163E+02 -0.37828198149E+01  0.63728291883E+02  0.00000000000E+00 0.  1.
          4    1    6    6  503    0  0.44719232489E+03 -0.28723954924E+03  0.97014164920E+03  0.11061927290E+04  0.00000000000E+00 0. -1.
         -4    1    6    6    0  503  0.84318280392E+02 -0.15455492699E+02  0.13260803587E+03  0.15790293171E+03  0.00000000000E+00 0.  1.
<mgrwt>
<rscale>  0 0.19044725E+04</rscale>
<asrwt>0</asrwt>
<pdfrwt beam="1">  1        2 0.27966768E+00 0.19044725E+04</pdfrwt>
<pdfrwt beam="2">  1       -1 0.76739760E-01 0.19044725E+04</pdfrwt>
<totfact> 0.15321011E+01</totfact>
</mgrwt>
</event>
<event>
12    7  0.2426980E-007  0.2627494E+04  0.7818608E-02  0.8358922E-01
         -1   -1    0    0    0  501 -0.00000000000E+00  0.00000000000E+00  0.11144863295E+04  0.11144863295E+04  0.00000000000E+00 0.  1.
          2   -1    0    0  501    0  0.00000000000E+00 -0.00000000000E+00 -0.15486338635E+04  0.15486338635E+04  0.00000000000E+00 0. -1.
         24    2    1    2    0    0  0.10198528443E+04  0.45414296786E+03 -0.50507311996E+03  0.12279337269E+04  0.79854378430E+02 0.  0.
        254    2    1    2    0    0 -0.10198528443E+04 -0.45414296786E+03  0.70925586005E+02  0.14351864661E+04  0.89910182652E+03 0.  0.
         23    2    4    4    0    0 -0.10768278888E+04 -0.13521522943E+03 -0.52094614621E+01  0.10889671704E+04  0.89335879294E+02 0.  0.
         23    2    4    4    0    0  0.56975044421E+02 -0.31892773843E+03  0.76135047467E+02  0.34621929578E+03  0.95447353514E+02 0.  0.
          2    1    3    3  502    0  0.26465212935E+03  0.15360478674E+03 -0.12275246398E+03  0.32970190702E+03  0.00000000000E+00 0. -1.
         -1    1    3    3    0  502  0.75520071499E+03  0.30053818112E+03 -0.38232065598E+03  0.89823181987E+03  0.00000000000E+00 0.  1.
         13    1    5    5    0    0 -0.11591705899E+03 -0.14470636003E+02  0.27261740799E+02  0.11995568507E+03  0.00000000000E+00 0.  1.
        -13    1    5    5    0    0 -0.96091082978E+03 -0.12074459343E+03 -0.32471202261E+02  0.96901148528E+03  0.00000000000E+00 0. -1.
          2    1    6    6  503    0  0.31003292402E+02 -0.28961511722E+03  0.89706758721E+02  0.30477109906E+03  0.00000000000E+00 0. -1.
         -2    1    6    6    0  503  0.25971752019E+02 -0.29312621206E+02 -0.13571711254E+02  0.41448196719E+02  0.00000000000E+00 0.  1.
<mgrwt>
<rscale>  0 0.26274941E+04</rscale>
<asrwt>0</asrwt>
<pdfrwt beam="1">  1        2 0.23825136E+00 0.26274941E+04</pdfrwt>
<pdfrwt beam="2">  1       -1 0.17145944E+00 0.26274941E+04</pdfrwt>
<totfact> 0.28754269E+00</totfact>
</mgrwt>
</event>
<event>
12    7  0.2426980E-007  0.1759661E+04  0.7818608E-02  0.8728050E-01
         -1   -1    0    0    0  501 -0.00000000000E+00  0.00000000000E+00  0.10859480214E+04  0.10859480214E+04  0.00000000000E+00 0.  1.
          2   -1    0    0  501    0  0.00000000000E+00 -0.00000000000E+00 -0.71283488800E+03  0.71283488800E+03  0.00000000000E+00 0. -1.
         24    2    1    2    0    0 -0.62870764477E+03  0.11405386648E+03  0.37586674250E+02  0.64490888757E+03  0.78823398356E+02 0.  0.
        254    2    1    2    0    0  0.62870764477E+03 -0.11405386648E+03  0.33552645918E+03  0.11538740219E+04  0.90031420430E+03 0.  0.
         23    2    4    4    0    0  0.26222548556E+03  0.35041553008E+03 -0.37548868675E+02  0.44851363126E+03  0.90561089291E+02 0.  0.
         23    2    4    4    0    0  0.36648215921E+03 -0.46446939656E+03  0.37307532785E+03  0.70536039060E+03  0.91143222516E+02 0.  0.
          4    1    3    3  502    0 -0.39129653100E+03  0.82402315646E+02 -0.13096827706E+02  0.40009329373E+03  0.00000000000E+00 0. -1.
         -3    1    3    3    0  502 -0.23741111378E+03  0.31651550839E+02  0.50683501956E+02  0.24481559384E+03  0.00000000000E+00 0.  1.
         13    1    5    5    0    0  0.21413670045E+03  0.27561102558E+03  0.69127501242E+01  0.34908988816E+03  0.00000000000E+00 0. -1.
        -13    1    5    5    0    0  0.48088785105E+02  0.74804504501E+02 -0.44461618799E+02  0.99423743103E+02  0.00000000000E+00 0.  1.
          4    1    6    6  503    0  0.29130100025E+03 -0.33917943490E+03  0.23860464494E+03  0.50678510080E+03  0.00000000000E+00 0. -1.
         -4    1    6    6    0  503  0.75181158966E+02 -0.12528996166E+03  0.13447068291E+03  0.19857528980E+03  0.00000000000E+00 0.  1.
<mgrwt>
<rscale>  0 0.17596609E+04</rscale>
<asrwt>0</asrwt>
<pdfrwt beam="1">  1        2 0.10966691E+00 0.17596609E+04</pdfrwt>
<pdfrwt beam="2">  1       -1 0.16706893E+00 0.17596609E+04</pdfrwt>
<totfact> 0.11198407E+01</totfact>
</mgrwt>
</event>
<event>
12    7  0.2426980E-007  0.1418032E+04  0.7818608E-02  0.8940869E-01
          2   -1    0    0  501    0  0.00000000000E+00  0.00000000000E+00  0.74012641341E+03  0.74012641341E+03  0.00000000000E+00 0. -1.
         -1   -1    0    0    0  501 -0.00000000000E+00 -0.00000000000E+00 -0.67921306220E+03  0.67921306220E+03  0.00000000000E+00 0.  1.
         24    2    1    2    0    0  0.35212099121E+03 -0.56167512753E+02  0.23322750878E+03  0.43469288988E+03  0.86132779590E+02 0.  0.
        254    2    1    2    0    0 -0.35212099121E+03  0.56167512753E+02 -0.17231415758E+03  0.98464658572E+03  0.90149472984E+03 0.  0.
         23    2    4    4    0    0 -0.21394112321E+03 -0.22239868360E+03  0.28131792533E+03  0.42771448987E+03  0.92563119326E+02 0.  0.
         23    2    4    4    0    0 -0.13817986800E+03  0.27856619636E+03 -0.45363208291E+03  0.55693209585E+03  0.87741045562E+02 0.  0.
          2    1    3    3  502    0  0.15656676223E+03  0.16042669089E+02  0.84690206086E+02  0.17872590544E+03  0.00000000000E+00 0. -1.
         -1    1    3    3    0  502  0.19555422898E+03 -0.72210181842E+02  0.14853730270E+03  0.25596698445E+03  0.00000000000E+00 0.  1.
         13    1    5    5    0    0 -0.12449468646E+03 -0.12976106456E+03  0.10134316399E+03  0.20641535243E+03  0.00000000000E+00 0. -1.
        -13    1    5    5    0    0 -0.89446436752E+02 -0.92637619045E+02  0.17997476134E+03  0.22129913743E+03  0.00000000000E+00 0.  1.
          1    1    6    6  503    0 -0.37264041769E+02  0.16065413539E+03 -0.19588170346E+03  0.25606249584E+03  0.00000000000E+00 0. -1.
         -1    1    6    6    0  503 -0.10091582623E+03  0.11791206097E+03 -0.25775037945E+03  0.30086960001E+03  0.00000000000E+00 0.  1.
<mgrwt>
<rscale>  0 0.14180318E+04</rscale>
<asrwt>0</asrwt>
<pdfrwt beam="1">  1        2 0.11386560E+00 0.14180318E+04</pdfrwt>
<pdfrwt beam="2">  1       -1 0.10449432E+00 0.14180318E+04</pdfrwt>
<totfact> 0.36477729E+01</totfact>
</mgrwt>
</event>
<event>
12    7  0.2426980E-007  0.1840075E+04  0.7818608E-02  0.8685273E-01
         -1   -1    0    0    0  501 -0.00000000000E+00  0.00000000000E+00  0.88178327641E+03  0.88178327641E+03  0.00000000000E+00 0.  1.
          2   -1    0    0  501    0  0.00000000000E+00 -0.00000000000E+00 -0.95995169849E+03  0.95995169849E+03  0.00000000000E+00 0. -1.
         24    2    1    2    0    0 -0.64075944047E+03  0.24686365431E+03  0.92158014785E+02  0.69740844190E+03  0.79819238145E+02 0.  0.
        254    2    1    2    0    0  0.64075944047E+03 -0.24686365431E+03 -0.17032643687E+03  0.11443265330E+04  0.89942081066E+03 0.  0.
         23    2    4    4    0    0  0.74501031349E+03 -0.45780820604E+03 -0.13510845543E+03  0.88899390442E+03  0.86180894897E+02 0.  0.
         23    2    4    4    0    0 -0.10425087302E+03  0.21094455173E+03 -0.35217981437E+02  0.25533262858E+03  0.92674681376E+02 0.  0.
          2    1    3    3  502    0 -0.28598923082E+03  0.67915124391E+02  0.40218373608E+02  0.29668134731E+03  0.00000000000E+00 0. -1.
         -1    1    3    3    0  502 -0.35477020964E+03  0.17894852992E+03  0.51939641178E+02  0.40072709458E+03  0.00000000000E+00 0.  1.
         13    1    5    5    0    0  0.63727690806E+03 -0.35427137486E+03 -0.11757684682E+03  0.73854883352E+03  0.00000000000E+00 0. -1.
        -13    1    5    5    0    0  0.10773340543E+03 -0.10353683118E+03 -0.17531608607E+02  0.15044507090E+03  0.00000000000E+00 0.  1.
          1    1    6    6  503    0 -0.54060564735E+02  0.12881648558E+03 -0.65689760828E+02  0.15437414387E+03  0.00000000000E+00 0. -1.
         -1    1    6    6    0  503 -0.50190308286E+02  0.82128066151E+02  0.30471779391E+02  0.10095848471E+03  0.00000000000E+00 0.  1.
<mgrwt>
<rscale>  0 0.18400754E+04</rscale>
<asrwt>0</asrwt>
<pdfrwt beam="1">  1        2 0.14768488E+00 0.18400754E+04</pdfrwt>
<pdfrwt beam="2">  1       -1 0.13565896E+00 0.18400754E+04</pdfrwt>
<totfact> 0.13063988E+01</totfact>
</mgrwt>
</event>
<event>
12    7  0.2426980E-007  0.3300034E+04  0.7818608E-02  0.8162887E-01
          2   -1    0    0  501    0  0.00000000000E+00  0.00000000000E+00  0.20739709479E+04  0.20739709479E+04  0.00000000000E+00 0. -1.
         -1   -1    0    0    0  501 -0.00000000000E+00 -0.00000000000E+00 -0.13127264966E+04  0.13127264966E+04  0.00000000000E+00 0.  1.
         24    2    1    2    0    0 -0.76542661499E+03  0.13165464735E+04  0.24887758600E+03  0.15453351381E+04  0.83355361616E+02 0.  0.
        254    2    1    2    0    0  0.76542661499E+03 -0.13165464735E+04  0.51236686532E+03  0.18413623064E+04  0.89940136705E+03 0.  0.
         23    2    4    4    0    0  0.39023226816E+03 -0.40162346962E+03  0.62249740584E+03  0.84240435327E+03  0.92517239837E+02 0.  0.
         23    2    4    4    0    0  0.37519434683E+03 -0.91492300390E+03 -0.11013054051E+03  0.99895795318E+03  0.89069384780E+02 0.  0.
          4    1    3    3  502    0 -0.70717943010E+03  0.11970507184E+04  0.24867210283E+03  0.14123990171E+04  0.00000000000E+00 0. -1.
         -3    1    3    3    0  502 -0.58247184886E+02  0.11949575511E+03  0.20548317525E+00  0.13293612097E+03  0.00000000000E+00 0.  1.
         13    1    5    5    0    0  0.15788978869E+03 -0.10032122164E+03  0.20916740350E+03  0.28061456764E+03  0.00000000000E+00 0. -1.
        -13    1    5    5    0    0  0.23234247947E+03 -0.30130224798E+03  0.41333000234E+03  0.56178978563E+03  0.00000000000E+00 0.  1.
          2    1    6    6  503    0 -0.15915257879E+00 -0.24089338677E+02 -0.13091194030E+02  0.27417164853E+02  0.00000000000E+00 0. -1.
         -2    1    6    6    0  503  0.37535349941E+03 -0.89083366523E+03 -0.97039346484E+02  0.97154078833E+03  0.00000000000E+00 0.  1.
<mgrwt>
<rscale>  0 0.33000343E+04</rscale>
<asrwt>0</asrwt>
<pdfrwt beam="1">  1        2 0.31907246E+00 0.33000343E+04</pdfrwt>
<pdfrwt beam="2">  1       -1 0.20195792E+00 0.33000343E+04</pdfrwt>
<totfact> 0.84205084E-01</totfact>
</mgrwt>
</event>
<event>
12    7  0.2426980E-007  0.2084631E+04  0.7818608E-02  0.8568044E-01
          2   -1    0    0  501    0  0.00000000000E+00  0.00000000000E+00  0.15007614873E+04  0.15007614873E+04  0.00000000000E+00 0. -1.
         -1   -1    0    0    0  501 -0.00000000000E+00 -0.00000000000E+00 -0.72391352880E+03  0.72391352880E+03  0.00000000000E+00 0.  1.
         24    2    1    2    0    0 -0.43918301453E+03 -0.60386800325E+03 -0.10735125670E+03  0.75879475826E+03  0.81895709646E+02 0.  0.
        254    2    1    2    0    0  0.43918301453E+03  0.60386800325E+03  0.88419921522E+03  0.14658802579E+04  0.89969905669E+03 0.  0.
         23    2    4    4    0    0  0.42044269064E+03  0.44691706187E+02  0.77640701258E+03  0.88869793796E+03  0.90591230491E+02 0.  0.
         23    2    4    4    0    0  0.18740323887E+02  0.55917629706E+03  0.10779220265E+03  0.57718231991E+03  0.92146299601E+02 0.  0.
          4    1    3    3  502    0 -0.40971895696E+03 -0.52506482276E+03 -0.82659757001E+02  0.67111498807E+03  0.00000000000E+00 0. -1.
         -3    1    3    3    0  502 -0.29464057574E+02 -0.78803180485E+02 -0.24691499697E+02  0.87679770190E+02  0.00000000000E+00 0.  1.
         13    1    5    5    0    0  0.36717828322E+03  0.42477121818E+02  0.60290659081E+03  0.70719202116E+03  0.00000000000E+00 0. -1.
        -13    1    5    5    0    0  0.53264407425E+02  0.22145843690E+01  0.17350042176E+03  0.18150591680E+03  0.00000000000E+00 0.  1.
          4    1    6    6  503    0 -0.32443862359E+02  0.25794827805E+03  0.70495471702E+02  0.26936876189E+03  0.00000000000E+00 0. -1.
         -4    1    6    6    0  503  0.51184186246E+02  0.30122801901E+03  0.37296730947E+02  0.30781355801E+03  0.00000000000E+00 0.  1.
<mgrwt>
<rscale>  0 0.20846309E+04</rscale>
<asrwt>0</asrwt>
<pdfrwt beam="1">  1        2 0.23088638E+00 0.20846309E+04</pdfrwt>
<pdfrwt beam="2">  1       -1 0.11137131E+00 0.20846309E+04</pdfrwt>
<totfact> 0.98795516E+00</totfact>
</mgrwt>
</event>
<event>
12    7  0.2426980E-007  0.1508022E+04  0.7818608E-02  0.8879136E-01
         -1   -1    0    0    0  501 -0.00000000000E+00  0.00000000000E+00  0.25158026085E+03  0.25158026085E+03  0.00000000000E+00 0.  1.
          2   -1    0    0  501    0  0.00000000000E+00 -0.00000000000E+00 -0.22598462856E+04  0.22598462856E+04  0.00000000000E+00 0. -1.
         24    2    1    2    0    0  0.11893205688E+03 -0.43458291178E+03 -0.91261922613E+03  0.10209332095E+04  0.80147520297E+02 0.  0.
        254    2    1    2    0    0 -0.11893205688E+03  0.43458291178E+03 -0.10956467987E+04  0.14904933370E+04  0.90450060188E+03 0.  0.
         23    2    4    4    0    0  0.42280478523E+02 -0.26376676513E+03 -0.38291792610E+03  0.47565584836E+03  0.90894459106E+02 0.  0.
         23    2    4    4    0    0 -0.16121253541E+03  0.69834967690E+03 -0.71272887256E+03  0.10148374886E+04  0.90724471471E+02 0.  0.
          4    1    3    3  502    0  0.28290676041E+02 -0.11550795890E+03 -0.32622366711E+03  0.34722374905E+03  0.00000000000E+00 0. -1.
         -3    1    3    3    0  502  0.90641380841E+02 -0.31907495288E+03 -0.58639555902E+03  0.67370946046E+03  0.00000000000E+00 0.  1.
         13    1    5    5    0    0 -0.10034069001E+01 -0.13729860404E+03 -0.12748541993E+03  0.18736180452E+03  0.00000000000E+00 0. -1.
        -13    1    5    5    0    0  0.43283885424E+02 -0.12646816109E+03 -0.25543250617E+03  0.28829404384E+03  0.00000000000E+00 0.  1.
          2    1    6    6  503    0 -0.67442157977E+02  0.19208051924E+03 -0.25164071800E+03  0.32367641480E+03  0.00000000000E+00 0. -1.
         -2    1    6    6    0  503 -0.93770377429E+02  0.50626915766E+03 -0.46108815456E+03  0.69116107382E+03  0.00000000000E+00 0.  1.
<mgrwt>
<rscale>  0 0.15080222E+04</rscale>
<asrwt>0</asrwt>
<pdfrwt beam="1">  1        2 0.34766865E+00 0.15080222E+04</pdfrwt>
<pdfrwt beam="2">  1       -1 0.38704656E-01 0.15080222E+04</pdfrwt>
<totfact> 0.34032840E+01</totfact>
</mgrwt>
</event>
<event>
12    7  0.2426980E-007  0.1772280E+04  0.7818608E-02  0.8721181E-01
         -1   -1    0    0    0  501 -0.00000000000E+00  0.00000000000E+00  0.49246262385E+03  0.49246262385E+03  0.00000000000E+00 0.  1.
          2   -1    0    0  501    0  0.00000000000E+00 -0.00000000000E+00 -0.15945250843E+04  0.15945250843E+04  0.00000000000E+00 0. -1.
         24    2    1    2    0    0 -0.41285818867E+03 -0.50284410545E+03 -0.49951432099E+03  0.82424909986E+03  0.81042849230E+02 0.  0.
        254    2    1    2    0    0  0.41285818867E+03  0.50284410545E+03 -0.60254813944E+03  0.12627386083E+04  0.89896632537E+03 0.  0.
         23    2    4    4    0    0  0.28053433477E+03  0.44062038240E+03 -0.82487699959E+03  0.98059043373E+03  0.91047789189E+02 0.  0.
         23    2    4    4    0    0  0.13232385391E+03  0.62223723052E+02  0.22232886015E+03  0.28214817454E+03  0.93787399573E+02 0.  0.
          4    1    3    3  502    0 -0.13758655498E+03 -0.12388458618E+03 -0.17206939595E+03  0.25275547042E+03  0.00000000000E+00 0. -1.
         -3    1    3    3    0  502 -0.27527163369E+03 -0.37895951927E+03 -0.32744492504E+03  0.57149362944E+03  0.00000000000E+00 0.  1.
         13    1    5    5    0    0  0.10669613231E+03  0.10244656908E+03 -0.19355163696E+03  0.24360131431E+03  0.00000000000E+00 0. -1.
        -13    1    5    5    0    0  0.17383820246E+03  0.33817381332E+03 -0.63132536263E+03  0.73698911942E+03  0.00000000000E+00 0.  1.
          2    1    6    6  503    0  0.41827771005E+02 -0.13649516378E+02  0.11281192957E+03  0.12108841059E+03  0.00000000000E+00 0. -1.
         -2    1    6    6    0  503  0.90496082903E+02  0.75873239430E+02  0.10951693058E+03  0.16105976396E+03  0.00000000000E+00 0.  1.
<mgrwt>
<rscale>  0 0.17722799E+04</rscale>
<asrwt>0</asrwt>
<pdfrwt beam="1">  1        2 0.24531155E+00 0.17722799E+04</pdfrwt>
<pdfrwt beam="2">  1       -1 0.75763481E-01 0.17722799E+04</pdfrwt>
<totfact> 0.21189152E+01</totfact>
</mgrwt>
</event>
<event>
12    7  0.2426980E-007  0.1580703E+04  0.7818608E-02  0.8832491E-01
          2   -1    0    0  501    0  0.00000000000E+00  0.00000000000E+00  0.44917893007E+03  0.44917893007E+03  0.00000000000E+00 0. -1.
         -1   -1    0    0    0  501 -0.00000000000E+00 -0.00000000000E+00 -0.13906603807E+04  0.13906603807E+04  0.00000000000E+00 0.  1.
         24    2    1    2    0    0  0.18759677203E+03 -0.46602766296E+03 -0.12220096623E+03  0.52313830864E+03  0.79788986102E+02 0.  0.
        254    2    1    2    0    0 -0.18759677203E+03  0.46602766296E+03 -0.81928048444E+03  0.13167010022E+04  0.90005926772E+03 0.  0.
         23    2    4    4    0    0 -0.44598318092E+03  0.55856228714E+03 -0.45716149251E+03  0.85331808304E+03  0.90897163438E+02 0.  0.
         23    2    4    4    0    0  0.25838640888E+03 -0.92534624185E+02 -0.36211899192E+03  0.46338291913E+03  0.90925092582E+02 0.  0.
          4    1    3    3  502    0  0.34005163728E+02 -0.49168917781E+02  0.77144092003E+01  0.60278070185E+02  0.00000000000E+00 0. -1.
         -3    1    3    3    0  502  0.15359160831E+03 -0.41685874518E+03 -0.12991537543E+03  0.46286023846E+03  0.00000000000E+00 0.  1.
         13    1    5    5    0    0 -0.43271988994E+03  0.51230157674E+03 -0.44075450361E+03  0.80247363891E+03  0.00000000000E+00 0.  1.
        -13    1    5    5    0    0 -0.13263290975E+02  0.46260710400E+02 -0.16406988904E+02  0.50844444132E+02  0.00000000000E+00 0. -1.
          1    1    6    6  503    0  0.69165669188E+02 -0.43610228996E+02 -0.17333343915E+03  0.19165130575E+03  0.00000000000E+00 0. -1.
         -1    1    6    6    0  503  0.18922073970E+03 -0.48924395190E+02 -0.18878555278E+03  0.27173161339E+03  0.00000000000E+00 0.  1.
<mgrwt>
<rscale>  0 0.15807028E+04</rscale>
<asrwt>0</asrwt>
<pdfrwt beam="1">  1        2 0.69104453E-01 0.15807028E+04</pdfrwt>
<pdfrwt beam="2">  1       -1 0.21394775E+00 0.15807028E+04</pdfrwt>
<totfact> 0.92500852E+00</totfact>
</mgrwt>
</event>
<event>
12    7  0.2426980E-007  0.2433962E+04  0.7818608E-02  0.8426897E-01
         -1   -1    0    0    0  501 -0.00000000000E+00  0.00000000000E+00  0.71087307243E+03  0.71087307243E+03  0.00000000000E+00 0.  1.
          2   -1    0    0  501    0  0.00000000000E+00 -0.00000000000E+00 -0.20834138061E+04  0.20834138061E+04  0.00000000000E+00 0. -1.
         24    2    1    2    0    0  0.59871691227E+03  0.83152358818E+03 -0.33510074979E+03  0.10810357780E+04  0.80326969417E+02 0.  0.
        254    2    1    2    0    0 -0.59871691227E+03 -0.83152358818E+03 -0.10374399839E+04  0.17132511005E+04  0.89947439910E+03 0.  0.
         23    2    4    4    0    0 -0.63983250901E+02 -0.58219585350E+03 -0.99324298979E+02  0.60147478771E+03  0.94131480643E+02 0.  0.
         23    2    4    4    0    0 -0.53473366137E+03 -0.24932773468E+03 -0.93811568488E+03  0.11117763128E+04  0.88775693018E+02 0.  0.
          4    1    3    3  502    0  0.44447022787E+03  0.56722557709E+03 -0.25843028464E+03  0.76556178770E+03  0.00000000000E+00 0. -1.
         -3    1    3    3    0  502  0.15424668440E+03  0.26429801109E+03 -0.76670465151E+02  0.31547399027E+03  0.00000000000E+00 0.  1.
         13    1    5    5    0    0 -0.20206309110E+02 -0.67693485596E+02  0.15903405609E+02  0.72412852657E+02  0.00000000000E+00 0. -1.
        -13    1    5    5    0    0 -0.43776941790E+02 -0.51450236791E+03 -0.11522770459E+03  0.52906193505E+03  0.00000000000E+00 0.  1.
          4    1    6    6  503    0 -0.45512310352E+03 -0.17595750900E+03 -0.78358912595E+03  0.92309804606E+03  0.00000000000E+00 0.  1.
         -4    1    6    6    0  503 -0.79610557849E+02 -0.73370225675E+02 -0.15452655893E+03  0.18867826677E+03  0.00000000000E+00 0. -1.
<mgrwt>
<rscale>  0 0.24339620E+04</rscale>
<asrwt>0</asrwt>
<pdfrwt beam="1">  1        2 0.32052521E+00 0.24339620E+04</pdfrwt>
<pdfrwt beam="2">  1       -1 0.10936509E+00 0.24339620E+04</pdfrwt>
<totfact> 0.47382342E+00</totfact>
</mgrwt>
</event>
<event>
12    7  0.2426980E-007  0.2774717E+04  0.7818608E-02  0.8311161E-01
          2   -1    0    0  501    0  0.00000000000E+00  0.00000000000E+00  0.19233869899E+04  0.19233869899E+04  0.00000000000E+00 0. -1.
         -1   -1    0    0    0  501 -0.00000000000E+00 -0.00000000000E+00 -0.10007154630E+04  0.10007154630E+04  0.00000000000E+00 0.  1.
         24    2    1    2    0    0  0.12238582292E+04 -0.14140301878E+03  0.56394139977E+03  0.13572694323E+04  0.79540119474E+02 0.  0.
        254    2    1    2    0    0 -0.12238582292E+04  0.14140301878E+03  0.35873012714E+03  0.15668330207E+04  0.89914105226E+03 0.  0.
         23    2    4    4    0    0 -0.85332561936E+03  0.19961115573E+03 -0.18626387411E+03  0.90019577418E+03  0.87458418136E+02 0.  0.
         23    2    4    4    0    0 -0.37053260980E+03 -0.58208136950E+02  0.54499400125E+03  0.66663724652E+03  0.81878904053E+02 0.  0.
          4    1    3    3  502    0  0.78484780038E+03 -0.11013145810E+03  0.39845434393E+03  0.88706305977E+03  0.00000000000E+00 0. -1.
         -3    1    3    3    0  502  0.43901042878E+03 -0.31271560676E+02  0.16548705584E+03  0.47020637250E+03  0.00000000000E+00 0.  1.
         13    1    5    5    0    0 -0.71030689536E+03  0.13692784593E+03 -0.13523349600E+03  0.73591658429E+03  0.00000000000E+00 0. -1.
        -13    1    5    5    0    0 -0.14301872400E+03  0.62683309796E+02 -0.51030378108E+02  0.16427918989E+03  0.00000000000E+00 0.  1.
          2    1    6    6  503    0 -0.29327379260E+03 -0.75672054614E+02  0.45687018668E+03  0.54814792233E+03  0.00000000000E+00 0. -1.
         -2    1    6    6    0  503 -0.77258817195E+02  0.17463917664E+02  0.88123814568E+02  0.11848932420E+03  0.00000000000E+00 0.  1.
<mgrwt>
<rscale>  0 0.27747166E+04</rscale>
<asrwt>0</asrwt>
<pdfrwt beam="1">  1        2 0.29590569E+00 0.27747166E+04</pdfrwt>
<pdfrwt beam="2">  1       -1 0.15395622E+00 0.27747166E+04</pdfrwt>
<totfact> 0.23769157E+00</totfact>
</mgrwt>
</event>
<event>
12    7  0.2426980E-007  0.3237380E+04  0.7818608E-02  0.8179015E-01
          2   -1    0    0  501    0  0.00000000000E+00  0.00000000000E+00  0.41739079263E+04  0.41739079263E+04  0.00000000000E+00 0. -1.
         -1   -1    0    0    0  501 -0.00000000000E+00 -0.00000000000E+00 -0.62774660952E+03  0.62774660952E+03  0.00000000000E+00 0.  1.
         24    2    1    2    0    0  0.11626742264E+04 -0.86708414806E+03  0.11159447594E+04  0.18317452434E+04  0.79445920220E+02 0.  0.
        254    2    1    2    0    0 -0.11626742264E+04  0.86708414806E+03  0.24302165574E+04  0.29699092924E+04  0.90042346294E+03 0.  0.
         23    2    4    4    0    0 -0.94689170373E+03  0.91883597065E+03  0.14574023356E+04  0.19678590159E+04  0.87086734987E+02 0.  0.
         23    2    4    4    0    0 -0.21578252268E+03 -0.51751822590E+02  0.97281422180E+03  0.10020502764E+04  0.92178620536E+02 0.  0.
          2    1    3    3  502    0  0.71041467094E+03 -0.56961048657E+03  0.72671897052E+03  0.11650174133E+04  0.00000000000E+00 0. -1.
         -1    1    3    3    0  502  0.45225955547E+03 -0.29747366149E+03  0.38922578889E+03  0.66672783018E+03  0.00000000000E+00 0.  1.
         13    1    5    5    0    0 -0.46390214999E+03  0.42951226714E+03  0.63738896398E+03  0.89774756128E+03  0.00000000000E+00 0. -1.
        -13    1    5    5    0    0 -0.48298955375E+03  0.48932370351E+03  0.82001337158E+03  0.10701114547E+04  0.00000000000E+00 0.  1.
          2    1    6    6  503    0 -0.22195499466E+03 -0.46174125057E+02  0.96229286485E+03  0.98863725765E+03  0.00000000000E+00 0. -1.
         -2    1    6    6    0  503  0.61724719792E+01 -0.55776975335E+01  0.10521356945E+02  0.13413018753E+02  0.00000000000E+00 0.  1.
<mgrwt>
<rscale>  0 0.32373795E+04</rscale>
<asrwt>0</asrwt>
<pdfrwt beam="1">  1        2 0.64213966E+00 0.32373795E+04</pdfrwt>
<pdfrwt beam="2">  1       -1 0.96576404E-01 0.32373795E+04</pdfrwt>
<totfact> 0.24035305E-01</totfact>
</mgrwt>
</event>
<event>
12    7  0.2426980E-007  0.1970352E+04  0.7818608E-02  0.8620609E-01
         -1   -1    0    0    0  501 -0.00000000000E+00  0.00000000000E+00  0.38067642932E+03  0.38067642932E+03  0.00000000000E+00 0.  1.
          2   -1    0    0  501    0  0.00000000000E+00 -0.00000000000E+00 -0.25495964175E+04  0.25495964175E+04  0.00000000000E+00 0. -1.
         24    2    1    2    0    0 -0.30200361538E+03 -0.66492565090E+03 -0.46057804159E+03  0.86705671198E+03  0.79516693077E+02 0.  0.
        254    2    1    2    0    0  0.30200361538E+03  0.66492565090E+03 -0.17083419466E+04  0.20632161349E+04  0.89727159081E+03 0.  0.
         23    2    4    4    0    0  0.29518353468E+03  0.87359780992E+03 -0.14142837416E+04  0.16908930537E+04  0.92813602209E+02 0.  0.
         23    2    4    4    0    0  0.68200806971E+01 -0.20867215902E+03 -0.29405820503E+03  0.37232308114E+03  0.92540074317E+02 0.  0.
          2    1    3    3  502    0 -0.14499068902E+03 -0.39133316203E+03 -0.23180295843E+03  0.47738512246E+03  0.00000000000E+00 0. -1.
         -1    1    3    3    0  502 -0.15701292636E+03 -0.27359248886E+03 -0.22877508317E+03  0.38967158953E+03  0.00000000000E+00 0.  1.
         13    1    5    5    0    0  0.13538813585E+02  0.44940553476E+02 -0.40443305752E+02  0.61956547678E+02  0.00000000000E+00 0. -1.
        -13    1    5    5    0    0  0.28164472109E+03  0.82865725644E+03 -0.13738404358E+04  0.16289365061E+04  0.00000000000E+00 0.  1.
          3    1    6    6  503    0  0.16166180259E+02 -0.24541309247E+02 -0.55048805161E+01  0.29898577779E+02  0.00000000000E+00 0. -1.
         -3    1    6    6    0  503 -0.93460995620E+01 -0.18413084978E+03 -0.28855332451E+03  0.34242450337E+03  0.00000000000E+00 0.  1.
<mgrwt>
<rscale>  0 0.19703515E+04</rscale>
<asrwt>0</asrwt>
<pdfrwt beam="1">  1        2 0.39224562E+00 0.19703515E+04</pdfrwt>
<pdfrwt beam="2">  1       -1 0.58565602E-01 0.19703515E+04</pdfrwt>
<totfact> 0.10210418E+01</totfact>
</mgrwt>
</event>
<event>
12    7  0.2426980E-007  0.1925613E+04  0.7818608E-02  0.8642211E-01
          2   -1    0    0  501    0  0.00000000000E+00  0.00000000000E+00  0.93738679146E+03  0.93738679146E+03  0.00000000000E+00 0. -1.
         -1   -1    0    0    0  501 -0.00000000000E+00 -0.00000000000E+00 -0.98891508893E+03  0.98891508893E+03  0.00000000000E+00 0.  1.
         24    2    1    2    0    0 -0.67787740383E+03 -0.27960426420E+03 -0.17564208290E+03  0.75821351404E+03  0.79632106661E+02 0.  0.
        254    2    1    2    0    0  0.67787740383E+03  0.27960426420E+03  0.12411378542E+03  0.11680883664E+04  0.90073851960E+03 0.  0.
         23    2    4    4    0    0  0.74633780268E+03  0.22061115272E+03  0.38773580308E+03  0.87481933419E+03  0.96334926557E+02 0.  0.
         23    2    4    4    0    0 -0.68460398852E+02  0.58993111475E+02 -0.26362201766E+03  0.29326903216E+03  0.91340810246E+02 0.  0.
          2    1    3    3  502    0 -0.59018276238E+03 -0.21926026530E+03 -0.13270357864E+03  0.64342909223E+03  0.00000000000E+00 0. -1.
         -1    1    3    3    0  502 -0.87694641448E+02 -0.60343998894E+02 -0.42938504258E+02  0.11478442181E+03  0.00000000000E+00 0.  1.
         13    1    5    5    0    0  0.20624127054E+03  0.10663523235E+03  0.11833905207E+03  0.26059674920E+03  0.00000000000E+00 0.  1.
        -13    1    5    5    0    0  0.54009653214E+03  0.11397592038E+03  0.26939675101E+03  0.61422258499E+03  0.00000000000E+00 0. -1.
          4    1    6    6  503    0 -0.32523259166E+02  0.69760784107E+01 -0.14564224018E+02  0.36311770516E+02  0.00000000000E+00 0. -1.
         -4    1    6    6    0  503 -0.35937139686E+02  0.52017033064E+02 -0.24905779364E+03  0.25695726164E+03  0.00000000000E+00 0.  1.
<mgrwt>
<rscale>  0 0.19256126E+04</rscale>
<asrwt>0</asrwt>
<pdfrwt beam="1">  1        2 0.14421335E+00 0.19256126E+04</pdfrwt>
<pdfrwt beam="2">  1       -1 0.15214078E+00 0.19256126E+04</pdfrwt>
<totfact> 0.99101323E+00</totfact>
</mgrwt>
</event>
<event>
12    7  0.2426980E-007  0.1690659E+04  0.7818608E-02  0.8766710E-01
          2   -1    0    0  501    0  0.00000000000E+00  0.00000000000E+00  0.28718226563E+04  0.28718226563E+04  0.00000000000E+00 0. -1.
         -1   -1    0    0    0  501 -0.00000000000E+00 -0.00000000000E+00 -0.24882519429E+03  0.24882519429E+03  0.00000000000E+00 0.  1.
         24    2    1    2    0    0  0.50963783954E+03 -0.28166497614E+03  0.12327705575E+04  0.13657757234E+04  0.80957970122E+02 0.  0.
        254    2    1    2    0    0 -0.50963783954E+03  0.28166497614E+03  0.13902269045E+04  0.17548721271E+04  0.89876551470E+03 0.  0.
         23    2    4    4    0    0 -0.35427117330E+03 -0.29203853932E+03  0.55962902938E+03  0.72945838701E+03  0.90168260377E+02 0.  0.
         23    2    4    4    0    0 -0.15536666624E+03  0.57370351546E+03  0.83059787510E+03  0.10254137401E+04  0.91137169685E+02 0.  0.
          4    1    3    3  502    0  0.13580686084E+03 -0.11324659934E+03  0.33490572242E+03  0.37872171659E+03  0.00000000000E+00 0. -1.
         -3    1    3    3    0  502  0.37383097870E+03 -0.16841837681E+03  0.89786483509E+03  0.98705400682E+03  0.00000000000E+00 0.  1.
         13    1    5    5    0    0 -0.26121640049E+02 -0.30759480728E+02  0.96558111120E+02  0.10465158650E+03  0.00000000000E+00 0.  1.
        -13    1    5    5    0    0 -0.32814953325E+03 -0.26127905859E+03  0.46307091826E+03  0.62480680052E+03  0.00000000000E+00 0. -1.
          1    1    6    6  503    0 -0.16641676220E+03  0.50481850460E+03  0.73246652358E+03  0.90501020408E+03  0.00000000000E+00 0. -1.
         -1    1    6    6    0  503  0.11050095958E+02  0.68885010865E+02  0.98131351513E+02  0.12040353605E+03  0.00000000000E+00 0.  1.
<mgrwt>
<rscale>  0 0.16906588E+04</rscale>
<asrwt>0</asrwt>
<pdfrwt beam="1">  1        2 0.44181885E+00 0.16906588E+04</pdfrwt>
<pdfrwt beam="2">  1       -1 0.38280801E-01 0.16906588E+04</pdfrwt>
<totfact> 0.15020107E+01</totfact>
</mgrwt>
</event>
<event>
12    7  0.2426980E-007  0.1547373E+04  0.7818608E-02  0.8853548E-01
         -1   -1    0    0    0  501 -0.00000000000E+00  0.00000000000E+00  0.16154532464E+04  0.16154532464E+04  0.00000000000E+00 0.  1.
          2   -1    0    0  501    0  0.00000000000E+00 -0.00000000000E+00 -0.37054027477E+03  0.37054027477E+03  0.00000000000E+00 0. -1.
         24    2    1    2    0    0 -0.37608473101E+03 -0.15384253690E+03  0.24010685597E+02  0.41508728464E+03  0.81324595213E+02 0.  0.
        254    2    1    2    0    0  0.37608473101E+03  0.15384253690E+03  0.12209022860E+04  0.15709062365E+04  0.90113082338E+03 0.  0.
         23    2    4    4    0    0 -0.16006606741E+03  0.95415122693E+02  0.92606555267E+03  0.94911878570E+03  0.92216429902E+02 0.  0.
         23    2    4    4    0    0  0.53615079842E+03  0.58427414211E+02  0.29483673332E+03  0.62178745079E+03  0.93912157224E+02 0.  0.
          2    1    3    3  502    0 -0.35200223919E+03 -0.13061345068E+03  0.27869333795E+01  0.37546400212E+03  0.00000000000E+00 0. -1.
         -1    1    3    3    0  502 -0.24082491820E+02 -0.23229086227E+02  0.21223752217E+02  0.39623282517E+02  0.00000000000E+00 0.  1.
         13    1    5    5    0    0  0.31041231065E+01 -0.86093912882E+01  0.13822650863E+02  0.16577782587E+02  0.00000000000E+00 0. -1.
        -13    1    5    5    0    0 -0.16317019051E+03  0.10402451398E+03  0.91224290181E+03  0.93254100311E+03  0.00000000000E+00 0.  1.
          2    1    6    6  503    0  0.19407141568E+03 -0.24056807462E+02  0.10509427903E+03  0.22200732387E+03  0.00000000000E+00 0. -1.
         -2    1    6    6    0  503  0.34207938274E+03  0.82484221673E+02  0.18974245429E+03  0.39978012692E+03  0.00000000000E+00 0.  1.
<mgrwt>
<rscale>  0 0.15473726E+04</rscale>
<asrwt>0</asrwt>
<pdfrwt beam="1">  1        2 0.57006197E-01 0.15473726E+04</pdfrwt>
<pdfrwt beam="2">  1       -1 0.24853126E+00 0.15473726E+04</pdfrwt>
<totfact> 0.68091324E+00</totfact>
</mgrwt>
</event>
<event>
12    7  0.2426980E-007  0.1805201E+04  0.7818608E-02  0.8703539E-01
          2   -1    0    0  501    0  0.00000000000E+00  0.00000000000E+00  0.63566246402E+03  0.63566246402E+03  0.00000000000E+00 0. -1.
         -1   -1    0    0    0  501 -0.00000000000E+00 -0.00000000000E+00 -0.12816356882E+04  0.12816356882E+04  0.00000000000E+00 0.  1.
         24    2    1    2    0    0 -0.10497274189E+03  0.66714240215E+03 -0.26871876380E+03  0.73099554553E+03  0.77758937016E+02 0.  0.
        254    2    1    2    0    0  0.10497274189E+03 -0.66714240215E+03 -0.37725446036E+03  0.11863026067E+04  0.89938572670E+03 0.  0.
         23    2    4    4    0    0 -0.29126719728E+02 -0.41407787628E+03  0.24778923791E+03  0.49255436460E+03  0.94347454844E+02 0.  0.
         23    2    4    4    0    0  0.13409946162E+03 -0.25306452587E+03 -0.62504369827E+03  0.69374824205E+03  0.92642747882E+02 0.  0.
          4    1    3    3  502    0 -0.59138987441E+02  0.29938452521E+03 -0.81902722812E+02  0.31596925448E+03  0.00000000000E+00 0. -1.
         -3    1    3    3    0  502 -0.45833754448E+02  0.36775787694E+03 -0.18681604098E+03  0.41502629106E+03  0.00000000000E+00 0.  1.
         13    1    5    5    0    0 -0.59093053173E+02 -0.30747501299E+03  0.20272230970E+03  0.37300027801E+03  0.00000000000E+00 0. -1.
        -13    1    5    5    0    0  0.29966333444E+02 -0.10660286329E+03  0.45066928212E+02  0.11955408659E+03  0.00000000000E+00 0.  1.
          4    1    6    6  503    0  0.12754797165E+03 -0.25813271153E+03 -0.57539208116E+03  0.64341046689E+03  0.00000000000E+00 0. -1.
         -4    1    6    6    0  503  0.65514899651E+01  0.50681856595E+01 -0.49651617109E+02  0.50337775161E+02  0.00000000000E+00 0.  1.
<mgrwt>
<rscale>  0 0.18052010E+04</rscale>
<asrwt>0</asrwt>
<pdfrwt beam="1">  1        2 0.97794226E-01 0.18052010E+04</pdfrwt>
<pdfrwt beam="2">  1       -1 0.19717472E+00 0.18052010E+04</pdfrwt>
<totfact> 0.78411762E+00</totfact>
</mgrwt>
</event>
<event>
12    7  0.2426980E-007  0.2369653E+04  0.7818608E-02  0.8450953E-01
          2   -1    0    0  501    0  0.00000000000E+00  0.00000000000E+00  0.10958973648E+04  0.10958973648E+04  0.00000000000E+00 0. -1.
         -1   -1    0    0    0  501 -0.00000000000E+00 -0.00000000000E+00 -0.12809718095E+04  0.12809718095E+04  0.00000000000E+00 0.  1.
         24    2    1    2    0    0  0.53777101955E+03  0.38530317107E+03  0.68775897938E+03  0.95702225461E+03  0.72270180515E+02 0.  0.
        254    2    1    2    0    0 -0.53777101955E+03 -0.38530317107E+03 -0.87283342412E+03  0.14198469197E+04  0.90358778543E+03 0.  0.
         23    2    4    4    0    0 -0.40115295113E+03  0.20626050430E+02 -0.89095112651E+03  0.98159695267E+03  0.91594451349E+02 0.  0.
         23    2    4    4    0    0 -0.13661806843E+03 -0.40592922150E+03  0.18117702385E+02  0.43824996701E+03  0.91059063041E+02 0.  0.
          4    1    3    3  502    0  0.21263552071E+03  0.11376000153E+03  0.22824260399E+03  0.33203898701E+03  0.00000000000E+00 0. -1.
         -3    1    3    3    0  502  0.32513549884E+03  0.27154316954E+03  0.45951637539E+03  0.62498326760E+03  0.00000000000E+00 0.  1.
         13    1    5    5    0    0 -0.13159943281E+03  0.12993020775E+01 -0.40117772349E+03  0.42221281924E+03  0.00000000000E+00 0.  1.
        -13    1    5    5    0    0 -0.26955351832E+03  0.19326748353E+02 -0.48977340302E+03  0.55938413344E+03  0.00000000000E+00 0. -1.
          4    1    6    6  503    0 -0.69645424158E+02 -0.10113832592E+03 -0.17976822085E+02  0.12410726090E+03  0.00000000000E+00 0.  1.
         -4    1    6    6    0  503 -0.66972644270E+02 -0.30479089558E+03  0.36094524470E+02  0.31414270612E+03  0.00000000000E+00 0. -1.
<mgrwt>
<rscale>  0 0.23696528E+04</rscale>
<asrwt>0</asrwt>
<pdfrwt beam="1">  1        2 0.16859959E+00 0.23696528E+04</pdfrwt>
<pdfrwt beam="2">  1       -1 0.19707259E+00 0.23696528E+04</pdfrwt>
<totfact> 0.35514478E+00</totfact>
</mgrwt>
</event>
<event>
12    7  0.2426980E-007  0.1528060E+04  0.7818608E-02  0.8866005E-01
         -1   -1    0    0    0  501 -0.00000000000E+00  0.00000000000E+00  0.28706468591E+03  0.28706468591E+03  0.00000000000E+00 0.  1.
          2   -1    0    0  501    0  0.00000000000E+00 -0.00000000000E+00 -0.20334860301E+04  0.20334860301E+04  0.00000000000E+00 0. -1.
         24    2    1    2    0    0  0.42669499448E+03 -0.19829193521E+03 -0.34362055469E+03  0.58816000057E+03  0.80428793205E+02 0.  0.
        254    2    1    2    0    0 -0.42669499448E+03  0.19829193521E+03 -0.14028007895E+04  0.17323907155E+04  0.90107670376E+03 0.  0.
         23    2    4    4    0    0  0.17829422730E+03  0.21363651326E+03 -0.88101539059E+03  0.92818959376E+03  0.88985460685E+02 0.  0.
         23    2    4    4    0    0 -0.60498922177E+03 -0.15344578048E+02 -0.52178539894E+03  0.80420112171E+03  0.90730519037E+02 0.  0.
          2    1    3    3  502    0  0.17310463723E+03 -0.12230027118E+03 -0.16823543025E+03  0.27060253464E+03  0.00000000000E+00 0. -1.
         -1    1    3    3    0  502  0.25359035725E+03 -0.75991664036E+02 -0.17538512444E+03  0.31755746593E+03  0.00000000000E+00 0.  1.
         13    1    5    5    0    0  0.28301986588E+01  0.45105285539E+02 -0.19936379703E+03  0.20442216214E+03  0.00000000000E+00 0.  1.
        -13    1    5    5    0    0  0.17546402864E+03  0.16853122772E+03 -0.68165159356E+03  0.72376743162E+03  0.00000000000E+00 0. -1.
          3    1    6    6  503    0 -0.71442183631E+02  0.14707621013E+02 -0.98014432351E+02  0.12217662897E+03  0.00000000000E+00 0. -1.
         -3    1    6    6    0  503 -0.53354703814E+03 -0.30052199060E+02 -0.42377096659E+03  0.68202449274E+03  0.00000000000E+00 0.  1.
<mgrwt>
<rscale>  0 0.15280602E+04</rscale>
<asrwt>0</asrwt>
<pdfrwt beam="1">  1        2 0.31284400E+00 0.15280602E+04</pdfrwt>
<pdfrwt beam="2">  1       -1 0.44163798E-01 0.15280602E+04</pdfrwt>
<totfact> 0.35665940E+01</totfact>
</mgrwt>
</event>
<event>
12    7  0.2426980E-007  0.1156599E+04  0.7818608E-02  0.9151717E-01
          2   -1    0    0  501    0  0.00000000000E+00  0.00000000000E+00  0.20000354695E+04  0.20000354695E+04  0.00000000000E+00 0. -1.
         -1   -1    0    0    0  501 -0.00000000000E+00 -0.00000000000E+00 -0.16721211133E+03  0.16721211133E+03  0.00000000000E+00 0.  1.
         24    2    1    2    0    0  0.17073721968E+02  0.14176647791E+03  0.67642385820E+03  0.69580737637E+03  0.78799891059E+02 0.  0.
        254    2    1    2    0    0 -0.17073721968E+02 -0.14176647791E+03  0.11563995000E+04  0.14714402044E+04  0.89860292985E+03 0.  0.
         23    2    4    4    0    0 -0.21118271749E+03  0.26925959515E+03  0.19483101349E+03  0.40396727752E+03  0.90175205803E+02 0.  0.
         23    2    4    4    0    0  0.19410899552E+03 -0.41102607306E+03  0.96156848646E+03  0.10674729269E+04  0.90905229147E+02 0.  0.
          4    1    3    3  502    0  0.14614862181E+02  0.11129568496E+03  0.63193988533E+03  0.64183202036E+03  0.00000000000E+00 0. -1.
         -3    1    3    3    0  502  0.24588597868E+01  0.30470792949E+02  0.44483972869E+02  0.53975356012E+02  0.00000000000E+00 0.  1.
         13    1    5    5    0    0 -0.14297897057E+03  0.15702664451E+03  0.16589995495E+03  0.26948682372E+03  0.00000000000E+00 0. -1.
        -13    1    5    5    0    0 -0.68203746920E+02  0.11223295065E+03  0.28931058547E+02  0.13448045380E+03  0.00000000000E+00 0.  1.
          2    1    6    6  503    0  0.30621118362E+02 -0.12593763555E+03  0.20396598799E+03  0.24166105436E+03  0.00000000000E+00 0. -1.
         -2    1    6    6    0  503  0.16348787716E+03 -0.28508843751E+03  0.75760249847E+03  0.82581187256E+03  0.00000000000E+00 0.  1.
<mgrwt>
<rscale>  0 0.11565987E+04</rscale>
<asrwt>0</asrwt>
<pdfrwt beam="1">  1        2 0.30769775E+00 0.11565987E+04</pdfrwt>
<pdfrwt beam="2">  1       -1 0.25724942E-01 0.11565987E+04</pdfrwt>
<totfact> 0.10058380E+02</totfact>
</mgrwt>
</event>
<event>
12    7  0.2426980E-007  0.1760934E+04  0.7818608E-02  0.8727355E-01
         -1   -1    0    0    0  501 -0.00000000000E+00  0.00000000000E+00  0.30749045472E+03  0.30749045472E+03  0.00000000000E+00 0.  1.
          2   -1    0    0  501    0  0.00000000000E+00 -0.00000000000E+00 -0.25211247829E+04  0.25211247829E+04  0.00000000000E+00 0. -1.
         24    2    1    2    0    0 -0.32424972004E+03 -0.46610079047E+03 -0.13190510304E+04  0.14384906065E+04  0.83497163216E+02 0.  0.
        254    2    1    2    0    0  0.32424972004E+03  0.46610079047E+03 -0.89458329776E+03  0.13901246311E+04  0.89987742813E+03 0.  0.
         23    2    4    4    0    0  0.58950696841E+03  0.16508348667E+03 -0.70234096373E+03  0.93608162704E+03  0.90526017122E+02 0.  0.
         23    2    4    4    0    0 -0.26525724837E+03  0.30101730380E+03 -0.19224233403E+03  0.45404300410E+03  0.90692389886E+02 0.  0.
          2    1    3    3  502    0 -0.64964392144E+02 -0.15120631592E+03 -0.42639020226E+03  0.45704740105E+03  0.00000000000E+00 0. -1.
         -1    1    3    3    0  502 -0.25928532790E+03 -0.31489447455E+03 -0.89266082816E+03  0.98144320544E+03  0.00000000000E+00 0.  1.
         13    1    5    5    0    0  0.48658802773E+03  0.10083043055E+03 -0.54789241439E+03  0.73967613331E+03  0.00000000000E+00 0. -1.
        -13    1    5    5    0    0  0.10291894068E+03  0.64253056119E+02 -0.15444854934E+03  0.19640549373E+03  0.00000000000E+00 0.  1.
          3    1    6    6  503    0 -0.20054871256E+03  0.26716775863E+03 -0.13134624053E+03  0.35895714544E+03  0.00000000000E+00 0. -1.
         -3    1    6    6    0  503 -0.64708535809E+02  0.33849545173E+02 -0.60896093497E+02  0.95085858666E+02  0.00000000000E+00 0.  1.
<mgrwt>
<rscale>  0 0.17609336E+04</rscale>
<asrwt>0</asrwt>
<pdfrwt beam="1">  1        2 0.38786534E+00 0.17609336E+04</pdfrwt>
<pdfrwt beam="2">  1       -1 0.47306225E-01 0.17609336E+04</pdfrwt>
<totfact> 0.16292930E+01</totfact>
</mgrwt>
</event>
<event>
12    7  0.2426980E-007  0.3620377E+04  0.7818608E-02  0.8085840E-01
          2   -1    0    0  501    0  0.00000000000E+00  0.00000000000E+00  0.34955172051E+04  0.34955172051E+04  0.00000000000E+00 0. -1.
         -1   -1    0    0    0  501 -0.00000000000E+00 -0.00000000000E+00 -0.93742396848E+03  0.93742396848E+03  0.00000000000E+00 0.  1.
         24    2    1    2    0    0  0.15189634080E+04  0.73020563728E+03  0.14417461906E+04  0.22193038426E+04  0.78913627207E+02 0.  0.
        254    2    1    2    0    0 -0.15189634080E+04 -0.73020563728E+03  0.11163470461E+04  0.22136373309E+04  0.90194755847E+03 0.  0.
         23    2    4    4    0    0 -0.14421092381E+04 -0.48737722323E+03  0.61577820655E+03  0.16445850901E+04  0.90893929833E+02 0.  0.
         23    2    4    4    0    0 -0.76854169847E+02 -0.24282841405E+03  0.50056883952E+03  0.56905224086E+03  0.91537356510E+02 0.  0.
          2    1    3    3  502    0  0.65587503150E+03  0.35877761467E+03  0.63757275691E+03  0.98254386879E+03  0.00000000000E+00 0. -1.
         -1    1    3    3    0  502  0.86308837645E+03  0.37142802261E+03  0.80417343365E+03  0.12367599739E+04  0.00000000000E+00 0.  1.
         13    1    5    5    0    0 -0.10988177257E+04 -0.41110176973E+03  0.46641482704E+03  0.12625164752E+04  0.00000000000E+00 0. -1.
        -13    1    5    5    0    0 -0.34329151245E+03 -0.76275453498E+02  0.14936337951E+03  0.38206861486E+03  0.00000000000E+00 0.  1.
          4    1    6    6  503    0  0.10221968386E+02 -0.75731177506E+02  0.95559217687E+02  0.12235711654E+03  0.00000000000E+00 0.  1.
         -4    1    6    6    0  503 -0.87076138233E+02 -0.16709723654E+03  0.40500962183E+03  0.44669512431E+03  0.00000000000E+00 0. -1.
<mgrwt>
<rscale>  0 0.36203766E+04</rscale>
<asrwt>0</asrwt>
<pdfrwt beam="1">  1        2 0.53777187E+00 0.36203766E+04</pdfrwt>
<pdfrwt beam="2">  1       -1 0.14421907E+00 0.36203766E+04</pdfrwt>
<totfact> 0.29264315E-01</totfact>
</mgrwt>
</event>
<event>
12    7  0.2426980E-007  0.1250788E+04  0.7818608E-02  0.9069528E-01
          2   -1    0    0  501    0  0.00000000000E+00  0.00000000000E+00  0.91260903955E+03  0.91260903955E+03  0.00000000000E+00 0. -1.
         -3   -1    0    0    0  501 -0.00000000000E+00 -0.00000000000E+00 -0.42857094118E+03  0.42857094118E+03  0.00000000000E+00 0.  1.
         24    2    1    2    0    0  0.33314988434E+02  0.29103147158E+03  0.11105110382E+03  0.32294226076E+03  0.78422893472E+02 0.  0.
        254    2    1    2    0    0 -0.33314988434E+02 -0.29103147158E+03  0.37298699455E+03  0.10182377200E+04  0.90104358961E+03 0.  0.
         23    2    4    4    0    0  0.14216757341E+03 -0.97802735267E+02 -0.26136791027E+03  0.32651530665E+03  0.92315042139E+02 0.  0.
         23    2    4    4    0    0 -0.17548256184E+03 -0.19322873631E+03  0.63435490483E+03  0.69172241332E+03  0.89119457855E+02 0.  0.
          4    1    3    3  502    0 -0.25194288350E+02  0.63791433817E+02  0.26215769570E+02  0.73425920273E+02  0.00000000000E+00 0. -1.
         -3    1    3    3    0  502  0.58509276784E+02  0.22724003776E+03  0.84835334245E+02  0.24951634048E+03  0.00000000000E+00 0.  1.
         13    1    5    5    0    0  0.13687342872E+03 -0.10379893587E+03 -0.26646059102E+03  0.31703280767E+03  0.00000000000E+00 0. -1.
        -13    1    5    5    0    0  0.52941446929E+01  0.59962006057E+01  0.50926807452E+01  0.94824989800E+01  0.00000000000E+00 0.  1.
          3    1    6    6  503    0 -0.17742782697E+03 -0.14976527783E+03  0.54155472840E+03  0.58922983299E+03  0.00000000000E+00 0. -1.
         -3    1    6    6    0  503  0.19452651252E+01 -0.43463458485E+02  0.92800176422E+02  0.10249258034E+03  0.00000000000E+00 0.  1.
<mgrwt>
<rscale>  0 0.12507881E+04</rscale>
<asrwt>0</asrwt>
<pdfrwt beam="1">  1        2 0.14040139E+00 0.12507881E+04</pdfrwt>
<pdfrwt beam="2">  1       -3 0.65933991E-01 0.12507881E+04</pdfrwt>
<totfact> 0.39906774E+01</totfact>
</mgrwt>
</event>
<event>
12    7  0.2426980E-007  0.1508676E+04  0.7818608E-02  0.8878704E-01
         -1   -1    0    0    0  501 -0.00000000000E+00  0.00000000000E+00  0.15431966413E+04  0.15431966413E+04  0.00000000000E+00 0.  1.
          2   -1    0    0  501    0  0.00000000000E+00 -0.00000000000E+00 -0.36873165919E+03  0.36873165919E+03  0.00000000000E+00 0. -1.
         24    2    1    2    0    0 -0.40013990176E+03 -0.25591414387E+03  0.28290989624E+03  0.55858575978E+03  0.79850182372E+02 0.  0.
        254    2    1    2    0    0  0.40013990176E+03  0.25591414387E+03  0.89155508588E+03  0.13533425407E+04  0.90058956873E+03 0.  0.
         23    2    4    4    0    0  0.40801241288E+02  0.35247036089E+03  0.89844217513E+03  0.97020580458E+03  0.90558625065E+02 0.  0.
         23    2    4    4    0    0  0.35933866047E+03 -0.96556217020E+02 -0.68870892552E+01  0.38313673613E+03  0.91098576376E+02 0.  0.
          4    1    3    3  502    0 -0.24768947013E+03 -0.19752576013E+03  0.16493309815E+03  0.35716862459E+03  0.00000000000E+00 0. -1.
         -3    1    3    3    0  502 -0.15245043163E+03 -0.58388383748E+02  0.11797679809E+03  0.20141713519E+03  0.00000000000E+00 0.  1.
         13    1    5    5    0    0  0.69056419253E+02  0.21484353286E+03  0.54749804497E+03  0.59218294631E+03  0.00000000000E+00 0.  1.
        -13    1    5    5    0    0 -0.28255177965E+02  0.13762682803E+03  0.35094413016E+03  0.37802285826E+03  0.00000000000E+00 0. -1.
          1    1    6    6  503    0  0.41171373437E+02 -0.43661132586E+02 -0.84172753337E+01  0.60598902742E+02  0.00000000000E+00 0. -1.
         -1    1    6    6    0  503  0.31816728704E+03 -0.52895084433E+02  0.15301860785E+01  0.32253783339E+03  0.00000000000E+00 0.  1.
<mgrwt>
<rscale>  0 0.15086755E+04</rscale>
<asrwt>0</asrwt>
<pdfrwt beam="1">  1        2 0.56727949E-01 0.15086755E+04</pdfrwt>
<pdfrwt beam="2">  1       -1 0.23741486E+00 0.15086755E+04</pdfrwt>
<totfact> 0.81217869E+00</totfact>
</mgrwt>
</event>
<event>
12    7  0.2426980E-007  0.1236007E+04  0.7818608E-02  0.9081911E-01
         -1   -1    0    0    0  501 -0.00000000000E+00  0.00000000000E+00  0.51710575570E+03  0.51710575570E+03  0.00000000000E+00 0.  1.
          2   -1    0    0  501    0  0.00000000000E+00 -0.00000000000E+00 -0.73858795862E+03  0.73858795862E+03  0.00000000000E+00 0. -1.
         24    2    1    2    0    0  0.95518466026E+02  0.30722059615E+02 -0.32010025345E+03  0.34479405529E+03  0.79694077630E+02 0.  0.
        254    2    1    2    0    0 -0.95518466026E+02 -0.30722059615E+02  0.98618050524E+02  0.91089965902E+03  0.89996946983E+03 0.  0.
         23    2    4    4    0    0  0.71132972351E+02  0.18100610609E+03  0.42547981049E+03  0.47654927143E+03  0.90791127170E+02 0.  0.
         23    2    4    4    0    0 -0.16665143838E+03 -0.21172816571E+03 -0.32686175997E+03  0.43435038759E+03  0.96021513235E+02 0.  0.
          2    1    3    3  502    0  0.10813409109E+03  0.30148455638E+02 -0.30559644197E+03  0.32556273800E+03  0.00000000000E+00 0. -1.
         -1    1    3    3    0  502 -0.12615625063E+02  0.57360397695E+00 -0.14503811483E+02  0.19231317292E+02  0.00000000000E+00 0.  1.
         13    1    5    5    0    0  0.17165933954E+02  0.82205462905E+02  0.91930513712E+02  0.12451356059E+03  0.00000000000E+00 0.  1.
        -13    1    5    5    0    0  0.53967038397E+02  0.98800643184E+02  0.33354929678E+03  0.35203571084E+03  0.00000000000E+00 0. -1.
          1    1    6    6  503    0 -0.69141077979E+02 -0.59217917841E+02 -0.17821981378E+03  0.20012384286E+03  0.00000000000E+00 0. -1.
         -1    1    6    6    0  503 -0.97510360398E+02 -0.15251024786E+03 -0.14864194618E+03  0.23422654472E+03  0.00000000000E+00 0.  1.
<mgrwt>
<rscale>  0 0.12360066E+04</rscale>
<asrwt>0</asrwt>
<pdfrwt beam="1">  1        2 0.11362892E+00 0.12360066E+04</pdfrwt>
<pdfrwt beam="2">  1       -1 0.79554732E-01 0.12360066E+04</pdfrwt>
<totfact> 0.67914354E+01</totfact>
</mgrwt>
</event>
<event>
12    7  0.2426980E-007  0.1099195E+04  0.7818608E-02  0.9205977E-01
         -1   -1    0    0    0  501 -0.00000000000E+00  0.00000000000E+00  0.15985643007E+03  0.15985643007E+03  0.00000000000E+00 0.  1.
          2   -1    0    0  501    0  0.00000000000E+00 -0.00000000000E+00 -0.18895539781E+04  0.18895539781E+04  0.00000000000E+00 0. -1.
         24    2    1    2    0    0 -0.58006355781E+02 -0.15324882316E+03 -0.32362709189E+03  0.37198282644E+03  0.82381972855E+02 0.  0.
        254    2    1    2    0    0  0.58006355781E+02  0.15324882316E+03 -0.14060704562E+04  0.16774275817E+04  0.89993290040E+03 0.  0.
         23    2    4    4    0    0 -0.80649205022E+02 -0.19816632220E+03 -0.14234975352E+02  0.23273443338E+03  0.90490311253E+02 0.  0.
         23    2    4    4    0    0  0.13865556080E+03  0.35141514536E+03 -0.13918354808E+04  0.14446931484E+04  0.84937143807E+02 0.  0.
          2    1    3    3  502    0 -0.61855191179E+02 -0.77748724914E+02 -0.23714855178E+03  0.25711935850E+03  0.00000000000E+00 0. -1.
         -1    1    3    3    0  502  0.38488353985E+01 -0.75500098247E+02 -0.86478540109E+02  0.11486346795E+03  0.00000000000E+00 0.  1.
         13    1    5    5    0    0 -0.10084214202E+02 -0.52278837852E+02  0.34577734627E+02  0.63485336851E+02  0.00000000000E+00 0. -1.
        -13    1    5    5    0    0 -0.70564990820E+02 -0.14588748435E+03 -0.48812709979E+02  0.16924909652E+03  0.00000000000E+00 0.  1.
          1    1    6    6  503    0  0.30785341046E+02  0.21231243245E+02 -0.19106161558E+03  0.19468704081E+03  0.00000000000E+00 0. -1.
         -1    1    6    6    0  503  0.10787021976E+03  0.33018390212E+03 -0.12007738652E+04  0.12500061076E+04  0.00000000000E+00 0.  1.
<mgrwt>
<rscale>  0 0.10991949E+04</rscale>
<asrwt>0</asrwt>
<pdfrwt beam="1">  1        2 0.29070060E+00 0.10991949E+04</pdfrwt>
<pdfrwt beam="2">  1       -1 0.24593298E-01 0.10991949E+04</pdfrwt>
<totfact> 0.12556222E+02</totfact>
</mgrwt>
</event>
<event>
12    7  0.2426980E-007  0.1592222E+04  0.7818608E-02  0.8825341E-01
          2   -1    0    0  501    0  0.00000000000E+00  0.00000000000E+00  0.50228695996E+03  0.50228695996E+03  0.00000000000E+00 0. -1.
         -1   -1    0    0    0  501 -0.00000000000E+00 -0.00000000000E+00 -0.12618136477E+04  0.12618136477E+04  0.00000000000E+00 0.  1.
         24    2    1    2    0    0  0.38091150945E+03  0.21054879357E+03  0.90075933502E+02  0.45175339860E+03  0.80889349374E+02 0.  0.
        254    2    1    2    0    0 -0.38091150945E+03 -0.21054879357E+03 -0.84960262121E+03  0.13123472090E+04  0.90055883238E+03 0.  0.
         23    2    4    4    0    0 -0.50841736611E+03  0.18303807660E+03 -0.63074225153E+03  0.83550358254E+03  0.90770550981E+02 0.  0.
         23    2    4    4    0    0  0.12750585666E+03 -0.39358687017E+03 -0.21886036969E+03  0.47684362649E+03  0.91168058323E+02 0.  0.
          4    1    3    3  502    0  0.27909745132E+03  0.18537571114E+03  0.89785445312E+02  0.34687312926E+03  0.00000000000E+00 0. -1.
         -3    1    3    3    0  502  0.10181405813E+03  0.25173082425E+02  0.29048819077E+00  0.10488026934E+03  0.00000000000E+00 0.  1.
         13    1    5    5    0    0 -0.47851949585E+03  0.18991100612E+03 -0.57440134184E+03  0.77135205948E+03  0.00000000000E+00 0. -1.
        -13    1    5    5    0    0 -0.29897870261E+02 -0.68729295266E+01 -0.56340909687E+02  0.64151523059E+02  0.00000000000E+00 0.  1.
          3    1    6    6  503    0  0.11364029447E+03 -0.24594923647E+03 -0.10786374279E+03  0.29161572396E+03  0.00000000000E+00 0. -1.
         -3    1    6    6    0  503  0.13865562196E+02 -0.14763763369E+03 -0.11099662689E+03  0.18522790254E+03  0.00000000000E+00 0.  1.
<mgrwt>
<rscale>  0 0.15922218E+04</rscale>
<asrwt>0</asrwt>
<pdfrwt beam="1">  1        2 0.77274918E-01 0.15922218E+04</pdfrwt>
<pdfrwt beam="2">  1       -1 0.19412517E+00 0.15922218E+04</pdfrwt>
<totfact> 0.11105210E+01</totfact>
</mgrwt>
</event>
<event>
12    7  0.2426980E-007  0.1606653E+04  0.7818608E-02  0.8816471E-01
         -1   -1    0    0    0  501 -0.00000000000E+00  0.00000000000E+00  0.21619621886E+03  0.21619621886E+03  0.00000000000E+00 0.  1.
          2   -1    0    0  501    0  0.00000000000E+00 -0.00000000000E+00 -0.29849419765E+04  0.29849419765E+04  0.00000000000E+00 0. -1.
         24    2    1    2    0    0 -0.68159477465E+02 -0.53745195978E+03 -0.11109234461E+04  0.12383177359E+04  0.76023605166E+02 0.  0.
        254    2    1    2    0    0  0.68159477465E+02  0.53745195978E+03 -0.16578223116E+04  0.19628204595E+04  0.90043823550E+03 0.  0.
         23    2    4    4    0    0  0.29650888018E+03 -0.16599024815E+02 -0.16604421352E+03  0.35258786787E+03  0.92490432318E+02 0.  0.
         23    2    4    4    0    0 -0.22834940272E+03  0.55405098459E+03 -0.14917780981E+04  0.16102325916E+04  0.91275199251E+02 0.  0.
          4    1    3    3  502    0  0.66815023589E+01 -0.24374391937E+03 -0.50903191419E+03  0.56441937455E+03  0.00000000000E+00 0. -1.
         -3    1    3    3    0  502 -0.74840979824E+02 -0.29370804041E+03 -0.60189153188E+03  0.67389836134E+03  0.00000000000E+00 0.  1.
         13    1    5    5    0    0  0.24031187137E+03 -0.35660149303E+02 -0.97117913880E+02  0.26163587477E+03  0.00000000000E+00 0. -1.
        -13    1    5    5    0    0  0.56197008812E+02  0.19061124488E+02 -0.68926299638E+02  0.90951993095E+02  0.00000000000E+00 0.  1.
          3    1    6    6  503    0 -0.20456466790E+03  0.49691419594E+03 -0.13994869333E+04  0.14991111026E+04  0.00000000000E+00 0. -1.
         -3    1    6    6    0  503 -0.23784734821E+02  0.57136788649E+02 -0.92291164805E+02  0.11112148905E+03  0.00000000000E+00 0.  1.
<mgrwt>
<rscale>  0 0.16066526E+04</rscale>
<asrwt>0</asrwt>
<pdfrwt beam="1">  1        2 0.45922184E+00 0.16066526E+04</pdfrwt>
<pdfrwt beam="2">  1       -1 0.33260957E-01 0.16066526E+04</pdfrwt>
<totfact> 0.16602666E+01</totfact>
</mgrwt>
</event>
<event>
12    7  0.2426980E-007  0.2202608E+04  0.7818608E-02  0.8517343E-01
          2   -1    0    0  501    0  0.00000000000E+00  0.00000000000E+00  0.11904624272E+04  0.11904624272E+04  0.00000000000E+00 0. -1.
         -1   -1    0    0    0  501 -0.00000000000E+00 -0.00000000000E+00 -0.10188227960E+04  0.10188227960E+04  0.00000000000E+00 0.  1.
         24    2    1    2    0    0  0.13225224744E+03  0.90561561179E+03  0.10146134857E+03  0.92428849673E+03  0.79903233057E+02 0.  0.
        254    2    1    2    0    0 -0.13225224744E+03 -0.90561561179E+03  0.70178282674E+02  0.12849967264E+04  0.89925597151E+03 0.  0.
         23    2    4    4    0    0  0.25252352210E+03 -0.75556066644E+03  0.22665666423E+03  0.83359212300E+03  0.94141033542E+02 0.  0.
         23    2    4    4    0    0 -0.38477576954E+03 -0.15005494535E+03 -0.15647838155E+03  0.45140460343E+03  0.93336770080E+02 0.  0.
          2    1    3    3  502    0  0.13075364644E+03  0.90301387632E+03  0.10629134704E+03  0.91860134299E+03  0.00000000000E+00 0. -1.
         -3    1    3    3    0  502  0.14986010085E+01  0.26017354702E+01 -0.48299984681E+01  0.56871537381E+01  0.00000000000E+00 0.  1.
         13    1    5    5    0    0  0.15368991433E+03 -0.54639611732E+03  0.19465471861E+03  0.60004980316E+03  0.00000000000E+00 0.  1.
        -13    1    5    5    0    0  0.98833607770E+02 -0.20916454912E+03  0.32001945620E+02  0.23354231984E+03  0.00000000000E+00 0. -1.
          1    1    6    6  503    0 -0.11081385447E+02  0.11514056700E+02 -0.27166814798E+01  0.16209594794E+02  0.00000000000E+00 0. -1.
         -1    1    6    6    0  503 -0.37369438410E+03 -0.16156900205E+03 -0.15376170008E+03  0.43519500863E+03  0.00000000000E+00 0.  1.
<mgrwt>
<rscale>  0 0.22026078E+04</rscale>
<asrwt>0</asrwt>
<pdfrwt beam="1">  1        2 0.18314807E+00 0.22026078E+04</pdfrwt>
<pdfrwt beam="2">  1       -1 0.15674197E+00 0.22026078E+04</pdfrwt>
<totfact> 0.61872465E+00</totfact>
</mgrwt>
</event>
<event>
12    7  0.2426980E-007  0.2219859E+04  0.7818608E-02  0.8510208E-01
          2   -1    0    0  501    0  0.00000000000E+00  0.00000000000E+00  0.72731516331E+03  0.72731516331E+03  0.00000000000E+00 0. -1.
         -1   -1    0    0    0  501 -0.00000000000E+00 -0.00000000000E+00 -0.16938233223E+04  0.16938233223E+04  0.00000000000E+00 0.  1.
         24    2    1    2    0    0 -0.85710367644E+03 -0.90552012127E+02 -0.77067463479E+03  0.11590173665E+04  0.80965943477E+02 0.  0.
        254    2    1    2    0    0  0.85710367644E+03  0.90552012127E+02 -0.19583352421E+03  0.12621211192E+04  0.90098422359E+03 0.  0.
         23    2    4    4    0    0  0.68377761483E+03  0.10559773639E+03 -0.52926507686E+03  0.87633252924E+03  0.95574430475E+02 0.  0.
         23    2    4    4    0    0  0.17332606161E+03 -0.15045724259E+02  0.33343155265E+03  0.38578858992E+03  0.85953117198E+02 0.  0.
          2    1    3    3  502    0 -0.62780509392E+03 -0.66416358108E+02 -0.51489549028E+03  0.81465804758E+03  0.00000000000E+00 0. -1.
         -1    1    3    3    0  502 -0.22929858252E+03 -0.24135654019E+02 -0.25577914451E+03  0.34435931889E+03  0.00000000000E+00 0.  1.
         13    1    5    5    0    0  0.49303336186E+03  0.61112960109E+02 -0.42849243617E+03  0.65606589429E+03  0.00000000000E+00 0. -1.
        -13    1    5    5    0    0  0.19074425297E+03  0.44484776277E+02 -0.10077264068E+03  0.22026663495E+03  0.00000000000E+00 0.  1.
          2    1    6    6  503    0  0.18232996242E+03 -0.11222214298E+02  0.32523939278E+03  0.37302924270E+03  0.00000000000E+00 0. -1.
         -2    1    6    6    0  503 -0.90039008089E+01 -0.38235099609E+01  0.81921598680E+01  0.12759347221E+02  0.00000000000E+00 0.  1.
<mgrwt>
<rscale>  0 0.22198589E+04</rscale>
<asrwt>0</asrwt>
<pdfrwt beam="1">  1        2 0.11189464E+00 0.22198589E+04</pdfrwt>
<pdfrwt beam="2">  1       -1 0.26058820E+00 0.22198589E+04</pdfrwt>
<totfact> 0.24166075E+00</totfact>
</mgrwt>
</event>
<event>
12    7  0.2426980E-007  0.2174588E+04  0.7818608E-02  0.8529080E-01
          2   -1    0    0  501    0  0.00000000000E+00  0.00000000000E+00  0.19574920397E+04  0.19574920397E+04  0.00000000000E+00 0. -1.
         -1   -1    0    0    0  501 -0.00000000000E+00 -0.00000000000E+00 -0.60394009513E+03  0.60394009513E+03  0.00000000000E+00 0.  1.
         24    2    1    2    0    0 -0.42499136653E+03  0.72304244430E+03  0.91358485907E+03  0.12428220757E+04  0.81002341633E+02 0.  0.
        254    2    1    2    0    0  0.42499136653E+03 -0.72304244430E+03  0.43996708546E+03  0.13186100590E+04  0.91747120590E+03 0.  0.
         23    2    4    4    0    0  0.49380778880E+03 -0.11884242713E+03  0.47713916951E+03  0.70275602894E+03  0.90744665813E+02 0.  0.
         23    2    4    4    0    0 -0.68816422270E+02 -0.60420001716E+03 -0.37172084048E+02  0.61585403010E+03  0.90005898968E+02 0.  0.
          2    1    3    3  502    0 -0.29733076036E+03  0.52798169079E+03  0.70901219426E+03  0.93266743187E+03  0.00000000000E+00 0. -1.
         -1    1    3    3    0  502 -0.12766060617E+03  0.19506075351E+03  0.20457266480E+03  0.31015464387E+03  0.00000000000E+00 0.  1.
         13    1    5    5    0    0  0.37754792064E+03 -0.60408294024E+02  0.31886533444E+03  0.49786212536E+03  0.00000000000E+00 0. -1.
        -13    1    5    5    0    0  0.11625986816E+03 -0.58434133108E+02  0.15827383507E+03  0.20489390358E+03  0.00000000000E+00 0.  1.
          1    1    6    6  503    0 -0.28799704152E+02 -0.46194772026E+03 -0.58582921848E+02  0.46653732749E+03  0.00000000000E+00 0. -1.
         -1    1    6    6    0  503 -0.40016718118E+02 -0.14225229690E+03  0.21410837800E+02  0.14931670261E+03  0.00000000000E+00 0.  1.
<mgrwt>
<rscale>  0 0.21745877E+04</rscale>
<asrwt>0</asrwt>
<pdfrwt beam="1">  1        2 0.30115262E+00 0.21745877E+04</pdfrwt>
<pdfrwt beam="2">  1       -1 0.92913861E-01 0.21745877E+04</pdfrwt>
<totfact> 0.82778571E+00</totfact>
</mgrwt>
</event>
<event>
12    7  0.2426980E-007  0.2000446E+04  0.7818608E-02  0.8606412E-01
         -1   -1    0    0    0  501 -0.00000000000E+00  0.00000000000E+00  0.25757577859E+03  0.25757577859E+03  0.00000000000E+00 0.  1.
          2   -1    0    0  501    0  0.00000000000E+00 -0.00000000000E+00 -0.38840859425E+04  0.38840859425E+04  0.00000000000E+00 0. -1.
         24    2    1    2    0    0  0.83513719070E+01 -0.78926816549E+03 -0.12478915308E+04  0.14787453279E+04  0.80252660715E+02 0.  0.
        254    2    1    2    0    0 -0.83513719070E+01  0.78926816549E+03 -0.23786186331E+04  0.26629163932E+04  0.90015728242E+03 0.  0.
         23    2    4    4    0    0 -0.51874176544E+02  0.30402521055E+03 -0.20369524072E+04  0.20621285909E+04  0.89871894658E+02 0.  0.
         23    2    4    4    0    0  0.43522804637E+02  0.48524295494E+03 -0.34166622587E+03  0.60078780227E+03  0.82796217406E+02 0.  0.
          2    1    3    3  502    0 -0.17453035652E+02 -0.85163645731E+02 -0.17120313534E+03  0.19201033451E+03  0.00000000000E+00 0. -1.
         -1    1    3    3    0  502  0.25804407559E+02 -0.70410451976E+03 -0.10766883955E+04  0.12867349934E+04  0.00000000000E+00 0.  1.
         13    1    5    5    0    0 -0.13753149112E+02  0.10340991612E+02 -0.26850953633E+03  0.26906032097E+03  0.00000000000E+00 0.  1.
        -13    1    5    5    0    0 -0.38121027432E+02  0.29368421894E+03 -0.17684428709E+04  0.17930682700E+04  0.00000000000E+00 0. -1.
          1    1    6    6  503    0 -0.18859639656E+02  0.19709914240E+03 -0.11563553950E+03  0.22929312231E+03  0.00000000000E+00 0. -1.
         -1    1    6    6    0  503  0.62382444292E+02  0.28814381255E+03 -0.22603068636E+03  0.37149467997E+03  0.00000000000E+00 0.  1.
<mgrwt>
<rscale>  0 0.20004464E+04</rscale>
<asrwt>0</asrwt>
<pdfrwt beam="1">  1        2 0.59755162E+00 0.20004464E+04</pdfrwt>
<pdfrwt beam="2">  1       -1 0.39627047E-01 0.20004464E+04</pdfrwt>
<totfact> 0.27975184E+00</totfact>
</mgrwt>
</event>
<event>
12    7  0.2426980E-007  0.2570136E+04  0.7818608E-02  0.8378417E-01
         -1   -1    0    0    0  501 -0.00000000000E+00  0.00000000000E+00  0.57607377639E+03  0.57607377639E+03  0.00000000000E+00 0.  1.
          2   -1    0    0  501    0  0.00000000000E+00 -0.00000000000E+00 -0.28666471427E+04  0.28666471427E+04  0.00000000000E+00 0. -1.
         24    2    1    2    0    0  0.72210797844E+03 -0.41414145361E+03  0.10053206550E+02  0.83570333984E+03  0.73115861052E+02 0.  0.
        254    2    1    2    0    0 -0.72210797844E+03  0.41414145361E+03 -0.23006265728E+04  0.26070175792E+04  0.90039155628E+03 0.  0.
         23    2    4    4    0    0 -0.62435141832E+03  0.16671559534E+03 -0.61086722812E+03  0.89379888023E+03  0.90049345416E+02 0.  0.
         23    2    4    4    0    0 -0.97756560122E+02  0.24742585827E+03 -0.16897593447E+04  0.17132186990E+04  0.95161794785E+02 0.  0.
          4    1    3    3  502    0  0.44564673094E+03 -0.22815338825E+03  0.32798221400E+02  0.50172771569E+03  0.00000000000E+00 0. -1.
         -3    1    3    3    0  502  0.27646124750E+03 -0.18598806536E+03 -0.22745014850E+02  0.33397562415E+03  0.00000000000E+00 0.  1.
         13    1    5    5    0    0 -0.22705843651E+02 -0.77882804750E+01 -0.10787116082E+02  0.26316810635E+02  0.00000000000E+00 0.  1.
        -13    1    5    5    0    0 -0.60164557467E+03  0.17450387581E+03 -0.60008011204E+03  0.86748206959E+03  0.00000000000E+00 0. -1.
          4    1    6    6  503    0 -0.80909622521E+02  0.80343438548E+02 -0.73840881853E+03  0.74716063762E+03  0.00000000000E+00 0.  1.
         -4    1    6    6    0  503 -0.16846937601E+02  0.16708241972E+03 -0.95135052616E+03  0.96605806136E+03  0.00000000000E+00 0. -1.
<mgrwt>
<rscale>  0 0.25701364E+04</rscale>
<asrwt>0</asrwt>
<pdfrwt beam="1">  1        2 0.44102264E+00 0.25701364E+04</pdfrwt>
<pdfrwt beam="2">  1       -1 0.88626735E-01 0.25701364E+04</pdfrwt>
<totfact> 0.26533271E+00</totfact>
</mgrwt>
</event>
<event>
12    7  0.2426980E-007  0.1929403E+04  0.7818608E-02  0.8640358E-01
         -1   -1    0    0    0  501 -0.00000000000E+00  0.00000000000E+00  0.50108708963E+03  0.50108708963E+03  0.00000000000E+00 0.  1.
          2   -1    0    0  501    0  0.00000000000E+00 -0.00000000000E+00 -0.18572590005E+04  0.18572590005E+04  0.00000000000E+00 0. -1.
         24    2    1    2    0    0  0.36528890770E+03 -0.71474913117E+02 -0.13293050018E+04  0.13827266608E+04  0.79602646046E+02 0.  0.
        254    2    1    2    0    0 -0.36528890770E+03  0.71474913117E+02 -0.26866909065E+02  0.97561942937E+03  0.90142486701E+03 0.  0.
         23    2    4    4    0    0 -0.56637860593E+03  0.29340974612E+03 -0.10546332445E+03  0.65306417448E+03  0.92175369896E+02 0.  0.
         23    2    4    4    0    0  0.20108969823E+03 -0.22193483300E+03  0.78596415383E+02  0.32255525489E+03  0.90401101274E+02 0.  0.
          4    1    3    3  502    0  0.34719948505E+03 -0.58335454416E+02 -0.11688488862E+04  0.12207203719E+04  0.00000000000E+00 0. -1.
         -3    1    3    3    0  502  0.18089422649E+02 -0.13139458701E+02 -0.16045611562E+03  0.16200628885E+03  0.00000000000E+00 0.  1.
         13    1    5    5    0    0 -0.47570267551E+03  0.27971560380E+03 -0.10268358344E+03  0.56131788926E+03  0.00000000000E+00 0. -1.
        -13    1    5    5    0    0 -0.90675930422E+02  0.13694142316E+02 -0.27797410027E+01  0.91746285220E+02  0.00000000000E+00 0.  1.
          4    1    6    6  503    0 -0.23095999717E+01 -0.39612346929E+02  0.10012731375E+02  0.40923429363E+02  0.00000000000E+00 0. -1.
         -4    1    6    6    0  503  0.20339929820E+03 -0.18232248607E+03  0.68583684008E+02  0.28163182552E+03  0.00000000000E+00 0.  1.
<mgrwt>
<rscale>  0 0.19294025E+04</rscale>
<asrwt>0</asrwt>
<pdfrwt beam="1">  1        2 0.28573216E+00 0.19294025E+04</pdfrwt>
<pdfrwt beam="2">  1       -1 0.77090321E-01 0.19294025E+04</pdfrwt>
<totfact> 0.14399126E+01</totfact>
</mgrwt>
</event>
<event>
12    7  0.2426980E-007  0.1216391E+04  0.7818608E-02  0.9098629E-01
         -1   -1    0    0    0  501 -0.00000000000E+00  0.00000000000E+00  0.17745528577E+04  0.17745528577E+04  0.00000000000E+00 0.  1.
          2   -1    0    0  501    0  0.00000000000E+00 -0.00000000000E+00 -0.20844785991E+03  0.20844785991E+03  0.00000000000E+00 0. -1.
         24    2    1    2    0    0  0.22582978427E+03 -0.12254155141E+02  0.58406038755E+03  0.63097706803E+03  0.76526258847E+02 0.  0.
        254    2    1    2    0    0 -0.22582978427E+03  0.12254155141E+02  0.98204461025E+03  0.13520236496E+04  0.90133627285E+03 0.  0.
         23    2    4    4    0    0  0.23598347220E+03 -0.16871195481E+03  0.73542210217E+02  0.31273919912E+03  0.90804334357E+02 0.  0.
         23    2    4    4    0    0 -0.46181325647E+03  0.18096610995E+03  0.90850240003E+03  0.10392844505E+04  0.93355992375E+02 0.  0.
          2    1    3    3  502    0  0.12999498956E+03  0.27734901068E+02  0.28691000561E+03  0.31620448031E+03  0.00000000000E+00 0. -1.
         -1    1    3    3    0  502  0.95834794710E+02 -0.39989056210E+02  0.29715038194E+03  0.31477258773E+03  0.00000000000E+00 0.  1.
         13    1    5    5    0    0  0.22671725027E+03 -0.12487850531E+03  0.57441835000E+02  0.26513188618E+03  0.00000000000E+00 0. -1.
        -13    1    5    5    0    0  0.92662219251E+01 -0.43833449498E+02  0.16100375217E+02  0.47607312945E+02  0.00000000000E+00 0.  1.
          3    1    6    6  503    0 -0.23855955085E+03  0.48413842157E+02  0.48169075988E+03  0.53970412965E+03  0.00000000000E+00 0. -1.
         -3    1    6    6    0  503 -0.22325370563E+03  0.13255226779E+03  0.42681164016E+03  0.49958032081E+03  0.00000000000E+00 0.  1.
<mgrwt>
<rscale>  0 0.12163910E+04</rscale>
<asrwt>0</asrwt>
<pdfrwt beam="1">  1        2 0.32068903E-01 0.12163910E+04</pdfrwt>
<pdfrwt beam="2">  1       -1 0.27300812E+00 0.12163910E+04</pdfrwt>
<totfact> 0.92600430E+00</totfact>
</mgrwt>
</event>
<event>
12    7  0.2426980E-007  0.3412179E+04  0.7818608E-02  0.8134924E-01
          2   -1    0    0  501    0  0.00000000000E+00  0.00000000000E+00  0.15324421387E+04  0.15324421387E+04  0.00000000000E+00 0. -1.
         -1   -1    0    0    0  501 -0.00000000000E+00 -0.00000000000E+00 -0.18994134309E+04  0.18994134309E+04  0.00000000000E+00 0.  1.
         24    2    1    2    0    0 -0.81821099335E+03 -0.13439886349E+04 -0.37346801824E+03  0.16191590965E+04  0.80144486942E+02 0.  0.
        254    2    1    2    0    0  0.81821099335E+03  0.13439886349E+04  0.64967260440E+01  0.18126964730E+04  0.90002867476E+03 0.  0.
         23    2    4    4    0    0  0.44579462456E+03  0.78333984462E+03  0.43971906223E+03  0.10070071205E+04  0.91412951356E+02 0.  0.
         23    2    4    4    0    0  0.37241636879E+03  0.56064879031E+03 -0.43322233618E+03  0.80568935248E+03  0.91829855234E+02 0.  0.
          4    1    3    3  502    0 -0.23360573865E+03 -0.40233155823E+03 -0.74344199911E+02  0.47113626897E+03  0.00000000000E+00 0. -1.
         -3    1    3    3    0  502 -0.58460525470E+03 -0.94165707670E+03 -0.29912381833E+03  0.11480228276E+04  0.00000000000E+00 0.  1.
         13    1    5    5    0    0  0.36903174074E+03  0.56982923504E+03  0.32155514530E+03  0.75119071763E+03  0.00000000000E+00 0.  1.
        -13    1    5    5    0    0  0.76762883820E+02  0.21351060958E+03  0.11816391693E+03  0.25581640291E+03  0.00000000000E+00 0. -1.
          2    1    6    6  503    0  0.56471206714E+02  0.61558641727E+02 -0.88815389453E+02  0.12192881925E+03  0.00000000000E+00 0. -1.
         -2    1    6    6    0  503  0.31594516207E+03  0.49909014859E+03 -0.34440694673E+03  0.68376053324E+03  0.00000000000E+00 0.  1.
<mgrwt>
<rscale>  0 0.34121789E+04</rscale>
<asrwt>0</asrwt>
<pdfrwt beam="1">  1        2 0.23576033E+00 0.34121789E+04</pdfrwt>
<pdfrwt beam="2">  1       -1 0.29221745E+00 0.34121789E+04</pdfrwt>
<totfact> 0.42528430E-01</totfact>
</mgrwt>
</event>
<event>
12    7  0.2426980E-007  0.5174376E+04  0.7818608E-02  0.7802157E-01
         -1   -1    0    0    0  501 -0.00000000000E+00  0.00000000000E+00  0.26120493090E+04  0.26120493090E+04  0.00000000000E+00 0.  1.
          2   -1    0    0  501    0  0.00000000000E+00 -0.00000000000E+00 -0.25625635946E+04  0.25625635946E+04  0.00000000000E+00 0. -1.
         24    2    1    2    0    0  0.23460275954E+04  0.38931632471E+03  0.82138038710E+03  0.25171623995E+04  0.77641006582E+02 0.  0.
        254    2    1    2    0    0 -0.23460275954E+04 -0.38931632471E+03 -0.77189467267E+03  0.26574505041E+04  0.90044939717E+03 0.  0.
         23    2    4    4    0    0 -0.33092951475E+03 -0.33721220464E+03  0.39527852228E+02  0.48262688097E+03  0.90221064299E+02 0.  0.
         23    2    4    4    0    0 -0.20150980807E+04 -0.52104120072E+02 -0.81142252490E+03  0.21748236231E+04  0.90089753883E+02 0.  0.
          4    1    3    3  502    0  0.10967320872E+04  0.16958643955E+03  0.34443472471E+03  0.11619879996E+04  0.00000000000E+00 0. -1.
         -3    1    3    3    0  502  0.12492955082E+04  0.21972988515E+03  0.47694566240E+03  0.13551743999E+04  0.00000000000E+00 0.  1.
         13    1    5    5    0    0 -0.30993562676E+03 -0.31013874049E+03  0.60263512456E+02  0.44258086495E+03  0.00000000000E+00 0.  1.
        -13    1    5    5    0    0 -0.20993887994E+02 -0.27073464142E+02 -0.20735660227E+02  0.40046016017E+02  0.00000000000E+00 0. -1.
          1    1    6    6  503    0 -0.10648067919E+04 -0.60725664862E+02 -0.39635156152E+03  0.11378030017E+04  0.00000000000E+00 0. -1.
         -1    1    6    6    0  503 -0.95029128883E+03  0.86215447896E+01 -0.41507096337E+03  0.10370206214E+04  0.00000000000E+00 0.  1.
<mgrwt>
<rscale>  0 0.51743763E+04</rscale>
<asrwt>0</asrwt>
<pdfrwt beam="1">  1        2 0.39424055E+00 0.51743763E+04</pdfrwt>
<pdfrwt beam="2">  1       -1 0.40185374E+00 0.51743763E+04</pdfrwt>
<totfact> 0.18182313E-02</totfact>
</mgrwt>
</event>
<event>
12    7  0.2426980E-007  0.1779696E+04  0.7818608E-02  0.8717172E-01
          2   -1    0    0  501    0  0.00000000000E+00  0.00000000000E+00  0.33054005450E+04  0.33054005450E+04  0.00000000000E+00 0. -1.
         -3   -1    0    0    0  501 -0.00000000000E+00 -0.00000000000E+00 -0.23955634893E+03  0.23955634893E+03  0.00000000000E+00 0.  1.
         24    2    1    2    0    0 -0.17800768015E+03 -0.33095102089E+03  0.65549880089E+02  0.38988084804E+03  0.80591416840E+02 0.  0.
        254    2    1    2    0    0  0.17800768015E+03  0.33095102089E+03  0.30002943160E+04  0.31550760459E+04  0.90084602479E+03 0.  0.
         23    2    4    4    0    0 -0.17598026651E+03  0.39615027736E+03  0.72624001167E+03  0.85091418821E+03  0.93414692050E+02 0.  0.
         23    2    4    4    0    0  0.35398794666E+03 -0.65199256468E+02  0.22740543043E+04  0.23041618577E+04  0.90997131747E+02 0.  0.
          2    1    3    3  502    0 -0.29176149803E+02 -0.13562401829E+03  0.21082524968E+02  0.14031961699E+03  0.00000000000E+00 0. -1.
         -1    1    3    3    0  502 -0.14883153034E+03 -0.19532700260E+03  0.44467355121E+02  0.24956123105E+03  0.00000000000E+00 0.  1.
         13    1    5    5    0    0 -0.11505701071E+03  0.25132886089E+03  0.37251533966E+03  0.46386634963E+03  0.00000000000E+00 0.  1.
        -13    1    5    5    0    0 -0.60923255797E+02  0.14482141647E+03  0.35372467201E+03  0.38704783859E+03  0.00000000000E+00 0. -1.
          2    1    6    6  503    0  0.21151376953E+03 -0.29556678041E+02  0.10635764319E+04  0.10848071250E+04  0.00000000000E+00 0. -1.
         -2    1    6    6    0  503  0.14247417713E+03 -0.35642578426E+02  0.12104778724E+04  0.12193547327E+04  0.00000000000E+00 0.  1.
<mgrwt>
<rscale>  0 0.17796963E+04</rscale>
<asrwt>0</asrwt>
<pdfrwt beam="1">  1        2 0.50852313E+00 0.17796963E+04</pdfrwt>
<pdfrwt beam="2">  1       -3 0.36854825E-01 0.17796963E+04</pdfrwt>
<totfact> 0.49785537E+00</totfact>
</mgrwt>
</event>
<event>
12    7  0.2426980E-007  0.3624151E+04  0.7818608E-02  0.8084982E-01
          2   -1    0    0  501    0  0.00000000000E+00  0.00000000000E+00  0.30579653199E+04  0.30579653199E+04  0.00000000000E+00 0. -1.
         -1   -1    0    0    0  501 -0.00000000000E+00 -0.00000000000E+00 -0.10737915221E+04  0.10737915221E+04  0.00000000000E+00 0.  1.
         24    2    1    2    0    0  0.16994377718E+04 -0.28804601743E+02  0.97522988425E+03  0.19608528337E+04  0.70370894611E+02 0.  0.
        254    2    1    2    0    0 -0.16994377718E+04  0.28804601743E+02  0.10089439136E+04  0.21709040083E+04  0.89774046760E+03 0.  0.
         23    2    4    4    0    0 -0.61390180334E+03  0.43684530874E+03  0.40213356970E+03  0.85869778919E+03  0.89113620608E+02 0.  0.
         23    2    4    4    0    0 -0.10855359685E+04 -0.40804070700E+03  0.60681034386E+03  0.13122062191E+04  0.93705979560E+02 0.  0.
          4    1    3    3  502    0  0.82194992178E+03  0.17645287991E+02  0.48925108953E+03  0.95670249226E+03  0.00000000000E+00 0. -1.
         -3    1    3    3    0  502  0.87748785003E+03 -0.46449889734E+02  0.48597879472E+03  0.10041503414E+04  0.00000000000E+00 0.  1.
         13    1    5    5    0    0 -0.60246514987E+03  0.44063357946E+03  0.39844922031E+03  0.84609927864E+03  0.00000000000E+00 0. -1.
        -13    1    5    5    0    0 -0.11436653466E+02 -0.37882707233E+01  0.36843493870E+01  0.12598510546E+02  0.00000000000E+00 0.  1.
          4    1    6    6  503    0 -0.42384190206E+03 -0.11263499909E+03  0.24273328076E+03  0.50124649280E+03  0.00000000000E+00 0.  1.
         -4    1    6    6    0  503 -0.66169406641E+03 -0.29540570791E+03  0.36407706310E+03  0.81095972629E+03  0.00000000000E+00 0. -1.
<mgrwt>
<rscale>  0 0.36241508E+04</rscale>
<asrwt>0</asrwt>
<pdfrwt beam="1">  1        2 0.47045620E+00 0.36241508E+04</pdfrwt>
<pdfrwt beam="2">  1       -1 0.16519870E+00 0.36241508E+04</pdfrwt>
<totfact> 0.39451752E-01</totfact>
</mgrwt>
</event>
<event>
12    7  0.2426980E-007  0.2184429E+04  0.7818608E-02  0.8524937E-01
         -1   -1    0    0    0  501 -0.00000000000E+00  0.00000000000E+00  0.88510325270E+03  0.88510325270E+03  0.00000000000E+00 0.  1.
          2   -1    0    0  501    0  0.00000000000E+00 -0.00000000000E+00 -0.13477886673E+04  0.13477886673E+04  0.00000000000E+00 0. -1.
         24    2    1    2    0    0  0.85891859975E+03 -0.17837746728E+01  0.10077160778E+03  0.86846456493E+03  0.79570350991E+02 0.  0.
        254    2    1    2    0    0 -0.85891859975E+03  0.17837746728E+01 -0.56345702242E+03  0.13644273551E+04  0.89801661921E+03 0.  0.
         23    2    4    4    0    0  0.13044940028E+03 -0.11568355823E+03  0.33423033286E+02  0.19958461165E+03  0.91198609500E+02 0.  0.
         23    2    4    4    0    0 -0.98936800003E+03  0.11746733290E+03 -0.59688005570E+03  0.11648427434E+04  0.89135864188E+02 0.  0.
          2    1    3    3  502    0  0.42821836300E+02 -0.14871818236E+02 -0.42698276604E+01  0.45531440456E+02  0.00000000000E+00 0. -1.
         -1    1    3    3    0  502  0.81609676345E+03  0.13088043563E+02  0.10504143544E+03  0.82293312448E+03  0.00000000000E+00 0.  1.
         13    1    5    5    0    0  0.33677878351E+02 -0.47031055331E+01 -0.23911259361E+02  0.41570025453E+02  0.00000000000E+00 0. -1.
        -13    1    5    5    0    0  0.96771521926E+02 -0.11098045270E+03  0.57334292648E+02  0.15801458619E+03  0.00000000000E+00 0.  1.
          2    1    6    6  503    0 -0.69971927944E+03  0.44612615750E+02 -0.43507156765E+03  0.82515733317E+03  0.00000000000E+00 0. -1.
         -2    1    6    6    0  503 -0.28964872059E+03  0.72854717154E+02 -0.16180848806E+03  0.33968541028E+03  0.00000000000E+00 0.  1.
<mgrwt>
<rscale>  0 0.21844287E+04</rscale>
<asrwt>0</asrwt>
<pdfrwt beam="1">  1        2 0.20735210E+00 0.21844287E+04</pdfrwt>
<pdfrwt beam="2">  1       -1 0.13616973E+00 0.21844287E+04</pdfrwt>
<totfact> 0.72874544E+00</totfact>
</mgrwt>
</event>
<event>
12    7  0.2426980E-007  0.1512751E+04  0.7818608E-02  0.8876018E-01
          4   -1    0    0  501    0  0.00000000000E+00  0.00000000000E+00  0.85514993897E+03  0.85514993897E+03  0.00000000000E+00 0. -1.
         -3   -1    0    0    0  501 -0.00000000000E+00 -0.00000000000E+00 -0.66900964734E+03  0.66900964734E+03  0.00000000000E+00 0.  1.
         24    2    1    2    0    0 -0.64306743356E+02  0.39732681736E+03  0.33344871028E+03  0.52763228559E+03  0.72137572512E+02 0.  0.
        254    2    1    2    0    0  0.64306743356E+02 -0.39732681736E+03 -0.14730841865E+03  0.99652730072E+03  0.89964600473E+03 0.  0.
         23    2    4    4    0    0 -0.21740839093E+03 -0.46065894487E+03  0.18318084660E+03  0.54869667709E+03  0.89664647135E+02 0.  0.
         23    2    4    4    0    0  0.28171513429E+03  0.63332127511E+02 -0.33048926525E+03  0.44783062363E+03  0.89189336527E+02 0.  0.
          2    1    3    3  502    0 -0.79043503255E+02  0.35583647665E+03  0.30425108034E+03  0.47480121463E+03  0.00000000000E+00 0. -1.
         -1    1    3    3    0  502  0.14736759899E+02  0.41490340709E+02  0.29197629948E+02  0.52831070963E+02  0.00000000000E+00 0.  1.
         13    1    5    5    0    0 -0.14619767030E+03 -0.39146271614E+03  0.15105620245E+03  0.44433635146E+03  0.00000000000E+00 0. -1.
        -13    1    5    5    0    0 -0.71210720626E+02 -0.69196228732E+02  0.32124644150E+02  0.10436032562E+03  0.00000000000E+00 0.  1.
          3    1    6    6  503    0  0.15620876654E+03  0.68162250304E+02 -0.23379404963E+03  0.28932149722E+03  0.00000000000E+00 0. -1.
         -3    1    6    6    0  503  0.12550636774E+03 -0.48301227926E+01 -0.96695215627E+02  0.15850912641E+03  0.00000000000E+00 0.  1.
<mgrwt>
<rscale>  0 0.15127506E+04</rscale>
<asrwt>0</asrwt>
<pdfrwt beam="1">  1        4 0.13156153E+00 0.15127506E+04</pdfrwt>
<pdfrwt beam="2">  1       -3 0.10292456E+00 0.15127506E+04</pdfrwt>
<totfact> 0.75635185E-01</totfact>
</mgrwt>
</event>
<event>
12    7  0.2426980E-007  0.2460122E+04  0.7818608E-02  0.8417332E-01
         -1   -1    0    0    0  501 -0.00000000000E+00  0.00000000000E+00  0.25047651691E+04  0.25047651691E+04  0.00000000000E+00 0.  1.
          2   -1    0    0  501    0  0.00000000000E+00 -0.00000000000E+00 -0.60406856386E+03  0.60406856386E+03  0.00000000000E+00 0. -1.
         24    2    1    2    0    0 -0.55569007331E+03  0.90323562392E+03  0.93170454525E+03  0.14138723885E+04  0.79597244705E+02 0.  0.
        254    2    1    2    0    0  0.55569007331E+03 -0.90323562392E+03  0.96899206000E+03  0.16949613445E+04  0.89962341958E+03 0.  0.
         23    2    4    4    0    0  0.79274951870E+03 -0.62787330606E+03  0.70735757147E+03  0.12374892952E+04  0.91369218170E+02 0.  0.
         23    2    4    4    0    0 -0.23705944539E+03 -0.27536231786E+03  0.26163448853E+03  0.45747204925E+03  0.93842866073E+02 0.  0.
          2    1    3    3  502    0 -0.56116499128E+02  0.11531405216E+03  0.83894373100E+02  0.15324704871E+03  0.00000000000E+00 0. -1.
         -1    1    3    3    0  502 -0.49957357418E+03  0.78792157176E+03  0.84781017215E+03  0.12606253398E+04  0.00000000000E+00 0.  1.
         13    1    5    5    0    0  0.52175171663E+03 -0.36864698603E+03  0.41265311221E+03  0.76053142285E+03  0.00000000000E+00 0. -1.
        -13    1    5    5    0    0  0.27099780207E+03 -0.25922632003E+03  0.29470445925E+03  0.47695787238E+03  0.00000000000E+00 0.  1.
          3    1    6    6  503    0 -0.15094997537E+03 -0.16814743836E+03  0.21597304746E+03  0.31257609205E+03  0.00000000000E+00 0. -1.
         -3    1    6    6    0  503 -0.86109470025E+02 -0.10721487950E+03  0.45661441070E+02  0.14489595720E+03  0.00000000000E+00 0.  1.
<mgrwt>
<rscale>  0 0.24601219E+04</rscale>
<asrwt>0</asrwt>
<pdfrwt beam="1">  1        2 0.92933626E-01 0.24601219E+04</pdfrwt>
<pdfrwt beam="2">  1       -1 0.38534848E+00 0.24601219E+04</pdfrwt>
<totfact> 0.45223692E-01</totfact>
</mgrwt>
</event>
<event>
12    7  0.2426980E-007  0.1563655E+04  0.7818608E-02  0.8843193E-01
          2   -1    0    0  501    0  0.00000000000E+00  0.00000000000E+00  0.22614309266E+04  0.22614309266E+04  0.00000000000E+00 0. -1.
         -1   -1    0    0    0  501 -0.00000000000E+00 -0.00000000000E+00 -0.27029517347E+03  0.27029517347E+03  0.00000000000E+00 0.  1.
         24    2    1    2    0    0 -0.11349823468E+03  0.46506497103E+03  0.99336039730E+03  0.11053397926E+04  0.76445416023E+02 0.  0.
        254    2    1    2    0    0  0.11349823468E+03 -0.46506497103E+03  0.99777535586E+03  0.14263863075E+04  0.89991941913E+03 0.  0.
         23    2    4    4    0    0  0.14238399633E+03 -0.68798583694E+03  0.48434828427E+03  0.85838264294E+03  0.92896646767E+02 0.  0.
         23    2    4    4    0    0 -0.28885761651E+02  0.22292086590E+03  0.51342707159E+03  0.56800366457E+03  0.92155875777E+02 0.  0.
          2    1    3    3  502    0 -0.71106668477E+02  0.21361575892E+03  0.54253920024E+03  0.58739819080E+03  0.00000000000E+00 0. -1.
         -1    1    3    3    0  502 -0.42391566201E+02  0.25144921211E+03  0.45082119706E+03  0.51794160180E+03  0.00000000000E+00 0.  1.
         13    1    5    5    0    0  0.34695442410E+02 -0.17300077049E+03  0.74793672450E+02  0.19164324604E+03  0.00000000000E+00 0. -1.
        -13    1    5    5    0    0  0.10768855392E+03 -0.51498506644E+03  0.40955461182E+03  0.66673939689E+03  0.00000000000E+00 0.  1.
          4    1    6    6  503    0 -0.16664745911E+02  0.11492895091E+03  0.37160012650E+03  0.38932381320E+03  0.00000000000E+00 0. -1.
         -4    1    6    6    0  503 -0.12221015741E+02  0.10799191500E+03  0.14182694510E+03  0.17867985137E+03  0.00000000000E+00 0.  1.
<mgrwt>
<rscale>  0 0.15636545E+04</rscale>
<asrwt>0</asrwt>
<pdfrwt beam="1">  1        2 0.34791244E+00 0.15636545E+04</pdfrwt>
<pdfrwt beam="2">  1       -1 0.41583875E-01 0.15636545E+04</pdfrwt>
<totfact> 0.29643346E+01</totfact>
</mgrwt>
</event>
<event>
12    7  0.2426980E-007  0.3249463E+04  0.7818608E-02  0.8175875E-01
          2   -1    0    0  501    0  0.00000000000E+00  0.00000000000E+00  0.20818187787E+04  0.20818187787E+04  0.00000000000E+00 0. -1.
         -1   -1    0    0    0  501 -0.00000000000E+00 -0.00000000000E+00 -0.12680031358E+04  0.12680031358E+04  0.00000000000E+00 0.  1.
         24    2    1    2    0    0 -0.14885906598E+04 -0.16988059824E+02  0.55494882751E+03  0.15907873457E+04  0.80283444657E+02 0.  0.
        254    2    1    2    0    0  0.14885906598E+04  0.16988059824E+02  0.25886681536E+03  0.17590345688E+04  0.90055529506E+03 0.  0.
         23    2    4    4    0    0 -0.45771746231E+02 -0.16081221114E+03  0.18347691719E+01  0.19051759863E+03  0.91312480016E+02 0.  0.
         23    2    4    4    0    0  0.15343624061E+04  0.17780027096E+03  0.25703204619E+03  0.15685169702E+04  0.91099305537E+02 0.  0.
          2    1    3    3  502    0 -0.14070193621E+04 -0.31886578134E+02  0.53380282854E+03  0.15052128418E+04  0.00000000000E+00 0. -1.
         -1    1    3    3    0  502 -0.81571297723E+02  0.14898518310E+02  0.21145998974E+02  0.85574503988E+02  0.00000000000E+00 0.  1.
         13    1    5    5    0    0 -0.18981603316E+02  0.71666066554E+01  0.22637400107E+01  0.20415338210E+02  0.00000000000E+00 0.  1.
        -13    1    5    5    0    0 -0.26790142915E+02 -0.16797881779E+03 -0.42897083884E+00  0.17010226042E+03  0.00000000000E+00 0. -1.
          2    1    6    6  503    0  0.19767490345E+03 -0.74134703979E+01  0.36709893202E+02  0.20119131009E+03  0.00000000000E+00 0.  1.
         -2    1    6    6    0  503  0.13366875026E+04  0.18521374136E+03  0.22032215299E+03  0.13673256601E+04  0.00000000000E+00 0. -1.
<mgrwt>
<rscale>  0 0.32494632E+04</rscale>
<asrwt>0</asrwt>
<pdfrwt beam="1">  1        2 0.32027981E+00 0.32494632E+04</pdfrwt>
<pdfrwt beam="2">  1       -1 0.19507741E+00 0.32494632E+04</pdfrwt>
<totfact> 0.93405913E-01</totfact>
</mgrwt>
</event>
<event>
12    7  0.2426980E-007  0.1331092E+04  0.7818608E-02  0.9005266E-01
         -1   -1    0    0    0  501 -0.00000000000E+00  0.00000000000E+00  0.81345466511E+03  0.81345466511E+03  0.00000000000E+00 0.  1.
          2   -1    0    0  501    0  0.00000000000E+00 -0.00000000000E+00 -0.54453101079E+03  0.54453101079E+03  0.00000000000E+00 0. -1.
         24    2    1    2    0    0 -0.13956686118E+03 -0.22871486615E+03 -0.16258940623E+03  0.32252993067E+03  0.76163261649E+02 0.  0.
        254    2    1    2    0    0  0.13956686118E+03  0.22871486615E+03  0.43151306055E+03  0.10354557452E+04  0.90231684023E+03 0.  0.
         23    2    4    4    0    0  0.19875491905E+02  0.18056328380E+03  0.69749292572E+03  0.72613303019E+03  0.88174040772E+02 0.  0.
         23    2    4    4    0    0  0.11969136928E+03  0.48151582347E+02 -0.26597986516E+03  0.30932271504E+03  0.91053031832E+02 0.  0.
          4    1    3    3  502    0 -0.11312465533E+01 -0.59734845670E+02 -0.41761109086E+02  0.72893907414E+02  0.00000000000E+00 0. -1.
         -3    1    3    3    0  502 -0.13843561463E+03 -0.16898002048E+03 -0.12082829714E+03  0.24963602326E+03  0.00000000000E+00 0.  1.
         13    1    5    5    0    0  0.22178827488E+02  0.18671486952E+03  0.60826594797E+03  0.63666459486E+03  0.00000000000E+00 0.  1.
        -13    1    5    5    0    0 -0.23033355836E+01 -0.61515857195E+01  0.89226977752E+02  0.89468435330E+02  0.00000000000E+00 0. -1.
          3    1    6    6  503    0  0.72248853049E+02  0.49440386490E+02 -0.84258928736E+02  0.12150644285E+03  0.00000000000E+00 0. -1.
         -3    1    6    6    0  503  0.47442516228E+02 -0.12888041430E+01 -0.18172093643E+03  0.18781627219E+03  0.00000000000E+00 0.  1.
<mgrwt>
<rscale>  0 0.13310917E+04</rscale>
<asrwt>0</asrwt>
<pdfrwt beam="1">  1        2 0.83774001E-01 0.13310917E+04</pdfrwt>
<pdfrwt beam="2">  1       -1 0.12514687E+00 0.13310917E+04</pdfrwt>
<totfact> 0.34767698E+01</totfact>
</mgrwt>
</event>
<event>
12    7  0.2426980E-007  0.1847137E+04  0.7818608E-02  0.8681626E-01
         -1   -1    0    0    0  501 -0.00000000000E+00  0.00000000000E+00  0.60480136098E+03  0.60480136098E+03  0.00000000000E+00 0.  1.
          2   -1    0    0  501    0  0.00000000000E+00 -0.00000000000E+00 -0.14103454533E+04  0.14103454533E+04  0.00000000000E+00 0. -1.
         24    2    1    2    0    0  0.15815616684E+03  0.66786737757E+03 -0.43943518685E+03  0.81883554750E+03  0.79549753468E+02 0.  0.
        254    2    1    2    0    0 -0.15815616684E+03 -0.66786737757E+03 -0.36610890551E+03  0.11963112668E+04  0.90888102042E+03 0.  0.
         23    2    4    4    0    0  0.16826616445E+03  0.39700329944E+02  0.15978267066E+03  0.25211112178E+03  0.90221380986E+02 0.  0.
         23    2    4    4    0    0 -0.32642233130E+03 -0.70756770752E+03 -0.52589157617E+03  0.94420014503E+03  0.88024797080E+02 0.  0.
          4    1    3    3  502    0  0.32863561213E+02  0.24648603162E+03 -0.19366918094E+03  0.31518745071E+03  0.00000000000E+00 0. -1.
         -3    1    3    3    0  502  0.12529260563E+03  0.42138134595E+03 -0.24576600591E+03  0.50364809679E+03  0.00000000000E+00 0.  1.
         13    1    5    5    0    0  0.56032669175E+02  0.43405085355E+02  0.10622000825E+03  0.12769632572E+03  0.00000000000E+00 0. -1.
        -13    1    5    5    0    0  0.11223349528E+03 -0.37047554113E+01  0.53562662404E+02  0.12441479606E+03  0.00000000000E+00 0.  1.
          4    1    6    6  503    0 -0.67123231663E+01 -0.53555495671E+02 -0.19366214357E+02  0.57343671468E+02  0.00000000000E+00 0. -1.
         -4    1    6    6    0  503 -0.31971000813E+03 -0.65401221185E+03 -0.50652536182E+03  0.88685647357E+03  0.00000000000E+00 0.  1.
<mgrwt>
<rscale>  0 0.18471371E+04</rscale>
<asrwt>0</asrwt>
<pdfrwt beam="1">  1        2 0.21697622E+00 0.18471371E+04</pdfrwt>
<pdfrwt beam="2">  1       -1 0.93046363E-01 0.18471371E+04</pdfrwt>
<totfact> 0.17164973E+01</totfact>
</mgrwt>
</event>
<event>
12    7  0.2426980E-007  0.1135980E+04  0.7818608E-02  0.9170816E-01
          2   -1    0    0  501    0  0.00000000000E+00  0.00000000000E+00  0.69836440594E+03  0.69836440594E+03  0.00000000000E+00 0. -1.
         -1   -1    0    0    0  501 -0.00000000000E+00 -0.00000000000E+00 -0.46195454881E+03  0.46195454881E+03  0.00000000000E+00 0.  1.
         24    2    1    2    0    0 -0.14589310208E+03 -0.13498269876E+03  0.43532663631E+02  0.21907105596E+03  0.81190569390E+02 0.  0.
        254    2    1    2    0    0  0.14589310208E+03  0.13498269876E+03  0.19287719349E+03  0.94124789879E+03  0.89957816170E+03 0.  0.
         23    2    4    4    0    0  0.43785331389E+03 -0.13788728000E+03 -0.39231755795E+02  0.47007000099E+03  0.93264402113E+02 0.  0.
         23    2    4    4    0    0 -0.29196021181E+03  0.27286997876E+03  0.23210894929E+03  0.47117789780E+03  0.91843652212E+02 0.  0.
          2    1    3    3  502    0 -0.59595685775E+02 -0.10614885621E+03  0.39546856100E+02  0.12799679396E+03  0.00000000000E+00 0. -1.
         -1    1    3    3    0  502 -0.86297416304E+02 -0.28833842556E+02  0.39858075303E+01  0.91074262000E+02  0.00000000000E+00 0.  1.
         13    1    5    5    0    0  0.49826645871E+02  0.91839710042E+01 -0.20584348226E+02  0.54687798950E+02  0.00000000000E+00 0. -1.
        -13    1    5    5    0    0  0.38802666802E+03 -0.14707125100E+03 -0.18647407569E+02  0.41538220204E+03  0.00000000000E+00 0.  1.
          1    1    6    6  503    0 -0.43079992706E+02  0.16779824854E+02  0.57173838896E+02  0.73527519663E+02  0.00000000000E+00 0. -1.
         -1    1    6    6    0  503 -0.24888021910E+03  0.25609015390E+03  0.17493511039E+03  0.39765037814E+03  0.00000000000E+00 0.  1.
<mgrwt>
<rscale>  0 0.11359800E+04</rscale>
<asrwt>0</asrwt>
<pdfrwt beam="1">  1        2 0.10744068E+00 0.11359800E+04</pdfrwt>
<pdfrwt beam="2">  1       -1 0.71069931E-01 0.11359800E+04</pdfrwt>
<totfact> 0.93024774E+01</totfact>
</mgrwt>
</event>
<event>
12    7  0.2426980E-007  0.2564024E+04  0.7818608E-02  0.8380525E-01
          2   -1    0    0  501    0  0.00000000000E+00  0.00000000000E+00  0.58992421590E+03  0.58992421590E+03  0.00000000000E+00 0. -1.
         -1   -1    0    0    0  501 -0.00000000000E+00 -0.00000000000E+00 -0.27860431545E+04  0.27860431545E+04  0.00000000000E+00 0.  1.
         24    2    1    2    0    0 -0.74534032914E+03  0.77539181269E+03 -0.13701617717E+04  0.17438488455E+04  0.83071330938E+02 0.  0.
        254    2    1    2    0    0  0.74534032914E+03 -0.77539181269E+03 -0.82595716690E+03  0.16321185249E+04  0.90820755788E+03 0.  0.
         23    2    4    4    0    0  0.55087317038E+03 -0.61763265538E+03 -0.76560571853E+02  0.83679290592E+03  0.97105609451E+02 0.  0.
         23    2    4    4    0    0  0.19446715875E+03 -0.15775915731E+03 -0.74939659504E+03  0.79532561894E+03  0.90786320144E+02 0.  0.
          2    1    3    3  502    0 -0.11289712697E+03  0.10822592789E+03 -0.15562400255E+03  0.22062965104E+03  0.00000000000E+00 0. -1.
         -1    1    3    3    0  502 -0.63244320217E+03  0.66716588480E+03 -0.12145377691E+04  0.15232191945E+04  0.00000000000E+00 0.  1.
         13    1    5    5    0    0  0.46226355189E+03 -0.47422969912E+03 -0.35024218729E+02  0.66318028833E+03  0.00000000000E+00 0. -1.
        -13    1    5    5    0    0  0.88609618496E+02 -0.14340295626E+03 -0.41536353124E+02  0.17361261759E+03  0.00000000000E+00 0.  1.
          3    1    6    6  503    0  0.12891209717E+03 -0.13552126298E+03 -0.63140893475E+03  0.65852986599E+03  0.00000000000E+00 0. -1.
         -3    1    6    6    0  503  0.65555061581E+02 -0.22237894332E+02 -0.11798766030E+03  0.13679575295E+03  0.00000000000E+00 0.  1.
<mgrwt>
<rscale>  0 0.25640237E+04</rscale>
<asrwt>0</asrwt>
<pdfrwt beam="1">  1        2 0.90757571E-01 0.25640237E+04</pdfrwt>
<pdfrwt beam="2">  1       -1 0.42862203E+00 0.25640237E+04</pdfrwt>
<totfact> 0.23285406E-01</totfact>
</mgrwt>
</event>
<event>
12    7  0.2426980E-007  0.3128533E+04  0.7818608E-02  0.8207951E-01
          4   -1    0    0  501    0  0.00000000000E+00  0.00000000000E+00  0.14935288649E+04  0.14935288649E+04  0.00000000000E+00 0. -1.
         -3   -1    0    0    0  501 -0.00000000000E+00 -0.00000000000E+00 -0.16383547423E+04  0.16383547423E+04  0.00000000000E+00 0.  1.
         24    2    1    2    0    0 -0.13720969279E+04 -0.41664475942E+03 -0.39582729321E+02  0.14367228550E+04  0.79768004013E+02 0.  0.
        254    2    1    2    0    0  0.13720969279E+04  0.41664475942E+03 -0.10524314806E+03  0.16951607523E+04  0.89791481821E+03 0.  0.
         23    2    4    4    0    0  0.51151312728E+03 -0.24033104090E+03  0.12364237765E+03  0.58515669981E+03  0.87842115057E+02 0.  0.
         23    2    4    4    0    0  0.86058380060E+03  0.65697580032E+03 -0.22888552571E+03  0.11100040525E+04  0.86595222313E+02 0.  0.
          2    1    3    3  502    0 -0.10478849459E+04 -0.30873613530E+03  0.26633067167E+01  0.10924229741E+04  0.00000000000E+00 0. -1.
         -1    1    3    3    0  502 -0.32421198195E+03 -0.10790862411E+03 -0.42246036038E+02  0.34429988086E+03  0.00000000000E+00 0.  1.
         13    1    5    5    0    0  0.13119057372E+03 -0.10132467812E+03  0.18455398286E+02  0.16678806538E+03  0.00000000000E+00 0. -1.
        -13    1    5    5    0    0  0.38032255357E+03 -0.13900636278E+03  0.10518697937E+03  0.41836863443E+03  0.00000000000E+00 0.  1.
          1    1    6    6  503    0  0.12886152336E+03  0.81683005619E+02 -0.49471777269E+01  0.15264953383E+03  0.00000000000E+00 0. -1.
         -1    1    6    6    0  503  0.73172227724E+03  0.57529279470E+03 -0.22393834798E+03  0.95735451863E+03  0.00000000000E+00 0.  1.
<mgrwt>
<rscale>  0 0.31285333E+04</rscale>
<asrwt>0</asrwt>
<pdfrwt beam="1">  1        4 0.22977367E+00 0.31285333E+04</pdfrwt>
<pdfrwt beam="2">  1       -3 0.25205458E+00 0.31285333E+04</pdfrwt>
<totfact> 0.11541202E-02</totfact>
</mgrwt>
</event>
<event>
12    7  0.2426980E-007  0.1909516E+04  0.7818608E-02  0.8650134E-01
         -1   -1    0    0    0  501 -0.00000000000E+00  0.00000000000E+00  0.73285823073E+03  0.73285823073E+03  0.00000000000E+00 0.  1.
          2   -1    0    0  501    0  0.00000000000E+00 -0.00000000000E+00 -0.12438463906E+04  0.12438463906E+04  0.00000000000E+00 0. -1.
         24    2    1    2    0    0  0.54264436410E+03 -0.48799918865E+03 -0.64660732133E+02  0.73697584392E+03  0.79663481144E+02 0.  0.
        254    2    1    2    0    0 -0.54264436410E+03  0.48799918865E+03 -0.44632742769E+03  0.12397287774E+04  0.89728097868E+03 0.  0.
         23    2    4    4    0    0  0.50660537644E+02  0.54137732854E+03 -0.18274088813E+03  0.58100653084E+03  0.92295475266E+02 0.  0.
         23    2    4    4    0    0 -0.59330490175E+03 -0.53378139893E+02 -0.26358653955E+03  0.65872224652E+03  0.97863179848E+02 0.  0.
          4    1    3    3  502    0  0.21154384077E+03 -0.14755295500E+03 -0.43833384727E+02  0.26161811236E+03  0.00000000000E+00 0. -1.
         -3    1    3    3    0  502  0.33110052333E+03 -0.34044623365E+03 -0.20827347406E+02  0.47535773156E+03  0.00000000000E+00 0.  1.
         13    1    5    5    0    0 -0.10241499575E+01  0.23859151754E+03 -0.12168286787E+03  0.26783144225E+03  0.00000000000E+00 0. -1.
        -13    1    5    5    0    0  0.51684687601E+02  0.30278581101E+03 -0.61058020261E+02  0.31317508860E+03  0.00000000000E+00 0.  1.
          1    1    6    6  503    0 -0.36624594652E+03  0.96865041799E+01 -0.13643779288E+03  0.39095420835E+03  0.00000000000E+00 0. -1.
         -1    1    6    6    0  503 -0.22705895523E+03 -0.63064644073E+02 -0.12714874668E+03  0.26776803816E+03  0.00000000000E+00 0.  1.
<mgrwt>
<rscale>  0 0.19095162E+04</rscale>
<asrwt>0</asrwt>
<pdfrwt beam="1">  1        2 0.19136098E+00 0.19095162E+04</pdfrwt>
<pdfrwt beam="2">  1       -1 0.11274742E+00 0.19095162E+04</pdfrwt>
<totfact> 0.13697671E+01</totfact>
</mgrwt>
</event>
<event>
12    7  0.2426980E-007  0.1985460E+04  0.7818608E-02  0.8613449E-01
          2   -1    0    0  501    0  0.00000000000E+00  0.00000000000E+00  0.15789207374E+04  0.15789207374E+04  0.00000000000E+00 0. -1.
         -3   -1    0    0    0  501 -0.00000000000E+00 -0.00000000000E+00 -0.62416867636E+03  0.62416867636E+03  0.00000000000E+00 0.  1.
         24    2    1    2    0    0  0.49045490969E+03  0.19371236751E+03  0.10281327362E+04  0.11581975380E+04  0.79335452639E+02 0.  0.
        254    2    1    2    0    0 -0.49045490969E+03 -0.19371236751E+03 -0.73380675117E+02  0.10448918758E+04  0.89907942298E+03 0.  0.
         23    2    4    4    0    0  0.76673823334E+02 -0.37971127858E+03 -0.17109934345E+03  0.43322172325E+03  0.91359432485E+02 0.  0.
         23    2    4    4    0    0 -0.56712873303E+03  0.18599891107E+03  0.97718668335E+02  0.61167015253E+03  0.91437643289E+02 0.  0.
          4    1    3    3  502    0  0.45114035723E+03  0.19369813313E+03  0.97952709941E+03  0.10956824025E+04  0.00000000000E+00 0. -1.
         -3    1    3    3    0  502  0.39314552468E+02  0.14234373090E-01  0.48605636754E+02  0.62515135468E+02  0.00000000000E+00 0.  1.
         13    1    5    5    0    0  0.92098754729E+02 -0.23714029472E+03 -0.10275409123E+03  0.27436490896E+03  0.00000000000E+00 0. -1.
        -13    1    5    5    0    0 -0.15424931395E+02 -0.14257098385E+03 -0.68345252221E+02  0.15885681429E+03  0.00000000000E+00 0.  1.
          3    1    6    6  503    0 -0.42630126983E+03  0.16025630833E+03  0.10826975956E+03  0.46812092226E+03  0.00000000000E+00 0. -1.
         -3    1    6    6    0  503 -0.14082746320E+03  0.25742602736E+02 -0.10551091221E+02  0.14354923027E+03  0.00000000000E+00 0.  1.
<mgrwt>
<rscale>  0 0.19854600E+04</rscale>
<asrwt>0</asrwt>
<pdfrwt beam="1">  1        2 0.24291088E+00 0.19854600E+04</pdfrwt>
<pdfrwt beam="2">  1       -3 0.96025951E-01 0.19854600E+04</pdfrwt>
<totfact> 0.65184713E+00</totfact>
</mgrwt>
</event>
<event>
12    7  0.2426980E-007  0.1825098E+04  0.7818608E-02  0.8693065E-01
         -1   -1    0    0    0  501 -0.00000000000E+00  0.00000000000E+00  0.14300708742E+04  0.14300708742E+04  0.00000000000E+00 0.  1.
          2   -1    0    0  501    0  0.00000000000E+00 -0.00000000000E+00 -0.58231093475E+03  0.58231093475E+03  0.00000000000E+00 0. -1.
         24    2    1    2    0    0  0.64657905532E+03 -0.18311689095E+03  0.47177151443E+03  0.82554530570E+03  0.85792886615E+02 0.  0.
        254    2    1    2    0    0 -0.64657905532E+03  0.18311689095E+03  0.37598842499E+03  0.11868365032E+04  0.90311534099E+03 0.  0.
         23    2    4    4    0    0 -0.27537031654E+03  0.37643584903E+03  0.54815548048E+03  0.72572311052E+03  0.93095879080E+02 0.  0.
         23    2    4    4    0    0 -0.37120873878E+03 -0.19331895808E+03 -0.17216705549E+03  0.46111339270E+03  0.88407684251E+02 0.  0.
          4    1    3    3  502    0  0.11075050173E+03 -0.53649969086E+02  0.56655696346E+02  0.13547642136E+03  0.00000000000E+00 0. -1.
         -3    1    3    3    0  502  0.53582855360E+03 -0.12946692187E+03  0.41511581809E+03  0.69006888434E+03  0.00000000000E+00 0.  1.
         13    1    5    5    0    0 -0.75931204812E+02  0.12707497919E+03  0.11425687159E+03  0.18699794358E+03  0.00000000000E+00 0.  1.
        -13    1    5    5    0    0 -0.19943911173E+03  0.24936086984E+03  0.43389860889E+03  0.53872516694E+03  0.00000000000E+00 0. -1.
          1    1    6    6  503    0 -0.36789259033E+03 -0.18870491603E+03 -0.18040143265E+03  0.45110883416E+03  0.00000000000E+00 0. -1.
         -1    1    6    6    0  503 -0.33161484504E+01 -0.46140420462E+01  0.82343771557E+01  0.10004558546E+02  0.00000000000E+00 0.  1.
<mgrwt>
<rscale>  0 0.18250983E+04</rscale>
<asrwt>0</asrwt>
<pdfrwt beam="1">  1        2 0.89586298E-01 0.18250983E+04</pdfrwt>
<pdfrwt beam="2">  1       -1 0.22001090E+00 0.18250983E+04</pdfrwt>
<totfact> 0.60885175E+00</totfact>
</mgrwt>
</event>
<event>
12    7  0.2426980E-007  0.1771281E+04  0.7818608E-02  0.8721723E-01
         -1   -1    0    0    0  501 -0.00000000000E+00  0.00000000000E+00  0.10186468033E+04  0.10186468033E+04  0.00000000000E+00 0.  1.
          2   -1    0    0  501    0  0.00000000000E+00 -0.00000000000E+00 -0.77000093466E+03  0.77000093466E+03  0.00000000000E+00 0. -1.
         24    2    1    2    0    0  0.11500236315E+03 -0.63831208234E+03  0.17515260500E+03  0.67657160606E+03  0.80017779907E+02 0.  0.
        254    2    1    2    0    0 -0.11500236315E+03  0.63831208234E+03  0.73493263680E+02  0.11120761319E+04  0.90035782076E+03 0.  0.
         23    2    4    4    0    0 -0.14045753309E+03  0.34951805432E+03  0.47196604676E+03  0.61092198138E+03  0.92641940508E+02 0.  0.
         23    2    4    4    0    0  0.25455169942E+02  0.28879402802E+03 -0.39847278308E+03  0.50115415055E+03  0.91241259607E+02 0.  0.
          2    1    3    3  502    0  0.34021201784E+02 -0.22350457668E+03  0.22442391654E+02  0.22719022627E+03  0.00000000000E+00 0. -1.
         -3    1    3    3    0  502  0.80981161368E+02 -0.41480750566E+03  0.15271021334E+03  0.44938137979E+03  0.00000000000E+00 0.  1.
         13    1    5    5    0    0 -0.64803858389E+02  0.64652610918E+02  0.89060976445E+02  0.12771592573E+03  0.00000000000E+00 0. -1.
        -13    1    5    5    0    0 -0.75653674706E+02  0.28486544340E+03  0.38290507032E+03  0.48320605565E+03  0.00000000000E+00 0.  1.
          4    1    6    6  503    0  0.44611799379E+02  0.22249822407E+03 -0.25124046331E+03  0.33855197941E+03  0.00000000000E+00 0. -1.
         -4    1    6    6    0  503 -0.19156629437E+02  0.66295803952E+02 -0.14723231977E+03  0.16260217113E+03  0.00000000000E+00 0.  1.
<mgrwt>
<rscale>  0 0.17712809E+04</rscale>
<asrwt>0</asrwt>
<pdfrwt beam="1">  1        2 0.11846168E+00 0.17712809E+04</pdfrwt>
<pdfrwt beam="2">  1       -1 0.15671489E+00 0.17712809E+04</pdfrwt>
<totfact> 0.12117679E+01</totfact>
</mgrwt>
</event>
<event>
12    7  0.2426980E-007  0.1344912E+04  0.7818608E-02  0.8994689E-01
          2   -1    0    0  501    0  0.00000000000E+00  0.00000000000E+00  0.32054851676E+03  0.32054851676E+03  0.00000000000E+00 0. -1.
         -1   -1    0    0    0  501 -0.00000000000E+00 -0.00000000000E+00 -0.14106968955E+04  0.14106968955E+04  0.00000000000E+00 0.  1.
         24    2    1    2    0    0 -0.28446631991E+03 -0.80044086571E+02 -0.60372707676E+03  0.67642393831E+03  0.75728582076E+02 0.  0.
        254    2    1    2    0    0  0.28446631991E+03  0.80044086571E+02 -0.48642130203E+03  0.10548214740E+04  0.88809600606E+03 0.  0.
         23    2    4    4    0    0 -0.27428550311E+03 -0.12411151821E+03 -0.68120372667E+02  0.32171836011E+03  0.90697915583E+02 0.  0.
         23    2    4    4    0    0  0.55875182302E+03  0.20415560478E+03 -0.41830092936E+03  0.73310311388E+03  0.92635832095E+02 0.  0.
          2    1    3    3  502    0 -0.66599747666E+02  0.11340891677E+02 -0.11015944881E+03  0.12922556394E+03  0.00000000000E+00 0. -1.
         -1    1    3    3    0  502 -0.21786657225E+03 -0.91384978248E+02 -0.49356762795E+03  0.54719837437E+03  0.00000000000E+00 0.  1.
         13    1    5    5    0    0 -0.11123139644E+03 -0.39944299797E+02  0.17067727964E+02  0.11941221872E+03  0.00000000000E+00 0. -1.
        -13    1    5    5    0    0 -0.16305410666E+03 -0.84167218415E+02 -0.85188100632E+02  0.20230614139E+03  0.00000000000E+00 0.  1.
          4    1    6    6  503    0  0.10707775126E+02 -0.76105941098E+01 -0.17490181227E+02  0.21874277822E+02  0.00000000000E+00 0. -1.
         -4    1    6    6    0  503  0.54804404790E+03  0.21176619889E+03 -0.40081074813E+03  0.71122883606E+03  0.00000000000E+00 0.  1.
<mgrwt>
<rscale>  0 0.13449116E+04</rscale>
<asrwt>0</asrwt>
<pdfrwt beam="1">  1        2 0.49315155E-01 0.13449116E+04</pdfrwt>
<pdfrwt beam="2">  1       -1 0.21703030E+00 0.13449116E+04</pdfrwt>
<totfact> 0.13150039E+01</totfact>
</mgrwt>
</event>
<event>
12    7  0.2426980E-007  0.1593518E+04  0.7818608E-02  0.8824540E-01
          2   -1    0    0  501    0  0.00000000000E+00  0.00000000000E+00  0.13665998686E+04  0.13665998686E+04  0.00000000000E+00 0. -1.
         -1   -1    0    0    0  501 -0.00000000000E+00 -0.00000000000E+00 -0.46452872839E+03  0.46452872839E+03  0.00000000000E+00 0.  1.
         24    2    1    2    0    0  0.14170590213E+03  0.48618772318E+03  0.52028032954E+03  0.73055417401E+03  0.80985893735E+02 0.  0.
        254    2    1    2    0    0 -0.14170590213E+03 -0.48618772318E+03  0.38179081067E+03  0.11005744230E+04  0.89946693798E+03 0.  0.
         23    2    4    4    0    0 -0.47510536603E+03 -0.78454284812E+02  0.25287077749E+03  0.55089230513E+03  0.87512959692E+02 0.  0.
         23    2    4    4    0    0  0.33339946389E+03 -0.40773343837E+03  0.12892003319E+03  0.54968211785E+03  0.90157065354E+02 0.  0.
          2    1    3    3  502    0  0.63675376900E+02  0.30978213135E+03  0.27974682805E+03  0.42222957065E+03  0.00000000000E+00 0. -1.
         -1    1    3    3    0  502  0.78030525234E+02  0.17640559183E+03  0.24053350149E+03  0.30832460336E+03  0.00000000000E+00 0.  1.
         13    1    5    5    0    0 -0.14970958595E+03 -0.64893487679E+02  0.97145227978E+02  0.18989818374E+03  0.00000000000E+00 0.  1.
        -13    1    5    5    0    0 -0.32539578007E+03 -0.13560797133E+02  0.15572554951E+03  0.36099412139E+03  0.00000000000E+00 0. -1.
          4    1    6    6  503    0  0.33297706156E+03 -0.38857853189E+03  0.11138863916E+03  0.52371216130E+03  0.00000000000E+00 0. -1.
         -4    1    6    6    0  503  0.42240233573E+00 -0.19154906486E+02  0.17531394027E+02  0.25969956541E+02  0.00000000000E+00 0.  1.
<mgrwt>
<rscale>  0 0.15935180E+04</rscale>
<asrwt>0</asrwt>
<pdfrwt beam="1">  1        2 0.21024613E+00 0.15935180E+04</pdfrwt>
<pdfrwt beam="2">  1       -1 0.71465959E-01 0.15935180E+04</pdfrwt>
<totfact> 0.32696769E+01</totfact>
</mgrwt>
</event>
<event>
12    7  0.2426980E-007  0.1230838E+04  0.7818608E-02  0.9086284E-01
          2   -1    0    0  501    0  0.00000000000E+00  0.00000000000E+00  0.10385901481E+04  0.10385901481E+04  0.00000000000E+00 0. -1.
         -1   -1    0    0    0  501 -0.00000000000E+00 -0.00000000000E+00 -0.36466788005E+03  0.36466788005E+03  0.00000000000E+00 0.  1.
         24    2    1    2    0    0  0.12935776333E+03  0.24517259631E+03  0.20936751618E+03  0.35652608695E+03  0.80206364688E+02 0.  0.
        254    2    1    2    0    0 -0.12935776333E+03 -0.24517259631E+03  0.46455475191E+03  0.10467319412E+04  0.89609910521E+03 0.  0.
         23    2    4    4    0    0  0.36375325902E+03 -0.22034343638E+03  0.17853249766E+03  0.46876628657E+03  0.83667886882E+02 0.  0.
         23    2    4    4    0    0 -0.49311102235E+03 -0.24829159926E+02  0.28602225425E+03  0.57796565467E+03  0.91981522608E+02 0.  0.
          2    1    3    3  502    0 -0.15793337319E+01  0.18138755526E+02  0.41422369809E+02  0.45247336581E+02  0.00000000000E+00 0. -1.
         -1    1    3    3    0  502  0.13093709706E+03  0.22703384078E+03  0.16794514637E+03  0.31127875037E+03  0.00000000000E+00 0.  1.
         13    1    5    5    0    0  0.27510288596E+03 -0.20029964425E+03  0.12084483968E+03  0.36111635331E+03  0.00000000000E+00 0.  1.
        -13    1    5    5    0    0  0.88650373061E+02 -0.20043792131E+02  0.57687657982E+02  0.10764993326E+03  0.00000000000E+00 0. -1.
          3    1    6    6  503    0 -0.28882950050E+03 -0.55972125285E+02  0.18900057306E+03  0.34968067688E+03  0.00000000000E+00 0. -1.
         -3    1    6    6    0  503 -0.20428152185E+03  0.31142965359E+02  0.97021681192E+02  0.22828497779E+03  0.00000000000E+00 0.  1.
<mgrwt>
<rscale>  0 0.12308379E+04</rscale>
<asrwt>0</asrwt>
<pdfrwt beam="1">  1        2 0.15978310E+00 0.12308379E+04</pdfrwt>
<pdfrwt beam="2">  1       -1 0.56102751E-01 0.12308379E+04</pdfrwt>
<totfact> 0.85917601E+01</totfact>
</mgrwt>
</event>
<event>
12    7  0.2426980E-007  0.3049149E+04  0.7818608E-02  0.8229834E-01
          2   -1    0    0  501    0  0.00000000000E+00  0.00000000000E+00  0.43417563855E+04  0.43417563855E+04  0.00000000000E+00 0. -1.
         -1   -1    0    0    0  501 -0.00000000000E+00 -0.00000000000E+00 -0.53534254126E+03  0.53534254126E+03  0.00000000000E+00 0.  1.
         24    2    1    2    0    0  0.11356960212E+04 -0.76534121312E+03  0.13476403119E+04  0.19230257903E+04  0.79631369473E+02 0.  0.
        254    2    1    2    0    0 -0.11356960212E+04  0.76534121312E+03  0.24587735323E+04  0.29540731364E+04  0.89745650977E+03 0.  0.
         23    2    4    4    0    0 -0.72284826796E+03  0.85068140061E+03  0.12880165017E+04  0.17069060572E+04  0.91505822401E+02 0.  0.
         23    2    4    4    0    0 -0.41284775322E+03 -0.85340187494E+02  0.11707570307E+04  0.12471670793E+04  0.83830088820E+02 0.  0.
          2    1    3    3  502    0  0.99111893759E+03 -0.67445973395E+03  0.12141367988E+04  0.17062651750E+04  0.00000000000E+00 0. -1.
         -1    1    3    3    0  502  0.14457708359E+03 -0.90881479173E+02  0.13350351309E+03  0.21676061534E+03  0.00000000000E+00 0.  1.
         13    1    5    5    0    0 -0.47442567425E+03  0.54996948820E+03  0.90271355371E+03  0.11586362321E+04  0.00000000000E+00 0. -1.
        -13    1    5    5    0    0 -0.24842259371E+03  0.30071191241E+03  0.38530294797E+03  0.54826982503E+03  0.00000000000E+00 0.  1.
          2    1    6    6  503    0 -0.30699107617E+02 -0.25859611685E+02  0.15962803669E+03  0.16459728073E+03  0.00000000000E+00 0. -1.
         -2    1    6    6    0  503 -0.38214864560E+03 -0.59480575810E+02  0.10111289940E+04  0.10825697985E+04  0.00000000000E+00 0.  1.
<mgrwt>
<rscale>  0 0.30491487E+04</rscale>
<asrwt>0</asrwt>
<pdfrwt beam="1">  1        2 0.66796250E+00 0.30491487E+04</pdfrwt>
<pdfrwt beam="2">  1       -1 0.82360394E-01 0.30491487E+04</pdfrwt>
<totfact> 0.24645229E-01</totfact>
</mgrwt>
</event>
<event>
12    7  0.2426980E-007  0.1140942E+04  0.7818608E-02  0.9166181E-01
         -1   -1    0    0    0  501 -0.00000000000E+00  0.00000000000E+00  0.10388898829E+04  0.10388898829E+04  0.00000000000E+00 0.  1.
          2   -1    0    0  501    0  0.00000000000E+00 -0.00000000000E+00 -0.31325453779E+03  0.31325453779E+03  0.00000000000E+00 0. -1.
         24    2    1    2    0    0  0.18389154132E+03 -0.36336589294E+01  0.41851735092E+02  0.20471731385E+03  0.79550665704E+02 0.  0.
        254    2    1    2    0    0 -0.18389154132E+03  0.36336589294E+01  0.68378361005E+03  0.11474271069E+04  0.90288406662E+03 0.  0.
         23    2    4    4    0    0 -0.46864952473E+03  0.23152101387E+03  0.49970601815E+03  0.72873992625E+03  0.90118913894E+02 0.  0.
         23    2    4    4    0    0  0.28475798341E+03 -0.22788735494E+03  0.18407759190E+03  0.41868718062E+03  0.91622266484E+02 0.  0.
          2    1    3    3  502    0  0.88477086855E+02  0.24114419527E+02 -0.10670455574E+02  0.92323121424E+02  0.00000000000E+00 0. -1.
         -1    1    3    3    0  502  0.95414454463E+02 -0.27748078456E+02  0.52522190666E+02  0.11239419242E+03  0.00000000000E+00 0.  1.
         13    1    5    5    0    0 -0.36961112929E+03  0.14130327696E+03  0.35600726968E+03  0.53227829097E+03  0.00000000000E+00 0.  1.
        -13    1    5    5    0    0 -0.99038395440E+02  0.90217736905E+02  0.14369874847E+03  0.19646163527E+03  0.00000000000E+00 0. -1.
          3    1    6    6  503    0  0.92395996685E+02 -0.12787032591E+03  0.95981894624E+02  0.18466284019E+03  0.00000000000E+00 0. -1.
         -3    1    6    6    0  503  0.19236198673E+03 -0.10001702903E+03  0.88095697277E+02  0.23402434043E+03  0.00000000000E+00 0.  1.
<mgrwt>
<rscale>  0 0.11409417E+04</rscale>
<asrwt>0</asrwt>
<pdfrwt beam="1">  1        2 0.48193006E-01 0.11409417E+04</pdfrwt>
<pdfrwt beam="2">  1       -1 0.15982921E+00 0.11409417E+04</pdfrwt>
<totfact> 0.34798778E+01</totfact>
</mgrwt>
</event>
<event>
12    7  0.2426980E-007  0.3507731E+04  0.7818608E-02  0.8111960E-01
         -1   -1    0    0    0  501 -0.00000000000E+00  0.00000000000E+00  0.19888288078E+04  0.19888288078E+04  0.00000000000E+00 0.  1.
          2   -1    0    0  501    0  0.00000000000E+00 -0.00000000000E+00 -0.15466609279E+04  0.15466609279E+04  0.00000000000E+00 0. -1.
         24    2    1    2    0    0  0.61350696025E+03 -0.14911432868E+04 -0.82842783341E+02  0.16163365471E+04  0.76038244290E+02 0.  0.
        254    2    1    2    0    0 -0.61350696025E+03  0.14911432868E+04  0.52501066325E+03  0.19191531886E+04  0.89867328485E+03 0.  0.
         23    2    4    4    0    0 -0.14264419996E+03 -0.82830150734E+02  0.12512173590E+03  0.22595483422E+03  0.90509318100E+02 0.  0.
         23    2    4    4    0    0 -0.47086276030E+03  0.15739734375E+04  0.39988892735E+03  0.16931983544E+04  0.88912271948E+02 0.  0.
          2    1    3    3  502    0  0.37506799603E+03 -0.89169463949E+03 -0.86204204423E+02  0.97119848466E+03  0.00000000000E+00 0. -1.
         -1    1    3    3    0  502  0.23843896423E+03 -0.59944864729E+03  0.33614210823E+01  0.64513806240E+03  0.00000000000E+00 0.  1.
         13    1    5    5    0    0 -0.40096381907E+02  0.18243596966E+02  0.32648586989E+02  0.54831367890E+02  0.00000000000E+00 0. -1.
        -13    1    5    5    0    0 -0.10254781805E+03 -0.10107374770E+03  0.92473148908E+02  0.17112346633E+03  0.00000000000E+00 0.  1.
          3    1    6    6  503    0 -0.15972292864E+03  0.54090143312E+03  0.94057200731E+02  0.57178014244E+03  0.00000000000E+00 0. -1.
         -3    1    6    6    0  503 -0.31113983166E+03  0.10330720044E+04  0.30583172662E+03  0.11214182120E+04  0.00000000000E+00 0.  1.
<mgrwt>
<rscale>  0 0.35077308E+04</rscale>
<asrwt>0</asrwt>
<pdfrwt beam="1">  1        2 0.23794783E+00 0.35077308E+04</pdfrwt>
<pdfrwt beam="2">  1       -1 0.30597367E+00 0.35077308E+04</pdfrwt>
<totfact> 0.33731654E-01</totfact>
</mgrwt>
</event>
<event>
12    7  0.2426980E-007  0.3456713E+04  0.7818608E-02  0.8124126E-01
          4   -1    0    0  501    0  0.00000000000E+00  0.00000000000E+00  0.23243284192E+04  0.23243284192E+04  0.00000000000E+00 0. -1.
         -1   -1    0    0    0  501 -0.00000000000E+00 -0.00000000000E+00 -0.12851957606E+04  0.12851957606E+04  0.00000000000E+00 0.  1.
         24    2    1    2    0    0 -0.91345982599E+03  0.12281124370E+04 -0.34931154261E+02  0.15335629476E+04  0.89028742464E+02 0.  0.
        254    2    1    2    0    0  0.91345982599E+03 -0.12281124370E+04  0.10740638129E+04  0.20759612323E+04  0.90184973920E+03 0.  0.
         23    2    4    4    0    0  0.84952785054E+03 -0.44254416820E+03  0.74565837882E+03  0.12173413582E+04  0.91491283367E+02 0.  0.
         23    2    4    4    0    0  0.63931975445E+02 -0.78556826881E+03  0.32840543407E+03  0.85861987402E+03  0.90405511429E+02 0.  0.
          2    1    3    3  502    0 -0.10600721952E+03  0.18617578668E+03 -0.21421774755E+02  0.21530872386E+03  0.00000000000E+00 0. -1.
         -1    1    3    3    0  502 -0.80745260647E+03  0.10419366503E+04 -0.13509379506E+02  0.13182542237E+04  0.00000000000E+00 0.  1.
         13    1    5    5    0    0  0.27033269473E+03 -0.18225767394E+03  0.28226468674E+03  0.43124352624E+03  0.00000000000E+00 0.  1.
        -13    1    5    5    0    0  0.57919515581E+03 -0.26028649426E+03  0.46339369208E+03  0.78609783200E+03  0.00000000000E+00 0. -1.
          2    1    6    6  503    0  0.20133172371E+02 -0.46800970899E+03  0.23863138125E+03  0.52572175954E+03  0.00000000000E+00 0. -1.
         -2    1    6    6    0  503  0.43798803074E+02 -0.31755855982E+03  0.89774052817E+02  0.33289811448E+03  0.00000000000E+00 0.  1.
<mgrwt>
<rscale>  0 0.34567135E+04</rscale>
<asrwt>0</asrwt>
<pdfrwt beam="1">  1        4 0.35758899E+00 0.34567135E+04</pdfrwt>
<pdfrwt beam="2">  1       -1 0.19772243E+00 0.34567135E+04</pdfrwt>
<totfact> 0.68702353E-03</totfact>
</mgrwt>
</event>
<event>
12    7  0.2426980E-007  0.1461589E+04  0.7818608E-02  0.8910405E-01
         -1   -1    0    0    0  501 -0.00000000000E+00  0.00000000000E+00  0.18249963152E+04  0.18249963152E+04  0.00000000000E+00 0.  1.
          2   -1    0    0  501    0  0.00000000000E+00 -0.00000000000E+00 -0.29263656736E+03  0.29263656736E+03  0.00000000000E+00 0. -1.
         24    2    1    2    0    0  0.36168264579E+03  0.23709371655E+02  0.92501198705E+02  0.38092322632E+03  0.71899666347E+02 0.  0.
        254    2    1    2    0    0 -0.36168264579E+03 -0.23709371655E+02  0.14398585491E+04  0.17367096562E+04  0.90088363176E+03 0.  0.
         23    2    4    4    0    0 -0.50455116500E+02 -0.10585741385E+03  0.13909762532E+04  0.13986753460E+04  0.87899235513E+02 0.  0.
         23    2    4    4    0    0 -0.31122752929E+03  0.82148042192E+02  0.48882295917E+02  0.33803431025E+03  0.90922165779E+02 0.  0.
          2    1    3    3  502    0  0.18205706466E+03 -0.21484526138E+02  0.32170696702E+02  0.18612177031E+03  0.00000000000E+00 0. -1.
         -1    1    3    3    0  502  0.17962558113E+03  0.45193897793E+02  0.60330502003E+02  0.19480145601E+03  0.00000000000E+00 0.  1.
         13    1    5    5    0    0 -0.17356330101E+02 -0.90821232568E+02  0.12376081282E+04  0.12410574594E+04  0.00000000000E+00 0. -1.
        -13    1    5    5    0    0 -0.33098786399E+02 -0.15036181279E+02  0.15336812502E+03  0.15761788661E+03  0.00000000000E+00 0.  1.
          2    1    6    6  503    0 -0.25879709493E+03  0.45773919671E+02  0.93733021886E+01  0.26298107700E+03  0.00000000000E+00 0. -1.
         -2    1    6    6    0  503 -0.52430434363E+02  0.36374122521E+02  0.39508993728E+02  0.75053233255E+02  0.00000000000E+00 0.  1.
<mgrwt>
<rscale>  0 0.14615891E+04</rscale>
<asrwt>0</asrwt>
<pdfrwt beam="1">  1        2 0.45021011E-01 0.14615891E+04</pdfrwt>
<pdfrwt beam="2">  1       -1 0.28076866E+00 0.14615891E+04</pdfrwt>
<totfact> 0.55223108E+00</totfact>
</mgrwt>
</event>
<event>
12    7  0.2426980E-007  0.3089343E+04  0.7818608E-02  0.8218669E-01
          2   -1    0    0  501    0  0.00000000000E+00  0.00000000000E+00  0.26482824339E+04  0.26482824339E+04  0.00000000000E+00 0. -1.
         -1   -1    0    0    0  501 -0.00000000000E+00 -0.00000000000E+00 -0.90096494040E+03  0.90096494040E+03  0.00000000000E+00 0.  1.
         24    2    1    2    0    0 -0.13986416616E+04 -0.17224754162E+03  0.89472811644E+03  0.16711830115E+04  0.80290363238E+02 0.  0.
        254    2    1    2    0    0  0.13986416616E+04  0.17224754162E+03  0.85258937705E+03  0.18780643628E+04  0.90241309377E+03 0.  0.
         23    2    4    4    0    0  0.23451954571E+03 -0.22725282117E+02  0.62294812314E+03  0.67207222705E+03  0.90004769229E+02 0.  0.
         23    2    4    4    0    0  0.11641221159E+04  0.19497282374E+03  0.22964125391E+03  0.12059921357E+04  0.92126127094E+02 0.  0.
          4    1    3    3  502    0 -0.20593175066E+02 -0.86695190640E+01  0.24575912268E+02  0.33214678741E+02  0.00000000000E+00 0. -1.
         -3    1    3    3    0  502 -0.13780484865E+04 -0.16357802256E+03  0.87015220417E+03  0.16379683328E+04  0.00000000000E+00 0.  1.
         13    1    5    5    0    0  0.17712586831E+03  0.11526748295E+02  0.51877700409E+03  0.54830285348E+03  0.00000000000E+00 0. -1.
        -13    1    5    5    0    0  0.57393677394E+02 -0.34252030413E+02  0.10417111905E+03  0.12376937358E+03  0.00000000000E+00 0.  1.
          3    1    6    6  503    0  0.74733916498E+03  0.81482274952E+02  0.15650152376E+03  0.76788535315E+03  0.00000000000E+00 0. -1.
         -3    1    6    6    0  503  0.41678295090E+03  0.11349054879E+03  0.73139730153E+02  0.43810678259E+03  0.00000000000E+00 0.  1.
<mgrwt>
<rscale>  0 0.30893427E+04</rscale>
<asrwt>0</asrwt>
<pdfrwt beam="1">  1        2 0.40742806E+00 0.30893427E+04</pdfrwt>
<pdfrwt beam="2">  1       -1 0.13860999E+00 0.30893427E+04</pdfrwt>
<totfact> 0.11836794E+00</totfact>
</mgrwt>
</event>
<event>
12    7  0.2426980E-007  0.3532045E+04  0.7818608E-02  0.8106237E-01
         -1   -1    0    0    0  501 -0.00000000000E+00  0.00000000000E+00  0.13714844290E+04  0.13714844290E+04  0.00000000000E+00 0.  1.
          2   -1    0    0  501    0  0.00000000000E+00 -0.00000000000E+00 -0.22740579428E+04  0.22740579428E+04  0.00000000000E+00 0. -1.
         24    2    1    2    0    0 -0.11865053312E+04 -0.53916468513E+03 -0.14674545032E+04  0.19640985101E+04  0.75939314857E+02 0.  0.
        254    2    1    2    0    0  0.11865053312E+04  0.53916468513E+03  0.56488098946E+03  0.16814438618E+04  0.89981635326E+03 0.  0.
         23    2    4    4    0    0  0.36385434907E+03  0.89940408337E+02  0.62986629553E+03  0.73743572036E+03  0.81244242986E+02 0.  0.
         23    2    4    4    0    0  0.82265098210E+03  0.44922427679E+03 -0.64985306076E+02  0.94400814145E+03  0.91494218010E+02 0.  0.
          2    1    3    3  502    0 -0.48677174617E+03 -0.24867114759E+03 -0.65720626917E+03  0.85481234943E+03  0.00000000000E+00 0. -1.
         -1    1    3    3    0  502 -0.69973358500E+03 -0.29049353754E+03 -0.81024823407E+03  0.11092861606E+04  0.00000000000E+00 0.  1.
         13    1    5    5    0    0  0.83879534664E+02  0.39430629837E+01  0.20369871315E+03  0.22032814123E+03  0.00000000000E+00 0. -1.
        -13    1    5    5    0    0  0.27997481441E+03  0.85997345353E+02  0.42616758239E+03  0.51710757912E+03  0.00000000000E+00 0.  1.
          2    1    6    6  503    0 -0.13022842028E+00 -0.22523223472E+01  0.21289654767E+01  0.31020008701E+01  0.00000000000E+00 0.  1.
         -2    1    6    6    0  503  0.82278121052E+03  0.45147659914E+03 -0.67114271552E+02  0.94090614058E+03  0.00000000000E+00 0. -1.
<mgrwt>
<rscale>  0 0.35320448E+04</rscale>
<asrwt>0</asrwt>
<pdfrwt beam="1">  1        2 0.34985507E+00 0.35320448E+04</pdfrwt>
<pdfrwt beam="2">  1       -1 0.21099760E+00 0.35320448E+04</pdfrwt>
<totfact> 0.55306782E-01</totfact>
</mgrwt>
</event>
<event>
12    7  0.2426980E-007  0.2903771E+04  0.7818608E-02  0.8271756E-01
          2   -1    0    0  501    0  0.00000000000E+00  0.00000000000E+00  0.23716974382E+04  0.23716974382E+04  0.00000000000E+00 0. -1.
         -1   -1    0    0    0  501 -0.00000000000E+00 -0.00000000000E+00 -0.88880264870E+03  0.88880264870E+03  0.00000000000E+00 0.  1.
         24    2    1    2    0    0  0.50217711462E+03  0.11045637189E+04  0.12278046997E+04  0.17280475382E+04  0.80006561171E+02 0.  0.
        254    2    1    2    0    0 -0.50217711462E+03 -0.11045637189E+04  0.25509008975E+03  0.15324525487E+04  0.90060923631E+03 0.  0.
         23    2    4    4    0    0  0.72106124017E+02 -0.51540603038E+03  0.43727211693E+03  0.68491765565E+03  0.84039404453E+02 0.  0.
         23    2    4    4    0    0 -0.57428323863E+03 -0.58915768857E+03 -0.18218202718E+03  0.84753489307E+03  0.90648131642E+02 0.  0.
          2    1    3    3  502    0  0.28118468276E+03  0.67573793114E+03  0.78397154413E+03  0.10725194448E+04  0.00000000000E+00 0. -1.
         -1    1    3    3    0  502  0.22099243186E+03  0.42882578780E+03  0.44383315559E+03  0.65552809339E+03  0.00000000000E+00 0.  1.
         13    1    5    5    0    0 -0.14371442894E+02 -0.86316927687E+02  0.51955771557E+02  0.10176714880E+03  0.00000000000E+00 0.  1.
        -13    1    5    5    0    0  0.86477566911E+02 -0.42908910269E+03  0.38531634537E+03  0.58315050685E+03  0.00000000000E+00 0. -1.
          1    1    6    6  503    0 -0.57024201544E+03 -0.56393776850E+03 -0.17343769035E+03  0.82053786954E+03  0.00000000000E+00 0. -1.
         -1    1    6    6    0  503 -0.40412231986E+01 -0.25219920069E+02 -0.87443368208E+01  0.26997023534E+02  0.00000000000E+00 0.  1.
<mgrwt>
<rscale>  0 0.29037706E+04</rscale>
<asrwt>0</asrwt>
<pdfrwt beam="1">  1        2 0.36487653E+00 0.29037706E+04</pdfrwt>
<pdfrwt beam="2">  1       -1 0.13673887E+00 0.29037706E+04</pdfrwt>
<totfact> 0.18038909E+00</totfact>
</mgrwt>
</event>
<event>
12    7  0.2426980E-007  0.2233705E+04  0.7818608E-02  0.8504529E-01
         -1   -1    0    0    0  501 -0.00000000000E+00  0.00000000000E+00  0.56321549772E+03  0.56321549772E+03  0.00000000000E+00 0.  1.
          2   -1    0    0  501    0  0.00000000000E+00 -0.00000000000E+00 -0.22147118251E+04  0.22147118251E+04  0.00000000000E+00 0. -1.
         24    2    1    2    0    0 -0.95077163656E+02  0.92102999956E+03 -0.57133827970E+03  0.10910263044E+04  0.81086620117E+02 0.  0.
        254    2    1    2    0    0  0.95077163656E+02 -0.92102999956E+03 -0.10801580477E+04  0.16869010184E+04  0.90639820760E+03 0.  0.
         23    2    4    4    0    0 -0.30180063226E+03 -0.75076454972E+02 -0.45548979472E+03  0.55921351727E+03  0.92351010172E+02 0.  0.
         23    2    4    4    0    0  0.39687779592E+03 -0.84595354459E+03 -0.62466825294E+03  0.11276875011E+04  0.91210138807E+02 0.  0.
          2    1    3    3  502    0 -0.84952001302E+02  0.53895414942E+03 -0.30381749674E+03  0.62449458687E+03  0.00000000000E+00 0. -1.
         -1    1    3    3    0  502 -0.10125162354E+02  0.38207585014E+03 -0.26752078296E+03  0.46653171756E+03  0.00000000000E+00 0.  1.
         13    1    5    5    0    0 -0.30615264444E+02 -0.40418307677E+02 -0.62471836758E+02  0.80459085257E+02  0.00000000000E+00 0. -1.
        -13    1    5    5    0    0 -0.27118536782E+03 -0.34658147295E+02 -0.39301795797E+03  0.47875443202E+03  0.00000000000E+00 0.  1.
          4    1    6    6  503    0  0.57839740304E+02 -0.20795799470E+03 -0.15981246287E+03  0.26857398684E+03  0.00000000000E+00 0. -1.
         -4    1    6    6    0  503  0.33903805561E+03 -0.63799554989E+03 -0.46485579008E+03  0.85911351427E+03  0.00000000000E+00 0.  1.
<mgrwt>
<rscale>  0 0.22337055E+04</rscale>
<asrwt>0</asrwt>
<pdfrwt beam="1">  1        2 0.34072489E+00 0.22337055E+04</pdfrwt>
<pdfrwt beam="2">  1       -1 0.86648539E-01 0.22337055E+04</pdfrwt>
<totfact> 0.68994415E+00</totfact>
</mgrwt>
</event>
<event>
12    7  0.2426980E-007  0.1226306E+04  0.7818608E-02  0.9090137E-01
          2   -1    0    0  501    0  0.00000000000E+00  0.00000000000E+00  0.55651044096E+03  0.55651044096E+03  0.00000000000E+00 0. -1.
         -1   -1    0    0    0  501 -0.00000000000E+00 -0.00000000000E+00 -0.67556106129E+03  0.67556106129E+03  0.00000000000E+00 0.  1.
         24    2    1    2    0    0 -0.23218336442E+03  0.12540727396E+03 -0.97424392934E+02  0.29268761916E+03  0.80860565159E+02 0.  0.
        254    2    1    2    0    0  0.23218336442E+03 -0.12540727396E+03 -0.21626227397E+02  0.93938388309E+03  0.90129811218E+03 0.  0.
         23    2    4    4    0    0 -0.95335221710E+02  0.97089733709E+00  0.37759391589E+03  0.40002731078E+03  0.91405343987E+02 0.  0.
         23    2    4    4    0    0  0.32751858613E+03 -0.12637817130E+03 -0.39922014329E+03  0.53935657231E+03  0.91043521682E+02 0.  0.
          2    1    3    3  502    0 -0.81572977589E+02  0.86484517462E+02 -0.26908493595E+02  0.12189253242E+03  0.00000000000E+00 0. -1.
         -1    1    3    3    0  502 -0.15061038683E+03  0.38922756499E+02 -0.70515899339E+02  0.17079508674E+03  0.00000000000E+00 0.  1.
         13    1    5    5    0    0 -0.22543451686E+02 -0.20016310293E+02  0.24868778458E+03  0.25050843118E+03  0.00000000000E+00 0.  1.
        -13    1    5    5    0    0 -0.72791770024E+02  0.20987207630E+02  0.12890613132E+03  0.14951887960E+03  0.00000000000E+00 0. -1.
          1    1    6    6  503    0  0.26846128642E+03 -0.10035099125E+03 -0.26462115333E+03  0.39008478378E+03  0.00000000000E+00 0. -1.
         -1    1    6    6    0  503  0.59057299712E+02 -0.26027180051E+02 -0.13459898996E+03  0.14927178852E+03  0.00000000000E+00 0.  1.
<mgrwt>
<rscale>  0 0.12263063E+04</rscale>
<asrwt>0</asrwt>
<pdfrwt beam="1">  1        2 0.85616991E-01 0.12263063E+04</pdfrwt>
<pdfrwt beam="2">  1       -1 0.10393247E+00 0.12263063E+04</pdfrwt>
<totfact> 0.53325718E+01</totfact>
</mgrwt>
</event>
<event>
12    7  0.2426980E-007  0.1234795E+04  0.7818608E-02  0.9082934E-01
         -1   -1    0    0    0  501 -0.00000000000E+00  0.00000000000E+00  0.21806379905E+03  0.21806379905E+03  0.00000000000E+00 0.  1.
          2   -1    0    0  501    0  0.00000000000E+00 -0.00000000000E+00 -0.17480204272E+04  0.17480204272E+04  0.00000000000E+00 0. -1.
         24    2    1    2    0    0  0.24359345634E+03 -0.13389428152E+03 -0.32420509260E+03  0.43486461311E+03  0.82053879090E+02 0.  0.
        254    2    1    2    0    0 -0.24359345634E+03  0.13389428152E+03 -0.12057515355E+04  0.15312196131E+04  0.90195969288E+03 0.  0.
         23    2    4    4    0    0  0.62054615467E+02 -0.21599409829E+03 -0.64297943140E+01  0.24216357534E+03  0.89986827751E+02 0.  0.
         23    2    4    4    0    0 -0.30564807180E+03  0.34988837981E+03 -0.11993217412E+04  0.12890560378E+04  0.86314584365E+02 0.  0.
          2    1    3    3  502    0  0.11261450126E+03 -0.10441369020E+03 -0.14740605078E+03  0.21286800700E+03  0.00000000000E+00 0. -1.
         -1    1    3    3    0  502  0.13097895508E+03 -0.29480591313E+02 -0.17679904182E+03  0.22199660611E+03  0.00000000000E+00 0.  1.
         13    1    5    5    0    0  0.61797253361E+02 -0.18473732290E+03 -0.37180071421E+02  0.19831575002E+03  0.00000000000E+00 0.  1.
        -13    1    5    5    0    0  0.25736210574E+00 -0.31256775395E+02  0.30750277107E+02  0.43847825322E+02  0.00000000000E+00 0. -1.
          2    1    6    6  503    0 -0.59801219595E+01  0.12617903192E+02 -0.96669010870E+02  0.97672263218E+02  0.00000000000E+00 0. -1.
         -2    1    6    6    0  503 -0.29966794984E+03  0.33727047662E+03 -0.11026527303E+04  0.11913837746E+04  0.00000000000E+00 0.  1.
<mgrwt>
<rscale>  0 0.12347955E+04</rscale>
<asrwt>0</asrwt>
<pdfrwt beam="1">  1        2 0.26892621E+00 0.12347955E+04</pdfrwt>
<pdfrwt beam="2">  1       -1 0.33548278E-01 0.12347955E+04</pdfrwt>
<totfact> 0.86585157E+01</totfact>
</mgrwt>
</event>
<event>
12    7  0.2426980E-007  0.1320221E+04  0.7818608E-02  0.9013682E-01
         -1   -1    0    0    0  501 -0.00000000000E+00  0.00000000000E+00  0.18850390471E+03  0.18850390471E+03  0.00000000000E+00 0.  1.
          2   -1    0    0  501    0  0.00000000000E+00 -0.00000000000E+00 -0.23116005484E+04  0.23116005484E+04  0.00000000000E+00 0. -1.
         24    2    1    2    0    0  0.92602300109E+02 -0.94507645819E+02  0.36271355827E+02  0.15688982329E+03  0.76104692990E+02 0.  0.
        254    2    1    2    0    0 -0.92602300109E+02  0.94507645819E+02 -0.21593679995E+04  0.23432146298E+04  0.90015429951E+03 0.  0.
         23    2    4    4    0    0  0.21540819978E+03 -0.31152527710E+03 -0.99280701902E+03  0.10668974575E+04  0.95685510730E+02 0.  0.
         23    2    4    4    0    0 -0.30801049989E+03  0.40603292291E+03 -0.11665609805E+04  0.12763171723E+04  0.91584936732E+02 0.  0.
          4    1    3    3  502    0  0.90266375647E+02 -0.42141816842E+02  0.17099822537E+02  0.10107598741E+03  0.00000000000E+00 0. -1.
         -3    1    3    3    0  502  0.23359244618E+01 -0.52365828978E+02  0.19171533290E+02  0.55813835886E+02  0.00000000000E+00 0.  1.
         13    1    5    5    0    0  0.63066967471E+02 -0.12514923719E+03 -0.25713464861E+03  0.29284467123E+03  0.00000000000E+00 0. -1.
        -13    1    5    5    0    0  0.15234123231E+03 -0.18637603991E+03 -0.73567237040E+03  0.77405278624E+03  0.00000000000E+00 0.  1.
          2    1    6    6  503    0 -0.40251337952E+02  0.83558985612E+02 -0.29442900745E+03  0.30869194145E+03  0.00000000000E+00 0. -1.
         -2    1    6    6    0  503 -0.26775916194E+03  0.32247393730E+03 -0.87213197303E+03  0.96762523087E+03  0.00000000000E+00 0.  1.
<mgrwt>
<rscale>  0 0.13202208E+04</rscale>
<asrwt>0</asrwt>
<pdfrwt beam="1">  1        2 0.35563086E+00 0.13202208E+04</pdfrwt>
<pdfrwt beam="2">  1       -1 0.29000600E-01 0.13202208E+04</pdfrwt>
<totfact> 0.54059920E+01</totfact>
</mgrwt>
</event>
<event>
12    7  0.2426980E-007  0.2009197E+04  0.7818608E-02  0.8602333E-01
          2   -1    0    0  501    0  0.00000000000E+00  0.00000000000E+00  0.19424604830E+04  0.19424604830E+04  0.00000000000E+00 0. -1.
         -1   -1    0    0    0  501 -0.00000000000E+00 -0.00000000000E+00 -0.51955648421E+03  0.51955648421E+03  0.00000000000E+00 0.  1.
         24    2    1    2    0    0 -0.71231996324E+02 -0.27804193091E+03 -0.34578336630E+03  0.45679955390E+03  0.81965745250E+02 0.  0.
        254    2    1    2    0    0  0.71231996324E+02  0.27804193091E+03  0.17686873651E+04  0.20052174134E+04  0.90014474759E+03 0.  0.
         23    2    4    4    0    0 -0.31525346486E+03  0.10767999691E+03  0.24971714355E+03  0.42602610077E+03  0.90331931844E+02 0.  0.
         23    2    4    4    0    0  0.38648546118E+03  0.17036193400E+03  0.15189702216E+04  0.15791913126E+04  0.90445936580E+02 0.  0.
          4    1    3    3  502    0 -0.20716013408E+02 -0.10914578033E+02 -0.12000117667E+02  0.26311291287E+02  0.00000000000E+00 0. -1.
         -3    1    3    3    0  502 -0.50515982916E+02 -0.26712735288E+03 -0.33378324863E+03  0.43048826262E+03  0.00000000000E+00 0.  1.
         13    1    5    5    0    0 -0.20533844595E+03  0.28357601491E+02  0.17480495251E+03  0.27115457283E+03  0.00000000000E+00 0. -1.
        -13    1    5    5    0    0 -0.10991501891E+03  0.79322395424E+02  0.74912191042E+02  0.15487152794E+03  0.00000000000E+00 0.  1.
          3    1    6    6  503    0  0.33462073620E+03  0.17462905503E+03  0.13836863971E+04  0.14342434903E+04  0.00000000000E+00 0. -1.
         -3    1    6    6    0  503  0.51864724981E+02 -0.42671210319E+01  0.13528382450E+03  0.14494782230E+03  0.00000000000E+00 0.  1.
<mgrwt>
<rscale>  0 0.20091968E+04</rscale>
<asrwt>0</asrwt>
<pdfrwt beam="1">  1        2 0.29884007E+00 0.20091968E+04</pdfrwt>
<pdfrwt beam="2">  1       -1 0.79931768E-01 0.20091968E+04</pdfrwt>
<totfact> 0.11879785E+01</totfact>
</mgrwt>
</event>
<event>
12    7  0.2426980E-007  0.2742032E+04  0.7818608E-02  0.8321495E-01
          2   -1    0    0  501    0  0.00000000000E+00  0.00000000000E+00  0.32645134574E+04  0.32645134574E+04  0.00000000000E+00 0. -1.
         -1   -1    0    0    0  501 -0.00000000000E+00 -0.00000000000E+00 -0.57579306519E+03  0.57579306519E+03  0.00000000000E+00 0.  1.
         24    2    1    2    0    0  0.73517143935E+03 -0.62516516873E+03  0.22512642943E+04  0.24507101702E+04  0.80503924932E+02 0.  0.
        254    2    1    2    0    0 -0.73517143935E+03  0.62516516873E+03  0.43745609788E+03  0.13895963524E+04  0.89905597800E+03 0.  0.
         23    2    4    4    0    0 -0.57542807592E+03  0.49630942352E+03 -0.13255486424E+03  0.77673654255E+03  0.91150151156E+02 0.  0.
         23    2    4    4    0    0 -0.15974336343E+03  0.12885574521E+03  0.57001096212E+03  0.61285980985E+03  0.92535962509E+02 0.  0.
          2    1    3    3  502    0  0.62437983687E+03 -0.52896709314E+03  0.19768694946E+04  0.21395488695E+04  0.00000000000E+00 0. -1.
         -1    1    3    3    0  502  0.11079160248E+03 -0.96198075592E+02  0.27439479973E+03  0.31116130069E+03  0.00000000000E+00 0.  1.
         13    1    5    5    0    0 -0.14233015555E+03  0.17733846159E+03 -0.34600389770E+02  0.23000867399E+03  0.00000000000E+00 0.  1.
        -13    1    5    5    0    0 -0.43309792038E+03  0.31897096193E+03 -0.97954474470E+02  0.54672786856E+03  0.00000000000E+00 0. -1.
          1    1    6    6  503    0 -0.16198991472E+03  0.13502100907E+03  0.50149023952E+03  0.54402561125E+03  0.00000000000E+00 0. -1.
         -1    1    6    6    0  503  0.22465512976E+01 -0.61652638547E+01  0.68520722598E+02  0.68834198597E+02  0.00000000000E+00 0.  1.
<mgrwt>
<rscale>  0 0.27420315E+04</rscale>
<asrwt>0</asrwt>
<pdfrwt beam="1">  1        2 0.50223283E+00 0.27420315E+04</pdfrwt>
<pdfrwt beam="2">  1       -1 0.88583550E-01 0.27420315E+04</pdfrwt>
<totfact> 0.14616836E+00</totfact>
</mgrwt>
</event>
<event>
12    7  0.2426980E-007  0.2928389E+04  0.7818608E-02  0.8264481E-01
          2   -1    0    0  501    0  0.00000000000E+00  0.00000000000E+00  0.98794294999E+03  0.98794294999E+03  0.00000000000E+00 0. -1.
         -1   -1    0    0    0  501 -0.00000000000E+00 -0.00000000000E+00 -0.21700290886E+04  0.21700290886E+04  0.00000000000E+00 0.  1.
         24    2    1    2    0    0  0.22328644399E+03 -0.12058226518E+04  0.39577959339E+01  0.12288719332E+04  0.79028224663E+02 0.  0.
        254    2    1    2    0    0 -0.22328644399E+03  0.12058226518E+04 -0.11860439346E+04  0.19291001055E+04  0.90047870516E+03 0.  0.
         23    2    4    4    0    0  0.14934450110E+03  0.26670936882E+03 -0.76817149829E+03  0.83200155940E+03  0.93281705866E+02 0.  0.
         23    2    4    4    0    0 -0.37263094509E+03  0.93911328299E+03 -0.41787243631E+03  0.10970985461E+04  0.90665689339E+02 0.  0.
          4    1    3    3  502    0  0.16859514851E+03 -0.69783105092E+03  0.65399153424E+01  0.71793820780E+03  0.00000000000E+00 0. -1.
         -3    1    3    3    0  502  0.54691295477E+02 -0.50799160089E+03 -0.25821194084E+01  0.51093372537E+03  0.00000000000E+00 0.  1.
         13    1    5    5    0    0  0.15772131507E+03  0.25866615068E+03 -0.75891329247E+03  0.81714966574E+03  0.00000000000E+00 0.  1.
        -13    1    5    5    0    0 -0.83768139754E+01  0.80432181398E+01 -0.92582058158E+01  0.14851893662E+02  0.00000000000E+00 0. -1.
          2    1    6    6  503    0 -0.17352147449E+02  0.11445748425E+02 -0.52688152372E+01  0.21444407012E+02  0.00000000000E+00 0. -1.
         -2    1    6    6    0  503 -0.35527879764E+03  0.92766753457E+03 -0.41260362107E+03  0.10756541391E+04  0.00000000000E+00 0.  1.
<mgrwt>
<rscale>  0 0.29283886E+04</rscale>
<asrwt>0</asrwt>
<pdfrwt beam="1">  1        2 0.15199122E+00 0.29283886E+04</pdfrwt>
<pdfrwt beam="2">  1       -1 0.33385063E+00 0.29283886E+04</pdfrwt>
<totfact> 0.49974027E-01</totfact>
</mgrwt>
</event>
<event>
12    7  0.2426980E-007  0.1975427E+04  0.7818608E-02  0.8618196E-01
          2   -1    0    0  501    0  0.00000000000E+00  0.00000000000E+00  0.10303723690E+04  0.10303723690E+04  0.00000000000E+00 0. -1.
         -3   -1    0    0    0  501 -0.00000000000E+00 -0.00000000000E+00 -0.94682093387E+03  0.94682093387E+03  0.00000000000E+00 0.  1.
         24    2    1    2    0    0  0.73557735737E+03  0.24524898573E+03  0.13143757269E+03  0.79076174540E+03  0.82505689557E+02 0.  0.
        254    2    1    2    0    0 -0.73557735737E+03 -0.24524898573E+03 -0.47886137603E+02  0.11864315574E+04  0.89671937896E+03 0.  0.
         23    2    4    4    0    0  0.72359829007E+02  0.13171057380E+03  0.19037228010E+03  0.25917094173E+03  0.91347424167E+02 0.  0.
         23    2    4    4    0    0 -0.80793718637E+03 -0.37695955953E+03 -0.23825841771E+03  0.92726061569E+03  0.90466397967E+02 0.  0.
          2    1    3    3  502    0  0.24691161361E+03  0.11477908155E+03  0.70925108021E+02  0.28137155764E+03  0.00000000000E+00 0. -1.
         -1    1    3    3    0  502  0.48866574375E+03  0.13046990418E+03  0.60512464665E+02  0.50939018777E+03  0.00000000000E+00 0.  1.
         13    1    5    5    0    0  0.91708676106E+02  0.95567481825E+02  0.12572776269E+03  0.18262282214E+03  0.00000000000E+00 0. -1.
        -13    1    5    5    0    0 -0.19348847099E+02  0.36143091975E+02  0.64644517409E+02  0.76548119588E+02  0.00000000000E+00 0.  1.
          1    1    6    6  503    0 -0.21618700680E+03 -0.10324276083E+03 -0.23089572365E+02  0.24068447795E+03  0.00000000000E+00 0. -1.
         -1    1    6    6    0  503 -0.59175017957E+03 -0.27371679870E+03 -0.21516884534E+03  0.68657613775E+03  0.00000000000E+00 0.  1.
<mgrwt>
<rscale>  0 0.19754272E+04</rscale>
<asrwt>0</asrwt>
<pdfrwt beam="1">  1        2 0.15851883E+00 0.19754272E+04</pdfrwt>
<pdfrwt beam="2">  1       -3 0.14566476E+00 0.19754272E+04</pdfrwt>
<totfact> 0.49294392E+00</totfact>
</mgrwt>
</event>
<event>
12    7  0.2426980E-007  0.1292256E+04  0.7818608E-02  0.9035729E-01
         -1   -1    0    0    0  501 -0.00000000000E+00  0.00000000000E+00  0.11993617648E+03  0.11993617648E+03  0.00000000000E+00 0.  1.
          2   -1    0    0  501    0  0.00000000000E+00 -0.00000000000E+00 -0.34808627856E+04  0.34808627856E+04  0.00000000000E+00 0. -1.
         24    2    1    2    0    0  0.27858834176E+03 -0.14992289176E+03 -0.64260557880E+03  0.72075538838E+03  0.80362070232E+02 0.  0.
        254    2    1    2    0    0 -0.27858834176E+03  0.14992289176E+03 -0.27183210303E+04  0.28800435737E+04  0.89738142667E+03 0.  0.
         23    2    4    4    0    0 -0.42233015911E+03 -0.12934211267E+03 -0.23271203772E+04  0.23705284195E+04  0.93933979300E+02 0.  0.
         23    2    4    4    0    0  0.14374181736E+03  0.27926500443E+03 -0.39120065312E+03  0.50951515416E+03  0.88978022959E+02 0.  0.
          4    1    3    3  502    0  0.14000630964E+03 -0.93355889832E+02 -0.42049287025E+03  0.45291427758E+03  0.00000000000E+00 0. -1.
         -3    1    3    3    0  502  0.13858203212E+03 -0.56567001929E+02 -0.22211270855E+03  0.26784111080E+03  0.00000000000E+00 0.  1.
         13    1    5    5    0    0 -0.93362190063E+02  0.47375183950E+01 -0.38508106717E+03  0.39626553081E+03  0.00000000000E+00 0.  1.
        -13    1    5    5    0    0 -0.32896796905E+03 -0.13407963106E+03 -0.19420393100E+04  0.19742628887E+04  0.00000000000E+00 0. -1.
          4    1    6    6  503    0  0.97979739096E+02  0.25504536044E+03 -0.34533391761E+03  0.44034495547E+03  0.00000000000E+00 0. -1.
         -4    1    6    6    0  503  0.45762078260E+02  0.24219643986E+02 -0.45866735511E+02  0.69170198698E+02  0.00000000000E+00 0.  1.
<mgrwt>
<rscale>  0 0.12922560E+04</rscale>
<asrwt>0</asrwt>
<pdfrwt beam="1">  1        2 0.53551735E+00 0.12922560E+04</pdfrwt>
<pdfrwt beam="2">  1       -1 0.18451720E-01 0.12922560E+04</pdfrwt>
<totfact> 0.22372905E+01</totfact>
</mgrwt>
</event>
<event>
12    7  0.2426980E-007  0.1449318E+04  0.7818608E-02  0.8918873E-01
          2   -1    0    0  501    0  0.00000000000E+00  0.00000000000E+00  0.65676446510E+03  0.65676446510E+03  0.00000000000E+00 0. -1.
         -1   -1    0    0    0  501 -0.00000000000E+00 -0.00000000000E+00 -0.79957276853E+03  0.79957276853E+03  0.00000000000E+00 0.  1.
         24    2    1    2    0    0  0.69177598713E+02  0.22476022475E+03 -0.41839500713E+03  0.48634047746E+03  0.78549215386E+02 0.  0.
        254    2    1    2    0    0 -0.69177598713E+02 -0.22476022475E+03  0.27558670369E+03  0.96999675616E+03  0.89980163199E+03 0.  0.
         23    2    4    4    0    0 -0.43163758924E+03 -0.64160902991E+02 -0.50631473935E+02  0.44861056206E+03  0.90885974272E+02 0.  0.
         23    2    4    4    0    0  0.36245999053E+03 -0.16059932176E+03  0.32621817763E+03  0.52138619411E+03  0.90861857281E+02 0.  0.
          2    1    3    3  502    0  0.49116266016E+02  0.86033308788E+02 -0.11276330701E+03  0.15009897141E+03  0.00000000000E+00 0. -1.
         -1    1    3    3    0  502  0.20061332697E+02  0.13872691596E+03 -0.30563170012E+03  0.33624150606E+03  0.00000000000E+00 0.  1.
         13    1    5    5    0    0 -0.61533168386E+02  0.15567401171E+02 -0.27902907949E+02  0.69334313748E+02  0.00000000000E+00 0. -1.
        -13    1    5    5    0    0 -0.37010442085E+03 -0.79728304162E+02 -0.22728565985E+02  0.37927624831E+03  0.00000000000E+00 0.  1.
          1    1    6    6  503    0  0.18088265100E+03 -0.77465508813E+02  0.22011544788E+03  0.29524608191E+03  0.00000000000E+00 0. -1.
         -1    1    6    6    0  503  0.18157733953E+03 -0.83133812943E+02  0.10610272975E+03  0.22614011220E+03  0.00000000000E+00 0.  1.
<mgrwt>
<rscale>  0 0.14493184E+04</rscale>
<asrwt>0</asrwt>
<pdfrwt beam="1">  1        2 0.10104069E+00 0.14493184E+04</pdfrwt>
<pdfrwt beam="2">  1       -1 0.12301120E+00 0.14493184E+04</pdfrwt>
<totfact> 0.28650356E+01</totfact>
</mgrwt>
</event>
<event>
12    7  0.2426980E-007  0.1829849E+04  0.7818608E-02  0.8690585E-01
         -1   -1    0    0    0  501 -0.00000000000E+00  0.00000000000E+00  0.10669510716E+04  0.10669510716E+04  0.00000000000E+00 0.  1.
          2   -1    0    0  501    0  0.00000000000E+00 -0.00000000000E+00 -0.78455947671E+03  0.78455947671E+03  0.00000000000E+00 0. -1.
         24    2    1    2    0    0 -0.37034801296E+03 -0.30960515649E+03  0.60127558606E+03  0.77502041053E+03  0.78174821582E+02 0.  0.
        254    2    1    2    0    0  0.37034801296E+03  0.30960515649E+03 -0.31888399117E+03  0.10764901378E+04  0.90781661874E+03 0.  0.
         23    2    4    4    0    0  0.50359311722E+01  0.55808209226E+03 -0.95779276046E+02  0.57333628895E+03  0.89776657387E+02 0.  0.
         23    2    4    4    0    0  0.36531208178E+03 -0.24847693576E+03 -0.22310471512E+03  0.50315384881E+03  0.90522798025E+02 0.  0.
          4    1    3    3  502    0 -0.23379339150E+03 -0.14818038771E+03  0.36230370349E+03  0.45593941568E+03  0.00000000000E+00 0. -1.
         -3    1    3    3    0  502 -0.13655462146E+03 -0.16142476879E+03  0.23897188257E+03  0.31908099485E+03  0.00000000000E+00 0.  1.
         13    1    5    5    0    0  0.42914419855E+02  0.24172902408E+03 -0.59894436387E+02  0.25270914511E+03  0.00000000000E+00 0. -1.
        -13    1    5    5    0    0 -0.37878488683E+02  0.31635306818E+03 -0.35884839660E+02  0.32062714384E+03  0.00000000000E+00 0.  1.
          2    1    6    6  503    0  0.17600510249E+03 -0.92187017195E+02 -0.56823000939E+02  0.20665211268E+03  0.00000000000E+00 0.  1.
         -2    1    6    6    0  503  0.18930697930E+03 -0.15628991857E+03 -0.16628171418E+03  0.29650173613E+03  0.00000000000E+00 0. -1.
<mgrwt>
<rscale>  0 0.18298487E+04</rscale>
<asrwt>0</asrwt>
<pdfrwt beam="1">  1        2 0.12070146E+00 0.18298487E+04</pdfrwt>
<pdfrwt beam="2">  1       -1 0.16414632E+00 0.18298487E+04</pdfrwt>
<totfact> 0.10335291E+01</totfact>
</mgrwt>
</event>
<event>
12    7  0.2426980E-007  0.1494493E+04  0.7818608E-02  0.8888123E-01
          2   -1    0    0  501    0  0.00000000000E+00  0.00000000000E+00  0.32026441262E+04  0.32026441262E+04  0.00000000000E+00 0. -1.
         -1   -1    0    0    0  501 -0.00000000000E+00 -0.00000000000E+00 -0.17434885902E+03  0.17434885902E+03  0.00000000000E+00 0.  1.
         24    2    1    2    0    0 -0.62172299426E+01 -0.65217133579E+02 -0.86582159103E+02  0.13338525157E+03  0.77480491741E+02 0.  0.
        254    2    1    2    0    0  0.62172299426E+01  0.65217133579E+02  0.31148774263E+04  0.32436077337E+04  0.90235127338E+03 0.  0.
         23    2    4    4    0    0  0.25285729369E+03  0.36349983771E+03  0.22046176042E+04  0.22505681453E+04  0.93001358287E+02 0.  0.
         23    2    4    4    0    0 -0.24664006375E+03 -0.29828270413E+03  0.91025982209E+03  0.99303958841E+03  0.88038558717E+02 0.  0.
          4    1    3    3  502    0  0.54305467807E+01 -0.51044845422E+02 -0.71095688488E+01  0.51822900842E+02  0.00000000000E+00 0. -1.
         -3    1    3    3    0  502 -0.11647776723E+02 -0.14172288157E+02 -0.79472590254E+02  0.81562350726E+02  0.00000000000E+00 0.  1.
         13    1    5    5    0    0  0.23228682847E+03  0.28266238906E+03  0.18896657073E+04  0.19247575645E+04  0.00000000000E+00 0.  1.
        -13    1    5    5    0    0  0.20570465216E+02  0.80837448647E+02  0.31495189695E+03  0.32581058076E+03  0.00000000000E+00 0. -1.
          3    1    6    6  503    0 -0.27909234699E+02 -0.80025463185E+02  0.25183560350E+03  0.26571445450E+03  0.00000000000E+00 0. -1.
         -3    1    6    6    0  503 -0.21873082905E+03 -0.21825724095E+03  0.65842421859E+03  0.72732513392E+03  0.00000000000E+00 0.  1.
<mgrwt>
<rscale>  0 0.14944930E+04</rscale>
<asrwt>0</asrwt>
<pdfrwt beam="1">  1        2 0.49271444E+00 0.14944930E+04</pdfrwt>
<pdfrwt beam="2">  1       -1 0.26822904E-01 0.14944930E+04</pdfrwt>
<totfact> 0.17813115E+01</totfact>
</mgrwt>
</event>
<event>
12    7  0.2426980E-007  0.3570758E+04  0.7818608E-02  0.8097223E-01
          2   -1    0    0  501    0  0.00000000000E+00  0.00000000000E+00  0.17624690060E+04  0.17624690060E+04  0.00000000000E+00 0. -1.
         -3   -1    0    0    0  501 -0.00000000000E+00 -0.00000000000E+00 -0.18085864014E+04  0.18085864014E+04  0.00000000000E+00 0.  1.
         24    2    1    2    0    0  0.31515671342E+03 -0.15663699575E+04 -0.51206227126E+03  0.16797011144E+04  0.79683538638E+02 0.  0.
        254    2    1    2    0    0 -0.31515671342E+03  0.15663699575E+04  0.46594487592E+03  0.18913542930E+04  0.89848641434E+03 0.  0.
         23    2    4    4    0    0 -0.33530058824E+03  0.14766948702E+04  0.11922193734E+03  0.15216580063E+04  0.90415672084E+02 0.  0.
         23    2    4    4    0    0  0.20143874816E+02  0.89675087284E+02  0.34672293858E+03  0.36969628673E+03  0.89505035114E+02 0.  0.
          4    1    3    3  502    0  0.24394774778E+03 -0.12810088962E+04 -0.38833574475E+03  0.13606244693E+04  0.00000000000E+00 0. -1.
         -3    1    3    3    0  502  0.71208965649E+02 -0.28536106121E+03 -0.12372652651E+03  0.31907664503E+03  0.00000000000E+00 0.  1.
         13    1    5    5    0    0 -0.81773219840E+02  0.53883441328E+03  0.25022471838E+02  0.54557814153E+03  0.00000000000E+00 0.  1.
        -13    1    5    5    0    0 -0.25352736840E+03  0.93786045689E+03  0.94199465501E+02  0.97607986478E+03  0.00000000000E+00 0. -1.
          4    1    6    6  503    0  0.50871593269E+02  0.39612204968E+02  0.23222870676E+03  0.24101290012E+03  0.00000000000E+00 0. -1.
         -4    1    6    6    0  503 -0.30727718453E+02  0.50062882316E+02  0.11449423182E+03  0.12868338660E+03  0.00000000000E+00 0.  1.
<mgrwt>
<rscale>  0 0.35707576E+04</rscale>
<asrwt>0</asrwt>
<pdfrwt beam="1">  1        2 0.27114908E+00 0.35707576E+04</pdfrwt>
<pdfrwt beam="2">  1       -3 0.27824406E+00 0.35707576E+04</pdfrwt>
<totfact> 0.23435392E-01</totfact>
</mgrwt>
</event>
<event>
12    7  0.2426980E-007  0.1460615E+04  0.7818608E-02  0.8911074E-01
         -1   -1    0    0    0  501 -0.00000000000E+00  0.00000000000E+00  0.62738625891E+03  0.62738625891E+03  0.00000000000E+00 0.  1.
          2   -1    0    0  501    0  0.00000000000E+00 -0.00000000000E+00 -0.85011269935E+03  0.85011269935E+03  0.00000000000E+00 0. -1.
         24    2    1    2    0    0  0.41371218176E+03  0.68524357982E+02 -0.22853519409E+03  0.48405873309E+03  0.78937729704E+02 0.  0.
        254    2    1    2    0    0 -0.41371218176E+03 -0.68524357982E+02  0.58087536503E+01  0.99344022517E+03  0.90057558395E+03 0.  0.
         23    2    4    4    0    0 -0.61276662985E+03 -0.26892894206E+03 -0.90072145683E+02  0.68121164233E+03  0.90169793582E+02 0.  0.
         23    2    4    4    0    0  0.19905444809E+03  0.20040458408E+03  0.95880899334E+02  0.31222858285E+03  0.92243538871E+02 0.  0.
          2    1    3    3  502    0  0.14425620365E+03  0.19528088741E+02 -0.12291504672E+03  0.19052377084E+03  0.00000000000E+00 0. -1.
         -1    1    3    3    0  502  0.26945597811E+03  0.48996269241E+02 -0.10562014737E+03  0.29353496226E+03  0.00000000000E+00 0.  1.
         13    1    5    5    0    0 -0.37528864999E+03 -0.18422226675E+03 -0.15791208656E+02  0.41836440653E+03  0.00000000000E+00 0.  1.
        -13    1    5    5    0    0 -0.23747797986E+03 -0.84706675310E+02 -0.74280937027E+02  0.26284723580E+03  0.00000000000E+00 0. -1.
          1    1    6    6  503    0  0.13814061303E+03  0.10302808748E+03  0.96212251890E+02  0.19736872394E+03  0.00000000000E+00 0. -1.
         -1    1    6    6    0  503  0.60913835064E+02  0.97376496602E+02 -0.33135255641E+00  0.11485985890E+03  0.00000000000E+00 0.  1.
<mgrwt>
<rscale>  0 0.14606150E+04</rscale>
<asrwt>0</asrwt>
<pdfrwt beam="1">  1        2 0.13078657E+00 0.14606150E+04</pdfrwt>
<pdfrwt beam="2">  1       -1 0.96520963E-01 0.14606150E+04</pdfrwt>
<totfact> 0.36275327E+01</totfact>
</mgrwt>
</event>
<event>
12    7  0.2426980E-007  0.1993977E+04  0.7818608E-02  0.8609442E-01
         -1   -1    0    0    0  501 -0.00000000000E+00  0.00000000000E+00  0.26206922065E+03  0.26206922065E+03  0.00000000000E+00 0.  1.
          2   -1    0    0  501    0  0.00000000000E+00 -0.00000000000E+00 -0.37928373948E+04  0.37928373948E+04  0.00000000000E+00 0. -1.
         24    2    1    2    0    0 -0.57287724503E+03  0.39652997353E+03 -0.21768963783E+04  0.22870551191E+04  0.79491623411E+02 0.  0.
        254    2    1    2    0    0  0.57287724503E+03 -0.39652997353E+03 -0.13538717958E+04  0.17678514963E+04  0.89827930832E+03 0.  0.
         23    2    4    4    0    0  0.30274950822E+03 -0.30120943491E+03 -0.13975760086E+04  0.14641652411E+04  0.90425467074E+02 0.  0.
         23    2    4    4    0    0  0.27012773682E+03 -0.95320538616E+02  0.43704212762E+02  0.30368625521E+03  0.90886105178E+02 0.  0.
          2    1    3    3  502    0 -0.21194649747E+03  0.10710867208E+03 -0.80099406644E+03  0.83545501369E+03  0.00000000000E+00 0. -1.
         -1    1    3    3    0  502 -0.36093074756E+03  0.28942130145E+03 -0.13759023119E+04  0.14516001054E+04  0.00000000000E+00 0.  1.
         13    1    5    5    0    0  0.11979202013E+03 -0.18191299320E+03 -0.72519813548E+03  0.75720195515E+03  0.00000000000E+00 0. -1.
        -13    1    5    5    0    0  0.18295748808E+03 -0.11929644172E+03 -0.67237787311E+03  0.70696328597E+03  0.00000000000E+00 0.  1.
          4    1    6    6  503    0  0.14947365093E+03 -0.86666955749E+02  0.57124510055E+02  0.18198006262E+03  0.00000000000E+00 0.  1.
         -4    1    6    6    0  503  0.12065408589E+03 -0.86535828670E+01 -0.13420297293E+02  0.12170619260E+03  0.00000000000E+00 0. -1.
<mgrwt>
<rscale>  0 0.19939769E+04</rscale>
<asrwt>0</asrwt>
<pdfrwt beam="1">  1        2 0.58351346E+00 0.19939769E+04</pdfrwt>
<pdfrwt beam="2">  1       -1 0.40318341E-01 0.19939769E+04</pdfrwt>
<totfact> 0.31850834E+00</totfact>
</mgrwt>
</event>
<event>
12    7  0.2426980E-007  0.1835047E+04  0.7818608E-02  0.8687881E-01
         -1   -1    0    0    0  501 -0.00000000000E+00  0.00000000000E+00  0.64193204793E+03  0.64193204793E+03  0.00000000000E+00 0.  1.
          2   -1    0    0  501    0  0.00000000000E+00 -0.00000000000E+00 -0.13114311729E+04  0.13114311729E+04  0.00000000000E+00 0. -1.
         24    2    1    2    0    0 -0.27552636063E+03 -0.61378201575E+03 -0.72629539604E+02  0.68087379368E+03  0.75305608272E+02 0.  0.
        254    2    1    2    0    0  0.27552636063E+03  0.61378201575E+03 -0.59686958535E+03  0.12724894271E+04  0.90018492656E+03 0.  0.
         23    2    4    4    0    0  0.52446216227E+03  0.30671550065E+03 -0.61163890683E+03  0.86682221379E+03  0.90242118656E+02 0.  0.
         23    2    4    4    0    0 -0.24893580164E+03  0.30706651510E+03  0.14769321473E+02  0.40566721335E+03  0.89938184871E+02 0.  0.
          2    1    3    3  502    0 -0.26219237823E+03 -0.57678713459E+03 -0.85878658739E+02  0.63937734230E+03  0.00000000000E+00 0. -1.
         -1    1    3    3    0  502 -0.13333982409E+02 -0.36994881162E+02  0.13249119135E+02  0.41496451378E+02  0.00000000000E+00 0.  1.
         13    1    5    5    0    0  0.61982401839E+02  0.20674917761E+02 -0.34626728449E+02  0.73947824074E+02  0.00000000000E+00 0.  1.
        -13    1    5    5    0    0  0.46247976043E+03  0.28604058289E+03 -0.57701217838E+03  0.79287438972E+03  0.00000000000E+00 0. -1.
          4    1    6    6  503    0 -0.21339890133E+03  0.29844991285E+03  0.24854840655E+02  0.36773523719E+03  0.00000000000E+00 0. -1.
         -4    1    6    6    0  503 -0.35536900311E+02  0.86166022471E+01 -0.10085519183E+02  0.37931976158E+02  0.00000000000E+00 0.  1.
<mgrwt>
<rscale>  0 0.18350474E+04</rscale>
<asrwt>0</asrwt>
<pdfrwt beam="1">  1        2 0.20175864E+00 0.18350474E+04</pdfrwt>
<pdfrwt beam="2">  1       -1 0.98758778E-01 0.18350474E+04</pdfrwt>
<totfact> 0.17134720E+01</totfact>
</mgrwt>
</event>
<event>
12    7  0.2426980E-007  0.1190771E+04  0.7818608E-02  0.9120973E-01
         -1   -1    0    0    0  501 -0.00000000000E+00  0.00000000000E+00  0.16071775862E+03  0.16071775862E+03  0.00000000000E+00 0.  1.
          2   -1    0    0  501    0  0.00000000000E+00 -0.00000000000E+00 -0.22056301748E+04  0.22056301748E+04  0.00000000000E+00 0. -1.
         24    2    1    2    0    0  0.10961173199E+03  0.20749167069E+03 -0.30914550236E+03  0.39686515072E+03  0.82846128644E+02 0.  0.
        254    2    1    2    0    0 -0.10961173199E+03 -0.20749167069E+03 -0.17357669138E+04  0.19694827827E+04  0.90050437371E+03 0.  0.
         23    2    4    4    0    0 -0.11502054304E+03  0.28096410212E+03 -0.11894549698E+04  0.12309920953E+04  0.91476016562E+02 0.  0.
         23    2    4    4    0    0  0.54088110449E+01 -0.48845577281E+03 -0.54631194406E+03  0.73849068741E+03  0.91068424484E+02 0.  0.
          4    1    3    3  502    0  0.69184809053E+02  0.96997028982E+02 -0.21646984315E+03  0.24709138882E+03  0.00000000000E+00 0. -1.
         -3    1    3    3    0  502  0.40426922938E+02  0.11049464170E+03 -0.92675659210E+02  0.14977376190E+03  0.00000000000E+00 0.  1.
         13    1    5    5    0    0 -0.35684939929E+02  0.77977385019E+02 -0.19643496051E+03  0.21433754040E+03  0.00000000000E+00 0.  1.
        -13    1    5    5    0    0 -0.79335603107E+02  0.20298671710E+03 -0.99302000925E+03  0.10166545549E+04  0.00000000000E+00 0. -1.
          1    1    6    6  503    0  0.18402305219E+02 -0.15146403341E+03 -0.11541943359E+03  0.19131556106E+03  0.00000000000E+00 0. -1.
         -1    1    6    6    0  503 -0.12993494174E+02 -0.33699173940E+03 -0.43089251047E+03  0.54717512635E+03  0.00000000000E+00 0.  1.
<mgrwt>
<rscale>  0 0.11907711E+04</rscale>
<asrwt>0</asrwt>
<pdfrwt beam="1">  1        2 0.33932772E+00 0.11907711E+04</pdfrwt>
<pdfrwt beam="2">  1       -1 0.24725809E-01 0.11907711E+04</pdfrwt>
<totfact> 0.82558191E+01</totfact>
</mgrwt>
</event>
<event>
12    7  0.2426980E-007  0.1595293E+04  0.7818608E-02  0.8823445E-01
         -1   -1    0    0    0  501 -0.00000000000E+00  0.00000000000E+00  0.26630138224E+03  0.26630138224E+03  0.00000000000E+00 0.  1.
          2   -1    0    0  501    0  0.00000000000E+00 -0.00000000000E+00 -0.23891722009E+04  0.23891722009E+04  0.00000000000E+00 0. -1.
         24    2    1    2    0    0 -0.49488710482E+03 -0.11258212117E+03 -0.40890569744E+03  0.65637202975E+03  0.77668471825E+02 0.  0.
        254    2    1    2    0    0  0.49488710482E+03  0.11258212117E+03 -0.17139651212E+04  0.19991015534E+04  0.89506569788E+03 0.  0.
         23    2    4    4    0    0  0.95401637585E+02  0.67138362203E+02 -0.15470604194E+04  0.15541217065E+04  0.91045620184E+02 0.  0.
         23    2    4    4    0    0  0.39948546723E+03  0.45443758971E+02 -0.16690470179E+03  0.44497984695E+03  0.92174350840E+02 0.  0.
          4    1    3    3  502    0 -0.44890514591E+02  0.12089011927E+02 -0.37624824461E+02  0.59807440385E+02  0.00000000000E+00 0. -1.
         -1    1    3    3    0  502 -0.44999659023E+03 -0.12467113310E+03 -0.37128087298E+03  0.59656458936E+03  0.00000000000E+00 0.  1.
         13    1    5    5    0    0  0.19376397638E+02  0.47284846780E+02 -0.10155348234E+04  0.10168196886E+04  0.00000000000E+00 0. -1.
        -13    1    5    5    0    0  0.76025239947E+02  0.19853515423E+02 -0.53152559599E+03  0.53730201784E+03  0.00000000000E+00 0.  1.
          3    1    6    6  503    0  0.34852939944E+03  0.46789869706E+02 -0.10972287707E+03  0.36837636180E+03  0.00000000000E+00 0. -1.
         -3    1    6    6    0  503  0.50956067793E+02 -0.13461107353E+01 -0.57181824716E+02  0.76603485149E+02  0.00000000000E+00 0.  1.
<mgrwt>
<rscale>  0 0.15952929E+04</rscale>
<asrwt>0</asrwt>
<pdfrwt beam="1">  1        2 0.36756496E+00 0.15952929E+04</pdfrwt>
<pdfrwt beam="2">  1       -1 0.40969443E-01 0.15952929E+04</pdfrwt>
<totfact> 0.25719753E+01</totfact>
</mgrwt>
</event>
<event>
12    7  0.2426980E-007  0.1381637E+04  0.7818608E-02  0.8967219E-01
         -1   -1    0    0    0  501 -0.00000000000E+00  0.00000000000E+00  0.13834712486E+04  0.13834712486E+04  0.00000000000E+00 0.  1.
          2   -1    0    0  501    0  0.00000000000E+00 -0.00000000000E+00 -0.34495149606E+03  0.34495149606E+03  0.00000000000E+00 0. -1.
         24    2    1    2    0    0 -0.37522590195E+03  0.11481059537E+03  0.32106738828E+03  0.51215066504E+03  0.72374619714E+02 0.  0.
        254    2    1    2    0    0  0.37522590195E+03 -0.11481059537E+03  0.71745236423E+03  0.12162720796E+04  0.90033545213E+03 0.  0.
         23    2    4    4    0    0  0.81720662897E+02 -0.47012594634E+03  0.50454773827E+03  0.70046610306E+03  0.91584219030E+02 0.  0.
         23    2    4    4    0    0  0.29350523906E+03  0.35531535097E+03  0.21290462596E+03  0.51580597653E+03  0.91285824117E+02 0.  0.
          4    1    3    3  502    0 -0.23402775306E+03  0.89055594809E+02  0.16370404278E+03  0.29916367057E+03  0.00000000000E+00 0. -1.
         -3    1    3    3    0  502 -0.14119814889E+03  0.25755000566E+02  0.15736334550E+03  0.21298699447E+03  0.00000000000E+00 0.  1.
         13    1    5    5    0    0  0.48736662318E+02 -0.42596242245E+03  0.42504434232E+03  0.60372339737E+03  0.00000000000E+00 0.  1.
        -13    1    5    5    0    0  0.32984000579E+02 -0.44163523892E+02  0.79503395954E+02  0.96742705694E+02  0.00000000000E+00 0. -1.
          1    1    6    6  503    0  0.76969709727E+02  0.15071101753E+03  0.10390698762E+03  0.19858199590E+03  0.00000000000E+00 0. -1.
         -1    1    6    6    0  503  0.21653552933E+03  0.20460433344E+03  0.10899763834E+03  0.31722398063E+03  0.00000000000E+00 0.  1.
<mgrwt>
<rscale>  0 0.13816374E+04</rscale>
<asrwt>0</asrwt>
<pdfrwt beam="1">  1        2 0.53069461E-01 0.13816374E+04</pdfrwt>
<pdfrwt beam="2">  1       -1 0.21284173E+00 0.13816374E+04</pdfrwt>
<totfact> 0.12889163E+01</totfact>
</mgrwt>
</event>
<event>
12    7  0.2426980E-007  0.2509040E+04  0.7818608E-02  0.8399772E-01
          2   -1    0    0  501    0  0.00000000000E+00  0.00000000000E+00  0.17014474164E+04  0.17014474164E+04  0.00000000000E+00 0. -1.
         -1   -1    0    0    0  501 -0.00000000000E+00 -0.00000000000E+00 -0.92498920389E+03  0.92498920389E+03  0.00000000000E+00 0.  1.
         24    2    1    2    0    0  0.39144526100E+03  0.96962444218E+03  0.66308340943E+03  0.12407876117E+04  0.80457058187E+02 0.  0.
        254    2    1    2    0    0 -0.39144526100E+03 -0.96962444218E+03  0.11337480308E+03  0.13856490086E+04  0.90209111393E+03 0.  0.
         23    2    4    4    0    0  0.27475118478E+03 -0.41538257680E+03  0.82864189765E+02  0.51396567353E+03  0.96246251758E+02 0.  0.
         23    2    4    4    0    0 -0.66619644577E+03 -0.55424186538E+03  0.30510613314E+02  0.87168333507E+03  0.88877384154E+02 0.  0.
          2    1    3    3  502    0  0.14363394325E+03  0.42481492075E+03  0.32001118011E+03  0.55091340694E+03  0.00000000000E+00 0. -1.
         -1    1    3    3    0  502  0.24781131775E+03  0.54480952143E+03  0.34307222932E+03  0.68987420475E+03  0.00000000000E+00 0.  1.
         13    1    5    5    0    0  0.81367923779E+02 -0.84441959700E+02 -0.15395309685E+02  0.11827171741E+03  0.00000000000E+00 0.  1.
        -13    1    5    5    0    0  0.19338326100E+03 -0.33094061710E+03  0.98259499450E+02  0.39569395613E+03  0.00000000000E+00 0. -1.
          4    1    6    6  503    0 -0.50339074971E+03 -0.38793525519E+03 -0.91688877336E+01  0.63559427123E+03  0.00000000000E+00 0. -1.
         -4    1    6    6    0  503 -0.16280569606E+03 -0.16630661019E+03  0.39679501047E+02  0.23608906384E+03  0.00000000000E+00 0.  1.
<mgrwt>
<rscale>  0 0.25090400E+04</rscale>
<asrwt>0</asrwt>
<pdfrwt beam="1">  1        2 0.26176114E+00 0.25090400E+04</pdfrwt>
<pdfrwt beam="2">  1       -1 0.14230603E+00 0.25090400E+04</pdfrwt>
<totfact> 0.39882465E+00</totfact>
</mgrwt>
</event>
<event>
12    7  0.2426980E-007  0.1686488E+04  0.7818608E-02  0.8769108E-01
          2   -1    0    0  501    0  0.00000000000E+00  0.00000000000E+00  0.23547525589E+04  0.23547525589E+04  0.00000000000E+00 0. -1.
         -1   -1    0    0    0  501 -0.00000000000E+00 -0.00000000000E+00 -0.30196821978E+03  0.30196821978E+03  0.00000000000E+00 0.  1.
         24    2    1    2    0    0 -0.24367646307E+03  0.54121362636E+03  0.61084394292E+03  0.85589333890E+03  0.84455177179E+02 0.  0.
        254    2    1    2    0    0  0.24367646307E+03 -0.54121362636E+03  0.14419403962E+04  0.18008274398E+04  0.90083125706E+03 0.  0.
         23    2    4    4    0    0  0.55785809422E+03 -0.18934111967E+03  0.73380484390E+03  0.94515524388E+03  0.88278951166E+02 0.  0.
         23    2    4    4    0    0 -0.31418163115E+03 -0.35187250669E+03  0.70813555235E+03  0.85567219595E+03  0.90523964219E+02 0.  0.
          2    1    3    3  502    0 -0.19742565504E+03  0.44113581640E+03  0.54074432822E+03  0.72524625216E+03  0.00000000000E+00 0. -1.
         -1    1    3    3    0  502 -0.46250808040E+02  0.10007780996E+03  0.70099614701E+02  0.13064708673E+03  0.00000000000E+00 0.  1.
         13    1    5    5    0    0  0.20555834531E+03 -0.47147193351E+02  0.32155412880E+03  0.38454407929E+03  0.00000000000E+00 0. -1.
        -13    1    5    5    0    0  0.35229974891E+03 -0.14219392632E+03  0.41225071509E+03  0.56061116459E+03  0.00000000000E+00 0.  1.
          2    1    6    6  503    0 -0.57255051782E+02 -0.12490339325E+03  0.19439563938E+03  0.23805180783E+03  0.00000000000E+00 0. -1.
         -2    1    6    6    0  503 -0.25692657937E+03 -0.22696911343E+03  0.51373991297E+03  0.61762038811E+03  0.00000000000E+00 0.  1.
<mgrwt>
<rscale>  0 0.16864880E+04</rscale>
<asrwt>0</asrwt>
<pdfrwt beam="1">  1        2 0.36226961E+00 0.16864880E+04</pdfrwt>
<pdfrwt beam="2">  1       -1 0.46456651E-01 0.16864880E+04</pdfrwt>
<totfact> 0.21139067E+01</totfact>
</mgrwt>
</event>
<event>
12    7  0.2426980E-007  0.1132998E+04  0.7818608E-02  0.9173613E-01
         -1   -1    0    0    0  501 -0.00000000000E+00  0.00000000000E+00  0.96329998002E+03  0.96329998002E+03  0.00000000000E+00 0.  1.
          2   -1    0    0  501    0  0.00000000000E+00 -0.00000000000E+00 -0.33314793531E+03  0.33314793531E+03  0.00000000000E+00 0. -1.
         24    2    1    2    0    0 -0.19149885532E+02  0.15866849236E+03 -0.10731457167E+02  0.17894686055E+03  0.79777228237E+02 0.  0.
        254    2    1    2    0    0  0.19149885532E+02 -0.15866849236E+03  0.64088350188E+03  0.11175010548E+04  0.90140697572E+03 0.  0.
         23    2    4    4    0    0 -0.29082514536E+03 -0.14138746465E+03  0.71050131998E+03  0.78610850026E+03  0.92654023884E+02 0.  0.
         23    2    4    4    0    0  0.30997503090E+03 -0.17281027709E+02 -0.69617818107E+02  0.33139255452E+03  0.92688893072E+02 0.  0.
          4    1    3    3  502    0 -0.32861626318E+02  0.85073211228E+02 -0.38646430462E+02  0.99049908331E+02  0.00000000000E+00 0. -1.
         -3    1    3    3    0  502  0.13711740786E+02  0.73595281131E+02  0.27914973295E+02  0.79896952221E+02  0.00000000000E+00 0.  1.
         13    1    5    5    0    0 -0.22785847452E+02 -0.28093946997E+02  0.33865763132E+02  0.49551534936E+02  0.00000000000E+00 0. -1.
        -13    1    5    5    0    0 -0.26803929791E+03 -0.11329351765E+03  0.67663555685E+03  0.73655696532E+03  0.00000000000E+00 0.  1.
          2    1    6    6  503    0  0.23627191345E+02  0.97305503931E+01  0.17381314134E+02  0.30903686881E+02  0.00000000000E+00 0. -1.
         -2    1    6    6    0  503  0.28634783955E+03 -0.27011578103E+02 -0.86999132242E+02  0.30048886764E+03  0.00000000000E+00 0.  1.
<mgrwt>
<rscale>  0 0.11329985E+04</rscale>
<asrwt>0</asrwt>
<pdfrwt beam="1">  1        2 0.51253529E-01 0.11329985E+04</pdfrwt>
<pdfrwt beam="2">  1       -1 0.14820000E+00 0.11329985E+04</pdfrwt>
<totfact> 0.39956885E+01</totfact>
</mgrwt>
</event>
<event>
12    7  0.2426980E-007  0.1795803E+04  0.7818608E-02  0.8708534E-01
         -1   -1    0    0    0  501 -0.00000000000E+00  0.00000000000E+00  0.28408145851E+03  0.28408145851E+03  0.00000000000E+00 0.  1.
          2   -1    0    0  501    0  0.00000000000E+00 -0.00000000000E+00 -0.28380148872E+04  0.28380148872E+04  0.00000000000E+00 0. -1.
         24    2    1    2    0    0 -0.23639405900E+03 -0.56448920996E+03 -0.48752953293E+03  0.78637430073E+03  0.78544739322E+02 0.  0.
        254    2    1    2    0    0  0.23639405900E+03  0.56448920996E+03 -0.20664038958E+04  0.23357220450E+04  0.90057880927E+03 0.  0.
         23    2    4    4    0    0  0.54111713077E+03  0.16346417170E+03 -0.97869847396E+03  0.11337686448E+04  0.89734900612E+02 0.  0.
         23    2    4    4    0    0 -0.30472307176E+03  0.40102503825E+03 -0.10877054218E+04  0.12019534002E+04  0.88947511460E+02 0.  0.
          2    1    3    3  502    0 -0.19205174442E+03 -0.38124899934E+03 -0.36371052243E+03  0.56082084141E+03  0.00000000000E+00 0. -1.
         -1    1    3    3    0  502 -0.44342314588E+02 -0.18324021061E+03 -0.12381901050E+03  0.22555345932E+03  0.00000000000E+00 0.  1.
         13    1    5    5    0    0  0.73574819137E+02 -0.58363267160E+01 -0.10253531333E+03  0.12633608828E+03  0.00000000000E+00 0.  1.
        -13    1    5    5    0    0  0.46754231163E+03  0.16930049842E+03 -0.87616316063E+03  0.10074325565E+04  0.00000000000E+00 0. -1.
          4    1    6    6  503    0 -0.30073413510E+03  0.37713115181E+03 -0.98955679322E+03  0.11008594700E+04  0.00000000000E+00 0. -1.
         -4    1    6    6    0  503 -0.39889366601E+01  0.23893886444E+02 -0.98148628569E+02  0.10109393016E+03  0.00000000000E+00 0.  1.
<mgrwt>
<rscale>  0 0.17958033E+04</rscale>
<asrwt>0</asrwt>
<pdfrwt beam="1">  1        2 0.43661765E+00 0.17958033E+04</pdfrwt>
<pdfrwt beam="2">  1       -1 0.43704842E-01 0.17958033E+04</pdfrwt>
<totfact> 0.12227216E+01</totfact>
</mgrwt>
</event>
<event>
12    7  0.2426980E-007  0.2463677E+04  0.7818608E-02  0.8416041E-01
          2   -1    0    0  501    0  0.00000000000E+00  0.00000000000E+00  0.39358647350E+04  0.39358647350E+04  0.00000000000E+00 0. -1.
         -1   -1    0    0    0  501 -0.00000000000E+00 -0.00000000000E+00 -0.38553806348E+03  0.38553806348E+03  0.00000000000E+00 0.  1.
         24    2    1    2    0    0  0.23443604779E+03  0.67046716223E+03  0.29290844248E+04  0.30150364786E+04  0.80143143656E+02 0.  0.
        254    2    1    2    0    0 -0.23443604779E+03 -0.67046716223E+03  0.62124224676E+03  0.13063663199E+04  0.90341826224E+03 0.  0.
         23    2    4    4    0    0 -0.79493313855E+02 -0.51262976319E+03 -0.10969824844E+03  0.53742714070E+03  0.87668493787E+02 0.  0.
         23    2    4    4    0    0 -0.15494273393E+03 -0.15783739904E+03  0.73094049520E+03  0.76893917922E+03  0.89852982633E+02 0.  0.
          2    1    3    3  502    0  0.79776402975E+02  0.20565392893E+03  0.76273433008E+03  0.79399085085E+03  0.00000000000E+00 0. -1.
         -1    1    3    3    0  502  0.15465964481E+03  0.46481323330E+03  0.21663500947E+04  0.22210456277E+04  0.00000000000E+00 0.  1.
         13    1    5    5    0    0 -0.59089023465E+02 -0.12905150502E+03 -0.33079987255E+02  0.14573979964E+03  0.00000000000E+00 0. -1.
        -13    1    5    5    0    0 -0.20404290390E+02 -0.38357825816E+03 -0.76618261183E+02  0.39168734106E+03  0.00000000000E+00 0.  1.
          4    1    6    6  503    0 -0.85582637321E+02 -0.13155776506E+03  0.57850470290E+03  0.59941598630E+03  0.00000000000E+00 0. -1.
         -4    1    6    6    0  503 -0.69360096609E+02 -0.26279633980E+02  0.15243579230E+03  0.16952319292E+03  0.00000000000E+00 0.  1.
<mgrwt>
<rscale>  0 0.24636767E+04</rscale>
<asrwt>0</asrwt>
<pdfrwt beam="1">  1        2 0.60551763E+00 0.24636767E+04</pdfrwt>
<pdfrwt beam="2">  1       -1 0.59313551E-01 0.24636767E+04</pdfrwt>
<totfact> 0.11330317E+00</totfact>
</mgrwt>
</event>
<event>
12    7  0.2426980E-007  0.2546238E+04  0.7818608E-02  0.8386696E-01
          2   -1    0    0  501    0  0.00000000000E+00  0.00000000000E+00  0.32910260249E+04  0.32910260249E+04  0.00000000000E+00 0. -1.
         -1   -1    0    0    0  501 -0.00000000000E+00 -0.00000000000E+00 -0.49250049154E+03  0.49250049154E+03  0.00000000000E+00 0.  1.
         24    2    1    2    0    0  0.45458724054E+03  0.75279655223E+03  0.22390417824E+04  0.24069206122E+04  0.81280515118E+02 0.  0.
        254    2    1    2    0    0 -0.45458724054E+03 -0.75279655223E+03  0.55948375103E+03  0.13766059042E+04  0.89926055156E+03 0.  0.
         23    2    4    4    0    0 -0.17024460498E+03  0.83157501008E+02  0.43064249464E+03  0.47962902849E+03  0.93234388974E+02 0.  0.
         23    2    4    4    0    0 -0.28434263556E+03 -0.83595405324E+03  0.12884125639E+03  0.89697687574E+03  0.91090793965E+02 0.  0.
          4    1    3    3  502    0  0.43061856381E+03  0.70499105045E+03  0.21473535817E+04  0.23007764197E+04  0.00000000000E+00 0. -1.
         -3    1    3    3    0  502  0.23968676724E+02  0.47805501783E+02  0.91688200715E+02  0.10614419256E+03  0.00000000000E+00 0.  1.
         13    1    5    5    0    0 -0.14846697687E+03  0.96302873629E+02  0.31580131502E+03  0.36200436083E+03  0.00000000000E+00 0.  1.
        -13    1    5    5    0    0 -0.21777628107E+02 -0.13145372621E+02  0.11484117961E+03  0.11762466766E+03  0.00000000000E+00 0. -1.
          4    1    6    6  503    0 -0.13046019866E+02 -0.61020429731E+02  0.32318614044E+02  0.70272215652E+02  0.00000000000E+00 0. -1.
         -4    1    6    6    0  503 -0.27129661570E+03 -0.77493362351E+03  0.96522642345E+02  0.82670466009E+03  0.00000000000E+00 0.  1.
<mgrwt>
<rscale>  0 0.25462380E+04</rscale>
<asrwt>0</asrwt>
<pdfrwt beam="1">  1        2 0.50631168E+00 0.25462380E+04</pdfrwt>
<pdfrwt beam="2">  1       -1 0.75769308E-01 0.25462380E+04</pdfrwt>
<totfact> 0.19977398E+00</totfact>
</mgrwt>
</event>
<event>
12    7  0.2426980E-007  0.1495127E+04  0.7818608E-02  0.8887700E-01
          2   -1    0    0  501    0  0.00000000000E+00  0.00000000000E+00  0.61061208064E+03  0.61061208064E+03  0.00000000000E+00 0. -1.
         -1   -1    0    0    0  501 -0.00000000000E+00 -0.00000000000E+00 -0.91523145069E+03  0.91523145069E+03  0.00000000000E+00 0.  1.
         24    2    1    2    0    0 -0.15839134040E+03  0.28739242458E+03  0.24847688385E+03  0.41976302997E+03  0.82328713704E+02 0.  0.
        254    2    1    2    0    0  0.15839134040E+03 -0.28739242458E+03 -0.55309625389E+03  0.11060805014E+04  0.89989798700E+03 0.  0.
         23    2    4    4    0    0  0.12859591232E+03 -0.50972468833E+03 -0.36614271603E+02  0.53560474650E+03  0.95789733418E+02 0.  0.
         23    2    4    4    0    0  0.29795428089E+02  0.22233226375E+03 -0.51648198229E+03  0.57047575486E+03  0.91485221849E+02 0.  0.
          2    1    3    3  502    0 -0.15385518629E+03  0.24414441716E+03  0.24027077574E+03  0.37551026677E+03  0.00000000000E+00 0. -1.
         -1    1    3    3    0  502 -0.45361541167E+01  0.43248007419E+02  0.82061081056E+01  0.44252763192E+02  0.00000000000E+00 0.  1.
         13    1    5    5    0    0  0.28145022359E+02 -0.24271706621E+03 -0.52368090064E+02  0.24989224351E+03  0.00000000000E+00 0. -1.
        -13    1    5    5    0    0  0.10045088996E+03 -0.26700762213E+03  0.15753818461E+02  0.28571250298E+03  0.00000000000E+00 0.  1.
          4    1    6    6  503    0 -0.97132978498E+01  0.84216639822E+02 -0.10691829674E+03  0.13644893828E+03  0.00000000000E+00 0. -1.
         -4    1    6    6    0  503  0.39508725939E+02  0.13811562393E+03 -0.40956368555E+03  0.43402681659E+03  0.00000000000E+00 0.  1.
<mgrwt>
<rscale>  0 0.14951273E+04</rscale>
<asrwt>0</asrwt>
<pdfrwt beam="1">  1        2 0.93940320E-01 0.14951273E+04</pdfrwt>
<pdfrwt beam="2">  1       -1 0.14080484E+00 0.14951273E+04</pdfrwt>
<totfact> 0.22143164E+01</totfact>
</mgrwt>
</event>
<event>
12    7  0.2426980E-007  0.1567162E+04  0.7818608E-02  0.8840979E-01
         -1   -1    0    0    0  501 -0.00000000000E+00  0.00000000000E+00  0.23151483605E+03  0.23151483605E+03  0.00000000000E+00 0.  1.
          2   -1    0    0  501    0  0.00000000000E+00 -0.00000000000E+00 -0.26520951318E+04  0.26520951318E+04  0.00000000000E+00 0. -1.
         24    2    1    2    0    0 -0.49311897766E+03  0.14500298243E+03 -0.95958173801E+03  0.10915743584E+04  0.80902885482E+02 0.  0.
        254    2    1    2    0    0  0.49311897766E+03 -0.14500298243E+03 -0.14609985578E+04  0.17920356095E+04  0.90148912857E+03 0.  0.
         23    2    4    4    0    0  0.16138670134E+02 -0.22531973004E+03  0.79499198626E+01  0.24286500386E+03  0.88830014387E+02 0.  0.
         23    2    4    4    0    0  0.47698030753E+03  0.80316747603E+02 -0.14689484776E+04  0.15491706057E+04  0.90326860835E+02 0.  0.
          4    1    3    3  502    0 -0.29744227587E+03  0.49659172062E+02 -0.52203758490E+03  0.60287741780E+03  0.00000000000E+00 0. -1.
         -3    1    3    3    0  502 -0.19567670179E+03  0.95343810371E+02 -0.43754415311E+03  0.48869694057E+03  0.00000000000E+00 0.  1.
         13    1    5    5    0    0 -0.17455804536E+02 -0.17405386245E+03 -0.18908570297E+02  0.17594597516E+03  0.00000000000E+00 0. -1.
        -13    1    5    5    0    0  0.33594474670E+02 -0.51265867586E+02  0.26858490159E+02  0.66919028694E+02  0.00000000000E+00 0.  1.
          1    1    6    6  503    0  0.19793038016E+03  0.56074877158E+02 -0.50334448061E+03  0.54376143059E+03  0.00000000000E+00 0. -1.
         -1    1    6    6    0  503  0.27904992737E+03  0.24241870446E+02 -0.96560399703E+03  0.10054091751E+04  0.00000000000E+00 0.  1.
<mgrwt>
<rscale>  0 0.15671622E+04</rscale>
<asrwt>0</asrwt>
<pdfrwt beam="1">  1        2 0.40801463E+00 0.15671622E+04</pdfrwt>
<pdfrwt beam="2">  1       -1 0.35617667E-01 0.15671622E+04</pdfrwt>
<totfact> 0.23418970E+01</totfact>
</mgrwt>
</event>
<event>
12    7  0.2426980E-007  0.1782581E+04  0.7818608E-02  0.8715618E-01
         -1   -1    0    0    0  501 -0.00000000000E+00  0.00000000000E+00  0.46175358934E+03  0.46175358934E+03  0.00000000000E+00 0.  1.
          2   -1    0    0  501    0  0.00000000000E+00 -0.00000000000E+00 -0.17203962379E+04  0.17203962379E+04  0.00000000000E+00 0. -1.
         24    2    1    2    0    0  0.32000657617E+03  0.56022251246E+03 -0.29419219074E+03  0.71361088019E+03  0.80236967642E+02 0.  0.
        254    2    1    2    0    0 -0.32000657617E+03 -0.56022251246E+03 -0.96445045786E+03  0.14685389471E+04  0.90010470569E+03 0.  0.
         23    2    4    4    0    0 -0.61049364722E+03 -0.32143839203E+03 -0.46516454125E+03  0.83686268124E+03  0.89084025827E+02 0.  0.
         23    2    4    4    0    0  0.29048707105E+03 -0.23878412043E+03 -0.49928591660E+03  0.63167626585E+03  0.91257239151E+02 0.  0.
          4    1    3    3  502    0  0.23888497843E+03  0.45055852282E+03 -0.26252971136E+03  0.57357725265E+03  0.00000000000E+00 0. -1.
         -3    1    3    3    0  502  0.81121597734E+02  0.10966398964E+03 -0.31662479382E+02  0.14003362755E+03  0.00000000000E+00 0.  1.
         13    1    5    5    0    0 -0.25928818498E+03 -0.16291319024E+03 -0.25150900434E+03  0.39626739670E+03  0.00000000000E+00 0.  1.
        -13    1    5    5    0    0 -0.35120546224E+03 -0.15852520179E+03 -0.21365553691E+03  0.44059528454E+03  0.00000000000E+00 0. -1.
          3    1    6    6  503    0 -0.20790103240E+01  0.53942577056E+01 -0.92519602480E+01  0.10909586085E+02  0.00000000000E+00 0. -1.
         -3    1    6    6    0  503  0.29256608137E+03 -0.24417837814E+03 -0.49003395636E+03  0.62076667976E+03  0.00000000000E+00 0.  1.
<mgrwt>
<rscale>  0 0.17825814E+04</rscale>
<asrwt>0</asrwt>
<pdfrwt beam="1">  1        2 0.26467634E+00 0.17825814E+04</pdfrwt>
<pdfrwt beam="2">  1       -1 0.71039014E-01 0.17825814E+04</pdfrwt>
<totfact> 0.20591165E+01</totfact>
</mgrwt>
</event>
<event>
12    7  0.2426980E-007  0.2351835E+04  0.7818608E-02  0.8457759E-01
          2   -1    0    0  501    0  0.00000000000E+00  0.00000000000E+00  0.21106641893E+04  0.21106641893E+04  0.00000000000E+00 0. -1.
         -1   -1    0    0    0  501 -0.00000000000E+00 -0.00000000000E+00 -0.65514089952E+03  0.65514089952E+03  0.00000000000E+00 0.  1.
         24    2    1    2    0    0  0.98115555070E+03  0.10957993335E+03  0.82122200553E+03  0.12867582779E+04  0.81653578405E+02 0.  0.
        254    2    1    2    0    0 -0.98115555070E+03 -0.10957993335E+03  0.63430128424E+03  0.14790468109E+04  0.90031515222E+03 0.  0.
         23    2    4    4    0    0 -0.11096029051E+04 -0.22291338948E+03  0.58970418380E+03  0.12795128162E+04  0.92157670314E+02 0.  0.
         23    2    4    4    0    0  0.12844735441E+03  0.11333345613E+03  0.44597100444E+02  0.19953399474E+03  0.92096246147E+02 0.  0.
          4    1    3    3  502    0  0.93586884558E+03  0.95976369637E+02  0.79997734361E+03  0.12349193131E+04  0.00000000000E+00 0. -1.
         -3    1    3    3    0  502  0.45286705118E+02  0.13603563717E+02  0.21244661926E+02  0.51838964752E+02  0.00000000000E+00 0.  1.
         13    1    5    5    0    0 -0.20127336756E+03 -0.27682921208E+02  0.14425232402E+03  0.24917071578E+03  0.00000000000E+00 0. -1.
        -13    1    5    5    0    0 -0.90832953755E+03 -0.19523046828E+03  0.44545185978E+03  0.10303421004E+04  0.00000000000E+00 0.  1.
          4    1    6    6  503    0  0.84230009244E+02  0.14879346763E+02  0.95859962637E+01  0.86069627289E+02  0.00000000000E+00 0. -1.
         -4    1    6    6    0  503  0.44217345170E+02  0.98454109366E+02  0.35011104180E+02  0.11346436745E+03  0.00000000000E+00 0.  1.
<mgrwt>
<rscale>  0 0.23518354E+04</rscale>
<asrwt>0</asrwt>
<pdfrwt beam="1">  1        2 0.32471756E+00 0.23518354E+04</pdfrwt>
<pdfrwt beam="2">  1       -1 0.10079091E+00 0.23518354E+04</pdfrwt>
<totfact> 0.55723978E+00</totfact>
</mgrwt>
</event>
<event>
12    7  0.2426980E-007  0.1928555E+04  0.7818608E-02  0.8640772E-01
          2   -1    0    0  501    0  0.00000000000E+00  0.00000000000E+00  0.19491712218E+04  0.19491712218E+04  0.00000000000E+00 0. -1.
         -1   -1    0    0    0  501 -0.00000000000E+00 -0.00000000000E+00 -0.47703911628E+03  0.47703911628E+03  0.00000000000E+00 0.  1.
         24    2    1    2    0    0 -0.50685992871E+03 -0.55995149020E+03  0.56909035986E+03  0.94895641360E+03  0.78751371557E+02 0.  0.
        254    2    1    2    0    0  0.50685992871E+03  0.55995149020E+03  0.90304174565E+03  0.14772539245E+04  0.89238002232E+03 0.  0.
         23    2    4    4    0    0  0.47424327051E+02  0.61755855948E+03  0.75789964001E+03  0.98314969037E+03  0.92432722354E+02 0.  0.
         23    2    4    4    0    0  0.45943560166E+03 -0.57607069275E+02  0.14514210564E+03  0.49410423410E+03  0.93129570066E+02 0.  0.
          2    1    3    3  502    0 -0.13471131329E+03 -0.10239562472E+03  0.11456584329E+03  0.20434611408E+03  0.00000000000E+00 0. -1.
         -1    1    3    3    0  502 -0.37214861542E+03 -0.45755586549E+03  0.45452451656E+03  0.74461029952E+03  0.00000000000E+00 0.  1.
         13    1    5    5    0    0  0.31024841683E+02  0.56329141432E+03  0.64562830478E+03  0.85737720181E+03  0.00000000000E+00 0. -1.
        -13    1    5    5    0    0  0.16399485368E+02  0.54267145156E+02  0.11227133523E+03  0.12577248856E+03  0.00000000000E+00 0.  1.
          2    1    6    6  503    0  0.10316925158E+03  0.25646380148E+02  0.37582922695E+02  0.11275685063E+03  0.00000000000E+00 0.  1.
         -2    1    6    6    0  503  0.35626635008E+03 -0.83253449423E+02  0.10755918295E+03  0.38134738347E+03  0.00000000000E+00 0. -1.
<mgrwt>
<rscale>  0 0.19285548E+04</rscale>
<asrwt>0</asrwt>
<pdfrwt beam="1">  1        2 0.29987249E+00 0.19285548E+04</pdfrwt>
<pdfrwt beam="2">  1       -1 0.73390634E-01 0.19285548E+04</pdfrwt>
<totfact> 0.14193223E+01</totfact>
</mgrwt>
</event>
<event>
12    7  0.2426980E-007  0.2677365E+04  0.7818608E-02  0.8342387E-01
          2   -1    0    0  501    0  0.00000000000E+00  0.00000000000E+00  0.33893758996E+04  0.33893758996E+04  0.00000000000E+00 0. -1.
         -1   -1    0    0    0  501 -0.00000000000E+00 -0.00000000000E+00 -0.52873184370E+03  0.52873184370E+03  0.00000000000E+00 0.  1.
         24    2    1    2    0    0  0.11801980345E+04 -0.12531495496E+02  0.14384767766E+04  0.18625572737E+04  0.82944090146E+02 0.  0.
        254    2    1    2    0    0 -0.11801980345E+04  0.12531495496E+02  0.14221672794E+04  0.20555504696E+04  0.89983527577E+03 0.  0.
         23    2    4    4    0    0 -0.12127711744E+03 -0.33254723792E+03  0.39073108076E+03  0.53511852734E+03  0.91571044336E+02 0.  0.
         23    2    4    4    0    0 -0.10589209171E+04  0.34507873342E+03  0.10314361986E+04  0.15204319423E+04  0.86370240061E+02 0.  0.
          2    1    3    3  502    0  0.68676554379E+03  0.18454374328E+02  0.88621409615E+03  0.11213219432E+04  0.00000000000E+00 0. -1.
         -1    1    3    3    0  502  0.49343249074E+03 -0.30985869824E+02  0.55226268042E+03  0.74123533053E+03  0.00000000000E+00 0.  1.
         13    1    5    5    0    0 -0.83543829032E+02 -0.10150924346E+03  0.14509670149E+03  0.19579772894E+03  0.00000000000E+00 0. -1.
        -13    1    5    5    0    0 -0.37733288404E+02 -0.23103799447E+03  0.24563437928E+03  0.33932079840E+03  0.00000000000E+00 0.  1.
          2    1    6    6  503    0 -0.72087352902E+03  0.23851992703E+03  0.64749290324E+03  0.99789651777E+03  0.00000000000E+00 0. -1.
         -2    1    6    6    0  503 -0.33804738807E+03  0.10655880639E+03  0.38394329536E+03  0.52253542450E+03  0.00000000000E+00 0.  1.
<mgrwt>
<rscale>  0 0.26773651E+04</rscale>
<asrwt>0</asrwt>
<pdfrwt beam="1">  1        2 0.52144243E+00 0.26773651E+04</pdfrwt>
<pdfrwt beam="2">  1       -1 0.81343363E-01 0.26773651E+04</pdfrwt>
<totfact> 0.14583085E+00</totfact>
</mgrwt>
</event>
<event>
12    7  0.2426980E-007  0.2390118E+04  0.7818608E-02  0.8443213E-01
         -1   -1    0    0    0  501 -0.00000000000E+00  0.00000000000E+00  0.71025637811E+03  0.71025637811E+03  0.00000000000E+00 0.  1.
          2   -1    0    0  501    0  0.00000000000E+00 -0.00000000000E+00 -0.20107746928E+04  0.20107746928E+04  0.00000000000E+00 0. -1.
         24    2    1    2    0    0  0.72056347180E+03 -0.48568491120E+03 -0.11795578464E+04  0.14671973669E+04  0.78802605413E+02 0.  0.
        254    2    1    2    0    0 -0.72056347180E+03  0.48568491120E+03 -0.12096046823E+03  0.12538337039E+04  0.89574883331E+03 0.  0.
         23    2    4    4    0    0 -0.39042098476E+03 -0.17658601345E+03  0.14495631889E+03  0.46179707333E+03  0.92914138129E+02 0.  0.
         23    2    4    4    0    0 -0.33014248705E+03  0.66227092465E+03 -0.26591678712E+03  0.79203663061E+03  0.94939176087E+02 0.  0.
          4    1    3    3  502    0  0.47021993439E+03 -0.28878106840E+03 -0.69675985781E+03  0.88880571083E+03  0.00000000000E+00 0. -1.
         -3    1    3    3    0  502  0.25034353742E+03 -0.19690384280E+03 -0.48279798861E+03  0.57839165610E+03  0.00000000000E+00 0.  1.
         13    1    5    5    0    0 -0.31540275495E+03 -0.99415743101E+02  0.10445571879E+03  0.34680453428E+03  0.00000000000E+00 0.  1.
        -13    1    5    5    0    0 -0.75018229804E+02 -0.77170270352E+02  0.40500600095E+02  0.11499253905E+03  0.00000000000E+00 0. -1.
          3    1    6    6  503    0 -0.21639812075E+03  0.44869145684E+03 -0.13142565997E+03  0.51519401608E+03  0.00000000000E+00 0. -1.
         -3    1    6    6    0  503 -0.11374436629E+03  0.21357946781E+03 -0.13449112715E+03  0.27684261452E+03  0.00000000000E+00 0.  1.
<mgrwt>
<rscale>  0 0.23901176E+04</rscale>
<asrwt>0</asrwt>
<pdfrwt beam="1">  1        2 0.30934996E+00 0.23901176E+04</pdfrwt>
<pdfrwt beam="2">  1       -1 0.10927021E+00 0.23901176E+04</pdfrwt>
<totfact> 0.52318110E+00</totfact>
</mgrwt>
</event>
<event>
12    7  0.2426980E-007  0.1609403E+04  0.7818608E-02  0.8814792E-01
          2   -1    0    0  501    0  0.00000000000E+00  0.00000000000E+00  0.11295315366E+04  0.11295315366E+04  0.00000000000E+00 0. -1.
         -1   -1    0    0    0  501 -0.00000000000E+00 -0.00000000000E+00 -0.57328572884E+03  0.57328572884E+03  0.00000000000E+00 0.  1.
         24    2    1    2    0    0 -0.25016444871E+03 -0.29299800871E+03 -0.22171790549E+03  0.45175017613E+03  0.80556238181E+02 0.  0.
        254    2    1    2    0    0  0.25016444871E+03  0.29299800871E+03  0.77796371327E+03  0.12510670893E+04  0.90083918562E+03 0.  0.
         23    2    4    4    0    0  0.53196540053E+03 -0.20095053066E+02  0.34856572937E+03  0.64253399039E+03  0.89223666122E+02 0.  0.
         23    2    4    4    0    0 -0.28180095181E+03  0.31309306178E+03  0.42939798390E+03  0.60853309895E+03  0.92145874354E+02 0.  0.
          2    1    3    3  502    0 -0.57621312060E+02 -0.11183724842E+03 -0.44368091841E+02  0.13340282347E+03  0.00000000000E+00 0. -1.
         -1    1    3    3    0  502 -0.19254313665E+03 -0.18116076030E+03 -0.17734981365E+03  0.31834735266E+03  0.00000000000E+00 0.  1.
         13    1    5    5    0    0  0.25020897784E+03 -0.51889210396E+02  0.14900038271E+03  0.29580083975E+03  0.00000000000E+00 0. -1.
        -13    1    5    5    0    0  0.28175642269E+03  0.31794157330E+02  0.19956534666E+03  0.34673315064E+03  0.00000000000E+00 0.  1.
          4    1    6    6  503    0 -0.13876062116E+03  0.21372133016E+03  0.28486714868E+03  0.38220493109E+03  0.00000000000E+00 0. -1.
         -4    1    6    6    0  503 -0.14304033065E+03  0.99371731620E+02  0.14453083522E+03  0.22632816786E+03  0.00000000000E+00 0.  1.
<mgrwt>
<rscale>  0 0.16094028E+04</rscale>
<asrwt>0</asrwt>
<pdfrwt beam="1">  1        2 0.17377408E+00 0.16094028E+04</pdfrwt>
<pdfrwt beam="2">  1       -1 0.88197805E-01 0.16094028E+04</pdfrwt>
<totfact> 0.28844634E+01</totfact>
</mgrwt>
</event>
<event>
12    7  0.2426980E-007  0.1665638E+04  0.7818608E-02  0.8781209E-01
         -1   -1    0    0    0  501 -0.00000000000E+00  0.00000000000E+00  0.22710475112E+03  0.22710475112E+03  0.00000000000E+00 0.  1.
          2   -1    0    0  501    0  0.00000000000E+00 -0.00000000000E+00 -0.30540411247E+04  0.30540411247E+04  0.00000000000E+00 0. -1.
         24    2    1    2    0    0  0.47913454035E+03 -0.87873429174E+02 -0.16533597766E+04  0.17254981714E+04  0.80335182873E+02 0.  0.
        254    2    1    2    0    0 -0.47913454035E+03  0.87873429174E+02 -0.11735765970E+04  0.15556477044E+04  0.89747763413E+03 0.  0.
         23    2    4    4    0    0 -0.60617831157E+02 -0.13078323310E+02 -0.11053825558E+04  0.11104118719E+04  0.85430477912E+02 0.  0.
         23    2    4    4    0    0 -0.41851670920E+03  0.10095175248E+03 -0.68194041241E+02  0.44523583251E+03  0.90758068996E+02 0.  0.
          4    1    3    3  502    0  0.31506359944E+03 -0.25617104105E+02 -0.11376320950E+04  0.11807320150E+04  0.00000000000E+00 0. -1.
         -3    1    3    3    0  502  0.16407094091E+03 -0.62256325069E+02 -0.51572768155E+03  0.54476615642E+03  0.00000000000E+00 0.  1.
         13    1    5    5    0    0 -0.61665656345E+02 -0.21714119298E+02 -0.10946319578E+04  0.10965825455E+04  0.00000000000E+00 0. -1.
        -13    1    5    5    0    0  0.10478251880E+01  0.86357959878E+01 -0.10750598045E+02  0.13829326386E+02  0.00000000000E+00 0.  1.
          1    1    6    6  503    0 -0.29725090613E+03  0.55177312377E+02 -0.86191190557E+02  0.31437486911E+03  0.00000000000E+00 0. -1.
         -1    1    6    6    0  503 -0.12126580306E+03  0.45774440107E+02  0.17997149316E+02  0.13086096341E+03  0.00000000000E+00 0.  1.
<mgrwt>
<rscale>  0 0.16656377E+04</rscale>
<asrwt>0</asrwt>
<pdfrwt beam="1">  1        2 0.46985245E+00 0.16656377E+04</pdfrwt>
<pdfrwt beam="2">  1       -1 0.34939194E-01 0.16656377E+04</pdfrwt>
<totfact> 0.13690235E+01</totfact>
</mgrwt>
</event>
<event>
12    7  0.2426980E-007  0.2937527E+04  0.7818608E-02  0.8261799E-01
         -1   -1    0    0    0  501 -0.00000000000E+00  0.00000000000E+00  0.83411914363E+03  0.83411914363E+03  0.00000000000E+00 0.  1.
          2   -1    0    0  501    0  0.00000000000E+00 -0.00000000000E+00 -0.25862798212E+04  0.25862798212E+04  0.00000000000E+00 0. -1.
         24    2    1    2    0    0 -0.43460910233E+03 -0.79177534430E+03  0.33793860753E+03  0.96764080161E+03  0.79579839194E+02 0.  0.
        254    2    1    2    0    0  0.43460910233E+03  0.79177534430E+03 -0.20900992852E+04  0.24527581633E+04  0.91198372683E+03 0.  0.
         23    2    4    4    0    0 -0.51788207039E+02  0.69416778086E+03 -0.16111597551E+04  0.17575171874E+04  0.92086812348E+02 0.  0.
         23    2    4    4    0    0  0.48639730937E+03  0.97607563448E+02 -0.47893953005E+03  0.69524097591E+03  0.88698151866E+02 0.  0.
          2    1    3    3  502    0 -0.23748919741E+03 -0.36655760870E+03  0.18849851355E+03  0.47570714625E+03  0.00000000000E+00 0. -1.
         -1    1    3    3    0  502 -0.19711990492E+03 -0.42521773560E+03  0.14944009398E+03  0.49193365536E+03  0.00000000000E+00 0.  1.
         13    1    5    5    0    0 -0.38527936679E+00  0.29805406075E+02 -0.33121737588E+02  0.44559624912E+02  0.00000000000E+00 0. -1.
        -13    1    5    5    0    0 -0.51402927672E+02  0.66436237478E+03 -0.15780380175E+04  0.17129575624E+04  0.00000000000E+00 0.  1.
          1    1    6    6  503    0  0.24138580166E+03  0.43651821857E+02 -0.29769302770E+03  0.38573789746E+03  0.00000000000E+00 0. -1.
         -1    1    6    6    0  503  0.24501150771E+03  0.53955741591E+02 -0.18124650235E+03  0.30950307846E+03  0.00000000000E+00 0.  1.
<mgrwt>
<rscale>  0 0.29375265E+04</rscale>
<asrwt>0</asrwt>
<pdfrwt beam="1">  1        2 0.39788920E+00 0.29375265E+04</pdfrwt>
<pdfrwt beam="2">  1       -1 0.12832602E+00 0.29375265E+04</pdfrwt>
<totfact> 0.15882139E+00</totfact>
</mgrwt>
</event>
<event>
12    7  0.2426980E-007  0.3391352E+04  0.7818608E-02  0.8140032E-01
          2   -1    0    0  501    0  0.00000000000E+00  0.00000000000E+00  0.32720138231E+04  0.32720138231E+04  0.00000000000E+00 0. -1.
         -1   -1    0    0    0  501 -0.00000000000E+00 -0.00000000000E+00 -0.87876071866E+03  0.87876071866E+03  0.00000000000E+00 0.  1.
         24    2    1    2    0    0 -0.11623932469E+04 -0.98014746254E+03  0.16117705021E+04  0.22172487667E+04  0.80875418538E+02 0.  0.
        254    2    1    2    0    0  0.11623932469E+04  0.98014746254E+03  0.78148260229E+03  0.19335257750E+04  0.90330490762E+03 0.  0.
         23    2    4    4    0    0  0.68582147716E+03  0.34971640429E+03  0.83155055214E+03  0.11369634624E+04  0.92503686380E+02 0.  0.
         23    2    4    4    0    0  0.47657176974E+03  0.63043105825E+03 -0.50067949853E+02  0.79656231264E+03  0.86259767018E+02 0.  0.
          4    1    3    3  502    0 -0.22419533395E+03 -0.18377274429E+03  0.35460050271E+03  0.45801472229E+03  0.00000000000E+00 0. -1.
         -3    1    3    3    0  502 -0.93819791295E+03 -0.79637471824E+03  0.12571699994E+04  0.17592340444E+04  0.00000000000E+00 0.  1.
         13    1    5    5    0    0 -0.21069830873E+01  0.60014050243E+01  0.66975308179E+01  0.92365122775E+01  0.00000000000E+00 0.  1.
        -13    1    5    5    0    0  0.68792846025E+03  0.34371499927E+03  0.82485302132E+03  0.11277269501E+04  0.00000000000E+00 0. -1.
          1    1    6    6  503    0  0.32500341281E+03  0.36066060699E+03 -0.25768109293E+02  0.48617618950E+03  0.00000000000E+00 0.  1.
         -1    1    6    6    0  503  0.15156835693E+03  0.26977045125E+03 -0.24299840560E+02  0.31038612315E+03  0.00000000000E+00 0. -1.
<mgrwt>
<rscale>  0 0.33913521E+04</rscale>
<asrwt>0</asrwt>
<pdfrwt beam="1">  1        2 0.50338674E+00 0.33913521E+04</pdfrwt>
<pdfrwt beam="2">  1       -1 0.13519396E+00 0.33913521E+04</pdfrwt>
<totfact> 0.50171279E-01</totfact>
</mgrwt>
</event>
<event>
12    7  0.2426980E-007  0.2183835E+04  0.7818608E-02  0.8525186E-01
         -1   -1    0    0    0  501 -0.00000000000E+00  0.00000000000E+00  0.34686503171E+03  0.34686503171E+03  0.00000000000E+00 0.  1.
          2   -1    0    0  501    0  0.00000000000E+00 -0.00000000000E+00 -0.34373144984E+04  0.34373144984E+04  0.00000000000E+00 0. -1.
         24    2    1    2    0    0  0.64433586431E+03 -0.61799950932E+03 -0.15452429693E+04  0.17862602060E+04  0.76534893051E+02 0.  0.
        254    2    1    2    0    0 -0.64433586431E+03  0.61799950932E+03 -0.15452064974E+04  0.19979193241E+04  0.89829082513E+03 0.  0.
         23    2    4    4    0    0 -0.45020014602E+03  0.65218166888E+03 -0.15869820425E+04  0.17758897464E+04  0.85154492539E+02 0.  0.
         23    2    4    4    0    0 -0.19413571828E+03 -0.34182159564E+02  0.41775545062E+02  0.22202957771E+03  0.93246126279E+02 0.  0.
          2    1    3    3  502    0  0.27559665149E+03 -0.21265539349E+03 -0.60085557601E+03  0.69440856412E+03  0.00000000000E+00 0. -1.
         -1    1    3    3    0  502  0.36873921281E+03 -0.40534411583E+03 -0.94438739331E+03  0.10918516419E+04  0.00000000000E+00 0.  1.
         13    1    5    5    0    0 -0.20784298652E+02  0.61679423613E+02 -0.16599384992E+03  0.17829833588E+03  0.00000000000E+00 0.  1.
        -13    1    5    5    0    0 -0.42941584737E+03  0.59050224527E+03 -0.14209881925E+04  0.15975914105E+04  0.00000000000E+00 0. -1.
          3    1    6    6  503    0 -0.46118327455E+02 -0.34902401065E+02  0.46078360890E+02  0.73947907811E+02  0.00000000000E+00 0. -1.
         -3    1    6    6    0  503 -0.14801739083E+03  0.72024150065E+00 -0.43028158274E+01  0.14808166990E+03  0.00000000000E+00 0.  1.
<mgrwt>
<rscale>  0 0.21838353E+04</rscale>
<asrwt>0</asrwt>
<pdfrwt beam="1">  1        2 0.52881759E+00 0.21838353E+04</pdfrwt>
<pdfrwt beam="2">  1       -1 0.53363853E-01 0.21838353E+04</pdfrwt>
<totfact> 0.33268205E+00</totfact>
</mgrwt>
</event>
<event>
12    7  0.2426980E-007  0.2512372E+04  0.7818608E-02  0.8398591E-01
         -3   -1    0    0    0  501 -0.00000000000E+00  0.00000000000E+00  0.71335687752E+03  0.71335687752E+03  0.00000000000E+00 0.  1.
          4   -1    0    0  501    0  0.00000000000E+00 -0.00000000000E+00 -0.22120812083E+04  0.22120812083E+04  0.00000000000E+00 0. -1.
         24    2    1    2    0    0  0.39525003537E+03 -0.85056837977E+03 -0.32870896016E+01  0.94352445087E+03  0.10265683266E+03 0.  0.
        254    2    1    2    0    0 -0.39525003537E+03  0.85056837977E+03 -0.14954372412E+04  0.19819136349E+04  0.90108820597E+03 0.  0.
         23    2    4    4    0    0 -0.16827305725E+03  0.72704763732E+03 -0.15313579595E+04  0.17060719664E+04  0.93328803267E+02 0.  0.
         23    2    4    4    0    0 -0.22697697813E+03  0.12352074245E+03  0.35920718337E+02  0.27584166858E+03  0.89567883203E+02 0.  0.
          4    1    3    3  502    0  0.78426136189E+02 -0.15863926489E+03 -0.40716369073E+02  0.18158991688E+03  0.00000000000E+00 0. -1.
         -3    1    3    3    0  502  0.31682389919E+03 -0.69192911488E+03  0.37429279471E+02  0.76193453398E+03  0.00000000000E+00 0.  1.
         13    1    5    5    0    0 -0.85451392899E+02  0.54306201964E+03 -0.10902774202E+04  0.12210336403E+04  0.00000000000E+00 0. -1.
        -13    1    5    5    0    0 -0.82821664346E+02  0.18398561768E+03 -0.44108053931E+03  0.48503832607E+03  0.00000000000E+00 0.  1.
          2    1    6    6  503    0 -0.16696889501E+03  0.67431580593E+02 -0.12478573065E+02  0.18050303252E+03  0.00000000000E+00 0. -1.
         -2    1    6    6    0  503 -0.60008083118E+02  0.56089161860E+02  0.48399291401E+02  0.95338636060E+02  0.00000000000E+00 0.  1.
<mgrwt>
<rscale>  0 0.25123721E+04</rscale>
<asrwt>0</asrwt>
<pdfrwt beam="1">  1        4 0.34032018E+00 0.25123721E+04</pdfrwt>
<pdfrwt beam="2">  1       -3 0.10974721E+00 0.25123721E+04</pdfrwt>
<totfact> 0.24333457E-02</totfact>
</mgrwt>
</event>
<event>
12    7  0.2426980E-007  0.2131315E+04  0.7818608E-02  0.8547573E-01
          2   -1    0    0  501    0  0.00000000000E+00  0.00000000000E+00  0.21185786064E+04  0.21185786064E+04  0.00000000000E+00 0. -1.
         -3   -1    0    0    0  501 -0.00000000000E+00 -0.00000000000E+00 -0.53603212286E+03  0.53603212286E+03  0.00000000000E+00 0.  1.
         24    2    1    2    0    0 -0.68784578005E+03  0.53637760328E+03  0.58483839907E+03  0.10529668689E+04  0.76619341251E+02 0.  0.
        254    2    1    2    0    0  0.68784578005E+03 -0.53637760328E+03  0.99770808445E+03  0.16016438604E+04  0.89944921108E+03 0.  0.
         23    2    4    4    0    0  0.55258146967E+03 -0.87844123419E+02  0.97060090231E+03  0.11240851481E+04  0.91860970705E+02 0.  0.
         23    2    4    4    0    0  0.13526431038E+03 -0.44853347986E+03  0.27107182135E+02  0.47755871230E+03  0.88593499504E+02 0.  0.
          2    1    3    3  502    0 -0.49405458880E+03  0.36765288464E+03  0.45044279148E+03  0.76299232545E+03  0.00000000000E+00 0. -1.
         -1    1    3    3    0  502 -0.19379119125E+03  0.16872471863E+03  0.13439560759E+03  0.28997454341E+03  0.00000000000E+00 0.  1.
         13    1    5    5    0    0  0.27321821709E+03  0.24424761452E+01  0.45330043638E+03  0.52927823067E+03  0.00000000000E+00 0.  1.
        -13    1    5    5    0    0  0.27936325258E+03 -0.90286599564E+02  0.51730046594E+03  0.59480691742E+03  0.00000000000E+00 0. -1.
          3    1    6    6  503    0  0.45162992896E+02 -0.13888524600E+03 -0.32472818028E+02  0.14961046552E+03  0.00000000000E+00 0. -1.
         -3    1    6    6    0  503  0.90101317484E+02 -0.30964823386E+03  0.59580000163E+02  0.32794824678E+03  0.00000000000E+00 0.  1.
<mgrwt>
<rscale>  0 0.21313153E+04</rscale>
<asrwt>0</asrwt>
<pdfrwt beam="1">  1        2 0.32593516E+00 0.21313153E+04</pdfrwt>
<pdfrwt beam="2">  1       -3 0.82466482E-01 0.21313153E+04</pdfrwt>
<totfact> 0.45814111E+00</totfact>
</mgrwt>
</event>
<event>
12    7  0.2426980E-007  0.5521195E+04  0.7818608E-02  0.7752779E-01
         -1   -1    0    0    0  501 -0.00000000000E+00  0.00000000000E+00  0.15473970898E+04  0.15473970898E+04  0.00000000000E+00 0.  1.
          2   -1    0    0  501    0  0.00000000000E+00 -0.00000000000E+00 -0.49249796993E+04  0.49249796993E+04  0.00000000000E+00 0. -1.
         24    2    1    2    0    0 -0.18407700892E+04  0.80869366345E+03 -0.37331040825E+04  0.42408311551E+04  0.78503715875E+02 0.  0.
        254    2    1    2    0    0  0.18407700892E+04 -0.80869366345E+03  0.35552147299E+03  0.22315456340E+04  0.90054452210E+03 0.  0.
         23    2    4    4    0    0  0.16365724093E+04 -0.98182240300E+03  0.37671444962E+03  0.19475113529E+04  0.92424083041E+02 0.  0.
         23    2    4    4    0    0  0.20419767986E+03  0.17312873955E+03 -0.21192976626E+02  0.28403428110E+03  0.92499068429E+02 0.  0.
          4    1    3    3  502    0 -0.50109786120E+02  0.34542261973E+02 -0.12829688594E+03  0.14200087841E+03  0.00000000000E+00 0. -1.
         -3    1    3    3    0  502 -0.17906603030E+04  0.77415140148E+03 -0.36048071965E+04  0.40988302767E+04  0.00000000000E+00 0.  1.
         13    1    5    5    0    0  0.13890785041E+04 -0.82997132801E+03  0.28535398879E+03  0.16431124109E+04  0.00000000000E+00 0. -1.
        -13    1    5    5    0    0  0.24749390519E+03 -0.15185107499E+03  0.91360460829E+02  0.30439894199E+03  0.00000000000E+00 0.  1.
          4    1    6    6  503    0  0.20494018345E+03  0.16106733462E+03 -0.37915721766E+02  0.26340229124E+03  0.00000000000E+00 0. -1.
         -4    1    6    6    0  503 -0.74250358478E+00  0.12061404926E+02  0.16722745140E+02  0.20631989855E+02  0.00000000000E+00 0.  1.
<mgrwt>
<rscale>  0 0.55211953E+04</rscale>
<asrwt>0</asrwt>
<pdfrwt beam="1">  1        2 0.75768919E+00 0.55211953E+04</pdfrwt>
<pdfrwt beam="2">  1       -1 0.23806109E+00 0.55211953E+04</pdfrwt>
<totfact> 0.27618449E-03</totfact>
</mgrwt>
</event>
<event>
12    7  0.2426980E-007  0.1349493E+04  0.7818608E-02  0.8991212E-01
          2   -1    0    0  501    0  0.00000000000E+00  0.00000000000E+00  0.12391759405E+04  0.12391759405E+04  0.00000000000E+00 0. -1.
         -1   -1    0    0    0  501 -0.00000000000E+00 -0.00000000000E+00 -0.36740756813E+03  0.36740756813E+03  0.00000000000E+00 0.  1.
         24    2    1    2    0    0  0.95708224229E+02 -0.31254774177E+03  0.44562862952E+03  0.55853698774E+03  0.80824106316E+02 0.  0.
        254    2    1    2    0    0 -0.95708224229E+02  0.31254774177E+03  0.42613974285E+03  0.10480465209E+04  0.89997792996E+03 0.  0.
         23    2    4    4    0    0  0.39106979635E+03  0.19146830173E+03  0.16212893204E+03  0.47389027122E+03  0.93222863964E+02 0.  0.
         23    2    4    4    0    0 -0.48677802058E+03  0.12107944003E+03  0.26401081082E+03  0.57415624966E+03  0.91326987682E+02 0.  0.
          4    1    3    3  502    0  0.59238799477E+02 -0.20479338289E+03  0.35050713583E+03  0.41024970117E+03  0.00000000000E+00 0. -1.
         -3    1    3    3    0  502  0.36469424752E+02 -0.10775435888E+03  0.95121493685E+02  0.14828728657E+03  0.00000000000E+00 0.  1.
         13    1    5    5    0    0  0.20200572702E+03  0.47179765142E+02  0.77687890709E+02  0.22151219459E+03  0.00000000000E+00 0. -1.
        -13    1    5    5    0    0  0.18906406933E+03  0.14428853659E+03  0.84441041327E+02  0.25237807663E+03  0.00000000000E+00 0.  1.
          3    1    6    6  503    0 -0.21255914851E+03  0.81114929945E+02  0.16011385562E+03  0.27820400830E+03  0.00000000000E+00 0. -1.
         -3    1    6    6    0  503 -0.27421887207E+03  0.39964510088E+02  0.10389695520E+03  0.29595224136E+03  0.00000000000E+00 0.  1.
<mgrwt>
<rscale>  0 0.13494927E+04</rscale>
<asrwt>0</asrwt>
<pdfrwt beam="1">  1        2 0.19064245E+00 0.13494927E+04</pdfrwt>
<pdfrwt beam="2">  1       -1 0.56524242E-01 0.13494927E+04</pdfrwt>
<totfact> 0.63316240E+01</totfact>
</mgrwt>
</event>
<event>
12    7  0.2426980E-007  0.1990242E+04  0.7818608E-02  0.8611197E-01
         -1   -1    0    0    0  501 -0.00000000000E+00  0.00000000000E+00  0.88165993362E+03  0.88165993362E+03  0.00000000000E+00 0.  1.
          2   -1    0    0  501    0  0.00000000000E+00 -0.00000000000E+00 -0.11231828740E+04  0.11231828740E+04  0.00000000000E+00 0. -1.
         24    2    1    2    0    0 -0.41651650574E+03 -0.24489223128E+03  0.53187601065E+03  0.72311171980E+03  0.80871899349E+02 0.  0.
        254    2    1    2    0    0  0.41651650574E+03  0.24489223128E+03 -0.77339895107E+03  0.12817310879E+04  0.90068331814E+03 0.  0.
         23    2    4    4    0    0 -0.93750753981E+02  0.44673284910E+03 -0.33607436787E+03  0.57407463073E+03  0.90863956351E+02 0.  0.
         23    2    4    4    0    0  0.51026725972E+03 -0.20184061782E+03 -0.43732458320E+03  0.70765645713E+03  0.91720002775E+02 0.  0.
          2    1    3    3  502    0 -0.94668362122E+02 -0.69668308027E+02  0.84257171710E+02  0.14462034060E+03  0.00000000000E+00 0. -1.
         -1    1    3    3    0  502 -0.32184814362E+03 -0.17522392325E+03  0.44761883894E+03  0.57849137920E+03  0.00000000000E+00 0.  1.
         13    1    5    5    0    0 -0.77910773836E+02  0.22686462540E+03 -0.21736392413E+03  0.32370468401E+03  0.00000000000E+00 0. -1.
        -13    1    5    5    0    0 -0.15839980145E+02  0.21986822370E+03 -0.11871044375E+03  0.25036994672E+03  0.00000000000E+00 0.  1.
          3    1    6    6  503    0 -0.40357939546E+01 -0.25692527086E+01 -0.40926912369E+01  0.62959362993E+01  0.00000000000E+00 0. -1.
         -3    1    6    6    0  503  0.51430305368E+03 -0.19927136511E+03 -0.43323189196E+03  0.70136052084E+03  0.00000000000E+00 0.  1.
<mgrwt>
<rscale>  0 0.19902415E+04</rscale>
<asrwt>0</asrwt>
<pdfrwt beam="1">  1        2 0.17279736E+00 0.19902415E+04</pdfrwt>
<pdfrwt beam="2">  1       -1 0.13563999E+00 0.19902415E+04</pdfrwt>
<totfact> 0.10173449E+01</totfact>
</mgrwt>
</event>
<event>
12    7  0.2426980E-007  0.2699081E+04  0.7818608E-02  0.8335303E-01
         -1   -1    0    0    0  501 -0.00000000000E+00  0.00000000000E+00  0.19793465870E+04  0.19793465870E+04  0.00000000000E+00 0.  1.
          2   -1    0    0  501    0  0.00000000000E+00 -0.00000000000E+00 -0.92013146182E+03  0.92013146182E+03  0.00000000000E+00 0. -1.
         24    2    1    2    0    0  0.26173129370E+03  0.44113052549E+03  0.16344874428E+04  0.17151228353E+04  0.83652428935E+02 0.  0.
        254    2    1    2    0    0 -0.26173129370E+03 -0.44113052549E+03 -0.57527231762E+03  0.11843552135E+04  0.89925503709E+03 0.  0.
         23    2    4    4    0    0  0.26022381773E+03 -0.21594422758E+03  0.27248989905E+02  0.35112320690E+03  0.90535375622E+02 0.  0.
         23    2    4    4    0    0 -0.52195511143E+03 -0.22518629791E+03 -0.60252130753E+03  0.83323200661E+03  0.89986908476E+02 0.  0.
          4    1    3    3  502    0  0.15161623892E+02  0.65199543853E+01  0.99297995589E+02  0.10066020352E+03  0.00000000000E+00 0. -1.
         -3    1    3    3    0  502  0.24656966981E+03  0.43461057111E+03  0.15351894472E+04  0.16144626318E+04  0.00000000000E+00 0.  1.
         13    1    5    5    0    0  0.16229409852E+03 -0.15331019740E+03 -0.23086439990E+02  0.22444681944E+03  0.00000000000E+00 0. -1.
        -13    1    5    5    0    0  0.97929719205E+02 -0.62634030174E+02  0.50335429895E+02  0.12667638747E+03  0.00000000000E+00 0.  1.
          2    1    6    6  503    0 -0.33478596080E+03 -0.10376694755E+03 -0.40101802128E+03  0.53260179528E+03  0.00000000000E+00 0. -1.
         -2    1    6    6    0  503 -0.18716915063E+03 -0.12141935037E+03 -0.20150328625E+03  0.30063021132E+03  0.00000000000E+00 0.  1.
<mgrwt>
<rscale>  0 0.26990806E+04</rscale>
<asrwt>0</asrwt>
<pdfrwt beam="1">  1        2 0.14155869E+00 0.26990806E+04</pdfrwt>
<pdfrwt beam="2">  1       -1 0.30451486E+00 0.26990806E+04</pdfrwt>
<totfact> 0.87751657E-01</totfact>
</mgrwt>
</event>
<event>
12    7  0.2426980E-007  0.5042952E+04  0.7818608E-02  0.7821915E-01
          2   -1    0    0  501    0  0.00000000000E+00  0.00000000000E+00  0.18658023438E+04  0.18658023438E+04  0.00000000000E+00 0. -1.
         -1   -1    0    0    0  501 -0.00000000000E+00 -0.00000000000E+00 -0.34075637443E+04  0.34075637443E+04  0.00000000000E+00 0.  1.
         24    2    1    2    0    0 -0.18588831248E+04 -0.31398722577E+03  0.87459464654E+03  0.20798557211E+04  0.82762161025E+02 0.  0.
        254    2    1    2    0    0  0.18588831248E+04  0.31398722577E+03 -0.24163560471E+04  0.31935103669E+04  0.89760652161E+03 0.  0.
         23    2    4    4    0    0  0.18747736572E+04  0.43840083735E+03 -0.22932613732E+04  0.29957316470E+04  0.91590474957E+02 0.  0.
         23    2    4    4    0    0 -0.15890532385E+02 -0.12441361158E+03 -0.12309467382E+03  0.19777871987E+03  0.90735150539E+02 0.  0.
          4    1    3    3  502    0 -0.12831543541E+04 -0.18045241260E+03  0.61590617945E+03  0.14347085389E+04  0.00000000000E+00 0. -1.
         -3    1    3    3    0  502 -0.57572877074E+03 -0.13353481317E+03  0.25868846709E+03  0.64514718227E+03  0.00000000000E+00 0.  1.
         13    1    5    5    0    0  0.17135325829E+04  0.38961505544E+03 -0.21275108991E+04  0.27594014623E+04  0.00000000000E+00 0.  1.
        -13    1    5    5    0    0  0.16124107432E+03  0.48785781905E+02 -0.16575047409E+03  0.23633018476E+03  0.00000000000E+00 0. -1.
          3    1    6    6  503    0 -0.22989808417E+02 -0.41240115991E+02 -0.10090312272E+03  0.11140340494E+03  0.00000000000E+00 0. -1.
         -3    1    6    6    0  503  0.70992760320E+01 -0.83173495590E+02 -0.22191551107E+02  0.86375314931E+02  0.00000000000E+00 0.  1.
<mgrwt>
<rscale>  0 0.50429517E+04</rscale>
<asrwt>0</asrwt>
<pdfrwt beam="1">  1        2 0.28704652E+00 0.50429517E+04</pdfrwt>
<pdfrwt beam="2">  1       -1 0.52424057E+00 0.50429517E+04</pdfrwt>
<totfact> 0.69543391E-03</totfact>
</mgrwt>
</event>
<event>
12    7  0.2426980E-007  0.2016703E+04  0.7818608E-02  0.8598851E-01
         -1   -1    0    0    0  501 -0.00000000000E+00  0.00000000000E+00  0.92431469477E+03  0.92431469477E+03  0.00000000000E+00 0.  1.
          2   -1    0    0  501    0  0.00000000000E+00 -0.00000000000E+00 -0.11000282155E+04  0.11000282155E+04  0.00000000000E+00 0. -1.
         24    2    1    2    0    0  0.10344530830E+02  0.42644602108E+03 -0.75569079635E+03  0.87164073613E+03  0.82010822336E+02 0.  0.
        254    2    1    2    0    0 -0.10344530830E+02 -0.42644602108E+03  0.57997727559E+03  0.11527021742E+04  0.90021411003E+03 0.  0.
         23    2    4    4    0    0  0.27949550369E+03 -0.52402999088E+03  0.57783341733E+03  0.83356738427E+03  0.90652953631E+02 0.  0.
         23    2    4    4    0    0 -0.28984003453E+03  0.97583969792E+02  0.21438582567E+01  0.31913478989E+03  0.91173138681E+02 0.  0.
          2    1    3    3  502    0 -0.24202714603E+02  0.30796240995E+03 -0.57671180964E+03  0.65423476575E+03  0.00000000000E+00 0. -1.
         -1    1    3    3    0  502  0.34547245433E+02  0.11848361114E+03 -0.17897898671E+03  0.21740597038E+03  0.00000000000E+00 0.  1.
         13    1    5    5    0    0  0.44024348800E+02 -0.29351549919E+02  0.52332543721E+02  0.74420104153E+02  0.00000000000E+00 0. -1.
        -13    1    5    5    0    0  0.23547115490E+03 -0.49467844096E+03  0.52550087361E+03  0.75914728011E+03  0.00000000000E+00 0.  1.
          2    1    6    6  503    0 -0.21225425350E+03  0.49874949297E+02  0.37866778465E+02  0.22129905469E+03  0.00000000000E+00 0. -1.
         -2    1    6    6    0  503 -0.77585781027E+02  0.47709020495E+02 -0.35722920208E+02  0.97835735202E+02  0.00000000000E+00 0.  1.
<mgrwt>
<rscale>  0 0.20167025E+04</rscale>
<asrwt>0</asrwt>
<pdfrwt beam="1">  1        2 0.16923511E+00 0.20167025E+04</pdfrwt>
<pdfrwt beam="2">  1       -1 0.14220226E+00 0.20167025E+04</pdfrwt>
<totfact> 0.92743071E+00</totfact>
</mgrwt>
</event>
<event>
12    7  0.2426980E-007  0.2318134E+04  0.7818608E-02  0.8470805E-01
          2   -1    0    0  501    0  0.00000000000E+00  0.00000000000E+00  0.15618138860E+04  0.15618138860E+04  0.00000000000E+00 0. -1.
         -1   -1    0    0    0  501 -0.00000000000E+00 -0.00000000000E+00 -0.86017692591E+03  0.86017692591E+03  0.00000000000E+00 0.  1.
         24    2    1    2    0    0  0.25491635530E+03 -0.86646155895E+03  0.70269421490E+03  0.11471232508E+04  0.79841164250E+02 0.  0.
        254    2    1    2    0    0 -0.25491635530E+03  0.86646155895E+03 -0.10572547616E+01  0.12748675612E+04  0.89974896465E+03 0.  0.
         23    2    4    4    0    0 -0.73457640602E+02  0.12200771602E+02 -0.32025450226E+03  0.34070659361E+03  0.89292513226E+02 0.  0.
         23    2    4    4    0    0 -0.18145871470E+03  0.85426078734E+03  0.31919724750E+03  0.93416096756E+03  0.89894786081E+02 0.  0.
          2    1    3    3  502    0  0.30567419605E+02 -0.15772874226E+03  0.15975003512E+03  0.22656742263E+03  0.00000000000E+00 0. -1.
         -1    1    3    3    0  502  0.22434893570E+03 -0.70873281669E+03  0.54294417978E+03  0.92055582816E+03  0.00000000000E+00 0.  1.
         13    1    5    5    0    0 -0.36165217526E+02  0.27948928816E+02 -0.27968491029E+03  0.28339497989E+03  0.00000000000E+00 0. -1.
        -13    1    5    5    0    0 -0.37292423076E+02 -0.15748157214E+02 -0.40569591969E+02  0.57311613719E+02  0.00000000000E+00 0.  1.
          2    1    6    6  503    0 -0.11576777217E+03  0.33553547544E+03  0.13669701627E+03  0.38035812941E+03  0.00000000000E+00 0. -1.
         -2    1    6    6    0  503 -0.65690942524E+02  0.51872531190E+03  0.18250023123E+03  0.55380283815E+03  0.00000000000E+00 0.  1.
<mgrwt>
<rscale>  0 0.23181340E+04</rscale>
<asrwt>0</asrwt>
<pdfrwt beam="1">  1        2 0.24027906E+00 0.23181340E+04</pdfrwt>
<pdfrwt beam="2">  1       -1 0.13233491E+00 0.23181340E+04</pdfrwt>
<totfact> 0.58557314E+00</totfact>
</mgrwt>
</event>
<event>
12    7  0.2426980E-007  0.1007832E+04  0.7818608E-02  0.9299997E-01
          2   -1    0    0  501    0  0.00000000000E+00  0.00000000000E+00  0.22155809504E+04  0.22155809504E+04  0.00000000000E+00 0. -1.
         -1   -1    0    0    0  501 -0.00000000000E+00 -0.00000000000E+00 -0.11461156992E+03  0.11461156992E+03  0.00000000000E+00 0.  1.
         24    2    1    2    0    0  0.61805046775E+02 -0.87705814716E+01  0.14602479413E+03  0.17747108313E+03  0.79220943826E+02 0.  0.
        254    2    1    2    0    0 -0.61805046775E+02  0.87705814716E+01  0.19549445864E+04  0.21527214372E+04  0.89916876257E+03 0.  0.
         23    2    4    4    0    0 -0.33573189551E+03 -0.12010796380E+03  0.32073140297E+03  0.48835843025E+03  0.92105889684E+02 0.  0.
         23    2    4    4    0    0  0.27392684874E+03  0.12887854528E+03  0.16342131834E+04  0.16643630070E+04  0.88350960777E+02 0.  0.
          4    1    3    3  502    0  0.39310539190E+02 -0.15945100201E+02  0.14782520287E+03  0.15379159702E+03  0.00000000000E+00 0. -1.
         -3    1    3    3    0  502  0.22494507585E+02  0.71745187291E+01 -0.18004087434E+01  0.23679486103E+02  0.00000000000E+00 0.  1.
         13    1    5    5    0    0 -0.97900576854E+02 -0.29481478069E+01  0.12504874762E+03  0.15884081278E+03  0.00000000000E+00 0.  1.
        -13    1    5    5    0    0 -0.23783131866E+03 -0.11715981600E+03  0.19568265535E+03  0.32951761747E+03  0.00000000000E+00 0. -1.
          2    1    6    6  503    0  0.99524398946E+02  0.58168977966E+02  0.85553525512E+03  0.86326664984E+03  0.00000000000E+00 0. -1.
         -2    1    6    6    0  503  0.17440244979E+03  0.70709567310E+02  0.77867792830E+03  0.80109635714E+03  0.00000000000E+00 0.  1.
<mgrwt>
<rscale>  0 0.10078318E+04</rscale>
<asrwt>0</asrwt>
<pdfrwt beam="1">  1        2 0.34085857E+00 0.10078318E+04</pdfrwt>
<pdfrwt beam="2">  1       -1 0.17632551E-01 0.10078318E+04</pdfrwt>
<totfact> 0.14612972E+02</totfact>
</mgrwt>
</event>
<event>
12    7  0.2426980E-007  0.1629772E+04  0.7818608E-02  0.8802464E-01
          2   -1    0    0  501    0  0.00000000000E+00  0.00000000000E+00  0.97603289381E+03  0.97603289381E+03  0.00000000000E+00 0. -1.
         -1   -1    0    0    0  501 -0.00000000000E+00 -0.00000000000E+00 -0.68034517745E+03  0.68034517745E+03  0.00000000000E+00 0.  1.
         24    2    1    2    0    0 -0.50053580265E+03  0.11315585241E+03 -0.12918920365E+03  0.53529104348E+03  0.80661727112E+02 0.  0.
        254    2    1    2    0    0  0.50053580265E+03 -0.11315585241E+03  0.42487692002E+03  0.11210870278E+04  0.90165147923E+03 0.  0.
         23    2    4    4    0    0  0.68722995568E+03 -0.21400985832E+03  0.49902671719E+03  0.88045781366E+03  0.89961468103E+02 0.  0.
         23    2    4    4    0    0 -0.18669415302E+03  0.10085400591E+03 -0.74149797168E+02  0.24062921411E+03  0.85895220946E+02 0.  0.
          4    1    3    3  502    0 -0.43635645802E+02  0.14096812871E+02  0.11100772022E+02  0.47180683094E+02  0.00000000000E+00 0. -1.
         -3    1    3    3    0  502 -0.45690015685E+03  0.99059039542E+02 -0.14028997568E+03  0.48811036039E+03  0.00000000000E+00 0.  1.
         13    1    5    5    0    0  0.39125689051E+03 -0.82779274745E+02  0.24567477922E+03  0.46935110509E+03  0.00000000000E+00 0. -1.
        -13    1    5    5    0    0  0.29597306516E+03 -0.13123058358E+03  0.25335193797E+03  0.41110670858E+03  0.00000000000E+00 0.  1.
          4    1    6    6  503    0 -0.24949936277E+02 -0.21214955456E+01 -0.38000948432E+02  0.45509033667E+02  0.00000000000E+00 0. -1.
         -4    1    6    6    0  503 -0.16174421675E+03  0.10297550145E+03 -0.36148848736E+02  0.19512018044E+03  0.00000000000E+00 0.  1.
<mgrwt>
<rscale>  0 0.16297721E+04</rscale>
<asrwt>0</asrwt>
<pdfrwt beam="1">  1        2 0.15015891E+00 0.16297721E+04</pdfrwt>
<pdfrwt beam="2">  1       -1 0.10466849E+00 0.16297721E+04</pdfrwt>
<totfact> 0.24446175E+01</totfact>
</mgrwt>
</event>
<event>
12    7  0.2426980E-007  0.2005045E+04  0.7818608E-02  0.8604265E-01
         -1   -1    0    0    0  501 -0.00000000000E+00  0.00000000000E+00  0.15471364487E+04  0.15471364487E+04  0.00000000000E+00 0.  1.
          2   -1    0    0  501    0  0.00000000000E+00 -0.00000000000E+00 -0.64962059583E+03  0.64962059583E+03  0.00000000000E+00 0. -1.
         24    2    1    2    0    0  0.78861238239E+03  0.65850447249E+02  0.42051164617E+03  0.89973931512E+03  0.80343136280E+02 0.  0.
        254    2    1    2    0    0 -0.78861238239E+03 -0.65850447249E+02  0.47700420670E+03  0.12970177294E+04  0.91020668321E+03 0.  0.
         23    2    4    4    0    0 -0.40522269275E+03  0.29184488984E+03 -0.93947023189E+02  0.51626483251E+03  0.91238498866E+02 0.  0.
         23    2    4    4    0    0 -0.38338968964E+03 -0.35769533709E+03  0.57095122989E+03  0.78075289691E+03  0.93038544819E+02 0.  0.
          4    1    3    3  502    0  0.36312501019E+03  0.42247206262E+01  0.15823553668E+03  0.39612637676E+03  0.00000000000E+00 0. -1.
         -3    1    3    3    0  502  0.42548737219E+03  0.61625726623E+02  0.26227610949E+03  0.50361293836E+03  0.00000000000E+00 0.  1.
         13    1    5    5    0    0 -0.13355904652E+03  0.15117122333E+03 -0.37104044639E+02  0.20510355384E+03  0.00000000000E+00 0.  1.
        -13    1    5    5    0    0 -0.27166364623E+03  0.14067366652E+03 -0.56842978550E+02  0.31116127867E+03  0.00000000000E+00 0. -1.
          4    1    6    6  503    0 -0.13763255381E+03 -0.18575308575E+03  0.22055718444E+03  0.31951901406E+03  0.00000000000E+00 0. -1.
         -4    1    6    6    0  503 -0.24575713582E+03 -0.17194225134E+03  0.35039404545E+03  0.46123388285E+03  0.00000000000E+00 0.  1.
<mgrwt>
<rscale>  0 0.20050453E+04</rscale>
<asrwt>0</asrwt>
<pdfrwt beam="1">  1        2 0.99941631E-01 0.20050453E+04</pdfrwt>
<pdfrwt beam="2">  1       -1 0.23802099E+00 0.20050453E+04</pdfrwt>
<totfact> 0.39854223E+00</totfact>
</mgrwt>
</event>
<event>
12    7  0.2426980E-007  0.2210586E+04  0.7818608E-02  0.8514035E-01
         -1   -1    0    0    0  501 -0.00000000000E+00  0.00000000000E+00  0.12175850291E+04  0.12175850291E+04  0.00000000000E+00 0.  1.
          2   -1    0    0  501    0  0.00000000000E+00 -0.00000000000E+00 -0.10033569546E+04  0.10033569546E+04  0.00000000000E+00 0. -1.
         24    2    1    2    0    0 -0.48046358546E+03 -0.78510258400E+03  0.10978172959E+03  0.93058714097E+03  0.81908939888E+02 0.  0.
        254    2    1    2    0    0  0.48046358546E+03  0.78510258400E+03  0.10444634484E+03  0.12903548427E+04  0.89826235415E+03 0.  0.
         23    2    4    4    0    0  0.55558621284E+03  0.11474271059E+03 -0.91696415960E+02  0.58195003500E+03  0.91737020911E+02 0.  0.
         23    2    4    4    0    0 -0.75122627382E+02  0.67035987342E+03  0.19614276080E+03  0.70840480774E+03  0.91321519850E+02 0.  0.
          2    1    3    3  502    0 -0.41706480319E+03 -0.62090568227E+03  0.94299538598E+02  0.75389609318E+03  0.00000000000E+00 0. -1.
         -1    1    3    3    0  502 -0.63398782268E+02 -0.16419690173E+03  0.15482190991E+02  0.17669104779E+03  0.00000000000E+00 0.  1.
         13    1    5    5    0    0  0.35074208594E+03  0.41052540124E+02 -0.89252485261E+02  0.36424075558E+03  0.00000000000E+00 0. -1.
        -13    1    5    5    0    0  0.20484412690E+03  0.73690170462E+02 -0.24439306991E+01  0.21770927942E+03  0.00000000000E+00 0.  1.
          1    1    6    6  503    0  0.20654861370E+02  0.80640820555E+02  0.25740137268E+02  0.87132771703E+02  0.00000000000E+00 0. -1.
         -1    1    6    6    0  503 -0.95777488752E+02  0.58971905286E+03  0.17040262353E+03  0.62127203604E+03  0.00000000000E+00 0.  1.
<mgrwt>
<rscale>  0 0.22105858E+04</rscale>
<asrwt>0</asrwt>
<pdfrwt beam="1">  1        2 0.15436261E+00 0.22105858E+04</pdfrwt>
<pdfrwt beam="2">  1       -1 0.18732077E+00 0.22105858E+04</pdfrwt>
<totfact> 0.48173708E+00</totfact>
</mgrwt>
</event>
<event>
12    7  0.2426980E-007  0.1404958E+04  0.7818608E-02  0.8950238E-01
          2   -1    0    0  501    0  0.00000000000E+00  0.00000000000E+00  0.21762749050E+04  0.21762749050E+04  0.00000000000E+00 0. -1.
         -1   -1    0    0    0  501 -0.00000000000E+00 -0.00000000000E+00 -0.22675286989E+03  0.22675286989E+03  0.00000000000E+00 0.  1.
         24    2    1    2    0    0 -0.56628033648E+01  0.36267518501E+03  0.89986039007E+03  0.97355046710E+03  0.80538395920E+02 0.  0.
        254    2    1    2    0    0  0.56628033648E+01 -0.36267518501E+03  0.10496616451E+04  0.14294773078E+04  0.90002802584E+03 0.  0.
         23    2    4    4    0    0 -0.11158287059E+03  0.27555267368E+03  0.29415256328E+03  0.42822632632E+03  0.92043702078E+02 0.  0.
         23    2    4    4    0    0  0.11724567395E+03 -0.63822785869E+03  0.75550908179E+03  0.10012509815E+04  0.10309319875E+03 0.  0.
          2    1    3    3  502    0  0.13251064135E+02  0.17109824427E+03  0.52186493715E+03  0.54935709017E+03  0.00000000000E+00 0. -1.
         -1    1    3    3    0  502 -0.18913867499E+02  0.19157694074E+03  0.37799545292E+03  0.42419337694E+03  0.00000000000E+00 0.  1.
         13    1    5    5    0    0 -0.33607693260E+02  0.32087224194E+02  0.89159463970E+02  0.10054092211E+03  0.00000000000E+00 0.  1.
        -13    1    5    5    0    0 -0.77975177327E+02  0.24346544948E+03  0.20499309931E+03  0.32768540422E+03  0.00000000000E+00 0. -1.
          2    1    6    6  503    0  0.68930451566E+02 -0.15592335482E+03  0.23054443766E+03  0.28673025209E+03  0.00000000000E+00 0. -1.
         -2    1    6    6    0  503  0.48315222385E+02 -0.48230450387E+03  0.52496464413E+03  0.71452072941E+03  0.00000000000E+00 0.  1.
<mgrwt>
<rscale>  0 0.14049578E+04</rscale>
<asrwt>0</asrwt>
<pdfrwt beam="1">  1        2 0.33481151E+00 0.14049578E+04</pdfrwt>
<pdfrwt beam="2">  1       -1 0.34885058E-01 0.14049578E+04</pdfrwt>
<totfact> 0.46127706E+01</totfact>
</mgrwt>
</event>
<event>
12    7  0.2426980E-007  0.2183487E+04  0.7818608E-02  0.8525333E-01
          2   -1    0    0  501    0  0.00000000000E+00  0.00000000000E+00  0.10332382483E+04  0.10332382483E+04  0.00000000000E+00 0. -1.
         -1   -1    0    0    0  501 -0.00000000000E+00 -0.00000000000E+00 -0.11535611686E+04  0.11535611686E+04  0.00000000000E+00 0.  1.
         24    2    1    2    0    0 -0.33137629267E+03  0.41462621746E+03 -0.78384502579E+03  0.95003793677E+03  0.80211653137E+02 0.  0.
        254    2    1    2    0    0  0.33137629267E+03 -0.41462621746E+03  0.66352210552E+03  0.12367614802E+04  0.89866135264E+03 0.  0.
         23    2    4    4    0    0 -0.57503316411E+02 -0.11744623189E+03  0.71830094695E+03  0.73564405231E+03  0.90087027472E+02 0.  0.
         23    2    4    4    0    0  0.38887960908E+03 -0.29717998556E+03 -0.54778841430E+02  0.50111742785E+03  0.92599464623E+02 0.  0.
          2    1    3    3  502    0 -0.13187872260E+03  0.20943982173E+03 -0.31283908494E+03  0.39890516350E+03  0.00000000000E+00 0. -1.
         -3    1    3    3    0  502 -0.19949757007E+03  0.20518639572E+03 -0.47100594085E+03  0.55113277326E+03  0.00000000000E+00 0.  1.
         13    1    5    5    0    0 -0.69072982677E+01 -0.44861467665E+02  0.86576215518E+02  0.97753276896E+02  0.00000000000E+00 0.  1.
        -13    1    5    5    0    0 -0.50596018143E+02 -0.72584764227E+02  0.63172473143E+03  0.63789077541E+03  0.00000000000E+00 0. -1.
          2    1    6    6  503    0  0.38167140659E+03 -0.26573552318E+03 -0.58115632407E+02  0.46868524365E+03  0.00000000000E+00 0. -1.
         -2    1    6    6    0  503  0.72082024896E+01 -0.31444462383E+02  0.33367909768E+01  0.32432184196E+02  0.00000000000E+00 0.  1.
<mgrwt>
<rscale>  0 0.21834867E+04</rscale>
<asrwt>0</asrwt>
<pdfrwt beam="1">  1        2 0.15895973E+00 0.21834867E+04</pdfrwt>
<pdfrwt beam="2">  1       -1 0.17747095E+00 0.21834867E+04</pdfrwt>
<totfact> 0.54339766E+00</totfact>
</mgrwt>
</event>
<event>
12    7  0.2426980E-007  0.2382457E+04  0.7818608E-02  0.8446101E-01
         -1   -1    0    0    0  501 -0.00000000000E+00  0.00000000000E+00  0.93211581755E+03  0.93211581755E+03  0.00000000000E+00 0.  1.
          2   -1    0    0  501    0  0.00000000000E+00 -0.00000000000E+00 -0.15223703842E+04  0.15223703842E+04  0.00000000000E+00 0. -1.
         24    2    1    2    0    0  0.35008589031E+03 -0.92756578788E+03 -0.50080464830E+03  0.11136273641E+04  0.80138560557E+02 0.  0.
        254    2    1    2    0    0 -0.35008589031E+03  0.92756578788E+03 -0.89449918387E+02  0.13408588377E+04  0.89831103370E+03 0.  0.
         23    2    4    4    0    0 -0.57917719304E+03  0.82308770777E+03  0.95815970043E+02  0.10151558160E+04  0.91875105959E+02 0.  0.
         23    2    4    4    0    0  0.22909130273E+03  0.10447808011E+03 -0.18526588843E+03  0.32570302166E+03  0.91435850131E+02 0.  0.
          4    1    3    3  502    0  0.12940452598E+03 -0.25736056951E+03 -0.16805951566E+03  0.33350261601E+03  0.00000000000E+00 0. -1.
         -3    1    3    3    0  502  0.22068136432E+03 -0.67020521837E+03 -0.33274513264E+03  0.78012474809E+03  0.00000000000E+00 0.  1.
         13    1    5    5    0    0 -0.47384030265E+02  0.10515799548E+03 -0.84876796510E+01  0.11565245800E+03  0.00000000000E+00 0.  1.
        -13    1    5    5    0    0 -0.53179316277E+03  0.71792971229E+03  0.10430364969E+03  0.89950335803E+03  0.00000000000E+00 0. -1.
          1    1    6    6  503    0  0.90498263722E+02  0.88586622874E+02 -0.69713654655E+02  0.14455974244E+03  0.00000000000E+00 0. -1.
         -1    1    6    6    0  503  0.13859303901E+03  0.15891457240E+02 -0.11555223378E+03  0.18114327922E+03  0.00000000000E+00 0.  1.
<mgrwt>
<rscale>  0 0.23824571E+04</rscale>
<asrwt>0</asrwt>
<pdfrwt beam="1">  1        2 0.23421083E+00 0.23824571E+04</pdfrwt>
<pdfrwt beam="2">  1       -1 0.14340243E+00 0.23824571E+04</pdfrwt>
<totfact> 0.49765864E+00</totfact>
</mgrwt>
</event>
<event>
12    7  0.2426980E-007  0.2343501E+04  0.7818608E-02  0.8460964E-01
          2   -1    0    0  501    0  0.00000000000E+00  0.00000000000E+00  0.28017341077E+04  0.28017341077E+04  0.00000000000E+00 0. -1.
         -1   -1    0    0    0  501 -0.00000000000E+00 -0.00000000000E+00 -0.49005354831E+03  0.49005354831E+03  0.00000000000E+00 0.  1.
         24    2    1    2    0    0 -0.37135076826E+03 -0.91447172739E+03  0.78408975189E+03  0.12630889716E+04  0.80231401632E+02 0.  0.
        254    2    1    2    0    0  0.37135076826E+03  0.91447172739E+03  0.15275908075E+04  0.20286986844E+04  0.89884634047E+03 0.  0.
         23    2    4    4    0    0  0.23708923513E+03  0.48737221570E+03  0.14691574498E+04  0.15685448011E+04  0.90367023078E+02 0.  0.
         23    2    4    4    0    0  0.13426153313E+03  0.42709951169E+03  0.58433357691E+02  0.46015388328E+03  0.88808709275E+02 0.  0.
          4    1    3    3  502    0 -0.26695580162E+03 -0.73278876362E+03  0.63855195041E+03  0.10079649624E+04  0.00000000000E+00 0. -1.
         -3    1    3    3    0  502 -0.10439496663E+03 -0.18168296378E+03  0.14553780148E+03  0.25512400915E+03  0.00000000000E+00 0.  1.
         13    1    5    5    0    0  0.10387632257E+03  0.12338770755E+03  0.46505945918E+03  0.49223481931E+03  0.00000000000E+00 0. -1.
        -13    1    5    5    0    0  0.13321291256E+03  0.36398450815E+03  0.10040979906E+04  0.10763099818E+04  0.00000000000E+00 0.  1.
          4    1    6    6  503    0  0.37980297261E+02  0.26534299414E+03  0.39908979555E+02  0.27100209255E+03  0.00000000000E+00 0. -1.
         -4    1    6    6    0  503  0.96281235866E+02  0.16175651755E+03  0.18524378136E+02  0.18915179073E+03  0.00000000000E+00 0.  1.
<mgrwt>
<rscale>  0 0.23435014E+04</rscale>
<asrwt>0</asrwt>
<pdfrwt beam="1">  1        2 0.43103601E+00 0.23435014E+04</pdfrwt>
<pdfrwt beam="2">  1       -1 0.75392855E-01 0.23435014E+04</pdfrwt>
<totfact> 0.41936065E+00</totfact>
</mgrwt>
</event>
<event>
12    7  0.2426980E-007  0.1829444E+04  0.7818608E-02  0.8690796E-01
          2   -1    0    0  501    0  0.00000000000E+00  0.00000000000E+00  0.13921059039E+04  0.13921059039E+04  0.00000000000E+00 0. -1.
         -1   -1    0    0    0  501 -0.00000000000E+00 -0.00000000000E+00 -0.60104348503E+03  0.60104348503E+03  0.00000000000E+00 0.  1.
         24    2    1    2    0    0 -0.40550686648E+03  0.14143281259E+03 -0.28895211652E+03  0.52358476619E+03  0.78794812626E+02 0.  0.
        254    2    1    2    0    0  0.40550686648E+03 -0.14143281259E+03  0.10800145354E+04  0.14695646227E+04  0.89930513426E+03 0.  0.
         23    2    4    4    0    0 -0.51946618597E+02  0.25194486489E+03  0.57406834673E+02  0.27893441895E+03  0.91291835775E+02 0.  0.
         23    2    4    4    0    0  0.45745348508E+03 -0.39337767748E+03  0.10226077007E+04  0.11906302038E+04  0.88679673428E+02 0.  0.
          4    1    3    3  502    0 -0.88928021276E+02  0.20744963945E+02 -0.26693495748E+02  0.95137212553E+02  0.00000000000E+00 0. -1.
         -3    1    3    3    0  502 -0.31657884521E+03  0.12068784865E+03 -0.26225862077E+03  0.42844755363E+03  0.00000000000E+00 0.  1.
         13    1    5    5    0    0  0.27622525846E+01  0.50361532353E+02 -0.22588854761E+02  0.55264548670E+02  0.00000000000E+00 0. -1.
        -13    1    5    5    0    0 -0.54708871182E+02  0.20158333253E+03  0.79995689434E+02  0.22366987028E+03  0.00000000000E+00 0.  1.
          4    1    6    6  503    0  0.33675101043E+03 -0.23493658764E+03  0.69406625935E+03  0.80642694375E+03  0.00000000000E+00 0. -1.
         -4    1    6    6    0  503  0.12070247465E+03 -0.15844108984E+03  0.32854144133E+03  0.38420326002E+03  0.00000000000E+00 0.  1.
<mgrwt>
<rscale>  0 0.18294438E+04</rscale>
<asrwt>0</asrwt>
<pdfrwt beam="1">  1        2 0.21417014E+00 0.18294438E+04</pdfrwt>
<pdfrwt beam="2">  1       -1 0.92468229E-01 0.18294438E+04</pdfrwt>
<totfact> 0.17855487E+01</totfact>
</mgrwt>
</event>
<event>
12    7  0.2426980E-007  0.3426626E+04  0.7818608E-02  0.8131402E-01
         -1   -1    0    0    0  501 -0.00000000000E+00  0.00000000000E+00  0.20477853905E+04  0.20477853905E+04  0.00000000000E+00 0.  1.
          2   -1    0    0  501    0  0.00000000000E+00 -0.00000000000E+00 -0.14334714881E+04  0.14334714881E+04  0.00000000000E+00 0. -1.
         24    2    1    2    0    0 -0.11071332995E+04 -0.10117819795E+04 -0.26237067193E+03  0.15246499843E+04  0.79197778945E+02 0.  0.
        254    2    1    2    0    0  0.11071332995E+04  0.10117819795E+04  0.87668457427E+03  0.19566068943E+04  0.90015986311E+03 0.  0.
         23    2    4    4    0    0  0.47733850050E+03  0.10005508248E+04  0.53977408723E+03  0.12364411040E+04  0.92068134325E+02 0.  0.
         23    2    4    4    0    0  0.62979479902E+03  0.11231154716E+02  0.33691048704E+03  0.72016579031E+03  0.91446495582E+02 0.  0.
          2    1    3    3  502    0 -0.35904351025E+03 -0.37724818744E+03 -0.80575972481E+02  0.52699233820E+03  0.00000000000E+00 0. -1.
         -1    1    3    3    0  502 -0.74808978927E+03 -0.63453379207E+03 -0.18179469945E+03  0.99765764611E+03  0.00000000000E+00 0.  1.
         13    1    5    5    0    0  0.18045492465E+03  0.28130265582E+03  0.15545714210E+03  0.36859474635E+03  0.00000000000E+00 0. -1.
        -13    1    5    5    0    0  0.29688357584E+03  0.71924816897E+03  0.38431694513E+03  0.86784635765E+03  0.00000000000E+00 0.  1.
          1    1    6    6  503    0  0.12351821834E+03 -0.18724878701E+02  0.10181652801E+03  0.16116444000E+03  0.00000000000E+00 0. -1.
         -1    1    6    6    0  503  0.50627658068E+03  0.29956033417E+02  0.23509395903E+03  0.55900135031E+03  0.00000000000E+00 0.  1.
<mgrwt>
<rscale>  0 0.34266263E+04</rscale>
<asrwt>0</asrwt>
<pdfrwt beam="1">  1        2 0.22053407E+00 0.34266263E+04</pdfrwt>
<pdfrwt beam="2">  1       -1 0.31504391E+00 0.34266263E+04</pdfrwt>
<totfact> 0.34358058E-01</totfact>
</mgrwt>
</event>
<event>
12    7  0.2426980E-007  0.1467202E+04  0.7818608E-02  0.8906561E-01
          2   -1    0    0  501    0  0.00000000000E+00  0.00000000000E+00  0.24307838176E+04  0.24307838176E+04  0.00000000000E+00 0. -1.
         -1   -1    0    0    0  501 -0.00000000000E+00 -0.00000000000E+00 -0.22139798186E+03  0.22139798186E+03  0.00000000000E+00 0.  1.
         24    2    1    2    0    0 -0.43369238527E+02 -0.13826752091E+03  0.14599371951E+04  0.14692300511E+04  0.78876684259E+02 0.  0.
        254    2    1    2    0    0  0.43369238527E+02  0.13826752091E+03  0.74944864063E+03  0.11829517483E+04  0.90371609243E+03 0.  0.
         23    2    4    4    0    0  0.40852274499E+02  0.50433970672E+03  0.56268071770E+03  0.76209568220E+03  0.90292805021E+02 0.  0.
         23    2    4    4    0    0  0.25169640284E+01 -0.36607218581E+03  0.18676792293E+03  0.42085606612E+03  0.90677400836E+02 0.  0.
          4    1    3    3  502    0 -0.43778587177E+02 -0.44706639901E+02  0.83338170257E+03  0.83572741400E+03  0.00000000000E+00 0. -1.
         -3    1    3    3    0  502  0.40934864980E+00 -0.93560881009E+02  0.62655549255E+03  0.63350263714E+03  0.00000000000E+00 0.  1.
         13    1    5    5    0    0 -0.22945768575E+02  0.57986869017E+02  0.82300269979E+02  0.10325850915E+03  0.00000000000E+00 0. -1.
        -13    1    5    5    0    0  0.63798043074E+02  0.44635283771E+03  0.48038044773E+03  0.65883717305E+03  0.00000000000E+00 0.  1.
          4    1    6    6  503    0  0.17336294987E+02 -0.12586471220E+03  0.21374200718E+02  0.12883838464E+03  0.00000000000E+00 0. -1.
         -4    1    6    6    0  503 -0.14819330958E+02 -0.24020747361E+03  0.16539372221E+03  0.29201768148E+03  0.00000000000E+00 0.  1.
<mgrwt>
<rscale>  0 0.14672023E+04</rscale>
<asrwt>0</asrwt>
<pdfrwt beam="1">  1        2 0.37396672E+00 0.14672023E+04</pdfrwt>
<pdfrwt beam="2">  1       -1 0.34061230E-01 0.14672023E+04</pdfrwt>
<totfact> 0.34390505E+01</totfact>
</mgrwt>
</event>
<event>
12    7  0.2426980E-007  0.3984447E+04  0.7818608E-02  0.8007691E-01
         -1   -1    0    0    0  501 -0.00000000000E+00  0.00000000000E+00  0.88093681891E+03  0.88093681891E+03  0.00000000000E+00 0.  1.
          2   -1    0    0  501    0  0.00000000000E+00 -0.00000000000E+00 -0.45053793351E+04  0.45053793351E+04  0.00000000000E+00 0. -1.
         24    2    1    2    0    0 -0.55069432852E+03  0.42685209534E+03 -0.40964996323E+04  0.41560398000E+04  0.76750422894E+02 0.  0.
        254    2    1    2    0    0  0.55069432852E+03 -0.42685209534E+03  0.47205711612E+03  0.12302763540E+04  0.89737117821E+03 0.  0.
         23    2    4    4    0    0 -0.19972215280E+03 -0.28098163403E+03  0.21448981297E+03  0.41854612958E+03  0.10166300084E+03 0.  0.
         23    2    4    4    0    0  0.75041648131E+03 -0.14587046131E+03  0.25756730315E+03  0.81173022438E+03  0.90343536627E+02 0.  0.
          4    1    3    3  502    0 -0.28761215005E+03  0.25401427905E+03 -0.20756510418E+04  0.21108224108E+04  0.00000000000E+00 0. -1.
         -3    1    3    3    0  502 -0.26308217847E+03  0.17283781630E+03 -0.20208485905E+04  0.20452173892E+04  0.00000000000E+00 0.  1.
         13    1    5    5    0    0 -0.79177223808E+02 -0.11413132611E+03  0.14621748619E+03  0.20167931386E+03  0.00000000000E+00 0.  1.
        -13    1    5    5    0    0 -0.12054492899E+03 -0.16685030792E+03  0.68272326773E+02  0.21686681572E+03  0.00000000000E+00 0. -1.
          1    1    6    6  503    0  0.48790850680E+03 -0.12255587160E+03  0.20369190081E+03  0.54273846660E+03  0.00000000000E+00 0. -1.
         -1    1    6    6    0  503  0.26250797451E+03 -0.23314589711E+02  0.53875402341E+02  0.26899175778E+03  0.00000000000E+00 0.  1.
<mgrwt>
<rscale>  0 0.39844470E+04</rscale>
<asrwt>0</asrwt>
<pdfrwt beam="1">  1        2 0.69313528E+00 0.39844470E+04</pdfrwt>
<pdfrwt beam="2">  1       -1 0.13552874E+00 0.39844470E+04</pdfrwt>
<totfact> 0.49316344E-02</totfact>
</mgrwt>
</event>
<event>
12    7  0.2426980E-007  0.2525828E+04  0.7818608E-02  0.8393842E-01
          2   -1    0    0  501    0  0.00000000000E+00  0.00000000000E+00  0.26009850164E+04  0.26009850164E+04  0.00000000000E+00 0. -1.
         -1   -1    0    0    0  501 -0.00000000000E+00 -0.00000000000E+00 -0.61321058127E+03  0.61321058127E+03  0.00000000000E+00 0.  1.
         24    2    1    2    0    0  0.22105198022E+03  0.93038931324E+03  0.17024485546E+03  0.97465908564E+03  0.80552903554E+02 0.  0.
        254    2    1    2    0    0 -0.22105198022E+03 -0.93038931324E+03  0.18175295797E+04  0.22395365120E+04  0.89309672688E+03 0.  0.
         23    2    4    4    0    0 -0.46556040822E+03 -0.23539559404E+03  0.10206826757E+04  0.11499391214E+04  0.91702121061E+02 0.  0.
         23    2    4    4    0    0  0.24450842800E+03 -0.69499371920E+03  0.79684690397E+03  0.10895973906E+04  0.97246307046E+02 0.  0.
          4    1    3    3  502    0  0.46063360287E+02  0.11396561625E+03  0.42008964576E+02  0.12990284043E+03  0.00000000000E+00 0. -1.
         -3    1    3    3    0  502  0.17498861993E+03  0.81642369699E+03  0.12823589088E+03  0.84475624521E+03  0.00000000000E+00 0.  1.
         13    1    5    5    0    0 -0.91625031631E+02 -0.73587849814E+02  0.16936204194E+03  0.20614029037E+03  0.00000000000E+00 0.  1.
        -13    1    5    5    0    0 -0.37393537659E+03 -0.16180774422E+03  0.85132063379E+03  0.94379883104E+03  0.00000000000E+00 0. -1.
          2    1    6    6  503    0  0.18088786626E+03 -0.60877724489E+03  0.70007707322E+03  0.94521852632E+03  0.00000000000E+00 0. -1.
         -2    1    6    6    0  503  0.63620561739E+02 -0.86216474317E+02  0.96769830754E+02  0.14437886432E+03  0.00000000000E+00 0.  1.
<mgrwt>
<rscale>  0 0.25258278E+04</rscale>
<asrwt>0</asrwt>
<pdfrwt beam="1">  1        2 0.40015154E+00 0.25258278E+04</pdfrwt>
<pdfrwt beam="2">  1       -1 0.94340091E-01 0.25258278E+04</pdfrwt>
<totfact> 0.33451821E+00</totfact>
</mgrwt>
</event>
<event>
12    7  0.2426980E-007  0.2744142E+04  0.7818608E-02  0.8320823E-01
         -1   -1    0    0    0  501 -0.00000000000E+00  0.00000000000E+00  0.10824085675E+04  0.10824085675E+04  0.00000000000E+00 0.  1.
          2   -1    0    0  501    0  0.00000000000E+00 -0.00000000000E+00 -0.17392499371E+04  0.17392499371E+04  0.00000000000E+00 0. -1.
         24    2    1    2    0    0  0.10469977383E+04 -0.61248311007E+03 -0.13214685628E+03  0.12229086282E+04  0.81871222486E+02 0.  0.
        254    2    1    2    0    0 -0.10469977383E+04  0.61248311007E+03 -0.52469451329E+03  0.15987498764E+04  0.89964271292E+03 0.  0.
         23    2    4    4    0    0 -0.44755669769E+03 -0.10683762058E+03 -0.45735951560E+03  0.65549111527E+03  0.93646147141E+02 0.  0.
         23    2    4    4    0    0 -0.59944104063E+03  0.71932073066E+03 -0.67334997690E+02  0.94325876115E+03  0.91930483683E+02 0.  0.
          2    1    3    3  502    0  0.46231059105E+03 -0.22791915287E+03 -0.73173007252E+02  0.52060782921E+03  0.00000000000E+00 0. -1.
         -1    1    3    3    0  502  0.58468714727E+03 -0.38456395721E+03 -0.58973849030E+02  0.70230079897E+03  0.00000000000E+00 0.  1.
         13    1    5    5    0    0 -0.10363461166E+03 -0.34542357878E+02 -0.16732749328E+03  0.19982942033E+03  0.00000000000E+00 0.  1.
        -13    1    5    5    0    0 -0.34392208603E+03 -0.72295262704E+02 -0.29003202231E+03  0.45566169494E+03  0.00000000000E+00 0. -1.
          4    1    6    6  503    0 -0.14003144490E+03  0.20773172008E+03  0.13778107096E+02  0.25090059650E+03  0.00000000000E+00 0. -1.
         -4    1    6    6    0  503 -0.45940959574E+03  0.51158901057E+03 -0.81113104787E+02  0.69235816465E+03  0.00000000000E+00 0.  1.
<mgrwt>
<rscale>  0 0.27441421E+04</rscale>
<asrwt>0</asrwt>
<pdfrwt beam="1">  1        2 0.26757691E+00 0.27441421E+04</pdfrwt>
<pdfrwt beam="2">  1       -1 0.16652440E+00 0.27441421E+04</pdfrwt>
<totfact> 0.24226234E+00</totfact>
</mgrwt>
</event>
<event>
12    7  0.2426980E-007  0.1819963E+04  0.7818608E-02  0.8695755E-01
          2   -1    0    0  501    0  0.00000000000E+00  0.00000000000E+00  0.51327885616E+03  0.51327885616E+03  0.00000000000E+00 0. -1.
         -1   -1    0    0    0  501 -0.00000000000E+00 -0.00000000000E+00 -0.16132865700E+04  0.16132865700E+04  0.00000000000E+00 0.  1.
         24    2    1    2    0    0 -0.30396342920E+03  0.60089155720E+03 -0.27044742552E+03  0.73003719696E+03  0.79674771203E+02 0.  0.
        254    2    1    2    0    0  0.30396342920E+03 -0.60089155720E+03 -0.82956028831E+03  0.13965282292E+04  0.89925324194E+03 0.  0.
         23    2    4    4    0    0 -0.68608980137E+02 -0.45269483054E+03 -0.86686881662E+03  0.98448769148E+03  0.90081450364E+02 0.  0.
         23    2    4    4    0    0  0.37257240934E+03 -0.14819672667E+03  0.37308528315E+02  0.41204053769E+03  0.87252555407E+02 0.  0.
          4    1    3    3  502    0 -0.35613501936E+02  0.82026044420E+02 -0.84507112740E+01  0.89822090849E+02  0.00000000000E+00 0. -1.
         -3    1    3    3    0  502 -0.26834992726E+03  0.51886551278E+03 -0.26199671424E+03  0.64021510611E+03  0.00000000000E+00 0.  1.
         13    1    5    5    0    0  0.18773474659E+02 -0.39223832506E+02 -0.95677759258E+02  0.10509607987E+03  0.00000000000E+00 0.  1.
        -13    1    5    5    0    0 -0.87382454796E+02 -0.41347099803E+03 -0.77119105736E+03  0.87939161161E+03  0.00000000000E+00 0. -1.
          3    1    6    6  503    0  0.34978985668E+03 -0.11556383562E+03  0.20857361108E+02  0.36897557297E+03  0.00000000000E+00 0. -1.
         -3    1    6    6    0  503  0.22782552655E+02 -0.32632891052E+02  0.16451167208E+02  0.43064964721E+02  0.00000000000E+00 0.  1.
<mgrwt>
<rscale>  0 0.18199625E+04</rscale>
<asrwt>0</asrwt>
<pdfrwt beam="1">  1        2 0.78965978E-01 0.18199625E+04</pdfrwt>
<pdfrwt beam="2">  1       -1 0.24819793E+00 0.18199625E+04</pdfrwt>
<totfact> 0.46083015E+00</totfact>
</mgrwt>
</event>
<event>
12    7  0.2426980E-007  0.2867603E+04  0.7818608E-02  0.8282582E-01
          2   -1    0    0  501    0  0.00000000000E+00  0.00000000000E+00  0.15742220262E+04  0.15742220262E+04  0.00000000000E+00 0. -1.
         -1   -1    0    0    0  501 -0.00000000000E+00 -0.00000000000E+00 -0.13059066682E+04  0.13059066682E+04  0.00000000000E+00 0.  1.
         24    2    1    2    0    0 -0.72229616237E+03 -0.63566028125E+03  0.98615858014E+03  0.13798698884E+04  0.75871104566E+02 0.  0.
        254    2    1    2    0    0  0.72229616237E+03  0.63566028125E+03 -0.71784322209E+03  0.15002588059E+04  0.89983434805E+03 0.  0.
         23    2    4    4    0    0  0.24667672825E+03  0.48852403370E+03 -0.81354158817E+03  0.98472723826E+03  0.91283505170E+02 0.  0.
         23    2    4    4    0    0  0.47561943412E+03  0.14713624755E+03  0.95698366082E+02  0.51553156767E+03  0.93550513286E+02 0.  0.
          4    1    3    3  502    0 -0.11481051102E+03 -0.14043092625E+03  0.18646038961E+03  0.26013414882E+03  0.00000000000E+00 0. -1.
         -3    1    3    3    0  502 -0.60748565135E+03 -0.49522935500E+03  0.79969819053E+03  0.11197357396E+04  0.00000000000E+00 0.  1.
         13    1    5    5    0    0  0.15550322912E+03  0.39261481425E+03 -0.60764198412E+03  0.73997055853E+03  0.00000000000E+00 0. -1.
        -13    1    5    5    0    0  0.91173499126E+02  0.95909219451E+02 -0.20589960406E+03  0.24475667972E+03  0.00000000000E+00 0.  1.
          1    1    6    6  503    0  0.19586373634E+03  0.44960384101E+02 -0.53405423970E+01  0.20102875601E+03  0.00000000000E+00 0. -1.
         -1    1    6    6    0  503  0.27975569779E+03  0.10217586345E+03  0.10103890848E+03  0.31450281166E+03  0.00000000000E+00 0.  1.
<mgrwt>
<rscale>  0 0.28676032E+04</rscale>
<asrwt>0</asrwt>
<pdfrwt beam="1">  1        2 0.24218800E+00 0.28676032E+04</pdfrwt>
<pdfrwt beam="2">  1       -1 0.20090872E+00 0.28676032E+04</pdfrwt>
<totfact> 0.16851725E+00</totfact>
</mgrwt>
</event>
<event>
12    7  0.2426980E-007  0.1836829E+04  0.7818608E-02  0.8686956E-01
         -1   -1    0    0    0  501 -0.00000000000E+00  0.00000000000E+00  0.53503098475E+03  0.53503098475E+03  0.00000000000E+00 0.  1.
          2   -1    0    0  501    0  0.00000000000E+00 -0.00000000000E+00 -0.15765159856E+04  0.15765159856E+04  0.00000000000E+00 0. -1.
         24    2    1    2    0    0  0.59235010669E+02 -0.52200688374E+03 -0.93576873144E+03  0.10768494183E+04  0.89115530619E+02 0.  0.
        254    2    1    2    0    0 -0.59235010669E+02  0.52200688374E+03 -0.10571626946E+03  0.10346975521E+04  0.88511192600E+03 0.  0.
         23    2    4    4    0    0  0.18355932103E+03  0.45488454191E+03 -0.39904261037E+03  0.63897430291E+03  0.91865031869E+02 0.  0.
         23    2    4    4    0    0 -0.24279433170E+03  0.67122341826E+02  0.29332634091E+03  0.39572324920E+03  0.84273669732E+02 0.  0.
          4    1    3    3  502    0  0.62981171696E+02 -0.45389286670E+03 -0.86293623845E+03  0.97705901258E+03  0.00000000000E+00 0. -1.
         -3    1    3    3    0  502 -0.37461610268E+01 -0.68114017033E+02 -0.72832492984E+02  0.99790405716E+02  0.00000000000E+00 0.  1.
         13    1    5    5    0    0  0.47380640010E+02  0.16065749699E+03 -0.85954538573E+02  0.18826560782E+03  0.00000000000E+00 0.  1.
        -13    1    5    5    0    0  0.13617868102E+03  0.29422704493E+03 -0.31308807179E+03  0.45070869509E+03  0.00000000000E+00 0. -1.
          1    1    6    6  503    0 -0.26014103465E+02  0.37831639840E+02  0.38801364504E+02  0.60112498197E+02  0.00000000000E+00 0. -1.
         -1    1    6    6    0  503 -0.21678022823E+03  0.29290701986E+02  0.25452497640E+03  0.33561075100E+03  0.00000000000E+00 0.  1.
<mgrwt>
<rscale>  0 0.18368287E+04</rscale>
<asrwt>0</asrwt>
<pdfrwt beam="1">  1        2 0.24254091E+00 0.18368287E+04</pdfrwt>
<pdfrwt beam="2">  1       -1 0.82312461E-01 0.18368287E+04</pdfrwt>
<totfact> 0.18090518E+01</totfact>
</mgrwt>
</event>
<event>
12    7  0.2426980E-007  0.2055612E+04  0.7818608E-02  0.8581053E-01
          2   -1    0    0  501    0  0.00000000000E+00  0.00000000000E+00  0.18929968768E+04  0.18929968768E+04  0.00000000000E+00 0. -1.
         -1   -1    0    0    0  501 -0.00000000000E+00 -0.00000000000E+00 -0.55804883809E+03  0.55804883809E+03  0.00000000000E+00 0.  1.
         24    2    1    2    0    0 -0.67108867891E+03 -0.47581596880E+03  0.71043790668E+03  0.10899905563E+04  0.81219102135E+02 0.  0.
        254    2    1    2    0    0  0.67108867891E+03  0.47581596880E+03  0.62451013206E+03  0.13610551586E+04  0.88639572908E+03 0.  0.
         23    2    4    4    0    0  0.42734965062E+03  0.57659197298E+03  0.76148899465E+03  0.10510511944E+04  0.98778019107E+02 0.  0.
         23    2    4    4    0    0  0.24373902829E+03 -0.10077600419E+03 -0.13697886259E+03  0.31000396419E+03  0.88174441250E+02 0.  0.
          2    1    3    3  502    0 -0.30520615940E+03 -0.25876320140E+03  0.37243836927E+03  0.54664388137E+03  0.00000000000E+00 0. -1.
         -1    1    3    3    0  502 -0.36588251951E+03 -0.21705276740E+03  0.33799953741E+03  0.54334667497E+03  0.00000000000E+00 0.  1.
         13    1    5    5    0    0  0.19159705516E+03  0.29205759653E+03  0.30470222393E+03  0.46351970455E+03  0.00000000000E+00 0. -1.
        -13    1    5    5    0    0  0.23575259546E+03  0.28453437646E+03  0.45678677072E+03  0.58753148984E+03  0.00000000000E+00 0.  1.
          3    1    6    6  503    0  0.20107699657E+02 -0.25652625849E+02  0.73925838333E+01  0.33421955272E+02  0.00000000000E+00 0. -1.
         -3    1    6    6    0  503  0.22363132863E+03 -0.75123378338E+02 -0.14437144642E+03  0.27658200892E+03  0.00000000000E+00 0.  1.
<mgrwt>
<rscale>  0 0.20556115E+04</rscale>
<asrwt>0</asrwt>
<pdfrwt beam="1">  1        2 0.29123029E+00 0.20556115E+04</pdfrwt>
<pdfrwt beam="2">  1       -1 0.85853668E-01 0.20556115E+04</pdfrwt>
<totfact> 0.10808128E+01</totfact>
</mgrwt>
</event>
<event>
12    7  0.2426980E-007  0.2151899E+04  0.7818608E-02  0.8538720E-01
         -1   -1    0    0    0  501 -0.00000000000E+00  0.00000000000E+00  0.88545149486E+03  0.88545149486E+03  0.00000000000E+00 0.  1.
          2   -1    0    0  501    0  0.00000000000E+00 -0.00000000000E+00 -0.13074319767E+04  0.13074319767E+04  0.00000000000E+00 0. -1.
         24    2    1    2    0    0 -0.41740690620E+03 -0.34588186878E+03 -0.88757566731E+03  0.10430519761E+04  0.79398156147E+02 0.  0.
        254    2    1    2    0    0  0.41740690620E+03  0.34588186878E+03  0.46559518550E+03  0.11498314954E+04  0.90081673973E+03 0.  0.
         23    2    4    4    0    0 -0.52032050126E+02  0.43987841796E+03 -0.31542355083E+02  0.45438158695E+03  0.96267074175E+02 0.  0.
         23    2    4    4    0    0  0.46943895633E+03 -0.93996549177E+02  0.49713754058E+03  0.69544990846E+03  0.85419880310E+02 0.  0.
          4    1    3    3  502    0 -0.24623638799E+03 -0.19872277634E+03 -0.59060893486E+03  0.67003135340E+03  0.00000000000E+00 0. -1.
         -3    1    3    3    0  502 -0.17117051822E+03 -0.14715909244E+03 -0.29696673245E+03  0.37302062273E+03  0.00000000000E+00 0.  1.
         13    1    5    5    0    0  0.25792562610E+02  0.61541036680E+02 -0.10515072279E+02  0.67550886202E+02  0.00000000000E+00 0.  1.
        -13    1    5    5    0    0 -0.77824612736E+02  0.37833738128E+03 -0.21027282803E+02  0.38683070075E+03  0.00000000000E+00 0. -1.
          4    1    6    6  503    0  0.23500433876E+03 -0.29829005495E+02  0.18936565605E+03  0.30327571696E+03  0.00000000000E+00 0. -1.
         -4    1    6    6    0  503  0.23443461757E+03 -0.64167543682E+02  0.30777188453E+03  0.39217419150E+03  0.00000000000E+00 0.  1.
<mgrwt>
<rscale>  0 0.21518993E+04</rscale>
<asrwt>0</asrwt>
<pdfrwt beam="1">  1        2 0.20114338E+00 0.21518993E+04</pdfrwt>
<pdfrwt beam="2">  1       -1 0.13622331E+00 0.21518993E+04</pdfrwt>
<totfact> 0.77050860E+00</totfact>
</mgrwt>
</event>
<event>
12    7  0.2426980E-007  0.2613646E+04  0.7818608E-02  0.8363581E-01
          2   -1    0    0  501    0  0.00000000000E+00  0.00000000000E+00  0.28491075197E+04  0.28491075197E+04  0.00000000000E+00 0. -1.
         -1   -1    0    0    0  501 -0.00000000000E+00 -0.00000000000E+00 -0.59941117930E+03  0.59941117930E+03  0.00000000000E+00 0.  1.
         24    2    1    2    0    0  0.41541523098E+03  0.10677260920E+04  0.11053058117E+04  0.15939476220E+04  0.79744985113E+02 0.  0.
        254    2    1    2    0    0 -0.41541523098E+03 -0.10677260920E+04  0.11443905287E+04  0.18545710770E+04  0.90398859265E+03 0.  0.
         23    2    4    4    0    0 -0.38070506104E+03 -0.51843663722E+03  0.82104704834E+02  0.65474637220E+03  0.90767499920E+02 0.  0.
         23    2    4    4    0    0 -0.34710169939E+02 -0.54928945481E+03  0.10622858239E+04  0.11998247048E+04  0.90578416539E+02 0.  0.
          2    1    3    3  502    0  0.22633928854E+03  0.54512047683E+03  0.62136358519E+03  0.85701721850E+03  0.00000000000E+00 0. -1.
         -3    1    3    3    0  502  0.18907594244E+03  0.52260561520E+03  0.48394222650E+03  0.73693040352E+03  0.00000000000E+00 0.  1.
         13    1    5    5    0    0 -0.29941775316E+03 -0.39735942173E+03  0.25113991030E+02  0.49817287511E+03  0.00000000000E+00 0. -1.
        -13    1    5    5    0    0 -0.81287307883E+02 -0.12107721549E+03  0.56990713804E+02  0.15657349710E+03  0.00000000000E+00 0.  1.
          4    1    6    6  503    0  0.11032522897E+02 -0.53018589865E+02  0.62424521465E+02  0.82640839255E+02  0.00000000000E+00 0.  1.
         -4    1    6    6    0  503 -0.45742692835E+02 -0.49627086494E+03  0.99986130239E+03  0.11171838655E+04  0.00000000000E+00 0. -1.
<mgrwt>
<rscale>  0 0.26136464E+04</rscale>
<asrwt>0</asrwt>
<pdfrwt beam="1">  1        2 0.43832423E+00 0.26136464E+04</pdfrwt>
<pdfrwt beam="2">  1       -1 0.92217106E-01 0.26136464E+04</pdfrwt>
<totfact> 0.24814736E+00</totfact>
</mgrwt>
</event>
<event>
12    7  0.2426980E-007  0.1159097E+04  0.7818608E-02  0.9149432E-01
         -1   -1    0    0    0  501 -0.00000000000E+00  0.00000000000E+00  0.98160211704E+03  0.98160211704E+03  0.00000000000E+00 0.  1.
          2   -1    0    0  501    0  0.00000000000E+00 -0.00000000000E+00 -0.34217198833E+03  0.34217198833E+03  0.00000000000E+00 0. -1.
         24    2    1    2    0    0  0.15977523240E+03 -0.12840290524E+03  0.21699704553E+03  0.30887730174E+03  0.79385381518E+02 0.  0.
        254    2    1    2    0    0 -0.15977523240E+03  0.12840290524E+03  0.42243308317E+03  0.10148968036E+04  0.89975017716E+03 0.  0.
         23    2    4    4    0    0  0.18592595626E+01 -0.23470405054E+03  0.53520817680E+03  0.59195753029E+03  0.94215056979E+02 0.  0.
         23    2    4    4    0    0 -0.16163449196E+03  0.36310695578E+03 -0.11277509363E+03  0.42293927334E+03  0.90482246139E+02 0.  0.
          4    1    3    3  502    0  0.11482415369E+03 -0.13017491031E+03  0.18493042286E+03  0.25363232216E+03  0.00000000000E+00 0. -1.
         -3    1    3    3    0  502  0.44951078712E+02  0.17720050734E+01  0.32066622673E+02  0.55244979582E+02  0.00000000000E+00 0.  1.
         13    1    5    5    0    0  0.41353654151E+01 -0.42763331014E+02  0.32568905706E+02  0.53912311632E+02  0.00000000000E+00 0.  1.
        -13    1    5    5    0    0 -0.22761058524E+01 -0.19194071952E+03  0.50263927110E+03  0.53804521866E+03  0.00000000000E+00 0. -1.
          4    1    6    6  503    0 -0.12589062839E+03  0.32537991420E+03 -0.12307690853E+03  0.36995738172E+03  0.00000000000E+00 0. -1.
         -4    1    6    6    0  503 -0.35743863573E+02  0.37727041577E+02  0.10301814893E+02  0.52981891618E+02  0.00000000000E+00 0.  1.
<mgrwt>
<rscale>  0 0.11590975E+04</rscale>
<asrwt>0</asrwt>
<pdfrwt beam="1">  1        2 0.52641845E-01 0.11590975E+04</pdfrwt>
<pdfrwt beam="2">  1       -1 0.15101571E+00 0.11590975E+04</pdfrwt>
<totfact> 0.36794606E+01</totfact>
</mgrwt>
</event>
<event>
12    7  0.2426980E-007  0.3435472E+04  0.7818608E-02  0.8129255E-01
         -1   -1    0    0    0  501 -0.00000000000E+00  0.00000000000E+00  0.14083181169E+04  0.14083181169E+04  0.00000000000E+00 0.  1.
          2   -1    0    0  501    0  0.00000000000E+00 -0.00000000000E+00 -0.20951355927E+04  0.20951355927E+04  0.00000000000E+00 0. -1.
         24    2    1    2    0    0 -0.56540375970E+03  0.95165925778E+03 -0.14944974205E+04  0.18616682338E+04  0.83362572466E+02 0.  0.
        254    2    1    2    0    0  0.56540375970E+03 -0.95165925778E+03  0.80767994471E+03  0.16417854757E+04  0.90430962660E+03 0.  0.
         23    2    4    4    0    0  0.60599721227E+03 -0.56943710693E+03  0.11663943696E+03  0.84494822214E+03  0.94029249810E+02 0.  0.
         23    2    4    4    0    0 -0.40593452569E+02 -0.38222215084E+03  0.69104050776E+03  0.79683725357E+03  0.98341366311E+02 0.  0.
          2    1    3    3  502    0 -0.24508660871E+03  0.34315300248E+03 -0.60109872285E+03  0.73426228522E+03  0.00000000000E+00 0. -1.
         -1    1    3    3    0  502 -0.32031715099E+03  0.60850625529E+03 -0.89339869768E+03  0.11274059486E+04  0.00000000000E+00 0.  1.
         13    1    5    5    0    0  0.75954439942E+02 -0.55284886467E+02 -0.14176677162E+02  0.95007756493E+02  0.00000000000E+00 0. -1.
        -13    1    5    5    0    0  0.53004277233E+03 -0.51415222047E+03  0.13081611412E+03  0.74994046565E+03  0.00000000000E+00 0.  1.
          2    1    6    6  503    0 -0.49025912574E+02 -0.22667226128E+03  0.32722195256E+03  0.40107114129E+03  0.00000000000E+00 0. -1.
         -2    1    6    6    0  503  0.84324600045E+01 -0.15554988957E+03  0.36381855519E+03  0.39576611228E+03  0.00000000000E+00 0.  1.
<mgrwt>
<rscale>  0 0.34354723E+04</rscale>
<asrwt>0</asrwt>
<pdfrwt beam="1">  1        2 0.32232855E+00 0.34354723E+04</pdfrwt>
<pdfrwt beam="2">  1       -1 0.21666432E+00 0.34354723E+04</pdfrwt>
<totfact> 0.64367583E-01</totfact>
</mgrwt>
</event>
<event>
12    7  0.2426980E-007  0.1468051E+04  0.7818608E-02  0.8905981E-01
          2   -1    0    0  501    0  0.00000000000E+00  0.00000000000E+00  0.76714843023E+03  0.76714843023E+03  0.00000000000E+00 0. -1.
         -1   -1    0    0    0  501 -0.00000000000E+00 -0.00000000000E+00 -0.70233307581E+03  0.70233307581E+03  0.00000000000E+00 0.  1.
         24    2    1    2    0    0 -0.46057610906E+02 -0.43557679074E+03  0.13387423934E+03  0.46555736079E+03  0.83503892597E+02 0.  0.
        254    2    1    2    0    0  0.46057610906E+02  0.43557679074E+03 -0.69058884915E+02  0.10039241453E+04  0.90069202044E+03 0.  0.
         23    2    4    4    0    0  0.44834147224E+03  0.29668524166E+03 -0.14042824418E+03  0.56293301686E+03  0.90229049370E+02 0.  0.
         23    2    4    4    0    0 -0.40228386134E+03  0.13889154907E+03  0.71369359264E+02  0.44099112840E+03  0.90864857834E+02 0.  0.
          2    1    3    3  502    0 -0.37277299360E+02 -0.10290355372E+03  0.59436128484E+02  0.12454473809E+03  0.00000000000E+00 0. -1.
         -1    1    3    3    0  502 -0.87803115461E+01 -0.33267323701E+03  0.74438110852E+02  0.34101262270E+03  0.00000000000E+00 0.  1.
         13    1    5    5    0    0  0.88940851408E+02  0.38021133043E+02 -0.57201836614E+02  0.11237496037E+03  0.00000000000E+00 0.  1.
        -13    1    5    5    0    0  0.35940062083E+03  0.25866410862E+03 -0.83226407564E+02  0.45055805648E+03  0.00000000000E+00 0. -1.
          1    1    6    6  503    0 -0.38406917114E+03  0.13032957596E+03  0.45366587220E+02  0.40810912000E+03  0.00000000000E+00 0. -1.
         -1    1    6    6    0  503 -0.18214690199E+02  0.85619731121E+01  0.26002772044E+02  0.32882008402E+02  0.00000000000E+00 0.  1.
<mgrwt>
<rscale>  0 0.14680514E+04</rscale>
<asrwt>0</asrwt>
<pdfrwt beam="1">  1        2 0.11802284E+00 0.14680514E+04</pdfrwt>
<pdfrwt beam="2">  1       -1 0.10805124E+00 0.14680514E+04</pdfrwt>
<totfact> 0.32065998E+01</totfact>
</mgrwt>
</event>
<event>
12    7  0.2426980E-007  0.2772413E+04  0.7818608E-02  0.8311885E-01
         -1   -1    0    0    0  501 -0.00000000000E+00  0.00000000000E+00  0.91860126808E+03  0.91860126808E+03  0.00000000000E+00 0.  1.
          2   -1    0    0  501    0  0.00000000000E+00 -0.00000000000E+00 -0.20918409766E+04  0.20918409766E+04  0.00000000000E+00 0. -1.
         24    2    1    2    0    0  0.63382135018E+03 -0.10664913014E+04 -0.50056927393E+03  0.13398496030E+04  0.74122606757E+02 0.  0.
        254    2    1    2    0    0 -0.63382135018E+03  0.10664913014E+04 -0.67267043464E+03  0.16705926417E+04  0.89401401617E+03 0.  0.
         23    2    4    4    0    0 -0.58760448078E+03  0.42903492182E+03  0.68568320512E+01  0.73379056291E+03  0.95139813450E+02 0.  0.
         23    2    4    4    0    0 -0.46216869401E+02  0.63745637955E+03 -0.67952726669E+03  0.93680207881E+03  0.85756596520E+02 0.  0.
          4    1    3    3  502    0  0.49386349227E+03 -0.83239339883E+03 -0.42313405149E+03  0.10563249239E+04  0.00000000000E+00 0. -1.
         -3    1    3    3    0  502  0.13995785791E+03 -0.23409790253E+03 -0.77435222445E+02  0.28352467906E+03  0.00000000000E+00 0.  1.
         13    1    5    5    0    0 -0.42173895324E+03  0.30898129560E+03 -0.37960037638E+02  0.52418904049E+03  0.00000000000E+00 0. -1.
        -13    1    5    5    0    0 -0.16586552754E+03  0.12005362621E+03  0.44816869689E+02  0.20960152242E+03  0.00000000000E+00 0.  1.
          4    1    6    6  503    0 -0.44752070820E+02  0.41579444036E+03 -0.38709254753E+03  0.56984945804E+03  0.00000000000E+00 0. -1.
         -4    1    6    6    0  503 -0.14647985809E+01  0.22166193919E+03 -0.29243471916E+03  0.36695262077E+03  0.00000000000E+00 0.  1.
<mgrwt>
<rscale>  0 0.27724125E+04</rscale>
<asrwt>0</asrwt>
<pdfrwt beam="1">  1        2 0.32182168E+00 0.27724125E+04</pdfrwt>
<pdfrwt beam="2">  1       -1 0.14132327E+00 0.27724125E+04</pdfrwt>
<totfact> 0.24087009E+00</totfact>
</mgrwt>
</event>
<event>
12    7  0.2426980E-007  0.1514724E+04  0.7818608E-02  0.8874720E-01
          2   -1    0    0  501    0  0.00000000000E+00  0.00000000000E+00  0.17242405776E+04  0.17242405776E+04  0.00000000000E+00 0. -1.
         -1   -1    0    0    0  501 -0.00000000000E+00 -0.00000000000E+00 -0.33266669281E+03  0.33266669281E+03  0.00000000000E+00 0.  1.
         24    2    1    2    0    0  0.15784518876E+03 -0.43355732964E+03  0.24573866027E+03  0.52880935674E+03  0.79779602177E+02 0.  0.
        254    2    1    2    0    0 -0.15784518876E+03  0.43355732964E+03  0.11458352245E+04  0.15280979136E+04  0.89958757788E+03 0.  0.
         23    2    4    4    0    0  0.26061464894E+03  0.35581127303E+03  0.21078830625E+03  0.49695511015E+03  0.89504269162E+02 0.  0.
         23    2    4    4    0    0 -0.41845983770E+03  0.77746056617E+02  0.93504691826E+03  0.10311428035E+04  0.88259032289E+02 0.  0.
          2    1    3    3  502    0  0.41364621868E+02 -0.15841748584E+03  0.12736480344E+03  0.20743414598E+03  0.00000000000E+00 0. -1.
         -3    1    3    3    0  502  0.11648056689E+03 -0.27513984381E+03  0.11837385682E+03  0.32137521076E+03  0.00000000000E+00 0.  1.
         13    1    5    5    0    0  0.16639554887E+03  0.26368890223E+03  0.18540992707E+03  0.36276184598E+03  0.00000000000E+00 0. -1.
        -13    1    5    5    0    0  0.94219100064E+02  0.92122370799E+02  0.25378379178E+02  0.13419326417E+03  0.00000000000E+00 0.  1.
          2    1    6    6  503    0 -0.39174039736E+03  0.71769889462E+02  0.80360179406E+03  0.89687641254E+03  0.00000000000E+00 0. -1.
         -2    1    6    6    0  503 -0.26719440342E+02  0.59761671550E+01  0.13144512420E+03  0.13426639096E+03  0.00000000000E+00 0.  1.
<mgrwt>
<rscale>  0 0.15147243E+04</rscale>
<asrwt>0</asrwt>
<pdfrwt beam="1">  1        2 0.26526778E+00 0.15147243E+04</pdfrwt>
<pdfrwt beam="2">  1       -1 0.51179492E-01 0.15147243E+04</pdfrwt>
<totfact> 0.40126717E+01</totfact>
</mgrwt>
</event>
<event>
12    7  0.2426980E-007  0.2801304E+04  0.7818608E-02  0.8302864E-01
         -1   -1    0    0    0  501 -0.00000000000E+00  0.00000000000E+00  0.75300204930E+03  0.75300204930E+03  0.00000000000E+00 0.  1.
          2   -1    0    0  501    0  0.00000000000E+00 -0.00000000000E+00 -0.26053390400E+04  0.26053390400E+04  0.00000000000E+00 0. -1.
         24    2    1    2    0    0 -0.10462760735E+04  0.35607146685E+03 -0.11857984363E+03  0.11142838672E+04  0.78018240808E+02 0.  0.
        254    2    1    2    0    0  0.10462760735E+04 -0.35607146685E+03 -0.17337571471E+04  0.22440572221E+04  0.89910981495E+03 0.  0.
         23    2    4    4    0    0  0.53423168654E+03 -0.31152547602E+03 -0.25268419134E+03  0.67374084392E+03  0.87325867340E+02 0.  0.
         23    2    4    4    0    0  0.51204438701E+03 -0.44545990831E+02 -0.14810729558E+04  0.15703163782E+04  0.90236509869E+02 0.  0.
          4    1    3    3  502    0 -0.56097002376E+03  0.19061627237E+03 -0.10267539180E+03  0.60130205964E+03  0.00000000000E+00 0. -1.
         -3    1    3    3    0  502 -0.48530604979E+03  0.16545519449E+03 -0.15904451836E+02  0.51298180760E+03  0.00000000000E+00 0.  1.
         13    1    5    5    0    0  0.46430798320E+03 -0.23389863546E+03 -0.20412995652E+03  0.55853335987E+03  0.00000000000E+00 0.  1.
        -13    1    5    5    0    0  0.69923703335E+02 -0.77626840561E+02 -0.48554234827E+02  0.11520748406E+03  0.00000000000E+00 0. -1.
          3    1    6    6  503    0  0.10004081918E+03 -0.44912692439E+02 -0.29502167533E+03  0.31474291788E+03  0.00000000000E+00 0. -1.
         -3    1    6    6    0  503  0.41200356783E+03  0.36670160725E+00 -0.11860512804E+04  0.12555734603E+04  0.00000000000E+00 0.  1.
<mgrwt>
<rscale>  0 0.28013037E+04</rscale>
<asrwt>0</asrwt>
<pdfrwt beam="1">  1        2 0.40082140E+00 0.28013037E+04</pdfrwt>
<pdfrwt beam="2">  1       -1 0.11584647E+00 0.28013037E+04</pdfrwt>
<totfact> 0.20146759E+00</totfact>
</mgrwt>
</event>
<event>
12    7  0.2426980E-007  0.2140305E+04  0.7818608E-02  0.8543694E-01
         -1   -1    0    0    0  501 -0.00000000000E+00  0.00000000000E+00  0.86948278197E+03  0.86948278197E+03  0.00000000000E+00 0.  1.
          2   -1    0    0  501    0  0.00000000000E+00 -0.00000000000E+00 -0.13171346098E+04  0.13171346098E+04  0.00000000000E+00 0. -1.
         24    2    1    2    0    0  0.49868009014E+03 -0.59166331298E+02  0.55196884641E+03  0.75074327706E+03  0.82239732417E+02 0.  0.
        254    2    1    2    0    0 -0.49868009014E+03  0.59166331298E+02 -0.99962067424E+03  0.14358741147E+04  0.90017248006E+03 0.  0.
         23    2    4    4    0    0 -0.18367922780E+03  0.49917670680E+02  0.13874288046E+03  0.25120904378E+03  0.87330202238E+02 0.  0.
         23    2    4    4    0    0 -0.31500086234E+03  0.92486606179E+01 -0.11383635547E+04  0.11846650709E+04  0.90822170264E+02 0.  0.
          2    1    3    3  502    0  0.20591161308E+03 -0.57851780855E+02  0.19884916974E+03  0.29204008844E+03  0.00000000000E+00 0. -1.
         -1    1    3    3    0  502  0.29276847706E+03 -0.13145504435E+01  0.35311967667E+03  0.45870318863E+03  0.00000000000E+00 0.  1.
         13    1    5    5    0    0 -0.13390669318E+03  0.75211359817E+02  0.10254692155E+03  0.18467166064E+03  0.00000000000E+00 0. -1.
        -13    1    5    5    0    0 -0.49772534625E+02 -0.25293689137E+02  0.36195958912E+02  0.66537383137E+02  0.00000000000E+00 0.  1.
          3    1    6    6  503    0 -0.51790928804E+02 -0.28984116555E+02 -0.27173596622E+03  0.27814171686E+03  0.00000000000E+00 0. -1.
         -3    1    6    6    0  503 -0.26320993353E+03  0.38232777173E+02 -0.86662758848E+03  0.90652335407E+03  0.00000000000E+00 0.  1.
<mgrwt>
<rscale>  0 0.21403045E+04</rscale>
<asrwt>0</asrwt>
<pdfrwt beam="1">  1        2 0.20263609E+00 0.21403045E+04</pdfrwt>
<pdfrwt beam="2">  1       -1 0.13376658E+00 0.21403045E+04</pdfrwt>
<totfact> 0.79767283E+00</totfact>
</mgrwt>
</event>
<event>
12    7  0.2426980E-007  0.1807621E+04  0.7818608E-02  0.8702257E-01
         -1   -1    0    0    0  501 -0.00000000000E+00  0.00000000000E+00  0.45983261319E+03  0.45983261319E+03  0.00000000000E+00 0.  1.
          2   -1    0    0  501    0  0.00000000000E+00 -0.00000000000E+00 -0.17764577023E+04  0.17764577023E+04  0.00000000000E+00 0. -1.
         24    2    1    2    0    0 -0.74947959979E+02 -0.11799776181E+03 -0.13108351461E+04  0.13208091200E+04  0.81898002120E+02 0.  0.
        254    2    1    2    0    0  0.74947959979E+02  0.11799776181E+03 -0.57899430128E+01  0.91548119548E+03  0.90472737736E+03 0.  0.
         23    2    4    4    0    0  0.30755005852E+03  0.31196470675E+03  0.24663788917E+03  0.51080470188E+03  0.90455394168E+02 0.  0.
         23    2    4    4    0    0 -0.23260209854E+03 -0.19396694494E+03 -0.25242783218E+03  0.40467649360E+03  0.91193980231E+02 0.  0.
          2    1    3    3  502    0 -0.41206242798E+02 -0.75174842696E+02 -0.10891451494E+04  0.10925137838E+04  0.00000000000E+00 0. -1.
         -1    1    3    3    0  502 -0.33741717181E+02 -0.42822919113E+02 -0.22168999672E+03  0.22829533618E+03  0.00000000000E+00 0.  1.
         13    1    5    5    0    0  0.22568718447E+02  0.12564742088E+02 -0.57956395583E+01  0.26472801778E+02  0.00000000000E+00 0.  1.
        -13    1    5    5    0    0  0.28498134008E+03  0.29939996467E+03  0.25243352873E+03  0.48433190010E+03  0.00000000000E+00 0. -1.
          3    1    6    6  503    0 -0.23144172450E+03 -0.15945282678E+03 -0.21587331519E+03  0.35438928316E+03  0.00000000000E+00 0. -1.
         -3    1    6    6    0  503 -0.11603740403E+01 -0.34514118165E+02 -0.36554516992E+02  0.50287210433E+02  0.00000000000E+00 0.  1.
<mgrwt>
<rscale>  0 0.18076207E+04</rscale>
<asrwt>0</asrwt>
<pdfrwt beam="1">  1        2 0.27330118E+00 0.18076207E+04</pdfrwt>
<pdfrwt beam="2">  1       -1 0.70743480E-01 0.18076207E+04</pdfrwt>
<totfact> 0.19291137E+01</totfact>
</mgrwt>
</event>
<event>
12    7  0.2476010E-007  0.3718135E+04  0.7818608E-02  0.8063955E-01
         -1   -1    0    0    0  501 -0.00000000000E+00  0.00000000000E+00  0.16441100366E+04  0.16441100366E+04  0.00000000000E+00 0.  1.
          2   -1    0    0  501    0  0.00000000000E+00 -0.00000000000E+00 -0.21021291942E+04  0.21021291942E+04  0.00000000000E+00 0. -1.
         24    2    1    2    0    0 -0.16895490851E+04 -0.43515297439E+03 -0.33800454636E+03  0.17789161397E+04  0.79757986687E+02 0.  0.
        254    2    1    2    0    0  0.16895490851E+04  0.43515297439E+03 -0.12001461127E+03  0.19673230911E+04  0.90112286375E+03 0.  0.
         23    2    4    4    0    0  0.15789162267E+04  0.62656335987E+03 -0.45131004956E+01  0.17013986987E+04  0.95807456879E+02 0.  0.
         23    2    4    4    0    0  0.11063285841E+03 -0.19141038547E+03 -0.11550151077E+03  0.26592439242E+03  0.92182527970E+02 0.  0.
          4    1    3    3  502    0 -0.30974407468E+03 -0.11127044960E+03 -0.57142847476E+02  0.33404761603E+03  0.00000000000E+00 0. -1.
         -3    1    3    3    0  502 -0.13798050105E+04 -0.32388252479E+03 -0.28086169888E+03  0.14448685237E+04  0.00000000000E+00 0.  1.
         13    1    5    5    0    0  0.32715909093E+02  0.10100183378E+02 -0.13524000670E+02  0.36813625279E+02  0.00000000000E+00 0. -1.
        -13    1    5    5    0    0  0.15462003176E+04  0.61646317649E+03  0.90109001744E+01  0.16645850734E+04  0.00000000000E+00 0.  1.
          3    1    6    6  503    0  0.27170540613E+02 -0.64151651813E+01  0.71128981665E+01  0.28809476598E+02  0.00000000000E+00 0. -1.
         -3    1    6    6    0  503  0.83462317798E+02 -0.18499522029E+03 -0.12261440894E+03  0.23711491582E+03  0.00000000000E+00 0.  1.
<mgrwt>
<rscale>  0 0.37181349E+04</rscale>
<asrwt>0</asrwt>
<pdfrwt beam="1">  1        2 0.32340449E+00 0.37181349E+04</pdfrwt>
<pdfrwt beam="2">  1       -1 0.25294001E+00 0.37181349E+04</pdfrwt>
<totfact> 0.35884647E-01</totfact>
</mgrwt>
</event>
<event>
12    7  0.2426980E-007  0.1806651E+04  0.7818608E-02  0.8702771E-01
          2   -1    0    0  501    0  0.00000000000E+00  0.00000000000E+00  0.21619581781E+04  0.21619581781E+04  0.00000000000E+00 0. -1.
         -1   -1    0    0    0  501 -0.00000000000E+00 -0.00000000000E+00 -0.37743412948E+03  0.37743412948E+03  0.00000000000E+00 0.  1.
         24    2    1    2    0    0 -0.12032144754E+03 -0.53292687444E+03  0.12466324438E+04  0.13634272313E+04  0.79706090679E+02 0.  0.
        254    2    1    2    0    0  0.12032144754E+03  0.53292687444E+03  0.53789160481E+03  0.11759650763E+04  0.89167156389E+03 0.  0.
         23    2    4    4    0    0 -0.31989475189E+03 -0.12948568268E+02  0.11957196196E+03  0.35442534143E+03  0.93912463787E+02 0.  0.
         23    2    4    4    0    0  0.44021619943E+03  0.54587544271E+03  0.41831964284E+03  0.82153973484E+03  0.90365431119E+02 0.  0.
          4    1    3    3  502    0 -0.10251854381E+03 -0.36196281992E+03  0.77586030992E+03  0.86225654845E+03  0.00000000000E+00 0. -1.
         -3    1    3    3    0  502 -0.17802903729E+02 -0.17096405452E+03  0.47077213389E+03  0.50117068287E+03  0.00000000000E+00 0.  1.
         13    1    5    5    0    0 -0.26685681155E+03 -0.30532320867E+02  0.12864643447E+03  0.29781653009E+03  0.00000000000E+00 0. -1.
        -13    1    5    5    0    0 -0.53037940335E+02  0.17583752599E+02 -0.90744725108E+01  0.56608811344E+02  0.00000000000E+00 0.  1.
          2    1    6    6  503    0  0.21852982708E+03  0.28675323544E+03  0.16368726282E+03  0.39594977380E+03  0.00000000000E+00 0. -1.
         -2    1    6    6    0  503  0.22168637235E+03  0.25912220726E+03  0.25463238003E+03  0.42558996104E+03  0.00000000000E+00 0.  1.
<mgrwt>
<rscale>  0 0.18066508E+04</rscale>
<asrwt>0</asrwt>
<pdfrwt beam="1">  1        2 0.33260894E+00 0.18066508E+04</pdfrwt>
<pdfrwt beam="2">  1       -1 0.58066790E-01 0.18066508E+04</pdfrwt>
<totfact> 0.17516879E+01</totfact>
</mgrwt>
</event>
<event>
12    7  0.2426980E-007  0.1867496E+04  0.7818608E-02  0.8671207E-01
         -3   -1    0    0    0  501 -0.00000000000E+00  0.00000000000E+00  0.25432204852E+04  0.25432204852E+04  0.00000000000E+00 0.  1.
          4   -1    0    0  501    0  0.00000000000E+00 -0.00000000000E+00 -0.34282724669E+03  0.34282724669E+03  0.00000000000E+00 0. -1.
         24    2    1    2    0    0 -0.49036339441E+03  0.42335498970E+03  0.38110073943E+03  0.75587869540E+03  0.80181810217E+02 0.  0.
        254    2    1    2    0    0  0.49036339441E+03 -0.42335498970E+03  0.18192924991E+04  0.21301690365E+04  0.89894895348E+03 0.  0.
         23    2    4    4    0    0  0.53480997638E+03  0.83453226046E+02  0.64319967102E+03  0.84559169420E+03  0.91287155337E+02 0.  0.
         23    2    4    4    0    0 -0.44446581966E+02 -0.50680821574E+03  0.11760928281E+04  0.12845773423E+04  0.90080752224E+02 0.  0.
          4    1    3    3  502    0 -0.17036050762E+03  0.19488283078E+03  0.13385049399E+03  0.29140688912E+03  0.00000000000E+00 0. -1.
         -3    1    3    3    0  502 -0.32000288680E+03  0.22847215892E+03  0.24725024544E+03  0.46447180628E+03  0.00000000000E+00 0.  1.
         13    1    5    5    0    0  0.66528451416E+02  0.61900523378E+01  0.13256311650E+03  0.14844976070E+03  0.00000000000E+00 0.  1.
        -13    1    5    5    0    0  0.46828152496E+03  0.77263173709E+02  0.51063655452E+03  0.69714193350E+03  0.00000000000E+00 0. -1.
          4    1    6    6  503    0  0.20907152152E+02 -0.27521537144E+03  0.63409050209E+03  0.69155720987E+03  0.00000000000E+00 0. -1.
         -4    1    6    6    0  503 -0.65353734119E+02 -0.23159284430E+03  0.54200232602E+03  0.59302013246E+03  0.00000000000E+00 0.  1.
<mgrwt>
<rscale>  0 0.18674959E+04</rscale>
<asrwt>0</asrwt>
<pdfrwt beam="1">  1        4 0.52742655E-01 0.18674959E+04</pdfrwt>
<pdfrwt beam="2">  1       -3 0.39126468E+00 0.18674959E+04</pdfrwt>
<totfact> 0.88190836E-02</totfact>
</mgrwt>
</event>
<event>
12    7  0.2426980E-007  0.2972216E+04  0.7818608E-02  0.8251710E-01
          2   -1    0    0  501    0  0.00000000000E+00  0.00000000000E+00  0.20151457053E+04  0.20151457053E+04  0.00000000000E+00 0. -1.
         -1   -1    0    0    0  501 -0.00000000000E+00 -0.00000000000E+00 -0.10959588262E+04  0.10959588262E+04  0.00000000000E+00 0.  1.
         24    2    1    2    0    0 -0.13187626833E+04  0.28074873376E+03  0.44583587619E+03  0.14223170302E+04  0.79127993986E+02 0.  0.
        254    2    1    2    0    0  0.13187626833E+04 -0.28074873376E+03  0.47335100295E+03  0.16887875012E+04  0.89999288099E+03 0.  0.
         23    2    4    4    0    0  0.46905826525E+02 -0.25878281189E+03 -0.91576657970E+02  0.29418592094E+03  0.94817569586E+02 0.  0.
         23    2    4    4    0    0  0.12718568568E+04 -0.21965921867E+02  0.56492766091E+03  0.13946015803E+04  0.87566772910E+02 0.  0.
          4    1    3    3  502    0 -0.96122485171E+02  0.99971203097E+01  0.13782975588E+02  0.97618876177E+02  0.00000000000E+00 0. -1.
         -3    1    3    3    0  502 -0.12226401982E+04  0.27075161345E+03  0.43205290060E+03  0.13246981540E+04  0.00000000000E+00 0.  1.
         13    1    5    5    0    0  0.31334845641E+02 -0.24671329600E+03 -0.58177728686E+02  0.25540941856E+03  0.00000000000E+00 0. -1.
        -13    1    5    5    0    0  0.15570980884E+02 -0.12069515892E+02 -0.33398929283E+02  0.38776502380E+02  0.00000000000E+00 0.  1.
          1    1    6    6  503    0  0.12472496454E+04 -0.16741340707E+02  0.54014800714E+03  0.13592909255E+04  0.00000000000E+00 0. -1.
         -1    1    6    6    0  503  0.24607211371E+02 -0.52245811598E+01  0.24779653771E+02  0.35310654777E+02  0.00000000000E+00 0.  1.
<mgrwt>
<rscale>  0 0.29722158E+04</rscale>
<asrwt>0</asrwt>
<pdfrwt beam="1">  1        2 0.31002242E+00 0.29722158E+04</pdfrwt>
<pdfrwt beam="2">  1       -1 0.16860905E+00 0.29722158E+04</pdfrwt>
<totfact> 0.16112116E+00</totfact>
</mgrwt>
</event>
<event>
12    7  0.2426980E-007  0.1331286E+04  0.7818608E-02  0.9005117E-01
          2   -1    0    0  501    0  0.00000000000E+00  0.00000000000E+00  0.58301308859E+03  0.58301308859E+03  0.00000000000E+00 0. -1.
         -1   -1    0    0    0  501 -0.00000000000E+00 -0.00000000000E+00 -0.75998391942E+03  0.75998391942E+03  0.00000000000E+00 0.  1.
         24    2    1    2    0    0 -0.78341712018E+02  0.31755644829E+03 -0.12075104423E+03  0.35782387534E+03  0.80483472741E+02 0.  0.
        254    2    1    2    0    0  0.78341712018E+02 -0.31755644829E+03 -0.56219786597E+02  0.98517313267E+03  0.92759145923E+03 0.  0.
         23    2    4    4    0    0 -0.76770900686E+02  0.26322595542E+03  0.17086538413E+03  0.33517361968E+03  0.89245173750E+02 0.  0.
         23    2    4    4    0    0  0.15511261270E+03 -0.58078240371E+03 -0.22708517073E+03  0.64999951299E+03  0.97793502028E+02 0.  0.
          4    1    3    3  502    0 -0.60390532612E+02  0.13148056312E+03 -0.84010548906E+02  0.16730788157E+03  0.00000000000E+00 0. -1.
         -3    1    3    3    0  502 -0.17951179406E+02  0.18607588517E+03 -0.36740495325E+02  0.19051599377E+03  0.00000000000E+00 0.  1.
         13    1    5    5    0    0 -0.54552386506E+00 -0.38850244142E+01 -0.50393259525E+01  0.63863774584E+01  0.00000000000E+00 0.  1.
        -13    1    5    5    0    0 -0.76225376821E+02  0.26711097983E+03  0.17590471009E+03  0.32878724222E+03  0.00000000000E+00 0. -1.
          1    1    6    6  503    0  0.14390076443E+03 -0.57342686141E+03 -0.20811304734E+03  0.62676697094E+03  0.00000000000E+00 0. -1.
         -1    1    6    6    0  503  0.11211848273E+02 -0.73555423064E+01 -0.18972123386E+02  0.23232542050E+02  0.00000000000E+00 0.  1.
<mgrwt>
<rscale>  0 0.13312860E+04</rscale>
<asrwt>0</asrwt>
<pdfrwt beam="1">  1        2 0.89694321E-01 0.13312860E+04</pdfrwt>
<pdfrwt beam="2">  1       -1 0.11692060E+00 0.13312860E+04</pdfrwt>
<totfact> 0.37871812E+01</totfact>
</mgrwt>
</event>
<event>
12    7  0.2426980E-007  0.1425633E+04  0.7818608E-02  0.8935470E-01
          2   -1    0    0  501    0  0.00000000000E+00  0.00000000000E+00  0.15030996397E+04  0.15030996397E+04  0.00000000000E+00 0. -1.
         -1   -1    0    0    0  501 -0.00000000000E+00 -0.00000000000E+00 -0.33803988599E+03  0.33803988599E+03  0.00000000000E+00 0.  1.
         24    2    1    2    0    0 -0.28863573416E+03  0.14579528089E+03 -0.98028032003E+00  0.33302715242E+03  0.79619547439E+02 0.  0.
        254    2    1    2    0    0  0.28863573416E+03 -0.14579528089E+03  0.11660400341E+04  0.15081123733E+04  0.90010372655E+03 0.  0.
         23    2    4    4    0    0 -0.28844330972E+03 -0.89025274083E+02  0.18725564644E+03  0.36707005997E+03  0.92470046255E+02 0.  0.
         23    2    4    4    0    0  0.57707904388E+03 -0.56770006802E+02  0.97878438763E+03  0.11410423133E+04  0.87838640828E+02 0.  0.
          2    1    3    3  502    0 -0.85984228034E+02  0.17843542431E+02  0.26659499932E+02  0.91773680398E+02  0.00000000000E+00 0. -1.
         -1    1    3    3    0  502 -0.20265150613E+03  0.12795173845E+03 -0.27639780252E+02  0.24125347202E+03  0.00000000000E+00 0.  1.
         13    1    5    5    0    0 -0.23540929880E+03 -0.10778623616E+03  0.14533425265E+03  0.29691321234E+03  0.00000000000E+00 0.  1.
        -13    1    5    5    0    0 -0.53034010922E+02  0.18760962079E+02  0.41921393783E+02  0.70156847630E+02  0.00000000000E+00 0. -1.
          3    1    6    6  503    0  0.39243601725E+03 -0.72708116954E+02  0.62294175868E+03  0.73983034043E+03  0.00000000000E+00 0. -1.
         -3    1    6    6    0  503  0.18464302663E+03  0.15938110152E+02  0.35584262894E+03  0.40121197292E+03  0.00000000000E+00 0.  1.
<mgrwt>
<rscale>  0 0.14256334E+04</rscale>
<asrwt>0</asrwt>
<pdfrwt beam="1">  1        2 0.23124610E+00 0.14256334E+04</pdfrwt>
<pdfrwt beam="2">  1       -1 0.52006137E-01 0.14256334E+04</pdfrwt>
<totfact> 0.52096715E+01</totfact>
</mgrwt>
</event>
<event>
12    7  0.2426980E-007  0.1408455E+04  0.7818608E-02  0.8947721E-01
          2   -1    0    0  501    0  0.00000000000E+00  0.00000000000E+00  0.22758600305E+04  0.22758600305E+04  0.00000000000E+00 0. -1.
         -1   -1    0    0    0  501 -0.00000000000E+00 -0.00000000000E+00 -0.21791161543E+03  0.21791161543E+03  0.00000000000E+00 0.  1.
         24    2    1    2    0    0 -0.13078219266E+02  0.37484589954E+03  0.31501464275E+03  0.49657550583E+03  0.81685492111E+02 0.  0.
        254    2    1    2    0    0  0.13078219266E+02 -0.37484589954E+03  0.17429337724E+04  0.19971961401E+04  0.90016320694E+03 0.  0.
         23    2    4    4    0    0  0.35962604989E+03  0.66675253125E+02  0.94484953626E+03  0.10172699764E+04  0.91219919232E+02 0.  0.
         23    2    4    4    0    0 -0.34654783062E+03 -0.44152115266E+03  0.79808423610E+03  0.97992616370E+03  0.90997314388E+02 0.  0.
          4    1    3    3  502    0 -0.13504273887E+02  0.59474851166E+01  0.15453781470E+02  0.21367202769E+02  0.00000000000E+00 0. -1.
         -3    1    3    3    0  502  0.42605462185E+00  0.36889841442E+03  0.29956086128E+03  0.47520830306E+03  0.00000000000E+00 0.  1.
         13    1    5    5    0    0  0.16703672765E+03  0.31886396099E+02  0.31845510331E+03  0.36101476904E+03  0.00000000000E+00 0. -1.
        -13    1    5    5    0    0  0.19258932223E+03  0.34788857026E+02  0.62639443296E+03  0.65625520741E+03  0.00000000000E+00 0.  1.
          3    1    6    6  503    0 -0.22653646513E+03 -0.21771701647E+03  0.46092756596E+03  0.55782944558E+03  0.00000000000E+00 0. -1.
         -3    1    6    6    0  503 -0.12001136550E+03 -0.22380413619E+03  0.33715667014E+03  0.42209671812E+03  0.00000000000E+00 0.  1.
<mgrwt>
<rscale>  0 0.14084549E+04</rscale>
<asrwt>0</asrwt>
<pdfrwt beam="1">  1        2 0.35013230E+00 0.14084549E+04</pdfrwt>
<pdfrwt beam="2">  1       -1 0.33524865E-01 0.14084549E+04</pdfrwt>
<totfact> 0.43531545E+01</totfact>
</mgrwt>
</event>
<event>
12    7  0.2426980E-007  0.1432308E+04  0.7818608E-02  0.8930759E-01
         -1   -1    0    0    0  501 -0.00000000000E+00  0.00000000000E+00  0.25891925779E+03  0.25891925779E+03  0.00000000000E+00 0.  1.
          2   -1    0    0  501    0  0.00000000000E+00 -0.00000000000E+00 -0.19808351768E+04  0.19808351768E+04  0.00000000000E+00 0. -1.
         24    2    1    2    0    0 -0.11949482887E+02  0.39221326225E+03 -0.74675566198E+03  0.84737867350E+03  0.80203269095E+02 0.  0.
        254    2    1    2    0    0  0.11949482887E+02 -0.39221326225E+03 -0.97516025706E+03  0.13923757611E+04  0.91312578541E+03 0.  0.
         23    2    4    4    0    0  0.41909595384E+03 -0.24530796325E+03 -0.27785201318E+03  0.56690944772E+03  0.91472210660E+02 0.  0.
         23    2    4    4    0    0 -0.40714647096E+03 -0.14690529900E+03 -0.69730824388E+03  0.82546631340E+03  0.88354014544E+02 0.  0.
          2    1    3    3  502    0 -0.61490798383E+01  0.39394130839E+03 -0.72953456400E+03  0.82912498799E+03  0.00000000000E+00 0. -1.
         -1    1    3    3    0  502 -0.58004030492E+01 -0.17280461393E+01 -0.17221097977E+02  0.18253685505E+02  0.00000000000E+00 0.  1.
         13    1    5    5    0    0  0.27309780019E+02  0.61996083234E+01 -0.96796581767E+01  0.29630305609E+02  0.00000000000E+00 0. -1.
        -13    1    5    5    0    0  0.39178617382E+03 -0.25150757157E+03 -0.26817235500E+03  0.53727914211E+03  0.00000000000E+00 0.  1.
          1    1    6    6  503    0 -0.16351856618E+03 -0.98656123171E+02 -0.26074840718E+03  0.32320439968E+03  0.00000000000E+00 0. -1.
         -1    1    6    6    0  503 -0.24362790477E+03 -0.48249175831E+02 -0.43655983670E+03  0.50226191372E+03  0.00000000000E+00 0.  1.
<mgrwt>
<rscale>  0 0.14323078E+04</rscale>
<asrwt>0</asrwt>
<pdfrwt beam="1">  1        2 0.30474385E+00 0.14323078E+04</pdfrwt>
<pdfrwt beam="2">  1       -1 0.39833735E-01 0.14323078E+04</pdfrwt>
<totfact> 0.46507909E+01</totfact>
</mgrwt>
</event>
<event>
12    7  0.2426980E-007  0.1753260E+04  0.7818608E-02  0.8731558E-01
          2   -1    0    0  501    0  0.00000000000E+00  0.00000000000E+00  0.44926946468E+03  0.44926946468E+03  0.00000000000E+00 0. -1.
         -3   -1    0    0    0  501 -0.00000000000E+00 -0.00000000000E+00 -0.17105111448E+04  0.17105111448E+04  0.00000000000E+00 0.  1.
         24    2    1    2    0    0  0.60642772876E+03  0.13352558841E+03 -0.26094664827E+03  0.67824139495E+03  0.79589971850E+02 0.  0.
        254    2    1    2    0    0 -0.60642772876E+03 -0.13352558841E+03 -0.10002950319E+04  0.14815392145E+04  0.89932453569E+03 0.  0.
         23    2    4    4    0    0 -0.43666238265E+03 -0.49968698862E+03 -0.52379902042E+03  0.85027475501E+03  0.90777872879E+02 0.  0.
         23    2    4    4    0    0 -0.16976534611E+03  0.36616140020E+03 -0.47649601144E+03  0.63126445953E+03  0.92476619805E+02 0.  0.
          2    1    3    3  502    0  0.50344153860E+03  0.79662334957E+02 -0.21734483458E+03  0.55411032071E+03  0.00000000000E+00 0. -1.
         -1    1    3    3    0  502  0.10298619016E+03  0.53863253455E+02 -0.43601813684E+02  0.12413107424E+03  0.00000000000E+00 0.  1.
         13    1    5    5    0    0 -0.30520541347E+03 -0.30056268047E+03 -0.29841687862E+03  0.52205450170E+03  0.00000000000E+00 0. -1.
        -13    1    5    5    0    0 -0.13145696918E+03 -0.19912430814E+03 -0.22538214180E+03  0.32822025331E+03  0.00000000000E+00 0.  1.
          4    1    6    6  503    0 -0.14344742951E+03  0.34790024054E+03 -0.46264367379E+03  0.59636474686E+03  0.00000000000E+00 0. -1.
         -4    1    6    6    0  503 -0.26317916596E+02  0.18261159659E+02 -0.13852337658E+02  0.34899712673E+02  0.00000000000E+00 0.  1.
<mgrwt>
<rscale>  0 0.17532603E+04</rscale>
<asrwt>0</asrwt>
<pdfrwt beam="1">  1        2 0.69118378E-01 0.17532603E+04</pdfrwt>
<pdfrwt beam="2">  1       -3 0.26315557E+00 0.17532603E+04</pdfrwt>
<totfact> 0.25301090E+00</totfact>
</mgrwt>
</event>
<event>
12    7  0.2426980E-007  0.1470200E+04  0.7818608E-02  0.8904515E-01
         -1   -1    0    0    0  501 -0.00000000000E+00  0.00000000000E+00  0.40538217092E+03  0.40538217092E+03  0.00000000000E+00 0.  1.
          2   -1    0    0  501    0  0.00000000000E+00 -0.00000000000E+00 -0.13329935877E+04  0.13329935877E+04  0.00000000000E+00 0. -1.
         24    2    1    2    0    0  0.33118112862E+03 -0.27180060303E+03 -0.47163041176E+03  0.64197416924E+03  0.78352287202E+02 0.  0.
        254    2    1    2    0    0 -0.33118112862E+03  0.27180060303E+03 -0.45598100498E+03  0.10964015893E+04  0.90034507854E+03 0.  0.
         23    2    4    4    0    0  0.74666339898E+02 -0.83513282682E+02  0.19744565599E+03  0.24447407321E+03  0.90737283976E+02 0.  0.
         23    2    4    4    0    0 -0.40584746852E+03  0.35531388571E+03 -0.65342666097E+03  0.85192751613E+03  0.88622606588E+02 0.  0.
          4    1    3    3  502    0  0.60968152280E+02 -0.75393790743E+02 -0.14750701733E+03  0.17652098866E+03  0.00000000000E+00 0. -1.
         -3    1    3    3    0  502  0.27021297634E+03 -0.19640681228E+03 -0.32412339443E+03  0.46545318058E+03  0.00000000000E+00 0.  1.
         13    1    5    5    0    0 -0.74855327333E+01  0.10701207006E+02  0.31377789657E+01  0.13431108983E+02  0.00000000000E+00 0. -1.
        -13    1    5    5    0    0  0.82151872631E+02 -0.94214489688E+02  0.19430787703E+03  0.23104296423E+03  0.00000000000E+00 0.  1.
          2    1    6    6  503    0 -0.10183186023E+03  0.63680505729E+02 -0.19761921318E+03  0.23125373075E+03  0.00000000000E+00 0. -1.
         -2    1    6    6    0  503 -0.30401560828E+03  0.29163337998E+03 -0.45580744779E+03  0.62067378538E+03  0.00000000000E+00 0.  1.
<mgrwt>
<rscale>  0 0.14701998E+04</rscale>
<asrwt>0</asrwt>
<pdfrwt beam="1">  1        2 0.20507593E+00 0.14701998E+04</pdfrwt>
<pdfrwt beam="2">  1       -1 0.62366490E-01 0.14701998E+04</pdfrwt>
<totfact> 0.45523923E+01</totfact>
</mgrwt>
</event>
<event>
12    7  0.2426980E-007  0.1741095E+04  0.7818608E-02  0.8738267E-01
         -1   -1    0    0    0  501 -0.00000000000E+00  0.00000000000E+00  0.88941594910E+03  0.88941594910E+03  0.00000000000E+00 0.  1.
          2   -1    0    0  501    0  0.00000000000E+00 -0.00000000000E+00 -0.85207979727E+03  0.85207979727E+03  0.00000000000E+00 0. -1.
         24    2    1    2    0    0  0.44771844508E+03  0.45005467729E+03  0.26891951888E+02  0.64047926233E+03  0.80557369453E+02 0.  0.
        254    2    1    2    0    0 -0.44771844508E+03 -0.45005467729E+03  0.10444199944E+02  0.11010164840E+04  0.89951497943E+03 0.  0.
         23    2    4    4    0    0 -0.53222085206E+03  0.78943786061E+01 -0.20838717541E+03  0.57857232779E+03  0.89439180587E+02 0.  0.
         23    2    4    4    0    0  0.84502406977E+02 -0.45794905590E+03  0.21883137535E+03  0.52244415626E+03  0.90568929508E+02 0.  0.
          2    1    3    3  502    0  0.85117586076E+02  0.10291306747E+03  0.36339582783E+02  0.13840761609E+03  0.00000000000E+00 0. -1.
         -1    1    3    3    0  502  0.36260085901E+03  0.34714160982E+03 -0.94476308951E+01  0.50207164623E+03  0.00000000000E+00 0.  1.
         13    1    5    5    0    0 -0.24109544694E+03 -0.25650845977E+02 -0.58500654364E+02  0.24941392703E+03  0.00000000000E+00 0. -1.
        -13    1    5    5    0    0 -0.29112540512E+03  0.33545224584E+02 -0.14988652104E+03  0.32915840075E+03  0.00000000000E+00 0.  1.
          3    1    6    6  503    0  0.23458005226E+02 -0.45650302833E+02 -0.78460840413E+00  0.51330729278E+02  0.00000000000E+00 0. -1.
         -3    1    6    6    0  503  0.61044401752E+02 -0.41229875306E+03  0.21961598376E+03  0.47111342698E+03  0.00000000000E+00 0.  1.
<mgrwt>
<rscale>  0 0.17410955E+04</rscale>
<asrwt>0</asrwt>
<pdfrwt beam="1">  1        2 0.13108920E+00 0.17410955E+04</pdfrwt>
<pdfrwt beam="2">  1       -1 0.13683322E+00 0.17410955E+04</pdfrwt>
<totfact> 0.15238027E+01</totfact>
</mgrwt>
</event>
<event>
12    7  0.2426980E-007  0.1391281E+04  0.7818608E-02  0.8960154E-01
         -1   -1    0    0    0  501 -0.00000000000E+00  0.00000000000E+00  0.95245172994E+03  0.95245172994E+03  0.00000000000E+00 0.  1.
          2   -1    0    0  501    0  0.00000000000E+00 -0.00000000000E+00 -0.50807384863E+03  0.50807384863E+03  0.00000000000E+00 0. -1.
         24    2    1    2    0    0 -0.56531381012E+02 -0.16070250247E+03  0.50651103967E+03  0.53980377928E+03  0.76246937516E+02 0.  0.
        254    2    1    2    0    0  0.56531381012E+02  0.16070250247E+03 -0.62133158365E+02  0.92072179928E+03  0.90268876750E+03 0.  0.
         23    2    4    4    0    0  0.42126572731E+03  0.29185536729E+02 -0.22798710453E+03  0.48904294967E+03  0.94171536224E+02 0.  0.
         23    2    4    4    0    0 -0.36473434630E+03  0.13151696574E+03  0.16585394616E+03  0.43167884961E+03  0.92256393236E+02 0.  0.
          2    1    3    3  502    0 -0.50870565762E+01 -0.19474390154E+02  0.13120558609E+02  0.24026632612E+02  0.00000000000E+00 0. -1.
         -1    1    3    3    0  502 -0.51444324436E+02 -0.14122811231E+03  0.49339048106E+03  0.51577714667E+03  0.00000000000E+00 0.  1.
         13    1    5    5    0    0  0.90862785676E+02 -0.12813838349E+02 -0.89992620402E+02  0.12852591957E+03  0.00000000000E+00 0.  1.
        -13    1    5    5    0    0  0.33040294163E+03  0.41999375078E+02 -0.13799448413E+03  0.36051703011E+03  0.00000000000E+00 0. -1.
          4    1    6    6  503    0 -0.13772877385E+03  0.34196099939E+02  0.10712679618E+03  0.17780533978E+03  0.00000000000E+00 0.  1.
         -4    1    6    6    0  503 -0.22700557245E+03  0.97320865798E+02  0.58727149985E+02  0.25387350982E+03  0.00000000000E+00 0. -1.
<mgrwt>
<rscale>  0 0.13912812E+04</rscale>
<asrwt>0</asrwt>
<pdfrwt beam="1">  1        2 0.78165208E-01 0.13912812E+04</pdfrwt>
<pdfrwt beam="2">  1       -1 0.14653103E+00 0.13912812E+04</pdfrwt>
<totfact> 0.25007882E+01</totfact>
</mgrwt>
</event>
<event>
12    7  0.2426980E-007  0.2898701E+04  0.7818608E-02  0.8273264E-01
          2   -1    0    0  501    0  0.00000000000E+00  0.00000000000E+00  0.96910473871E+03  0.96910473871E+03  0.00000000000E+00 0. -1.
         -1   -1    0    0    0  501 -0.00000000000E+00 -0.00000000000E+00 -0.21675845067E+04  0.21675845067E+04  0.00000000000E+00 0.  1.
         24    2    1    2    0    0  0.12090301364E+04  0.34090917598E+03 -0.14619741472E+03  0.12671732203E+04  0.79883348098E+02 0.  0.
        254    2    1    2    0    0 -0.12090301364E+04 -0.34090917598E+03 -0.10522823532E+04  0.18695160251E+04  0.89989948338E+03 0.  0.
         23    2    4    4    0    0 -0.12679990207E+04 -0.13131894191E+03 -0.73640436859E+03  0.14750268503E+04  0.91359914797E+02 0.  0.
         23    2    4    4    0    0  0.58968884313E+02 -0.20959023407E+03 -0.31587798464E+03  0.39448917479E+03  0.91855388061E+02 0.  0.
          4    1    3    3  502    0  0.46951713152E+03  0.15853862649E+03 -0.87704617852E+02  0.50326229034E+03  0.00000000000E+00 0. -1.
         -3    1    3    3    0  502  0.73951300483E+03  0.18237054948E+03 -0.58492796869E+02  0.76391092997E+03  0.00000000000E+00 0.  1.
         13    1    5    5    0    0 -0.15362171675E+03  0.49986448665E+01 -0.11393287324E+03  0.19132516278E+03  0.00000000000E+00 0. -1.
        -13    1    5    5    0    0 -0.11143773039E+04 -0.13631758678E+03 -0.62247149535E+03  0.12837016875E+04  0.00000000000E+00 0.  1.
          3    1    6    6  503    0  0.45584026992E+02 -0.88522060605E+02 -0.75311886217E+02  0.12484365797E+03  0.00000000000E+00 0. -1.
         -3    1    6    6    0  503  0.13384857321E+02 -0.12106817346E+03 -0.24056609842E+03  0.26964551682E+03  0.00000000000E+00 0.  1.
<mgrwt>
<rscale>  0 0.28987007E+04</rscale>
<asrwt>0</asrwt>
<pdfrwt beam="1">  1        2 0.14909304E+00 0.28987007E+04</pdfrwt>
<pdfrwt beam="2">  1       -1 0.33347454E+00 0.28987007E+04</pdfrwt>
<totfact> 0.51826288E-01</totfact>
</mgrwt>
</event>
<event>
12    7  0.2426980E-007  0.1478660E+04  0.7818608E-02  0.8898769E-01
         -1   -1    0    0    0  501 -0.00000000000E+00  0.00000000000E+00  0.22578910557E+03  0.22578910557E+03  0.00000000000E+00 0.  1.
          2   -1    0    0  501    0  0.00000000000E+00 -0.00000000000E+00 -0.24208820583E+04  0.24208820583E+04  0.00000000000E+00 0. -1.
         24    2    1    2    0    0  0.34109980644E+03  0.24947536908E+03 -0.10254116996E+04  0.11116455889E+04  0.75496515681E+02 0.  0.
        254    2    1    2    0    0 -0.34109980644E+03 -0.24947536908E+03 -0.11696812531E+04  0.15350255750E+04  0.89975676948E+03 0.  0.
         23    2    4    4    0    0  0.42019030679E+02  0.24918090348E+02  0.12002636051E+03  0.15885512719E+03  0.91880977637E+02 0.  0.
         23    2    4    4    0    0 -0.38311883712E+03 -0.27439345943E+03 -0.12897076136E+04  0.13761704478E+04  0.91801736168E+02 0.  0.
          2    1    3    3  502    0  0.11622127832E+03  0.12624117670E+03 -0.45342524927E+03  0.48480787628E+03  0.00000000000E+00 0. -1.
         -1    1    3    3    0  502  0.22487852812E+03  0.12323419238E+03 -0.57198645030E+03  0.62683771258E+03  0.00000000000E+00 0.  1.
         13    1    5    5    0    0  0.49405272283E+02 -0.21477492040E+02  0.44335126855E+02  0.69769384883E+02  0.00000000000E+00 0. -1.
        -13    1    5    5    0    0 -0.73862416038E+01  0.46395582388E+02  0.75691233660E+02  0.89085742311E+02  0.00000000000E+00 0.  1.
          4    1    6    6  503    0 -0.17600795641E+03 -0.75017543097E+02 -0.56551162163E+03  0.59700069237E+03  0.00000000000E+00 0. -1.
         -4    1    6    6    0  503 -0.20711088070E+03 -0.19937591633E+03 -0.72419599202E+03  0.77916975543E+03  0.00000000000E+00 0.  1.
<mgrwt>
<rscale>  0 0.14786599E+04</rscale>
<asrwt>0</asrwt>
<pdfrwt beam="1">  1        2 0.37244340E+00 0.14786599E+04</pdfrwt>
<pdfrwt beam="2">  1       -1 0.34736785E-01 0.14786599E+04</pdfrwt>
<totfact> 0.33606536E+01</totfact>
</mgrwt>
</event>
<event>
12    7  0.2426980E-007  0.2719511E+04  0.7818608E-02  0.8328702E-01
         -1   -1    0    0    0  501 -0.00000000000E+00  0.00000000000E+00  0.91846513908E+03  0.91846513908E+03  0.00000000000E+00 0.  1.
          2   -1    0    0  501    0  0.00000000000E+00 -0.00000000000E+00 -0.20130703713E+04  0.20130703713E+04  0.00000000000E+00 0. -1.
         24    2    1    2    0    0  0.81717886720E+03  0.39888566401E+03  0.37150386670E+03  0.98552472948E+03  0.79704425794E+02 0.  0.
        254    2    1    2    0    0 -0.81717886720E+03 -0.39888566401E+03 -0.14661090990E+04  0.19460107809E+04  0.90032827097E+03 0.  0.
         23    2    4    4    0    0 -0.74236577596E+03 -0.40707534523E+03 -0.15708296179E+04  0.17872105741E+04  0.98988211223E+02 0.  0.
         23    2    4    4    0    0 -0.74813091241E+02  0.81896812177E+01  0.10472051890E+03  0.15880020680E+03  0.92666332073E+02 0.  0.
          4    1    3    3  502    0  0.37630742945E+03  0.14295844383E+03  0.14769144061E+03  0.42878568044E+03  0.00000000000E+00 0. -1.
         -3    1    3    3    0  502  0.44087143775E+03  0.25592722017E+03  0.22381242609E+03  0.55673904904E+03  0.00000000000E+00 0.  1.
         13    1    5    5    0    0 -0.30393293311E+03 -0.11828623851E+03 -0.55484678179E+03  0.64360066292E+03  0.00000000000E+00 0. -1.
        -13    1    5    5    0    0 -0.43843284285E+03 -0.28878910672E+03 -0.10159828361E+04  0.11436099112E+04  0.00000000000E+00 0.  1.
          4    1    6    6  503    0  0.78403700974E+01  0.23606827650E+02  0.48287292493E+00  0.24879446963E+02  0.00000000000E+00 0. -1.
         -4    1    6    6    0  503 -0.82653461338E+02 -0.15417146432E+02  0.10423764598E+03  0.13392075983E+03  0.00000000000E+00 0.  1.
<mgrwt>
<rscale>  0 0.27195110E+04</rscale>
<asrwt>0</asrwt>
<pdfrwt beam="1">  1        2 0.30970313E+00 0.27195110E+04</pdfrwt>
<pdfrwt beam="2">  1       -1 0.14130233E+00 0.27195110E+04</pdfrwt>
<totfact> 0.26782910E+00</totfact>
</mgrwt>
</event>
<event>
12    7  0.2426980E-007  0.1311079E+04  0.7818608E-02  0.9020825E-01
          2   -1    0    0  501    0  0.00000000000E+00  0.00000000000E+00  0.26356777584E+04  0.26356777584E+04  0.00000000000E+00 0. -1.
         -1   -1    0    0    0  501 -0.00000000000E+00 -0.00000000000E+00 -0.16304422912E+03  0.16304422912E+03  0.00000000000E+00 0.  1.
         24    2    1    2    0    0 -0.90906931445E+02  0.13463567086E+03  0.19775048401E+02  0.18174152910E+03  0.79044903743E+02 0.  0.
        254    2    1    2    0    0  0.90906931445E+02 -0.13463567086E+03  0.24528584809E+04  0.26169804584E+04  0.89759743676E+03 0.  0.
         23    2    4    4    0    0 -0.38818418339E+03  0.23211032878E+02  0.11255230762E+04  0.11941200682E+04  0.88852856624E+02 0.  0.
         23    2    4    4    0    0  0.47909111484E+03 -0.15784670374E+03  0.13273354047E+04  0.14228603902E+04  0.90931485801E+02 0.  0.
          2    1    3    3  502    0  0.50251805220E+01  0.18852061499E+02  0.24482381186E+02  0.31305584974E+02  0.00000000000E+00 0. -1.
         -1    1    3    3    0  502 -0.95932111967E+02  0.11578360936E+03 -0.47073327849E+01  0.15043594413E+03  0.00000000000E+00 0.  1.
         13    1    5    5    0    0 -0.33025195548E+03 -0.93641248122E+01  0.88783392833E+03  0.94731363615E+03  0.00000000000E+00 0.  1.
        -13    1    5    5    0    0 -0.57932227917E+02  0.32575157690E+02  0.23768914783E+03  0.24680643210E+03  0.00000000000E+00 0. -1.
          4    1    6    6  503    0  0.26730497536E+03 -0.12163543245E+03  0.67709143734E+03  0.73803790065E+03  0.00000000000E+00 0. -1.
         -4    1    6    6    0  503  0.21178613948E+03 -0.36211271284E+02  0.65024396737E+03  0.68482248951E+03  0.00000000000E+00 0.  1.
<mgrwt>
<rscale>  0 0.13110790E+04</rscale>
<asrwt>0</asrwt>
<pdfrwt beam="1">  1        2 0.40548885E+00 0.13110790E+04</pdfrwt>
<pdfrwt beam="2">  1       -1 0.25083730E-01 0.13110790E+04</pdfrwt>
<totfact> 0.45322043E+01</totfact>
</mgrwt>
</event>
<event>
12    7  0.2426980E-007  0.3375785E+04  0.7818608E-02  0.8143875E-01
          2   -1    0    0  501    0  0.00000000000E+00  0.00000000000E+00  0.19611462238E+04  0.19611462238E+04  0.00000000000E+00 0. -1.
         -1   -1    0    0    0  501 -0.00000000000E+00 -0.00000000000E+00 -0.14527123304E+04  0.14527123304E+04  0.00000000000E+00 0.  1.
         24    2    1    2    0    0 -0.41618716169E+03 -0.14406939762E+04  0.69521958822E+03  0.16548881530E+04  0.80707103915E+02 0.  0.
        254    2    1    2    0    0  0.41618716169E+03  0.14406939762E+04 -0.18678569491E+03  0.17589704012E+04  0.90015392565E+03 0.  0.
         23    2    4    4    0    0  0.22436086481E+03  0.60841953453E+03  0.35354172333E+03  0.74406081967E+03  0.90125610016E+02 0.  0.
         23    2    4    4    0    0  0.19182629688E+03  0.83227444165E+03 -0.54032741824E+03  0.10149095815E+04  0.92788282356E+02 0.  0.
          2    1    3    3  502    0 -0.10500202962E+03 -0.49588855966E+03  0.24603184755E+03  0.56343815973E+03  0.00000000000E+00 0. -1.
         -1    1    3    3    0  502 -0.31118513207E+03 -0.94480541652E+03  0.44918774067E+03  0.10914499933E+04  0.00000000000E+00 0.  1.
         13    1    5    5    0    0  0.68036716458E+02  0.87541633113E+02  0.60171577187E+02  0.12614733852E+03  0.00000000000E+00 0. -1.
        -13    1    5    5    0    0  0.15632414835E+03  0.52087790141E+03  0.29337014614E+03  0.61791348115E+03  0.00000000000E+00 0.  1.
          1    1    6    6  503    0  0.74569625552E+02  0.19728520341E+03 -0.16710760606E+03  0.26908554874E+03  0.00000000000E+00 0. -1.
         -1    1    6    6    0  503  0.11725667133E+03  0.63498923824E+03 -0.37321981218E+03  0.74582403277E+03  0.00000000000E+00 0.  1.
<mgrwt>
<rscale>  0 0.33757851E+04</rscale>
<asrwt>0</asrwt>
<pdfrwt beam="1">  1        2 0.30171480E+00 0.33757851E+04</pdfrwt>
<pdfrwt beam="2">  1       -1 0.22349420E+00 0.33757851E+04</pdfrwt>
<totfact> 0.69147814E-01</totfact>
</mgrwt>
</event>
<event>
12    7  0.2426980E-007  0.3030055E+04  0.7818608E-02  0.8235200E-01
         -1   -1    0    0    0  501 -0.00000000000E+00  0.00000000000E+00  0.11279874190E+04  0.11279874190E+04  0.00000000000E+00 0.  1.
          2   -1    0    0  501    0  0.00000000000E+00 -0.00000000000E+00 -0.20348700000E+04  0.20348700000E+04  0.00000000000E+00 0. -1.
         24    2    1    2    0    0  0.86552505659E+03  0.56394203695E+03  0.54184683483E+03  0.11691345206E+04  0.78187532221E+02 0.  0.
        254    2    1    2    0    0 -0.86552505659E+03 -0.56394203695E+03 -0.14487294159E+04  0.19937228984E+04  0.89941638325E+03 0.  0.
         23    2    4    4    0    0 -0.53280461850E+03  0.12819382928E+03 -0.85395143447E+03  0.10187514224E+04  0.91142684153E+02 0.  0.
         23    2    4    4    0    0 -0.33272043810E+03 -0.69213586623E+03 -0.59477798144E+03  0.97497147599E+03  0.83985621064E+02 0.  0.
          4    1    3    3  502    0  0.18033647076E+03  0.13051052368E+03  0.83334953617E+02  0.23769508613E+03  0.00000000000E+00 0. -1.
         -3    1    3    3    0  502  0.68518858584E+03  0.43343151327E+03  0.45851188121E+03  0.93143943446E+03  0.00000000000E+00 0.  1.
         13    1    5    5    0    0 -0.23631586943E+03  0.10668871432E+02 -0.35702285163E+03  0.42828066913E+03  0.00000000000E+00 0. -1.
        -13    1    5    5    0    0 -0.29648874906E+03  0.11752495785E+03 -0.49692858284E+03  0.59047075328E+03  0.00000000000E+00 0.  1.
          4    1    6    6  503    0 -0.29097789202E+02 -0.11850224563E+03 -0.72853373996E+02  0.14211642290E+03  0.00000000000E+00 0. -1.
         -4    1    6    6    0  503 -0.30362264889E+03 -0.57363362060E+03 -0.52192460744E+03  0.83285505309E+03  0.00000000000E+00 0.  1.
<mgrwt>
<rscale>  0 0.30300546E+04</rscale>
<asrwt>0</asrwt>
<pdfrwt beam="1">  1        2 0.31305692E+00 0.30300546E+04</pdfrwt>
<pdfrwt beam="2">  1       -1 0.17353653E+00 0.30300546E+04</pdfrwt>
<totfact> 0.14385235E+00</totfact>
</mgrwt>
</event>
<event>
12    7  0.2426980E-007  0.3082662E+04  0.7818608E-02  0.8220512E-01
          2   -1    0    0  501    0  0.00000000000E+00  0.00000000000E+00  0.20704072969E+04  0.20704072969E+04  0.00000000000E+00 0. -1.
         -1   -1    0    0    0  501 -0.00000000000E+00 -0.00000000000E+00 -0.11474563534E+04  0.11474563534E+04  0.00000000000E+00 0.  1.
         24    2    1    2    0    0  0.51854267371E+03 -0.97859398304E+03 -0.48663622677E+03  0.12122810471E+04  0.79232769926E+02 0.  0.
        254    2    1    2    0    0 -0.51854267371E+03  0.97859398304E+03  0.14095871703E+04  0.20055826032E+04  0.89938473387E+03 0.  0.
         23    2    4    4    0    0  0.19768924092E+02 -0.14686169649E+03  0.17208729427E+03  0.24614319587E+03  0.94938231329E+02 0.  0.
         23    2    4    4    0    0 -0.53831159780E+03  0.11254556795E+04  0.12374998760E+04  0.17594394073E+04  0.88267899063E+02 0.  0.
          4    1    3    3  502    0  0.89337094372E+02 -0.16878953964E+03 -0.51984578373E+02  0.19792276653E+03  0.00000000000E+00 0. -1.
         -3    1    3    3    0  502  0.42920557934E+03 -0.80980444340E+03 -0.43465164840E+03  0.10143582806E+04  0.00000000000E+00 0.  1.
         13    1    5    5    0    0  0.11984461547E+02 -0.66092852483E+02  0.14632945864E+03  0.16100994669E+03  0.00000000000E+00 0.  1.
        -13    1    5    5    0    0  0.77844625449E+01 -0.80768844006E+02  0.25757835633E+02  0.85133249179E+02  0.00000000000E+00 0. -1.
          1    1    6    6  503    0 -0.16714390558E+03  0.35671900452E+03  0.44945093356E+03  0.59765514726E+03  0.00000000000E+00 0. -1.
         -1    1    6    6    0  503 -0.37116769222E+03  0.76873667501E+03  0.78804894244E+03  0.11617842601E+04  0.00000000000E+00 0.  1.
<mgrwt>
<rscale>  0 0.30826625E+04</rscale>
<asrwt>0</asrwt>
<pdfrwt beam="1">  1        2 0.31852420E+00 0.30826625E+04</pdfrwt>
<pdfrwt beam="2">  1       -1 0.17653175E+00 0.30826625E+04</pdfrwt>
<totfact> 0.13012741E+00</totfact>
</mgrwt>
</event>
<event>
12    7  0.2426980E-007  0.1488725E+04  0.7818608E-02  0.8891985E-01
          2   -1    0    0  501    0  0.00000000000E+00  0.00000000000E+00  0.27058462882E+03  0.27058462882E+03  0.00000000000E+00 0. -1.
         -1   -1    0    0    0  501 -0.00000000000E+00 -0.00000000000E+00 -0.20476982276E+04  0.20476982276E+04  0.00000000000E+00 0.  1.
         24    2    1    2    0    0  0.23228521328E+02  0.10822458985E+02 -0.12933894337E+04  0.12962337813E+04  0.81909088777E+02 0.  0.
        254    2    1    2    0    0 -0.23228521328E+02 -0.10822458985E+02 -0.48372416511E+03  0.10220490751E+04  0.89996586281E+03 0.  0.
         23    2    4    4    0    0  0.16995385900E+03  0.36237135050E+03 -0.54170470394E+02  0.41431353403E+03  0.92325266133E+02 0.  0.
         23    2    4    4    0    0 -0.19318238033E+03 -0.37319380949E+03 -0.42955369472E+03  0.60773554109E+03  0.90736209695E+02 0.  0.
          4    1    3    3  502    0  0.40679780998E+02 -0.19191327976E+02 -0.47974413171E+03  0.48184809179E+03  0.00000000000E+00 0. -1.
         -3    1    3    3    0  502 -0.17451259670E+02  0.30013786961E+02 -0.81364530200E+03  0.81438568955E+03  0.00000000000E+00 0.  1.
         13    1    5    5    0    0  0.15959495256E+03  0.35501337137E+03 -0.68439118974E+02  0.39520748442E+03  0.00000000000E+00 0.  1.
        -13    1    5    5    0    0  0.10358906442E+02  0.73579791302E+01  0.14268648580E+02  0.19106049614E+02  0.00000000000E+00 0. -1.
          2    1    6    6  503    0 -0.37432774244E+02 -0.34392214584E+02 -0.90249869348E+02  0.10358125279E+03  0.00000000000E+00 0. -1.
         -2    1    6    6    0  503 -0.15574960609E+03 -0.33880159490E+03 -0.33930382537E+03  0.50415428830E+03  0.00000000000E+00 0.  1.
<mgrwt>
<rscale>  0 0.14887252E+04</rscale>
<asrwt>0</asrwt>
<pdfrwt beam="1">  1        2 0.41628405E-01 0.14887252E+04</pdfrwt>
<pdfrwt beam="2">  1       -1 0.31503049E+00 0.14887252E+04</pdfrwt>
<totfact> 0.36109641E+00</totfact>
</mgrwt>
</event>
<event>
12    7  0.2426980E-007  0.1292525E+04  0.7818608E-02  0.9035514E-01
         -1   -1    0    0    0  501 -0.00000000000E+00  0.00000000000E+00  0.37323109741E+03  0.37323109741E+03  0.00000000000E+00 0.  1.
          2   -1    0    0  501    0  0.00000000000E+00 -0.00000000000E+00 -0.11190257887E+04  0.11190257887E+04  0.00000000000E+00 0. -1.
         24    2    1    2    0    0  0.49592062385E+02  0.22354318668E+03 -0.47596756034E+03  0.53427341426E+03  0.80448951058E+02 0.  0.
        254    2    1    2    0    0 -0.49592062385E+02 -0.22354318668E+03 -0.26982713099E+03  0.95798347189E+03  0.89022172678E+03 0.  0.
         23    2    4    4    0    0 -0.34698295327E+03 -0.39968900767E+03 -0.58248072927E+02  0.54019136441E+03  0.90914242432E+02 0.  0.
         23    2    4    4    0    0  0.29739089089E+03  0.17614582098E+03 -0.21157905806E+03  0.41779210748E+03  0.10156699772E+03 0.  0.
          4    1    3    3  502    0  0.38983471609E+02  0.10870642924E+03 -0.32071596431E+03  0.34087465229E+03  0.00000000000E+00 0. -1.
         -3    1    3    3    0  502  0.10608590776E+02  0.11483675745E+03 -0.15525159604E+03  0.19339876197E+03  0.00000000000E+00 0.  1.
         13    1    5    5    0    0 -0.25930097281E+03 -0.33571563648E+03 -0.73724105086E+02  0.43055455723E+03  0.00000000000E+00 0.  1.
        -13    1    5    5    0    0 -0.87681980465E+02 -0.63973371183E+02  0.15476032159E+02  0.10963680719E+03  0.00000000000E+00 0. -1.
          1    1    6    6  503    0  0.22170809017E+03  0.75810022233E+02 -0.14532475343E+03  0.27571891606E+03  0.00000000000E+00 0. -1.
         -1    1    6    6    0  503  0.75682800718E+02  0.10033579875E+03 -0.66254304637E+02  0.14207319141E+03  0.00000000000E+00 0.  1.
<mgrwt>
<rscale>  0 0.12925250E+04</rscale>
<asrwt>0</asrwt>
<pdfrwt beam="1">  1        2 0.17215781E+00 0.12925250E+04</pdfrwt>
<pdfrwt beam="2">  1       -1 0.57420169E-01 0.12925250E+04</pdfrwt>
<totfact> 0.72840450E+01</totfact>
</mgrwt>
</event>
<event>
12    7  0.2426980E-007  0.3319665E+04  0.7818608E-02  0.8157910E-01
          2   -1    0    0  501    0  0.00000000000E+00  0.00000000000E+00  0.18621654137E+04  0.18621654137E+04  0.00000000000E+00 0. -1.
         -1   -1    0    0    0  501 -0.00000000000E+00 -0.00000000000E+00 -0.14794836318E+04  0.14794836318E+04  0.00000000000E+00 0.  1.
         24    2    1    2    0    0  0.69313741369E+03 -0.72218324260E+03 -0.99408259011E+03  0.14130135872E+04  0.80119233524E+02 0.  0.
        254    2    1    2    0    0 -0.69313741369E+03  0.72218324260E+03  0.13767643721E+04  0.19286354583E+04  0.90673396564E+03 0.  0.
         23    2    4    4    0    0 -0.22020968570E+03  0.46453499200E+03  0.12676508927E+04  0.13715252866E+04  0.99286260714E+02 0.  0.
         23    2    4    4    0    0 -0.47292772799E+03  0.25764825060E+03  0.10911347941E+03  0.55711017167E+03  0.91775459983E+02 0.  0.
          4    1    3    3  502    0  0.42218406774E+03 -0.38984400789E+03 -0.54209273527E+03  0.78998877914E+03  0.00000000000E+00 0. -1.
         -3    1    3    3    0  502  0.27095334595E+03 -0.33233923471E+03 -0.45198985484E+03  0.62302480809E+03  0.00000000000E+00 0.  1.
         13    1    5    5    0    0 -0.41423649839E+01  0.11771631893E+02  0.61132762037E+01  0.13896137989E+02  0.00000000000E+00 0.  1.
        -13    1    5    5    0    0 -0.21606732072E+03  0.45276336011E+03  0.12615376165E+04  0.13576291486E+04  0.00000000000E+00 0. -1.
          3    1    6    6  503    0 -0.45608884852E+03  0.23543616367E+03  0.85015866024E+02  0.52026428128E+03  0.00000000000E+00 0. -1.
         -3    1    6    6    0  503 -0.16838879470E+02  0.22212086932E+02  0.24097613382E+02  0.36845890387E+02  0.00000000000E+00 0.  1.
<mgrwt>
<rscale>  0 0.33196646E+04</rscale>
<asrwt>0</asrwt>
<pdfrwt beam="1">  1        2 0.28648699E+00 0.33196646E+04</pdfrwt>
<pdfrwt beam="2">  1       -1 0.22761287E+00 0.33196646E+04</pdfrwt>
<totfact> 0.74027584E-01</totfact>
</mgrwt>
</event>
<event>
12    7  0.2426980E-007  0.2577592E+04  0.7818608E-02  0.8375853E-01
         -1   -1    0    0    0  501 -0.00000000000E+00  0.00000000000E+00  0.64766645753E+03  0.64766645753E+03  0.00000000000E+00 0.  1.
          2   -1    0    0  501    0  0.00000000000E+00 -0.00000000000E+00 -0.25645837123E+04  0.25645837123E+04  0.00000000000E+00 0. -1.
         24    2    1    2    0    0 -0.97335801294E+03 -0.56008011963E+03 -0.68194722030E+03  0.13162858911E+04  0.80255678896E+02 0.  0.
        254    2    1    2    0    0  0.97335801294E+03  0.56008011963E+03 -0.12349700345E+04  0.18959642788E+04  0.89911845635E+03 0.  0.
         23    2    4    4    0    0  0.90312105837E+03  0.41033420583E+03 -0.13477435537E+04  0.16759565619E+04  0.91738238751E+02 0.  0.
         23    2    4    4    0    0  0.70236954576E+02  0.14974591380E+03  0.11277351915E+03  0.22000771688E+03  0.91260398734E+02 0.  0.
          2    1    3    3  502    0 -0.56619488399E+03 -0.28169071325E+03 -0.39614198570E+03  0.74622702807E+03  0.00000000000E+00 0. -1.
         -1    1    3    3    0  502 -0.40716312896E+03 -0.27838940637E+03 -0.28580523460E+03  0.57005886300E+03  0.00000000000E+00 0.  1.
         13    1    5    5    0    0  0.31258100137E+03  0.16984964700E+03 -0.42323828521E+03  0.55288916708E+03  0.00000000000E+00 0. -1.
        -13    1    5    5    0    0  0.59054005700E+03  0.24048455882E+03 -0.92450526844E+03  0.11230673948E+04  0.00000000000E+00 0.  1.
          1    1    6    6  503    0  0.43224184932E+01  0.11202027340E+03  0.56866492508E+02  0.12570211981E+03  0.00000000000E+00 0. -1.
         -1    1    6    6    0  503  0.65914536083E+02  0.37725640397E+02  0.55907026641E+02  0.94305597068E+02  0.00000000000E+00 0.  1.
<mgrwt>
<rscale>  0 0.25775918E+04</rscale>
<asrwt>0</asrwt>
<pdfrwt beam="1">  1        2 0.39455135E+00 0.25775918E+04</pdfrwt>
<pdfrwt beam="2">  1       -1 0.99640992E-01 0.25775918E+04</pdfrwt>
<totfact> 0.30909462E+00</totfact>
</mgrwt>
</event>
<event>
12    7  0.2426980E-007  0.2406368E+04  0.7818608E-02  0.8437123E-01
          2   -1    0    0  501    0  0.00000000000E+00  0.00000000000E+00  0.12997120058E+04  0.12997120058E+04  0.00000000000E+00 0. -1.
         -1   -1    0    0    0  501 -0.00000000000E+00 -0.00000000000E+00 -0.11138247419E+04  0.11138247419E+04  0.00000000000E+00 0.  1.
         24    2    1    2    0    0 -0.77014982053E+03 -0.51195832025E+03 -0.38405221280E+03  0.10045022385E+04  0.79350975729E+02 0.  0.
        254    2    1    2    0    0  0.77014982053E+03  0.51195832025E+03  0.56993947669E+03  0.14090345092E+04  0.89739354431E+03 0.  0.
         23    2    4    4    0    0  0.79000870569E+03  0.50748628381E+03  0.12163962438E+03  0.95129395132E+03  0.92238279817E+02 0.  0.
         23    2    4    4    0    0 -0.19858885166E+02  0.44720364397E+01  0.44829985231E+03  0.45774055791E+03  0.90217993487E+02 0.  0.
          2    1    3    3  502    0 -0.71898575787E+03 -0.48763645149E+03 -0.34071288959E+03  0.93317474354E+03  0.00000000000E+00 0. -1.
         -1    1    3    3    0  502 -0.51164062652E+02 -0.24321868764E+02 -0.43339323211E+02  0.71327495004E+02  0.00000000000E+00 0.  1.
         13    1    5    5    0    0  0.70587825654E+03  0.42707870263E+03  0.85520773784E+02  0.82944206189E+03  0.00000000000E+00 0.  1.
        -13    1    5    5    0    0  0.84130449153E+02  0.80407581189E+02  0.36118850599E+02  0.12185188942E+03  0.00000000000E+00 0. -1.
          3    1    6    6  503    0 -0.70455521942E+01 -0.28482573267E+01 -0.14601709729E+01  0.77385059792E+01  0.00000000000E+00 0. -1.
         -3    1    6    6    0  503 -0.12813332972E+02  0.73202937664E+01  0.44976002328E+03  0.45000205193E+03  0.00000000000E+00 0.  1.
<mgrwt>
<rscale>  0 0.24063677E+04</rscale>
<asrwt>0</asrwt>
<pdfrwt beam="1">  1        2 0.19995569E+00 0.24063677E+04</pdfrwt>
<pdfrwt beam="2">  1       -1 0.17135765E+00 0.24063677E+04</pdfrwt>
<totfact> 0.40733375E+00</totfact>
</mgrwt>
</event>
<event>
12    7  0.2426980E-007  0.1414619E+04  0.7818608E-02  0.8943304E-01
         -1   -1    0    0    0  501 -0.00000000000E+00  0.00000000000E+00  0.34178653193E+03  0.34178653193E+03  0.00000000000E+00 0.  1.
          2   -1    0    0  501    0  0.00000000000E+00 -0.00000000000E+00 -0.14637392904E+04  0.14637392904E+04  0.00000000000E+00 0. -1.
         24    2    1    2    0    0  0.67626240431E+01  0.38617997351E+03 -0.14016546317E+03  0.41855712332E+03  0.79768436093E+02 0.  0.
        254    2    1    2    0    0 -0.67626240431E+01 -0.38617997351E+03 -0.98178729526E+03  0.13869686990E+04  0.90033059138E+03 0.  0.
         23    2    4    4    0    0 -0.34179880153E+03 -0.45628381783E+02 -0.85005964686E+02  0.36661812149E+03  0.90964075443E+02 0.  0.
         23    2    4    4    0    0  0.33503617749E+03 -0.34055159172E+03 -0.89678133058E+03  0.10203505775E+04  0.93133878055E+02 0.  0.
          2    1    3    3  502    0  0.40210290079E+02  0.13438698236E+03 -0.54647502659E+02  0.15054261192E+03  0.00000000000E+00 0. -1.
         -1    1    3    3    0  502 -0.33447666036E+02  0.25179299114E+03 -0.85517960510E+02  0.26801451140E+03  0.00000000000E+00 0.  1.
         13    1    5    5    0    0 -0.30577544477E+03 -0.15318712770E+02 -0.90414042980E+02  0.31923030050E+03  0.00000000000E+00 0.  1.
        -13    1    5    5    0    0 -0.36023356759E+02 -0.30309669013E+02  0.54080782940E+01  0.47387820995E+02  0.00000000000E+00 0. -1.
          2    1    6    6  503    0  0.28119456205E+03 -0.27733650895E+03 -0.80444933604E+03  0.89617222406E+03  0.00000000000E+00 0. -1.
         -2    1    6    6    0  503  0.53841615435E+02 -0.63215082772E+02 -0.92331994540E+02  0.12417835342E+03  0.00000000000E+00 0.  1.
<mgrwt>
<rscale>  0 0.14146185E+04</rscale>
<asrwt>0</asrwt>
<pdfrwt beam="1">  1        2 0.22519066E+00 0.14146185E+04</pdfrwt>
<pdfrwt beam="2">  1       -1 0.52582543E-01 0.14146185E+04</pdfrwt>
<totfact> 0.53735970E+01</totfact>
</mgrwt>
</event>
<event>
12    7  0.2426980E-007  0.1460189E+04  0.7818608E-02  0.8911367E-01
          2   -1    0    0  501    0  0.00000000000E+00  0.00000000000E+00  0.18241667403E+04  0.18241667403E+04  0.00000000000E+00 0. -1.
         -1   -1    0    0    0  501 -0.00000000000E+00 -0.00000000000E+00 -0.29220921467E+03  0.29220921467E+03  0.00000000000E+00 0.  1.
         24    2    1    2    0    0  0.41441147544E+03 -0.15254540618E+03  0.50108444209E+03  0.67263381205E+03  0.79647065810E+02 0.  0.
        254    2    1    2    0    0 -0.41441147544E+03  0.15254540618E+03  0.10308730836E+04  0.14437421429E+04  0.90922224400E+03 0.  0.
         23    2    4    4    0    0 -0.86778669610E+02  0.44468810567E+03  0.20864195725E+03  0.50737556004E+03  0.92846345007E+02 0.  0.
         23    2    4    4    0    0 -0.32763280583E+03 -0.29214269949E+03  0.82223112630E+03  0.93636658290E+03  0.89597657273E+02 0.  0.
          2    1    3    3  502    0  0.37390457659E+03 -0.11249344317E+03  0.41912183143E+03  0.57281979429E+03  0.00000000000E+00 0. -1.
         -1    1    3    3    0  502  0.40506898844E+02 -0.40051963014E+02  0.81962610661E+02  0.99814017761E+02  0.00000000000E+00 0.  1.
         13    1    5    5    0    0 -0.65607315383E+00  0.86333643838E+02  0.77987104445E+02  0.11634395966E+03  0.00000000000E+00 0.  1.
        -13    1    5    5    0    0 -0.86122596456E+02  0.35835446183E+03  0.13065485281E+03  0.39103160038E+03  0.00000000000E+00 0. -1.
          2    1    6    6  503    0 -0.13073213816E+02 -0.15930826305E+02  0.95423100141E+02  0.97623092488E+02  0.00000000000E+00 0. -1.
         -2    1    6    6    0  503 -0.31455959201E+03 -0.27621187318E+03  0.72680802616E+03  0.83874349041E+03  0.00000000000E+00 0.  1.
<mgrwt>
<rscale>  0 0.14601895E+04</rscale>
<asrwt>0</asrwt>
<pdfrwt beam="1">  1        2 0.28064103E+00 0.14601895E+04</pdfrwt>
<pdfrwt beam="2">  1       -1 0.44955265E-01 0.14601895E+04</pdfrwt>
<totfact> 0.45319629E+01</totfact>
</mgrwt>
</event>
<event>
12    7  0.2426980E-007  0.3583491E+04  0.7818608E-02  0.8094284E-01
          2   -1    0    0  501    0  0.00000000000E+00  0.00000000000E+00  0.19909045417E+04  0.19909045417E+04  0.00000000000E+00 0. -1.
         -1   -1    0    0    0  501 -0.00000000000E+00 -0.00000000000E+00 -0.16125096327E+04  0.16125096327E+04  0.00000000000E+00 0.  1.
         24    2    1    2    0    0 -0.15901705447E+04  0.51890503273E+03  0.53664160640E+02  0.16755030270E+04  0.80782158285E+02 0.  0.
        254    2    1    2    0    0  0.15901705447E+04 -0.51890503273E+03  0.32473074834E+03  0.19279111473E+04  0.90193488607E+03 0.  0.
         23    2    4    4    0    0  0.90073247439E+03  0.11851761708E+03 -0.45892689417E+02  0.91412103828E+03  0.90253629897E+02 0.  0.
         23    2    4    4    0    0  0.68943807033E+03 -0.63742264981E+03  0.37062343776E+03  0.10137901090E+04  0.93681189340E+02 0.  0.
          4    1    3    3  502    0 -0.36793542571E+03  0.15307471149E+03 -0.13018247550E+01  0.39850977345E+03  0.00000000000E+00 0. -1.
         -3    1    3    3    0  502 -0.12222351190E+04  0.36583032124E+03  0.54965985395E+02  0.12769932536E+04  0.00000000000E+00 0.  1.
         13    1    5    5    0    0  0.17558358298E+03 -0.66626573371E+01 -0.28754283885E+02  0.17804716919E+03  0.00000000000E+00 0. -1.
        -13    1    5    5    0    0  0.72514889141E+03  0.12518027442E+03 -0.17138405533E+02  0.73607386909E+03  0.00000000000E+00 0.  1.
          3    1    6    6  503    0  0.27336550241E+02 -0.25887925514E+02 -0.37272209131E+01  0.37833369427E+02  0.00000000000E+00 0. -1.
         -3    1    6    6    0  503  0.66210152009E+03 -0.61153472429E+03  0.37435065867E+03  0.97595673960E+03  0.00000000000E+00 0.  1.
<mgrwt>
<rscale>  0 0.35834915E+04</rscale>
<asrwt>0</asrwt>
<pdfrwt beam="1">  1        2 0.30629301E+00 0.35834915E+04</pdfrwt>
<pdfrwt beam="2">  1       -1 0.24807841E+00 0.35834915E+04</pdfrwt>
<totfact> 0.45036768E-01</totfact>
</mgrwt>
</event>
<event>
12    7  0.2426980E-007  0.3158122E+04  0.7818608E-02  0.8199965E-01
          2   -1    0    0  501    0  0.00000000000E+00  0.00000000000E+00  0.81733874011E+03  0.81733874011E+03  0.00000000000E+00 0. -1.
         -1   -1    0    0    0  501 -0.00000000000E+00 -0.00000000000E+00 -0.30506739195E+04  0.30506739195E+04  0.00000000000E+00 0.  1.
         24    2    1    2    0    0  0.24759090361E+00  0.12185333009E+04 -0.19867156181E+04  0.23319717824E+04  0.78930221564E+02 0.  0.
        254    2    1    2    0    0 -0.24759090361E+00 -0.12185333009E+04 -0.24661956124E+03  0.15360408772E+04  0.90209583835E+03 0.  0.
         23    2    4    4    0    0  0.41550341390E+03 -0.53702811130E+03  0.31512708976E+02  0.68569355915E+03  0.90223760360E+02 0.  0.
         23    2    4    4    0    0 -0.41575100481E+03 -0.68150518963E+03 -0.27813227021E+03  0.85034731802E+03  0.91841058589E+02 0.  0.
          2    1    3    3  502    0 -0.23944812130E+02  0.24082324630E+03 -0.35625900878E+03  0.43068511853E+03  0.00000000000E+00 0. -1.
         -3    1    3    3    0  502  0.24192403034E+02  0.97771005463E+03 -0.16304566093E+04  0.19012866639E+04  0.00000000000E+00 0.  1.
         13    1    5    5    0    0  0.35906978650E+03 -0.40729707223E+03  0.35805443565E+02  0.54415443250E+03  0.00000000000E+00 0. -1.
        -13    1    5    5    0    0  0.56433627407E+02 -0.12973103908E+03 -0.42927345897E+01  0.14153912665E+03  0.00000000000E+00 0.  1.
          1    1    6    6  503    0 -0.21349288298E+03 -0.42704970541E+03 -0.18709737716E+03  0.51279244389E+03  0.00000000000E+00 0. -1.
         -1    1    6    6    0  503 -0.20225812183E+03 -0.25445548422E+03 -0.91034893053E+02  0.33755487413E+03  0.00000000000E+00 0.  1.
<mgrwt>
<rscale>  0 0.31581222E+04</rscale>
<asrwt>0</asrwt>
<pdfrwt beam="1">  1        2 0.12574442E+00 0.31581222E+04</pdfrwt>
<pdfrwt beam="2">  1       -1 0.46933446E+00 0.31581222E+04</pdfrwt>
<totfact> 0.76764679E-02</totfact>
</mgrwt>
</event>
<event>
12    7  0.2426980E-007  0.1890902E+04  0.7818608E-02  0.8659398E-01
         -1   -1    0    0    0  501 -0.00000000000E+00  0.00000000000E+00  0.49274681071E+03  0.49274681071E+03  0.00000000000E+00 0.  1.
          2   -1    0    0  501    0  0.00000000000E+00 -0.00000000000E+00 -0.18140717341E+04  0.18140717341E+04  0.00000000000E+00 0. -1.
         24    2    1    2    0    0  0.66154788463E+03 -0.18985379417E+03 -0.80399596842E+03  0.10615090274E+04  0.81864712393E+02 0.  0.
        254    2    1    2    0    0 -0.66154788463E+03  0.18985379417E+03 -0.51732895497E+03  0.12453095174E+04  0.89970910840E+03 0.  0.
         23    2    4    4    0    0 -0.97396641675E+02  0.70183197255E+02  0.24313888646E+03  0.28655795006E+03  0.92666896178E+02 0.  0.
         23    2    4    4    0    0 -0.56415124295E+03  0.11967059692E+03 -0.76046784142E+03  0.95875156737E+03  0.91134808938E+02 0.  0.
          4    1    3    3  502    0  0.25796027111E+03 -0.10968225189E+03 -0.35821263881E+03  0.45485161586E+03  0.00000000000E+00 0. -1.
         -3    1    3    3    0  502  0.40358761352E+03 -0.80171542285E+02 -0.44578332962E+03  0.60665741151E+03  0.00000000000E+00 0.  1.
         13    1    5    5    0    0 -0.10475946469E+02  0.23875805350E+02  0.14570477246E+03  0.14801918880E+03  0.00000000000E+00 0. -1.
        -13    1    5    5    0    0 -0.86920695206E+02  0.46307391905E+02  0.97434113994E+02  0.13853876125E+03  0.00000000000E+00 0.  1.
          1    1    6    6  503    0 -0.42280757822E+03  0.12335073980E+03 -0.53995280167E+03  0.69680031662E+03  0.00000000000E+00 0. -1.
         -1    1    6    6    0  503 -0.14134366474E+03 -0.36801428816E+01 -0.22051503975E+03  0.26195125075E+03  0.00000000000E+00 0.  1.
<mgrwt>
<rscale>  0 0.18909025E+04</rscale>
<asrwt>0</asrwt>
<pdfrwt beam="1">  1        2 0.27908795E+00 0.18909025E+04</pdfrwt>
<pdfrwt beam="2">  1       -1 0.75807203E-01 0.18909025E+04</pdfrwt>
<totfact> 0.15813682E+01</totfact>
</mgrwt>
</event>
<event>
12    7  0.2426980E-007  0.1424485E+04  0.7818608E-02  0.8936284E-01
          2   -1    0    0  501    0  0.00000000000E+00  0.00000000000E+00  0.41471288195E+04  0.41471288195E+04  0.00000000000E+00 0. -1.
         -1   -1    0    0    0  501 -0.00000000000E+00 -0.00000000000E+00 -0.12232295843E+03  0.12232295843E+03  0.00000000000E+00 0.  1.
         24    2    1    2    0    0  0.29646857478E+03 -0.26069580647E+03  0.77891088683E+03  0.87683485264E+03  0.79254462561E+02 0.  0.
        254    2    1    2    0    0 -0.29646857478E+03  0.26069580647E+03  0.32458949742E+04  0.33926169253E+04  0.90452169608E+03 0.  0.
         23    2    4    4    0    0  0.18412091085E+03 -0.20315095502E+03  0.13224342407E+04  0.13544856068E+04  0.10309276234E+03 0.  0.
         23    2    4    4    0    0 -0.48058948563E+03  0.46384676148E+03  0.19234607335E+04  0.20381313185E+04  0.90321681965E+02 0.  0.
          4    1    3    3  502    0  0.27636980046E+03 -0.24834651228E+03  0.76215115247E+03  0.84789777448E+03  0.00000000000E+00 0. -1.
         -3    1    3    3    0  502  0.20098774325E+02 -0.12349294190E+02  0.16759734366E+02  0.28937078159E+02  0.00000000000E+00 0.  1.
         13    1    5    5    0    0  0.77229741006E+02 -0.14722383859E+03  0.89705842346E+03  0.91233387893E+03  0.00000000000E+00 0.  1.
        -13    1    5    5    0    0  0.10689116984E+03 -0.55927116421E+02  0.42537581727E+03  0.44215172787E+03  0.00000000000E+00 0. -1.
          1    1    6    6  503    0 -0.31027263378E+03  0.23841138142E+03  0.10942938886E+04  0.11621481010E+04  0.00000000000E+00 0. -1.
         -1    1    6    6    0  503 -0.17031685185E+03  0.22543538006E+03  0.82916684490E+03  0.87598321747E+03  0.00000000000E+00 0.  1.
<mgrwt>
<rscale>  0 0.14244846E+04</rscale>
<asrwt>0</asrwt>
<pdfrwt beam="1">  1        2 0.63801971E+00 0.14244846E+04</pdfrwt>
<pdfrwt beam="2">  1       -1 0.18818920E-01 0.14244846E+04</pdfrwt>
<totfact> 0.66707808E+00</totfact>
</mgrwt>
</event>
<event>
12    7  0.2426980E-007  0.1328477E+04  0.7818608E-02  0.9007282E-01
          2   -1    0    0  501    0  0.00000000000E+00  0.00000000000E+00  0.10644658058E+04  0.10644658058E+04  0.00000000000E+00 0. -1.
         -1   -1    0    0    0  501 -0.00000000000E+00 -0.00000000000E+00 -0.41449237436E+03  0.41449237436E+03  0.00000000000E+00 0.  1.
         24    2    1    2    0    0  0.44140790098E+02 -0.31188067209E+03  0.35198568880E+03  0.47937507958E+03  0.81783732072E+02 0.  0.
        254    2    1    2    0    0 -0.44140790098E+02  0.31188067209E+03  0.29798774263E+03  0.99958310057E+03  0.90063961561E+03 0.  0.
         23    2    4    4    0    0  0.33903280373E+03  0.38108004586E+03  0.30176307895E+03  0.59972645324E+03  0.91900051935E+02 0.  0.
         23    2    4    4    0    0 -0.38317359383E+03 -0.69199373774E+02 -0.37753363235E+01  0.39985664732E+03  0.90887451872E+02 0.  0.
          4    1    3    3  502    0  0.22284207663E+02 -0.21791652299E+03  0.29463450146E+03  0.36714259676E+03  0.00000000000E+00 0. -1.
         -3    1    3    3    0  502  0.21856582435E+02 -0.93964149097E+02  0.57351187337E+02  0.11223248282E+03  0.00000000000E+00 0.  1.
         13    1    5    5    0    0  0.16256341485E+03  0.15553366026E+03  0.84770643636E+02  0.24042388681E+03  0.00000000000E+00 0.  1.
        -13    1    5    5    0    0  0.17646938887E+03  0.22554638559E+03  0.21699243532E+03  0.35930256644E+03  0.00000000000E+00 0. -1.
          1    1    6    6  503    0 -0.12337850944E+03 -0.28960624071E+02 -0.43478463718E+02  0.13398265241E+03  0.00000000000E+00 0. -1.
         -1    1    6    6    0  503 -0.25979508438E+03 -0.40238749703E+02  0.39703127395E+02  0.26587399492E+03  0.00000000000E+00 0.  1.
<mgrwt>
<rscale>  0 0.13284773E+04</rscale>
<asrwt>0</asrwt>
<pdfrwt beam="1">  1        2 0.16376397E+00 0.13284773E+04</pdfrwt>
<pdfrwt beam="2">  1       -1 0.63768058E-01 0.13284773E+04</pdfrwt>
<totfact> 0.63796513E+01</totfact>
</mgrwt>
</event>
<event>
12    7  0.2426980E-007  0.2063969E+04  0.7818608E-02  0.8577284E-01
          2   -1    0    0  501    0  0.00000000000E+00  0.00000000000E+00  0.13569418537E+04  0.13569418537E+04  0.00000000000E+00 0. -1.
         -1   -1    0    0    0  501 -0.00000000000E+00 -0.00000000000E+00 -0.78484706716E+03  0.78484706716E+03  0.00000000000E+00 0.  1.
         24    2    1    2    0    0  0.57174507043E+03 -0.11701723248E+03 -0.38528079448E+03  0.70386112201E+03  0.79960804350E+02 0.  0.
        254    2    1    2    0    0 -0.57174507043E+03  0.11701723248E+03  0.95737558103E+03  0.14379277989E+04  0.90026823410E+03 0.  0.
         23    2    4    4    0    0 -0.78254605343E+02  0.98826220905E+02  0.92132980868E+03  0.93445356947E+03  0.92002456070E+02 0.  0.
         23    2    4    4    0    0 -0.49349046508E+03  0.18191011580E+02  0.36045772342E+02  0.50347422939E+03  0.91231847106E+02 0.  0.
          2    1    3    3  502    0  0.15551842515E+03 -0.32358210790E+02 -0.63862023933E+02  0.17120570220E+03  0.00000000000E+00 0. -1.
         -1    1    3    3    0  502  0.41622664528E+03 -0.84659021694E+02 -0.32141877055E+03  0.53265541981E+03  0.00000000000E+00 0.  1.
         13    1    5    5    0    0  0.10917159356E+02  0.30604003418E+02  0.92233291942E+02  0.97789414233E+02  0.00000000000E+00 0.  1.
        -13    1    5    5    0    0 -0.89171764699E+02  0.68222217487E+02  0.82909651674E+03  0.83666415523E+03  0.00000000000E+00 0. -1.
          2    1    6    6  503    0 -0.46206940823E+03  0.37239499736E+02  0.44721543480E+02  0.46571980290E+03  0.00000000000E+00 0.  1.
         -2    1    6    6    0  503 -0.31421056857E+02 -0.19048488156E+02 -0.86757711378E+01  0.37754426493E+02  0.00000000000E+00 0. -1.
<mgrwt>
<rscale>  0 0.20639688E+04</rscale>
<asrwt>0</asrwt>
<pdfrwt beam="1">  1        2 0.20876028E+00 0.20639688E+04</pdfrwt>
<pdfrwt beam="2">  1       -1 0.12074570E+00 0.20639688E+04</pdfrwt>
<totfact> 0.98400363E+00</totfact>
</mgrwt>
</event>
<event>
12    7  0.2426980E-007  0.2660119E+04  0.7818608E-02  0.8348062E-01
          2   -1    0    0  501    0  0.00000000000E+00  0.00000000000E+00  0.21852861267E+04  0.21852861267E+04  0.00000000000E+00 0. -1.
         -1   -1    0    0    0  501 -0.00000000000E+00 -0.00000000000E+00 -0.80953189421E+03  0.80953189421E+03  0.00000000000E+00 0.  1.
         24    2    1    2    0    0 -0.10480180918E+04  0.44711450056E+03  0.93921764887E+03  0.14788082555E+04  0.80565297884E+02 0.  0.
        254    2    1    2    0    0  0.10480180918E+04 -0.44711450056E+03  0.43653658362E+03  0.15160097654E+04  0.89970446410E+03 0.  0.
         23    2    4    4    0    0  0.29709457587E+03 -0.45303740107E+03  0.51784269681E+03  0.75541296930E+03  0.94760866225E+02 0.  0.
         23    2    4    4    0    0  0.75092351592E+03  0.59229005112E+01 -0.81306113193E+02  0.76059679613E+03  0.89306185297E+02 0.  0.
          2    1    3    3  502    0 -0.13721882808E+02 -0.25673498773E+01  0.71526830352E+01  0.15685733257E+02  0.00000000000E+00 0. -1.
         -1    1    3    3    0  502 -0.10342962090E+04  0.44968185044E+03  0.93206496583E+03  0.14631225222E+04  0.00000000000E+00 0.  1.
         13    1    5    5    0    0  0.11656289841E+03 -0.12068542209E+03  0.20250269188E+03  0.26298140735E+03  0.00000000000E+00 0. -1.
        -13    1    5    5    0    0  0.18053167746E+03 -0.33235197899E+03  0.31534000493E+03  0.49243156196E+03  0.00000000000E+00 0.  1.
          4    1    6    6  503    0  0.23657496693E+03 -0.39350684173E+02 -0.20770983236E+02  0.24072312948E+03  0.00000000000E+00 0. -1.
         -4    1    6    6    0  503  0.51434854898E+03  0.45273584684E+02 -0.60535129956E+02  0.51987366665E+03  0.00000000000E+00 0.  1.
<mgrwt>
<rscale>  0 0.26601194E+04</rscale>
<asrwt>0</asrwt>
<pdfrwt beam="1">  1        2 0.33619786E+00 0.26601194E+04</pdfrwt>
<pdfrwt beam="2">  1       -1 0.12454337E+00 0.26601194E+04</pdfrwt>
<totfact> 0.29754098E+00</totfact>
</mgrwt>
</event>
<event>
12    7  0.2426980E-007  0.2492401E+04  0.7818608E-02  0.8405698E-01
         -1   -1    0    0    0  501 -0.00000000000E+00  0.00000000000E+00  0.84574105003E+03  0.84574105003E+03  0.00000000000E+00 0.  1.
          2   -1    0    0  501    0  0.00000000000E+00 -0.00000000000E+00 -0.18362786109E+04  0.18362786109E+04  0.00000000000E+00 0. -1.
         24    2    1    2    0    0 -0.74920153009E+03 -0.35234281798E+03 -0.11811144697E+04  0.14445237339E+04  0.78543192858E+02 0.  0.
        254    2    1    2    0    0  0.74920153009E+03  0.35234281798E+03  0.19057690883E+03  0.12374959271E+04  0.89979343031E+03 0.  0.
         23    2    4    4    0    0  0.40666459419E+03  0.55138458627E+03 -0.15047160525E+03  0.70713897663E+03  0.89458225655E+02 0.  0.
         23    2    4    4    0    0  0.34253693590E+03 -0.19904176829E+03  0.34104851408E+03  0.53035695043E+03  0.89527805314E+02 0.  0.
          2    1    3    3  502    0 -0.60091789988E+03 -0.28693473197E+03 -0.10006069112E+04  0.12019351286E+04  0.00000000000E+00 0. -1.
         -1    1    3    3    0  502 -0.14828363020E+03 -0.65408086005E+02 -0.18050755859E+03  0.24258860527E+03  0.00000000000E+00 0.  1.
         13    1    5    5    0    0  0.22791874118E+03  0.36863129554E+03 -0.11992255130E+03  0.44968589365E+03  0.00000000000E+00 0. -1.
        -13    1    5    5    0    0  0.17874585301E+03  0.18275329073E+03 -0.30549053952E+02  0.25745308298E+03  0.00000000000E+00 0.  1.
          3    1    6    6  503    0  0.29116118051E+03 -0.13929944242E+03  0.30359802650E+03  0.44311502952E+03  0.00000000000E+00 0. -1.
         -3    1    6    6    0  503  0.51375755393E+02 -0.59742325871E+02  0.37450487585E+02  0.87241920904E+02  0.00000000000E+00 0.  1.
<mgrwt>
<rscale>  0 0.24924014E+04</rscale>
<asrwt>0</asrwt>
<pdfrwt beam="1">  1        2 0.28250440E+00 0.24924014E+04</pdfrwt>
<pdfrwt beam="2">  1       -1 0.13011401E+00 0.24924014E+04</pdfrwt>
<totfact> 0.42342372E+00</totfact>
</mgrwt>
</event>
<event>
12    7  0.2426980E-007  0.2902774E+04  0.7818608E-02  0.8272053E-01
          2   -1    0    0  501    0  0.00000000000E+00  0.00000000000E+00  0.49806053666E+04  0.49806053666E+04  0.00000000000E+00 0. -1.
         -1   -1    0    0    0  501 -0.00000000000E+00 -0.00000000000E+00 -0.42294534584E+03  0.42294534584E+03  0.00000000000E+00 0.  1.
         24    2    1    2    0    0 -0.97399150410E+02  0.10839033170E+04  0.34206300339E+04  0.35904700194E+04  0.80200598148E+02 0.  0.
        254    2    1    2    0    0  0.97399150410E+02 -0.10839033170E+04  0.11370299869E+04  0.18130806931E+04  0.90005078381E+03 0.  0.
         23    2    4    4    0    0  0.51971009752E+02 -0.89721278865E+03  0.30303011000E+03  0.95289324178E+03  0.92122248640E+02 0.  0.
         23    2    4    4    0    0  0.45428140658E+02 -0.18669052839E+03  0.83399987688E+03  0.86018745131E+03  0.86310992429E+02 0.  0.
          4    1    3    3  502    0 -0.39800477020E+02  0.18610826357E+03  0.53419335606E+03  0.56708280295E+03  0.00000000000E+00 0. -1.
         -3    1    3    3    0  502 -0.57598673390E+02  0.89779505347E+03  0.28864366779E+04  0.30233872164E+04  0.00000000000E+00 0.  1.
         13    1    5    5    0    0  0.52464674373E+02 -0.23332789667E+03  0.92622943383E+02  0.25646336788E+03  0.00000000000E+00 0. -1.
        -13    1    5    5    0    0 -0.49366462172E+00 -0.66388489198E+03  0.21040716662E+03  0.69642987390E+03  0.00000000000E+00 0.  1.
          3    1    6    6  503    0 -0.62865462520E+01 -0.32007078329E+02  0.30176956088E+03  0.30352733254E+03  0.00000000000E+00 0. -1.
         -3    1    6    6    0  503  0.51714686910E+02 -0.15468345006E+03  0.53223031600E+03  0.55666011877E+03  0.00000000000E+00 0.  1.
<mgrwt>
<rscale>  0 0.29027737E+04</rscale>
<asrwt>0</asrwt>
<pdfrwt beam="1">  1        2 0.76624694E+00 0.29027737E+04</pdfrwt>
<pdfrwt beam="2">  1       -1 0.65068518E-01 0.29027737E+04</pdfrwt>
<totfact> 0.85369876E-02</totfact>
</mgrwt>
</event>
<event>
12    7  0.2426980E-007  0.2418272E+04  0.7818608E-02  0.8432694E-01
         -1   -1    0    0    0  501 -0.00000000000E+00  0.00000000000E+00  0.64761945942E+03  0.64761945942E+03  0.00000000000E+00 0.  1.
          2   -1    0    0  501    0  0.00000000000E+00 -0.00000000000E+00 -0.22575138865E+04  0.22575138865E+04  0.00000000000E+00 0. -1.
         24    2    1    2    0    0 -0.85817303135E+03 -0.36632856807E+03 -0.14324403041E+03  0.94731747910E+03  0.78955572534E+02 0.  0.
        254    2    1    2    0    0  0.85817303135E+03  0.36632856807E+03 -0.14666503967E+04  0.19578158668E+04  0.90073415100E+03 0.  0.
         23    2    4    4    0    0  0.78632884043E+03 -0.11495268684E+03 -0.85856241299E+03  0.11735545164E+04  0.92593847060E+02 0.  0.
         23    2    4    4    0    0  0.71844190924E+02  0.48128125491E+03 -0.60808798368E+03  0.78426135039E+03  0.92204315127E+02 0.  0.
          2    1    3    3  502    0 -0.19569418099E+03 -0.71548890641E+02 -0.63601274753E+02  0.21785448900E+03  0.00000000000E+00 0. -1.
         -3    1    3    3    0  502 -0.66247885036E+03 -0.29477967742E+03 -0.79642755658E+02  0.72946299010E+03  0.00000000000E+00 0.  1.
         13    1    5    5    0    0  0.62383919852E+03 -0.57470806558E+02 -0.69929335365E+03  0.93887668715E+03  0.00000000000E+00 0.  1.
        -13    1    5    5    0    0  0.16248964191E+03 -0.57481880282E+02 -0.15926905935E+03  0.23467782928E+03  0.00000000000E+00 0. -1.
          1    1    6    6  503    0  0.31031527005E+02  0.98590452408E+02 -0.18794682952E+03  0.21449252598E+03  0.00000000000E+00 0. -1.
         -1    1    6    6    0  503  0.40812663918E+02  0.38269080250E+03 -0.42014115416E+03  0.56976882441E+03  0.00000000000E+00 0.  1.
<mgrwt>
<rscale>  0 0.24182720E+04</rscale>
<asrwt>0</asrwt>
<pdfrwt beam="1">  1        2 0.34730982E+00 0.24182720E+04</pdfrwt>
<pdfrwt beam="2">  1       -1 0.99633765E-01 0.24182720E+04</pdfrwt>
<totfact> 0.47042779E+00</totfact>
</mgrwt>
</event>
<event>
12    7  0.2426980E-007  0.2085376E+04  0.7818608E-02  0.8567713E-01
         -3   -1    0    0    0  501 -0.00000000000E+00  0.00000000000E+00  0.55031800912E+03  0.55031800912E+03  0.00000000000E+00 0.  1.
          2   -1    0    0  501    0  0.00000000000E+00 -0.00000000000E+00 -0.19755810983E+04  0.19755810983E+04  0.00000000000E+00 0. -1.
         24    2    1    2    0    0  0.53189083795E+03 -0.44128899087E+03 -0.11721813236E+04  0.13628386096E+04  0.75340451085E+02 0.  0.
        254    2    1    2    0    0 -0.53189083795E+03  0.44128899087E+03 -0.25308176556E+03  0.11630604978E+04  0.90056399242E+03 0.  0.
         23    2    4    4    0    0  0.29526224200E+02  0.52816041839E+03 -0.23584249531E+03  0.58748677700E+03  0.98457123057E+02 0.  0.
         23    2    4    4    0    0 -0.56141706215E+03 -0.86871427519E+02 -0.17239270250E+02  0.57557372077E+03  0.90841361786E+02 0.  0.
          4    1    3    3  502    0  0.48542578505E+03 -0.38291656148E+03 -0.10776272435E+04  0.12423943665E+04  0.00000000000E+00 0. -1.
         -3    1    3    3    0  502  0.46465052893E+02 -0.58372429387E+02 -0.94554080057E+02  0.12044424315E+03  0.00000000000E+00 0.  1.
         13    1    5    5    0    0 -0.35356695891E+02  0.22421018032E+03 -0.10909797338E+03  0.25183857667E+03  0.00000000000E+00 0. -1.
        -13    1    5    5    0    0  0.64882920091E+02  0.30395023807E+03 -0.12674452193E+03  0.33564820032E+03  0.00000000000E+00 0.  1.
          1    1    6    6  503    0 -0.14833414955E+03 -0.18326157344E+02 -0.44528660995E+02  0.15595406252E+03  0.00000000000E+00 0. -1.
         -1    1    6    6    0  503 -0.41308291260E+03 -0.68545270174E+02  0.27289390745E+02  0.41961965825E+03  0.00000000000E+00 0.  1.
<mgrwt>
<rscale>  0 0.20853756E+04</rscale>
<asrwt>0</asrwt>
<pdfrwt beam="1">  1        2 0.30393556E+00 0.20853756E+04</pdfrwt>
<pdfrwt beam="2">  1       -3 0.84664308E-01 0.20853756E+04</pdfrwt>
<totfact> 0.52034287E+00</totfact>
</mgrwt>
</event>
<event>
12    7  0.2426980E-007  0.2238257E+04  0.7818608E-02  0.8502671E-01
          2   -1    0    0  501    0  0.00000000000E+00  0.00000000000E+00  0.11576004056E+04  0.11576004056E+04  0.00000000000E+00 0. -1.
         -1   -1    0    0    0  501 -0.00000000000E+00 -0.00000000000E+00 -0.10819350490E+04  0.10819350490E+04  0.00000000000E+00 0.  1.
         24    2    1    2    0    0  0.92721067670E+02 -0.30213646379E+03  0.91461360713E+03  0.96932578734E+03  0.56487100351E+02 0.  0.
        254    2    1    2    0    0 -0.92721067670E+02  0.30213646379E+03 -0.83894825051E+03  0.12702096672E+04  0.89984153748E+03 0.  0.
         23    2    4    4    0    0 -0.27186025163E+03  0.35046988663E+03 -0.51176889916E+02  0.45576161988E+03  0.91446389990E+02 0.  0.
         23    2    4    4    0    0  0.17913918396E+03 -0.48333422840E+02 -0.78777136060E+03  0.81444804737E+03  0.91186283424E+02 0.  0.
          4    1    3    3  502    0  0.20732492039E+02 -0.15232207153E+03  0.47986848145E+03  0.50389047341E+03  0.00000000000E+00 0. -1.
         -3    1    3    3    0  502  0.71988575631E+02 -0.14981439226E+03  0.43474512568E+03  0.46543531393E+03  0.00000000000E+00 0.  1.
         13    1    5    5    0    0 -0.19578963478E+03  0.22404476259E+03  0.58000088187E+01  0.29759582798E+03  0.00000000000E+00 0. -1.
        -13    1    5    5    0    0 -0.76070616853E+02  0.12642512404E+03 -0.56976898734E+02  0.15816579189E+03  0.00000000000E+00 0.  1.
          1    1    6    6  503    0  0.14937238582E+03  0.42368241418E+00 -0.58708453736E+03  0.60578919036E+03  0.00000000000E+00 0. -1.
         -1    1    6    6    0  503  0.29766798137E+02 -0.48757105254E+02 -0.20068682324E+03  0.20865885701E+03  0.00000000000E+00 0.  1.
<mgrwt>
<rscale>  0 0.22382569E+04</rscale>
<asrwt>0</asrwt>
<pdfrwt beam="1">  1        2 0.17809237E+00 0.22382569E+04</pdfrwt>
<pdfrwt beam="2">  1       -1 0.16645155E+00 0.22382569E+04</pdfrwt>
<totfact> 0.54547997E+00</totfact>
</mgrwt>
</event>
<event>
12    7  0.2426980E-007  0.1982341E+04  0.7818608E-02  0.8614921E-01
          2   -1    0    0  501    0  0.00000000000E+00  0.00000000000E+00  0.15485861117E+04  0.15485861117E+04  0.00000000000E+00 0. -1.
         -1   -1    0    0    0  501 -0.00000000000E+00 -0.00000000000E+00 -0.63439762799E+03  0.63439762799E+03  0.00000000000E+00 0.  1.
         24    2    1    2    0    0  0.74077996281E+03 -0.25347467206E+03  0.30589699075E+03  0.84464930884E+03  0.82795671986E+02 0.  0.
        254    2    1    2    0    0 -0.74077996281E+03  0.25347467206E+03  0.60829149292E+03  0.13383344308E+04  0.89895280502E+03 0.  0.
         23    2    4    4    0    0 -0.63777342054E+03 -0.85205999456E+02  0.70635372530E+03  0.95987542668E+03  0.91707421800E+02 0.  0.
         23    2    4    4    0    0 -0.10300654228E+03  0.33868067151E+03 -0.98062232386E+02  0.37845900413E+03  0.91104727524E+02 0.  0.
          4    1    3    3  502    0  0.26201376590E+03 -0.59357003846E+02  0.76092595496E+02  0.27922132890E+03  0.00000000000E+00 0. -1.
         -3    1    3    3    0  502  0.47876619691E+03 -0.19411766821E+03  0.22980439525E+03  0.56542797994E+03  0.00000000000E+00 0.  1.
         13    1    5    5    0    0 -0.16867563916E+03  0.88064927612E+00  0.13808118104E+03  0.21798775045E+03  0.00000000000E+00 0.  1.
        -13    1    5    5    0    0 -0.46909778138E+03 -0.86086648732E+02  0.56827254426E+03  0.74188767623E+03  0.00000000000E+00 0. -1.
          3    1    6    6  503    0 -0.10013446788E+03  0.34454394601E+03 -0.97947950382E+02  0.37192908379E+03  0.00000000000E+00 0. -1.
         -3    1    6    6    0  503 -0.28720743986E+01 -0.58632744969E+01 -0.11428200455E+00  0.65299203328E+01  0.00000000000E+00 0.  1.
<mgrwt>
<rscale>  0 0.19823414E+04</rscale>
<asrwt>0</asrwt>
<pdfrwt beam="1">  1        2 0.23824402E+00 0.19823414E+04</pdfrwt>
<pdfrwt beam="2">  1       -1 0.97599635E-01 0.19823414E+04</pdfrwt>
<totfact> 0.12726033E+01</totfact>
</mgrwt>
</event>
<event>
12    7  0.2426980E-007  0.4007283E+04  0.7818608E-02  0.8003079E-01
         -1   -1    0    0    0  501 -0.00000000000E+00  0.00000000000E+00  0.16235887328E+04  0.16235887328E+04  0.00000000000E+00 0.  1.
          2   -1    0    0  501    0  0.00000000000E+00 -0.00000000000E+00 -0.24726582179E+04  0.24726582179E+04  0.00000000000E+00 0. -1.
         24    2    1    2    0    0 -0.20097218734E+03 -0.17677779288E+04  0.28925278157E+03  0.18040595746E+04  0.74398598076E+02 0.  0.
        254    2    1    2    0    0  0.20097218734E+03  0.17677779288E+04 -0.11383222666E+04  0.22921873761E+04  0.89045873510E+03 0.  0.
         23    2    4    4    0    0  0.23366857134E+03  0.92579608237E+03 -0.10781367623E+04  0.14430956557E+04  0.91906506839E+02 0.  0.
         23    2    4    4    0    0 -0.32696384002E+02  0.84198184642E+03 -0.60185504313E+02  0.84909172037E+03  0.85626931829E+02 0.  0.
          2    1    3    3  502    0 -0.17741653575E+03 -0.13591387669E+04  0.20088944548E+03  0.13853127387E+04  0.00000000000E+00 0. -1.
         -1    1    3    3    0  502 -0.23555651593E+02 -0.40863916191E+03  0.88363336090E+02  0.41874683585E+03  0.00000000000E+00 0.  1.
         13    1    5    5    0    0  0.20999133016E+03  0.85436438503E+03 -0.95250617790E+03  0.12966506392E+04  0.00000000000E+00 0.  1.
        -13    1    5    5    0    0  0.23677241186E+02  0.71431697339E+02 -0.12563058442E+03  0.14644501656E+03  0.00000000000E+00 0. -1.
          3    1    6    6  503    0 -0.28530828539E+02  0.52091491957E+03 -0.78046975355E+02  0.52750136679E+03  0.00000000000E+00 0. -1.
         -3    1    6    6    0  503 -0.41655554633E+01  0.32106692685E+03  0.17861471042E+02  0.32159035358E+03  0.00000000000E+00 0.  1.
<mgrwt>
<rscale>  0 0.40072834E+04</rscale>
<asrwt>0</asrwt>
<pdfrwt beam="1">  1        2 0.38040896E+00 0.40072834E+04</pdfrwt>
<pdfrwt beam="2">  1       -1 0.24978288E+00 0.40072834E+04</pdfrwt>
<totfact> 0.22632019E-01</totfact>
</mgrwt>
</event>
<event>
12    7  0.2426980E-007  0.1969500E+04  0.7818608E-02  0.8621015E-01
         -1   -1    0    0    0  501 -0.00000000000E+00  0.00000000000E+00  0.40619033032E+03  0.40619033032E+03  0.00000000000E+00 0.  1.
          2   -1    0    0  501    0  0.00000000000E+00 -0.00000000000E+00 -0.23873837180E+04  0.23873837180E+04  0.00000000000E+00 0. -1.
         24    2    1    2    0    0  0.55500570958E+03 -0.54640367088E+03 -0.81364566729E+03  0.11291148472E+04  0.79326899314E+02 0.  0.
        254    2    1    2    0    0 -0.55500570958E+03  0.54640367088E+03 -0.11675477204E+04  0.16644592012E+04  0.89480078440E+03 0.  0.
         23    2    4    4    0    0 -0.34558212846E+03 -0.16476098025E+03 -0.63414846480E+03  0.74647939823E+03  0.92271493108E+02 0.  0.
         23    2    4    4    0    0 -0.20942358111E+03  0.71116465113E+03 -0.53339925564E+03  0.91797980298E+03  0.92513541787E+02 0.  0.
          4    1    3    3  502    0  0.76857904709E+02 -0.52805057651E+02 -0.12789951641E+03  0.15828391556E+03  0.00000000000E+00 0. -1.
         -3    1    3    3    0  502  0.47814780487E+03 -0.49359861323E+03 -0.68574615088E+03  0.97083093159E+03  0.00000000000E+00 0.  1.
         13    1    5    5    0    0 -0.26469071114E+03 -0.12470169944E+03 -0.55043038176E+03  0.62336609755E+03  0.00000000000E+00 0.  1.
        -13    1    5    5    0    0 -0.80891417329E+02 -0.40059280810E+02 -0.83718083041E+02  0.12311330068E+03  0.00000000000E+00 0. -1.
          3    1    6    6  503    0 -0.74111077114E+02  0.41096875544E+03 -0.30949884529E+03  0.51978582602E+03  0.00000000000E+00 0. -1.
         -3    1    6    6    0  503 -0.13531250400E+03  0.30019589569E+03 -0.22390041035E+03  0.39819397696E+03  0.00000000000E+00 0.  1.
<mgrwt>
<rscale>  0 0.19694996E+04</rscale>
<asrwt>0</asrwt>
<pdfrwt beam="1">  1        2 0.36728980E+00 0.19694996E+04</pdfrwt>
<pdfrwt beam="2">  1       -1 0.62490821E-01 0.19694996E+04</pdfrwt>
<totfact> 0.11135820E+01</totfact>
</mgrwt>
</event>
<event>
12    7  0.2426980E-007  0.1858356E+04  0.7818608E-02  0.8675867E-01
         -1   -1    0    0    0  501 -0.00000000000E+00  0.00000000000E+00  0.39679404088E+03  0.39679404088E+03  0.00000000000E+00 0.  1.
          2   -1    0    0  501    0  0.00000000000E+00 -0.00000000000E+00 -0.21758690580E+04  0.21758690580E+04  0.00000000000E+00 0. -1.
         24    2    1    2    0    0  0.61213782310E+03 -0.14008467416E+03 -0.11344707791E+04  0.12993067911E+04  0.82690739483E+02 0.  0.
        254    2    1    2    0    0 -0.61213782310E+03  0.14008467416E+03 -0.64460423808E+03  0.12733563078E+04  0.90088025426E+03 0.  0.
         23    2    4    4    0    0 -0.60242703189E+03  0.33840826129E+03 -0.75568057115E+03  0.10284893578E+04  0.96430043745E+02 0.  0.
         23    2    4    4    0    0 -0.97107912073E+01 -0.19832358713E+03  0.11107633307E+03  0.24486695007E+03  0.90528044208E+02 0.  0.
          2    1    3    3  502    0  0.40580878186E+03 -0.10424091067E+03 -0.83016891476E+03  0.92990717920E+03  0.00000000000E+00 0. -1.
         -1    1    3    3    0  502  0.20632904124E+03 -0.35843763487E+02 -0.30430186431E+03  0.36939961189E+03  0.00000000000E+00 0.  1.
         13    1    5    5    0    0 -0.18896963375E+03  0.15814957001E+03 -0.27900205268E+03  0.37224045236E+03  0.00000000000E+00 0.  1.
        -13    1    5    5    0    0 -0.41345739814E+03  0.18025869128E+03 -0.47667851847E+03  0.65624890540E+03  0.00000000000E+00 0. -1.
          4    1    6    6  503    0 -0.12648989384E+02 -0.77239818666E+02  0.94365301245E+02  0.12260014926E+03  0.00000000000E+00 0. -1.
         -4    1    6    6    0  503  0.29381981769E+01 -0.12108376847E+03  0.16711031825E+02  0.12226680081E+03  0.00000000000E+00 0.  1.
<mgrwt>
<rscale>  0 0.18583561E+04</rscale>
<asrwt>0</asrwt>
<pdfrwt beam="1">  1        2 0.33474910E+00 0.18583561E+04</pdfrwt>
<pdfrwt beam="2">  1       -1 0.61045235E-01 0.18583561E+04</pdfrwt>
<totfact> 0.15516770E+01</totfact>
</mgrwt>
</event>
<event>
12    7  0.2426980E-007  0.2911914E+04  0.7818608E-02  0.8269341E-01
          2   -1    0    0  501    0  0.00000000000E+00  0.00000000000E+00  0.18570405087E+04  0.18570405087E+04  0.00000000000E+00 0. -1.
         -1   -1    0    0    0  501 -0.00000000000E+00 -0.00000000000E+00 -0.11414997547E+04  0.11414997547E+04  0.00000000000E+00 0.  1.
         24    2    1    2    0    0  0.12470221134E+04 -0.14438478620E+03 -0.86142659574E+02  0.12608362770E+04  0.79852624273E+02 0.  0.
        254    2    1    2    0    0 -0.12470221134E+04  0.14438478620E+03  0.80168341353E+03  0.17377039865E+04  0.89499035258E+03 0.  0.
         23    2    4    4    0    0 -0.23136103561E+02  0.10890602569E+03 -0.13223917188E+03  0.19515577820E+03  0.90569186069E+02 0.  0.
         23    2    4    4    0    0 -0.12238860099E+04  0.35478760507E+02  0.93392258541E+03  0.15425482083E+04  0.89932595453E+02 0.  0.
          2    1    3    3  502    0  0.40150401887E+03 -0.11622404884E+02 -0.41194571971E+02  0.40377908591E+03  0.00000000000E+00 0. -1.
         -1    1    3    3    0  502  0.84551809458E+03 -0.13276238132E+03 -0.44948087603E+02  0.85705719105E+03  0.00000000000E+00 0.  1.
         13    1    5    5    0    0  0.13447248299E+02  0.35926072914E+02  0.15894207182E+01  0.38393195492E+02  0.00000000000E+00 0. -1.
        -13    1    5    5    0    0 -0.36583351859E+02  0.72979952779E+02 -0.13382859259E+03  0.15676258271E+03  0.00000000000E+00 0.  1.
          3    1    6    6  503    0 -0.55223838633E+02 -0.10965128284E+02  0.26485834381E+02  0.62220622100E+02  0.00000000000E+00 0. -1.
         -3    1    6    6    0  503 -0.11686621713E+04  0.46443888791E+02  0.90743675102E+03  0.14803275862E+04  0.00000000000E+00 0.  1.
<mgrwt>
<rscale>  0 0.29119143E+04</rscale>
<asrwt>0</asrwt>
<pdfrwt beam="1">  1        2 0.28569854E+00 0.29119143E+04</pdfrwt>
<pdfrwt beam="2">  1       -1 0.17561535E+00 0.29119143E+04</pdfrwt>
<totfact> 0.17620221E+00</totfact>
</mgrwt>
</event>
<event>
12    7  0.2426980E-007  0.1636842E+04  0.7818608E-02  0.8798229E-01
         -1   -1    0    0    0  501 -0.00000000000E+00  0.00000000000E+00  0.65403679072E+03  0.65403679072E+03  0.00000000000E+00 0.  1.
          2   -1    0    0  501    0  0.00000000000E+00 -0.00000000000E+00 -0.10241213680E+04  0.10241213680E+04  0.00000000000E+00 0. -1.
         24    2    1    2    0    0  0.23674650757E+03  0.46094827436E+03 -0.37063724373E+03  0.64208634877E+03  0.79879236072E+02 0.  0.
        254    2    1    2    0    0 -0.23674650757E+03 -0.46094827436E+03  0.55266648001E+00  0.10360718099E+04  0.89717460361E+03 0.  0.
         23    2    4    4    0    0 -0.10687008994E+03 -0.61931164571E+03 -0.26521269114E+03  0.68827322978E+03  0.91728603316E+02 0.  0.
         23    2    4    4    0    0 -0.12987641763E+03  0.15836337134E+03  0.26576535762E+03  0.34779858013E+03  0.91573936187E+02 0.  0.
          2    1    3    3  502    0  0.17594981552E+03  0.33270245963E+03 -0.31062589490E+03  0.48799355611E+03  0.00000000000E+00 0. -1.
         -1    1    3    3    0  502  0.60796692057E+02  0.12824581473E+03 -0.60011348826E+02  0.15409279266E+03  0.00000000000E+00 0.  1.
         13    1    5    5    0    0 -0.12345225531E+03 -0.52413810074E+03 -0.22222523027E+03  0.58253348483E+03  0.00000000000E+00 0.  1.
        -13    1    5    5    0    0  0.16582165367E+02 -0.95173544967E+02 -0.42987460869E+02  0.10573974495E+03  0.00000000000E+00 0. -1.
          4    1    6    6  503    0  0.17978627010E+01 -0.51804044423E+01  0.36529857364E+02  0.36939130736E+02  0.00000000000E+00 0. -1.
         -4    1    6    6    0  503 -0.13167428033E+03  0.16354377579E+03  0.22923550025E+03  0.31085944939E+03  0.00000000000E+00 0.  1.
<mgrwt>
<rscale>  0 0.16368421E+04</rscale>
<asrwt>0</asrwt>
<pdfrwt beam="1">  1        2 0.15755713E+00 0.16368421E+04</pdfrwt>
<pdfrwt beam="2">  1       -1 0.10062104E+00 0.16368421E+04</pdfrwt>
<totfact> 0.24923363E+01</totfact>
</mgrwt>
</event>
<event>
12    7  0.2426980E-007  0.1604123E+04  0.7818608E-02  0.8818019E-01
         -1   -1    0    0    0  501 -0.00000000000E+00  0.00000000000E+00  0.18957079698E+03  0.18957079698E+03  0.00000000000E+00 0.  1.
          2   -1    0    0  501    0  0.00000000000E+00 -0.00000000000E+00 -0.33934675411E+04  0.33934675411E+04  0.00000000000E+00 0. -1.
         24    2    1    2    0    0 -0.19312241466E+02 -0.51557527435E+03 -0.14929798001E+04  0.15816684883E+04  0.80595887969E+02 0.  0.
        254    2    1    2    0    0  0.19312241466E+02  0.51557527435E+03 -0.17109169440E+04  0.20013698497E+04  0.90114020002E+03 0.  0.
         23    2    4    4    0    0 -0.85271849609E+02  0.60719447621E+03 -0.55082524414E+03  0.82936795957E+03  0.92121346612E+02 0.  0.
         23    2    4    4    0    0  0.10458409108E+03 -0.91619201853E+02 -0.11600916998E+04  0.11720018902E+04  0.91889979364E+02 0.  0.
          4    1    3    3  502    0 -0.18413517373E+02 -0.74889660637E+02 -0.30456039594E+03  0.31417280861E+03  0.00000000000E+00 0. -1.
         -3    1    3    3    0  502 -0.89872409311E+00 -0.44068561372E+03 -0.11884194042E+04  0.12674956797E+04  0.00000000000E+00 0.  1.
         13    1    5    5    0    0 -0.39471176266E+02  0.44683556580E+03 -0.35430571049E+03  0.57162271920E+03  0.00000000000E+00 0. -1.
        -13    1    5    5    0    0 -0.45800673343E+02  0.16035891041E+03 -0.19651953366E+03  0.25774524037E+03  0.00000000000E+00 0.  1.
          1    1    6    6  503    0 -0.43933541535E+00 -0.20426721964E+02 -0.41702245783E+02  0.46438360104E+02  0.00000000000E+00 0. -1.
         -1    1    6    6    0  503  0.10502342649E+03 -0.71192479889E+02 -0.11183894540E+04  0.11255635301E+04  0.00000000000E+00 0.  1.
<mgrwt>
<rscale>  0 0.16041226E+04</rscale>
<asrwt>0</asrwt>
<pdfrwt beam="1">  1        2 0.52207187E+00 0.16041226E+04</pdfrwt>
<pdfrwt beam="2">  1       -1 0.29164742E-01 0.16041226E+04</pdfrwt>
<totfact> 0.11390857E+01</totfact>
</mgrwt>
</event>
<event>
12    7  0.2426980E-007  0.1335512E+04  0.7818608E-02  0.9001868E-01
         -1   -1    0    0    0  501 -0.00000000000E+00  0.00000000000E+00  0.46732758736E+03  0.46732758736E+03  0.00000000000E+00 0.  1.
          2   -1    0    0  501    0  0.00000000000E+00 -0.00000000000E+00 -0.95414485244E+03  0.95414485244E+03  0.00000000000E+00 0. -1.
         24    2    1    2    0    0 -0.16478532707E+03 -0.30593441727E+03 -0.22624879556E+03  0.42239696353E+03  0.80502208790E+02 0.  0.
        254    2    1    2    0    0  0.16478532707E+03  0.30593441727E+03 -0.26056846951E+03  0.99907547627E+03  0.89972540716E+03 0.  0.
         23    2    4    4    0    0 -0.12079904679E+03 -0.27314708472E+03 -0.70182324811E+02  0.31973080572E+03  0.90002721173E+02 0.  0.
         23    2    4    4    0    0  0.28558437386E+03  0.57908150198E+03 -0.19038614470E+03  0.67934467054E+03  0.91479378926E+02 0.  0.
          2    1    3    3  502    0 -0.10478831023E+03 -0.24444842423E+03 -0.19933990004E+03  0.33237331092E+03  0.00000000000E+00 0. -1.
         -1    1    3    3    0  502 -0.59997016847E+02 -0.61485993041E+02 -0.26908895527E+02  0.90023652610E+02  0.00000000000E+00 0.  1.
         13    1    5    5    0    0 -0.74253086899E+01  0.65597502317E+01 -0.43673020304E+01  0.10827689470E+02  0.00000000000E+00 0.  1.
        -13    1    5    5    0    0 -0.11337373810E+03 -0.27970683495E+03 -0.65815022781E+02  0.30890311625E+03  0.00000000000E+00 0. -1.
          3    1    6    6  503    0  0.14165578478E+03  0.37264136555E+03 -0.14118493861E+03  0.42291977439E+03  0.00000000000E+00 0. -1.
         -3    1    6    6    0  503  0.14392858908E+03  0.20644013643E+03 -0.49201206091E+02  0.25642489615E+03  0.00000000000E+00 0.  1.
<mgrwt>
<rscale>  0 0.13355122E+04</rscale>
<asrwt>0</asrwt>
<pdfrwt beam="1">  1        2 0.14679151E+00 0.13355122E+04</pdfrwt>
<pdfrwt beam="2">  1       -1 0.71896552E-01 0.13355122E+04</pdfrwt>
<totfact> 0.58782491E+01</totfact>
</mgrwt>
</event>
<event>
12    7  0.2426980E-007  0.3282850E+04  0.7818608E-02  0.8167273E-01
         -1   -1    0    0    0  501 -0.00000000000E+00  0.00000000000E+00  0.13937739109E+04  0.13937739109E+04  0.00000000000E+00 0.  1.
          2   -1    0    0  501    0  0.00000000000E+00 -0.00000000000E+00 -0.19330796365E+04  0.19330796365E+04  0.00000000000E+00 0. -1.
         24    2    1    2    0    0 -0.51007383908E+03 -0.14249401735E+04 -0.15477331340E+03  0.15235229527E+04  0.80855360782E+02 0.  0.
        254    2    1    2    0    0  0.51007383908E+03  0.14249401735E+04 -0.38453241224E+03  0.18033305948E+04  0.90194580690E+03 0.  0.
         23    2    4    4    0    0  0.40809148047E+03  0.11650561088E+04  0.94614678545E+02  0.12414324880E+04  0.91149831296E+02 0.  0.
         23    2    4    4    0    0  0.10198235860E+03  0.25988406475E+03 -0.47914709078E+03  0.56189810682E+03  0.90594808164E+02 0.  0.
          4    1    3    3  502    0 -0.29623922041E+02 -0.15496400084E+03 -0.19973320126E+02  0.15902940555E+03  0.00000000000E+00 0. -1.
         -3    1    3    3    0  502 -0.48044991704E+03 -0.12699761727E+04 -0.13479999328E+03  0.13644935471E+04  0.00000000000E+00 0.  1.
         13    1    5    5    0    0  0.17084255485E+03  0.52183823248E+03 -0.18952243760E+01  0.54909553932E+03  0.00000000000E+00 0.  1.
        -13    1    5    5    0    0  0.23724892562E+03  0.64321787629E+03  0.96509902921E+02  0.69233694864E+03  0.00000000000E+00 0. -1.
          3    1    6    6  503    0  0.11583386384E+03  0.20531965981E+03 -0.40755682612E+03  0.47082503463E+03  0.00000000000E+00 0. -1.
         -3    1    6    6    0  503 -0.13851505239E+02  0.54564404944E+02 -0.71590264666E+02  0.91073072196E+02  0.00000000000E+00 0.  1.
<mgrwt>
<rscale>  0 0.32828500E+04</rscale>
<asrwt>0</asrwt>
<pdfrwt beam="1">  1        2 0.29739687E+00 0.32828500E+04</pdfrwt>
<pdfrwt beam="2">  1       -1 0.21442676E+00 0.32828500E+04</pdfrwt>
<totfact> 0.83094346E-01</totfact>
</mgrwt>
</event>
<event>
12    7  0.2426980E-007  0.2926282E+04  0.7818608E-02  0.8265101E-01
         -1   -1    0    0    0  501 -0.00000000000E+00  0.00000000000E+00  0.12618580784E+04  0.12618580784E+04  0.00000000000E+00 0.  1.
          2   -1    0    0  501    0  0.00000000000E+00 -0.00000000000E+00 -0.16965311155E+04  0.16965311155E+04  0.00000000000E+00 0. -1.
         24    2    1    2    0    0  0.65659338027E+03  0.11398067107E+04 -0.34707112753E+03  0.13627646932E+04  0.79968973310E+02 0.  0.
        254    2    1    2    0    0 -0.65659338027E+03 -0.11398067107E+04 -0.87601909618E+02  0.15956245007E+04  0.89892671993E+03 0.  0.
         23    2    4    4    0    0 -0.59746645988E+03 -0.40914247560E+03  0.26544993768E+03  0.77715677484E+03  0.95630786126E+02 0.  0.
         23    2    4    4    0    0 -0.59126920388E+02 -0.73066423513E+03 -0.35305184729E+03  0.81846772585E+03  0.88755812004E+02 0.  0.
          4    1    3    3  502    0  0.47591046369E+03  0.89367357545E+03 -0.26577120611E+03  0.10467939448E+04  0.00000000000E+00 0. -1.
         -3    1    3    3    0  502  0.18068291657E+03  0.24613313529E+03 -0.81299921425E+02  0.31597074841E+03  0.00000000000E+00 0.  1.
         13    1    5    5    0    0 -0.39680717615E+03 -0.26839548642E+03  0.12676684304E+03  0.49554203118E+03  0.00000000000E+00 0. -1.
        -13    1    5    5    0    0 -0.20065928373E+03 -0.14074698918E+03  0.13868309464E+03  0.28161474366E+03  0.00000000000E+00 0.  1.
          3    1    6    6  503    0  0.15854828186E+02 -0.17135858998E+03 -0.10855844398E+03  0.20347009042E+03  0.00000000000E+00 0. -1.
         -3    1    6    6    0  503 -0.74981748574E+02 -0.55930564516E+03 -0.24449340331E+03  0.61499763543E+03  0.00000000000E+00 0.  1.
<mgrwt>
<rscale>  0 0.29262819E+04</rscale>
<asrwt>0</asrwt>
<pdfrwt beam="1">  1        2 0.26100479E+00 0.29262819E+04</pdfrwt>
<pdfrwt beam="2">  1       -1 0.19413201E+00 0.29262819E+04</pdfrwt>
<totfact> 0.15963085E+00</totfact>
</mgrwt>
</event>
<event>
12    7  0.2426980E-007  0.1264094E+04  0.7818608E-02  0.9058534E-01
         -1   -1    0    0    0  501 -0.00000000000E+00  0.00000000000E+00  0.20152127895E+03  0.20152127895E+03  0.00000000000E+00 0.  1.
          2   -1    0    0  501    0  0.00000000000E+00 -0.00000000000E+00 -0.19823394569E+04  0.19823394569E+04  0.00000000000E+00 0. -1.
         24    2    1    2    0    0 -0.44624517676E+02  0.82121956313E+02  0.57228687139E+02  0.13662126758E+03  0.81577477504E+02 0.  0.
        254    2    1    2    0    0  0.44624517676E+02 -0.82121956313E+02 -0.18380468650E+04  0.20472394682E+04  0.89668154819E+03 0.  0.
         23    2    4    4    0    0  0.15090171116E+03 -0.30768350763E+03 -0.24200049753E+03  0.42934640452E+03  0.91288701238E+02 0.  0.
         23    2    4    4    0    0 -0.10627719348E+03  0.22556155132E+03 -0.15960463675E+04  0.16178930637E+04  0.89672197615E+02 0.  0.
          4    1    3    3  502    0 -0.23683280655E+02  0.74956438915E+02  0.36986238456E+01  0.78695904187E+02  0.00000000000E+00 0. -1.
         -3    1    3    3    0  502 -0.20941237021E+02  0.71655173971E+01  0.53530063293E+02  0.57925363388E+02  0.00000000000E+00 0.  1.
         13    1    5    5    0    0  0.87950944228E+02 -0.11361363665E+03 -0.14247053009E+03  0.20233951411E+03  0.00000000000E+00 0.  1.
        -13    1    5    5    0    0  0.62950766929E+02 -0.19406987098E+03 -0.99529967436E+02  0.22700689041E+03  0.00000000000E+00 0. -1.
          1    1    6    6  503    0 -0.10221102777E+03  0.22441986626E+03 -0.15944040197E+04  0.16133615678E+04  0.00000000000E+00 0. -1.
         -1    1    6    6    0  503 -0.40661657128E+01  0.11416850609E+01 -0.16423478242E+01  0.45314958631E+01  0.00000000000E+00 0.  1.
<mgrwt>
<rscale>  0 0.12640943E+04</rscale>
<asrwt>0</asrwt>
<pdfrwt beam="1">  1        2 0.30497529E+00 0.12640943E+04</pdfrwt>
<pdfrwt beam="2">  1       -1 0.31003275E-01 0.12640943E+04</pdfrwt>
<totfact> 0.73725768E+01</totfact>
</mgrwt>
</event>
<event>
12    7  0.2426980E-007  0.4850852E+04  0.7818608E-02  0.7851936E-01
          2   -1    0    0  501    0  0.00000000000E+00  0.00000000000E+00  0.29857446189E+04  0.29857446189E+04  0.00000000000E+00 0. -1.
         -1   -1    0    0    0  501 -0.00000000000E+00 -0.00000000000E+00 -0.19702597410E+04  0.19702597410E+04  0.00000000000E+00 0.  1.
         24    2    1    2    0    0 -0.21985520463E+04  0.45315356392E+03  0.11695554938E+04  0.25324281870E+04  0.79707065433E+02 0.  0.
        254    2    1    2    0    0  0.21985520463E+04 -0.45315356392E+03 -0.15407061585E+03  0.24235761730E+04  0.90055785979E+03 0.  0.
         23    2    4    4    0    0  0.10761493622E+04 -0.62773714082E+03 -0.26939809584E+03  0.12782616165E+04  0.96052373459E+02 0.  0.
         23    2    4    4    0    0  0.11224026841E+04  0.17458357691E+03  0.11532747999E+03  0.11453145565E+04  0.90431162012E+02 0.  0.
          2    1    3    3  502    0 -0.18542722310E+04  0.39664027439E+03  0.10158130404E+04  0.21511683214E+04  0.00000000000E+00 0. -1.
         -1    1    3    3    0  502 -0.34427981534E+03  0.56513289525E+02  0.15374245339E+03  0.38125986560E+03  0.00000000000E+00 0.  1.
         13    1    5    5    0    0  0.64765717919E+03 -0.37832369302E+03 -0.21012659780E+03  0.77893634243E+03  0.00000000000E+00 0.  1.
        -13    1    5    5    0    0  0.42849218301E+03 -0.24941344780E+03 -0.59271498038E+02  0.49932527407E+03  0.00000000000E+00 0. -1.
          4    1    6    6  503    0  0.62283237878E+03  0.63607889698E+02  0.94306367355E+02  0.63313491976E+03  0.00000000000E+00 0.  1.
         -4    1    6    6    0  503  0.49957030533E+03  0.11097568721E+03  0.21021112639E+02  0.51217963675E+03  0.00000000000E+00 0. -1.
<mgrwt>
<rscale>  0 0.48508525E+04</rscale>
<asrwt>0</asrwt>
<pdfrwt beam="1">  1        2 0.45934533E+00 0.48508525E+04</pdfrwt>
<pdfrwt beam="2">  1       -1 0.30311688E+00 0.48508525E+04</pdfrwt>
<totfact> 0.46885526E-02</totfact>
</mgrwt>
</event>
<event>
12    7  0.2426980E-007  0.3172937E+04  0.7818608E-02  0.8196001E-01
          2   -1    0    0  501    0  0.00000000000E+00  0.00000000000E+00  0.16888995725E+04  0.16888995725E+04  0.00000000000E+00 0. -1.
         -1   -1    0    0    0  501 -0.00000000000E+00 -0.00000000000E+00 -0.14902497926E+04  0.14902497926E+04  0.00000000000E+00 0.  1.
         24    2    1    2    0    0 -0.57602794224E+03 -0.12930008803E+04 -0.25271691553E+03  0.14400938868E+04  0.79656115628E+02 0.  0.
        254    2    1    2    0    0  0.57602794224E+03  0.12930008803E+04  0.45136669545E+03  0.17390554783E+04  0.90383770462E+03 0.  0.
         23    2    4    4    0    0 -0.16283356447E+03  0.32497424279E+03  0.35170069351E+03  0.51377972915E+03  0.90295094423E+02 0.  0.
         23    2    4    4    0    0  0.73886150671E+03  0.96802663752E+03  0.99666001938E+02  0.12252757492E+04  0.91517498754E+02 0.  0.
          2    1    3    3  502    0 -0.21771290608E+03 -0.44604269087E+03 -0.54330413051E+02  0.49930430133E+03  0.00000000000E+00 0. -1.
         -1    1    3    3    0  502 -0.35831503616E+03 -0.84695818944E+03 -0.19838650248E+03  0.94078958549E+03  0.00000000000E+00 0.  1.
         13    1    5    5    0    0 -0.15220249312E+03  0.29245573734E+03  0.34798938761E+03  0.47936684397E+03  0.00000000000E+00 0. -1.
        -13    1    5    5    0    0 -0.10631071353E+02  0.32518505449E+02  0.37113059038E+01  0.34412885178E+02  0.00000000000E+00 0.  1.
          2    1    6    6  503    0  0.64445900141E+03  0.86704289293E+03  0.62483695404E+02  0.10821252214E+04  0.00000000000E+00 0. -1.
         -2    1    6    6    0  503  0.94402505297E+02  0.10098374459E+03  0.37182306533E+02  0.14315052775E+03  0.00000000000E+00 0.  1.
<mgrwt>
<rscale>  0 0.31729370E+04</rscale>
<asrwt>0</asrwt>
<pdfrwt beam="1">  1        2 0.25983070E+00 0.31729370E+04</pdfrwt>
<pdfrwt beam="2">  1       -1 0.22926920E+00 0.31729370E+04</pdfrwt>
<totfact> 0.91206565E-01</totfact>
</mgrwt>
</event>
<event>
12    7  0.2426980E-007  0.3895309E+04  0.7818608E-02  0.8026005E-01
         -1   -1    0    0    0  501 -0.00000000000E+00  0.00000000000E+00  0.18453729720E+04  0.18453729720E+04  0.00000000000E+00 0.  1.
          2   -1    0    0  501    0  0.00000000000E+00 -0.00000000000E+00 -0.20556054196E+04  0.20556054196E+04  0.00000000000E+00 0. -1.
         24    2    1    2    0    0  0.15047628205E+04 -0.48142406194E+02  0.96505977618E+03  0.17901571184E+04  0.81812588669E+02 0.  0.
        254    2    1    2    0    0 -0.15047628205E+04  0.48142406194E+02 -0.11752922238E+04  0.21108212733E+04  0.89868003157E+03 0.  0.
         23    2    4    4    0    0 -0.12176961755E+04  0.64957054585E+02 -0.12994268262E+04  0.17843307476E+04  0.91229081407E+02 0.  0.
         23    2    4    4    0    0 -0.28706664499E+03 -0.16814648392E+02  0.12413460236E+03  0.32649052573E+03  0.92177398641E+02 0.  0.
          2    1    3    3  502    0  0.11863374589E+04 -0.25822817480E+02  0.72275335452E+03  0.13894012364E+04  0.00000000000E+00 0. -1.
         -1    1    3    3    0  502  0.31842536158E+03 -0.22319588714E+02  0.24230642166E+03  0.40075588195E+03  0.00000000000E+00 0.  1.
         13    1    5    5    0    0 -0.45011445162E+03 -0.81714858419E+01 -0.52332976825E+03  0.69032154760E+03  0.00000000000E+00 0. -1.
        -13    1    5    5    0    0 -0.76758172389E+03  0.73128540427E+02 -0.77609705791E+03  0.10940092000E+04  0.00000000000E+00 0.  1.
          3    1    6    6  503    0 -0.18553978142E+03  0.29305389969E+02  0.56858419473E+02  0.19625671004E+03  0.00000000000E+00 0. -1.
         -3    1    6    6    0  503 -0.10152686357E+03 -0.46120038361E+02  0.67276182890E+02  0.13023381569E+03  0.00000000000E+00 0.  1.
<mgrwt>
<rscale>  0 0.38953093E+04</rscale>
<asrwt>0</asrwt>
<pdfrwt beam="1">  1        2 0.31624699E+00 0.38953093E+04</pdfrwt>
<pdfrwt beam="2">  1       -1 0.28390353E+00 0.38953093E+04</pdfrwt>
<totfact> 0.23641737E-01</totfact>
</mgrwt>
</event>
<event>
12    7  0.2426980E-007  0.1059936E+04  0.7818608E-02  0.9245146E-01
          2   -1    0    0  501    0  0.00000000000E+00  0.00000000000E+00  0.90577860917E+03  0.90577860917E+03  0.00000000000E+00 0. -1.
         -1   -1    0    0    0  501 -0.00000000000E+00 -0.00000000000E+00 -0.31008230059E+03  0.31008230059E+03  0.00000000000E+00 0.  1.
         24    2    1    2    0    0  0.12119113092E+03 -0.40594138228E+02  0.83889044193E+02  0.17251713665E+03  0.79935076350E+02 0.  0.
        254    2    1    2    0    0 -0.12119113092E+03  0.40594138228E+02  0.51180726439E+03  0.10433437731E+04  0.90015797433E+03 0.  0.
         23    2    4    4    0    0 -0.37154973209E+03 -0.17151938188E+03  0.55954611318E+03  0.69932056545E+03  0.92137390390E+02 0.  0.
         23    2    4    4    0    0  0.25035860117E+03  0.21211352011E+03 -0.47738848795E+02  0.34402320767E+03  0.91659124682E+02 0.  0.
          2    1    3    3  502    0  0.12293492012E+02 -0.56875511913E+01  0.52090635260E+02  0.53822973406E+02  0.00000000000E+00 0. -1.
         -1    1    3    3    0  502  0.10889763891E+03 -0.34906587036E+02  0.31798408932E+02  0.11869416324E+03  0.00000000000E+00 0.  1.
         13    1    5    5    0    0 -0.52111858738E+02 -0.63246988091E+02  0.10029767805E+03  0.12952008164E+03  0.00000000000E+00 0.  1.
        -13    1    5    5    0    0 -0.31943787335E+03 -0.10827239379E+03  0.45924843513E+03  0.56980048381E+03  0.00000000000E+00 0. -1.
          2    1    6    6  503    0  0.14654572032E+03  0.66753339080E+02 -0.36035276958E+02  0.16501574958E+03  0.00000000000E+00 0. -1.
         -2    1    6    6    0  503  0.10381288085E+03  0.14536018103E+03 -0.11703571837E+02  0.17900745809E+03  0.00000000000E+00 0.  1.
<mgrwt>
<rscale>  0 0.10599357E+04</rscale>
<asrwt>0</asrwt>
<pdfrwt beam="1">  1        2 0.13935055E+00 0.10599357E+04</pdfrwt>
<pdfrwt beam="2">  1       -1 0.47704970E-01 0.10599357E+04</pdfrwt>
<totfact> 0.14470705E+02</totfact>
</mgrwt>
</event>
<event>
12    7  0.2426980E-007  0.3325799E+04  0.7818608E-02  0.8156362E-01
          2   -1    0    0  501    0  0.00000000000E+00  0.00000000000E+00  0.20248533301E+04  0.20248533301E+04  0.00000000000E+00 0. -1.
         -1   -1    0    0    0  501 -0.00000000000E+00 -0.00000000000E+00 -0.13656466439E+04  0.13656466439E+04  0.00000000000E+00 0.  1.
         24    2    1    2    0    0 -0.97287983841E+03  0.64130507920E+03 -0.72060950920E+03  0.13723670172E+04  0.79660407786E+02 0.  0.
        254    2    1    2    0    0  0.97287983841E+03 -0.64130507920E+03  0.13798161954E+04  0.20181329568E+04  0.90066670517E+03 0.  0.
         23    2    4    4    0    0  0.27464318087E+03 -0.10855778583E+03  0.10178635945E+04  0.10637414643E+04  0.91027118157E+02 0.  0.
         23    2    4    4    0    0  0.69823665754E+03 -0.53274729337E+03  0.36195260084E+03  0.95439149247E+03  0.92191795291E+02 0.  0.
          4    1    3    3  502    0 -0.22919074799E+03  0.19255442964E+03 -0.18124221530E+03  0.34993477670E+03  0.00000000000E+00 0. -1.
         -3    1    3    3    0  502 -0.74368909042E+03  0.44875064955E+03 -0.53936729390E+03  0.10224322405E+04  0.00000000000E+00 0.  1.
         13    1    5    5    0    0  0.15659643093E+03 -0.44769479438E+02  0.40832368719E+03  0.43960775924E+03  0.00000000000E+00 0.  1.
        -13    1    5    5    0    0  0.11804674994E+03 -0.63788306388E+02  0.60953990733E+03  0.62413370509E+03  0.00000000000E+00 0. -1.
          1    1    6    6  503    0  0.34556434715E+03 -0.25501200243E+03  0.22626307676E+03  0.48542849042E+03  0.00000000000E+00 0. -1.
         -1    1    6    6    0  503  0.35267231039E+03 -0.27773529094E+03  0.13568952408E+03  0.46896300205E+03  0.00000000000E+00 0.  1.
<mgrwt>
<rscale>  0 0.33257986E+04</rscale>
<asrwt>0</asrwt>
<pdfrwt beam="1">  1        2 0.31151590E+00 0.33257986E+04</pdfrwt>
<pdfrwt beam="2">  1       -1 0.21009948E+00 0.33257986E+04</pdfrwt>
<totfact> 0.78749846E-01</totfact>
</mgrwt>
</event>
<event>
12    7  0.2426980E-007  0.1178234E+04  0.7818608E-02  0.9132124E-01
          2   -1    0    0  501    0  0.00000000000E+00  0.00000000000E+00  0.97993487840E+03  0.97993487840E+03  0.00000000000E+00 0. -1.
         -1   -1    0    0    0  501 -0.00000000000E+00 -0.00000000000E+00 -0.35416530468E+03  0.35416530468E+03  0.00000000000E+00 0.  1.
         24    2    1    2    0    0 -0.16258499543E+03 -0.11710134191E+02  0.32381017658E+03  0.37139559413E+03  0.80688592136E+02 0.  0.
        254    2    1    2    0    0  0.16258499543E+03  0.11710134191E+02  0.30195939715E+03  0.96270458895E+03  0.89947186731E+03 0.  0.
         23    2    4    4    0    0 -0.13229114973E+03 -0.16884453424E+03 -0.22561403267E+03  0.32428116046E+03  0.90813843923E+02 0.  0.
         23    2    4    4    0    0  0.29487614517E+03  0.18055466843E+03  0.52757342983E+03  0.63842342849E+03  0.98482591901E+02 0.  0.
          4    1    3    3  502    0 -0.16391082211E+03 -0.19211419708E+02  0.26565309405E+03  0.31274175070E+03  0.00000000000E+00 0. -1.
         -3    1    3    3    0  502  0.13258266802E+01  0.75012855173E+01  0.58157082531E+02  0.58653843432E+02  0.00000000000E+00 0.  1.
         13    1    5    5    0    0 -0.66470513078E+02 -0.37997856212E+02 -0.12499536192E+03  0.14658105842E+03  0.00000000000E+00 0. -1.
        -13    1    5    5    0    0 -0.65820636657E+02 -0.13084667803E+03 -0.10061867075E+03  0.17770010204E+03  0.00000000000E+00 0.  1.
          1    1    6    6  503    0  0.95439573322E+02  0.22715025403E+02  0.94672240284E+02  0.13633604665E+03  0.00000000000E+00 0. -1.
         -1    1    6    6    0  503  0.19943657184E+03  0.15783964303E+03  0.43290118954E+03  0.50208738184E+03  0.00000000000E+00 0.  1.
<mgrwt>
<rscale>  0 0.11782342E+04</rscale>
<asrwt>0</asrwt>
<pdfrwt beam="1">  1        2 0.15075921E+00 0.11782342E+04</pdfrwt>
<pdfrwt beam="2">  1       -1 0.54486971E-01 0.11782342E+04</pdfrwt>
<totfact> 0.99516965E+01</totfact>
</mgrwt>
</event>
<event>
12    7  0.2426980E-007  0.1806591E+04  0.7818608E-02  0.8702802E-01
          2   -1    0    0  501    0  0.00000000000E+00  0.00000000000E+00  0.25326254253E+04  0.25326254253E+04  0.00000000000E+00 0. -1.
         -1   -1    0    0    0  501 -0.00000000000E+00 -0.00000000000E+00 -0.32217267323E+03  0.32217267323E+03  0.00000000000E+00 0.  1.
         24    2    1    2    0    0 -0.65360302340E+03  0.28209073702E+02  0.11119830784E+04  0.12925917700E+04  0.79337590723E+02 0.  0.
        254    2    1    2    0    0  0.65360302340E+03 -0.28209073702E+02  0.10984696737E+04  0.15622063285E+04  0.89769723449E+03 0.  0.
         23    2    4    4    0    0 -0.12717625525E+03  0.23462992308E+03  0.25205387736E+03  0.37767236754E+03  0.88770825194E+02 0.  0.
         23    2    4    4    0    0  0.78077927865E+03 -0.26283899678E+03  0.84641579633E+03  0.11845339610E+04  0.89444867060E+02 0.  0.
          4    1    3    3  502    0 -0.62264471427E+03  0.14553539654E+02  0.10756094885E+04  0.12429135197E+04  0.00000000000E+00 0. -1.
         -3    1    3    3    0  502 -0.30958309134E+02  0.13655534048E+02  0.36373589918E+02  0.49678250353E+02  0.00000000000E+00 0.  1.
         13    1    5    5    0    0 -0.74253204234E+02  0.95839501879E+02  0.16744122053E+03  0.20672520599E+03  0.00000000000E+00 0.  1.
        -13    1    5    5    0    0 -0.52923051017E+02  0.13879042120E+03  0.84612656836E+02  0.17094716155E+03  0.00000000000E+00 0. -1.
          3    1    6    6  503    0  0.75766931628E+02 -0.54807785664E+02  0.10136479090E+03  0.13791063096E+03  0.00000000000E+00 0. -1.
         -3    1    6    6    0  503  0.70501234702E+03 -0.20803121111E+03  0.74505100544E+03  0.10466233300E+04  0.00000000000E+00 0.  1.
<mgrwt>
<rscale>  0 0.18065909E+04</rscale>
<asrwt>0</asrwt>
<pdfrwt beam="1">  1        2 0.38963467E+00 0.18065909E+04</pdfrwt>
<pdfrwt beam="2">  1       -1 0.49565028E-01 0.18065909E+04</pdfrwt>
<totfact> 0.14629949E+01</totfact>
</mgrwt>
</event>
<event>
12    7  0.2426980E-007  0.3689538E+04  0.7818608E-02  0.8070284E-01
         -1   -1    0    0    0  501 -0.00000000000E+00  0.00000000000E+00  0.76561589741E+03  0.76561589741E+03  0.00000000000E+00 0.  1.
          2   -1    0    0  501    0  0.00000000000E+00 -0.00000000000E+00 -0.44450126228E+04  0.44450126228E+04  0.00000000000E+00 0. -1.
         24    2    1    2    0    0 -0.18326938644E+03  0.13903459588E+04 -0.31756389274E+04  0.34724103534E+04  0.79382065413E+02 0.  0.
        254    2    1    2    0    0  0.18326938644E+03 -0.13903459588E+04 -0.50375779800E+03  0.17382181668E+04  0.89497537583E+03 0.  0.
         23    2    4    4    0    0  0.50644020676E+03 -0.58482560123E+03 -0.13009408380E+03  0.78930891933E+03  0.87071422487E+02 0.  0.
         23    2    4    4    0    0 -0.32317082032E+03 -0.80552035753E+03 -0.37366371420E+03  0.94890924748E+03  0.86612719295E+02 0.  0.
          2    1    3    3  502    0 -0.57182645652E+01  0.12214636677E+03 -0.32939072327E+03  0.35135549240E+03  0.00000000000E+00 0. -1.
         -1    1    3    3    0  502 -0.17755112188E+03  0.12681995920E+04 -0.28462482041E+04  0.31210548610E+04  0.00000000000E+00 0.  1.
         13    1    5    5    0    0  0.33491571957E+03 -0.39734421301E+03 -0.46208708716E+02  0.52171468025E+03  0.00000000000E+00 0.  1.
        -13    1    5    5    0    0  0.17152448719E+03 -0.18748138822E+03 -0.83885375081E+02  0.26759423907E+03  0.00000000000E+00 0. -1.
          3    1    6    6  503    0 -0.27858143676E+03 -0.64710855376E+03 -0.27044813745E+03  0.75465176889E+03  0.00000000000E+00 0. -1.
         -3    1    6    6    0  503 -0.44589383564E+02 -0.15841180377E+03 -0.10321557676E+03  0.19425747858E+03  0.00000000000E+00 0.  1.
<mgrwt>
<rscale>  0 0.36895378E+04</rscale>
<asrwt>0</asrwt>
<pdfrwt beam="1">  1        2 0.68384809E+00 0.36895378E+04</pdfrwt>
<pdfrwt beam="2">  1       -1 0.11778706E+00 0.36895378E+04</pdfrwt>
<totfact> 0.82284624E-02</totfact>
</mgrwt>
</event>
<event>
12    7  0.2426980E-007  0.4545079E+04  0.7818608E-02  0.7902792E-01
          2   -1    0    0  501    0  0.00000000000E+00  0.00000000000E+00  0.55147899437E+04  0.55147899437E+04  0.00000000000E+00 0. -1.
         -1   -1    0    0    0  501 -0.00000000000E+00 -0.00000000000E+00 -0.93647010258E+03  0.93647010258E+03  0.00000000000E+00 0.  1.
         24    2    1    2    0    0  0.21043021849E+04  0.56974404723E+03  0.23595207565E+04  0.32134835484E+04  0.80264259529E+02 0.  0.
        254    2    1    2    0    0 -0.21043021849E+04 -0.56974404723E+03  0.22187990847E+04  0.32377764978E+04  0.89857181531E+03 0.  0.
         23    2    4    4    0    0 -0.20132703232E+04 -0.71322006463E+03  0.21547152856E+04  0.30352961773E+04  0.91020148377E+02 0.  0.
         23    2    4    4    0    0 -0.91031861695E+02  0.14347601740E+03  0.64083799102E+02  0.20248032053E+03  0.89550988167E+02 0.  0.
          2    1    3    3  502    0  0.10223183943E+04  0.31827607231E+03  0.11542119567E+04  0.15743696511E+04  0.00000000000E+00 0. -1.
         -3    1    3    3    0  502  0.10819837906E+04  0.25146797492E+03  0.12053087998E+04  0.16391138973E+04  0.00000000000E+00 0.  1.
         13    1    5    5    0    0 -0.15911412641E+04 -0.52827242183E+03  0.17139323265E+04  0.23975750862E+04  0.00000000000E+00 0.  1.
        -13    1    5    5    0    0 -0.42212905906E+03 -0.18494764280E+03  0.44078295905E+03  0.63772109113E+03  0.00000000000E+00 0. -1.
          3    1    6    6  503    0 -0.10456502314E+03  0.14049063503E+03  0.48706307900E+02  0.18177944610E+03  0.00000000000E+00 0. -1.
         -3    1    6    6    0  503  0.13533161441E+02  0.29853823682E+01  0.15377491201E+02  0.20700874429E+02  0.00000000000E+00 0.  1.
<mgrwt>
<rscale>  0 0.45450791E+04</rscale>
<asrwt>0</asrwt>
<pdfrwt beam="1">  1        2 0.84842920E+00 0.45450791E+04</pdfrwt>
<pdfrwt beam="2">  1       -1 0.14407233E+00 0.45450791E+04</pdfrwt>
<totfact> 0.18215185E-03</totfact>
</mgrwt>
</event>
<event>
12    7  0.2426980E-007  0.1642722E+04  0.7818608E-02  0.8794724E-01
          2   -1    0    0  501    0  0.00000000000E+00  0.00000000000E+00  0.14724476733E+04  0.14724476733E+04  0.00000000000E+00 0. -1.
         -1   -1    0    0    0  501 -0.00000000000E+00 -0.00000000000E+00 -0.45817169278E+03  0.45817169278E+03  0.00000000000E+00 0.  1.
         24    2    1    2    0    0 -0.16007606947E+03 -0.51861147164E+03  0.14114549970E+03  0.56657516102E+03  0.80642138307E+02 0.  0.
        254    2    1    2    0    0  0.16007606947E+03  0.51861147164E+03  0.87313048081E+03  0.13640442050E+04  0.89648064690E+03 0.  0.
         23    2    4    4    0    0  0.44695709307E+03  0.28844453594E+03  0.81833488315E+03  0.98040895047E+03  0.92513976370E+02 0.  0.
         23    2    4    4    0    0 -0.28688102360E+03  0.23016693569E+03  0.54795597658E+02  0.38363525457E+03  0.94318137371E+02 0.  0.
          4    1    3    3  502    0  0.59800086244E+01 -0.71396051034E+02  0.16936010762E+02  0.73620547858E+02  0.00000000000E+00 0. -1.
         -3    1    3    3    0  502 -0.16605607809E+03 -0.44721542060E+03  0.12420948893E+03  0.49295461316E+03  0.00000000000E+00 0.  1.
         13    1    5    5    0    0  0.92739096512E+02  0.10724195120E+03  0.22910013731E+03  0.26942206486E+03  0.00000000000E+00 0.  1.
        -13    1    5    5    0    0  0.35421799656E+03  0.18120258474E+03  0.58923474585E+03  0.71098688561E+03  0.00000000000E+00 0. -1.
          3    1    6    6  503    0 -0.13565436457E+03  0.16180695561E+03  0.52859991667E+02  0.21766436601E+03  0.00000000000E+00 0. -1.
         -3    1    6    6    0  503 -0.15122665903E+03  0.68359980080E+02  0.19356059906E+01  0.16597088856E+03  0.00000000000E+00 0.  1.
<mgrwt>
<rscale>  0 0.16427219E+04</rscale>
<asrwt>0</asrwt>
<pdfrwt beam="1">  1        2 0.22653041E+00 0.16427219E+04</pdfrwt>
<pdfrwt beam="2">  1       -1 0.70487953E-01 0.16427219E+04</pdfrwt>
<totfact> 0.29149262E+01</totfact>
</mgrwt>
</event>
<event>
12    7  0.2426980E-007  0.1887774E+04  0.7818608E-02  0.8660966E-01
          4   -1    0    0  501    0  0.00000000000E+00  0.00000000000E+00  0.12151629072E+04  0.12151629072E+04  0.00000000000E+00 0. -1.
         -3   -1    0    0    0  501 -0.00000000000E+00 -0.00000000000E+00 -0.73317163405E+03  0.73317163405E+03  0.00000000000E+00 0.  1.
         24    2    1    2    0    0  0.62534323498E+01 -0.72743067142E+03  0.21421413778E+03  0.76253584958E+03  0.79867001505E+02 0.  0.
        254    2    1    2    0    0 -0.62534323498E+01  0.72743067142E+03  0.26777713536E+03  0.11857986917E+04  0.89734021185E+03 0.  0.
         23    2    4    4    0    0  0.14026361387E+02  0.47711535188E+03  0.59319798994E+03  0.76667862506E+03  0.89869132869E+02 0.  0.
         23    2    4    4    0    0 -0.20279793737E+02  0.25031531955E+03 -0.32542085457E+03  0.41912006661E+03  0.81816064528E+02 0.  0.
          4    1    3    3  502    0  0.24777982248E+02 -0.50199538261E+03  0.17946991045E+03  0.53368788756E+03  0.00000000000E+00 0. -1.
         -3    1    3    3    0  502 -0.18524549898E+02 -0.22543528881E+03  0.34744227332E+02  0.22884796202E+03  0.00000000000E+00 0.  1.
         13    1    5    5    0    0 -0.34567355015E+02  0.30173241752E+03  0.37347895337E+03  0.48137706886E+03  0.00000000000E+00 0.  1.
        -13    1    5    5    0    0  0.48593716402E+02  0.17538293436E+03  0.21971903656E+03  0.28530155619E+03  0.00000000000E+00 0. -1.
          1    1    6    6  503    0 -0.48446143118E+02  0.17983161666E+03 -0.20690096753E+03  0.27837824897E+03  0.00000000000E+00 0. -1.
         -1    1    6    6    0  503  0.28166349381E+02  0.70483702884E+02 -0.11851988704E+03  0.14074181764E+03  0.00000000000E+00 0.  1.
<mgrwt>
<rscale>  0 0.18877743E+04</rscale>
<asrwt>0</asrwt>
<pdfrwt beam="1">  1        4 0.18694814E+00 0.18877743E+04</pdfrwt>
<pdfrwt beam="2">  1       -3 0.11279564E+00 0.18877743E+04</pdfrwt>
<totfact> 0.22639229E-01</totfact>
</mgrwt>
</event>
<event>
12    7  0.2426980E-007  0.1510111E+04  0.7818608E-02  0.8877757E-01
          2   -1    0    0  501    0  0.00000000000E+00  0.00000000000E+00  0.21898380786E+04  0.21898380786E+04  0.00000000000E+00 0. -1.
         -1   -1    0    0    0  501 -0.00000000000E+00 -0.00000000000E+00 -0.26034292919E+03  0.26034292919E+03  0.00000000000E+00 0.  1.
         24    2    1    2    0    0 -0.37994895422E+03  0.21414316102E+03  0.94846192895E+03  0.10488704884E+04  0.10164039306E+03 0.  0.
        254    2    1    2    0    0  0.37994895422E+03 -0.21414316102E+03  0.98103322048E+03  0.14013105194E+04  0.90057009220E+03 0.  0.
         23    2    4    4    0    0  0.65205510991E+03 -0.25722591669E+03  0.74872269437E+03  0.10296816483E+04  0.91200796550E+02 0.  0.
         23    2    4    4    0    0 -0.27210615569E+03  0.43082755669E+02  0.23231052611E+03  0.37162887110E+03  0.90785205243E+02 0.  0.
          4    1    3    3  502    0 -0.32279517878E+03  0.19537086556E+03  0.88148057613E+03  0.95884018932E+03  0.00000000000E+00 0. -1.
         -3    1    3    3    0  502 -0.57153775435E+02  0.18772295464E+02  0.66981352814E+02  0.90030299057E+02  0.00000000000E+00 0.  1.
         13    1    5    5    0    0  0.51794575990E+03 -0.19546623264E+03  0.53462298681E+03  0.76960807969E+03  0.00000000000E+00 0.  1.
        -13    1    5    5    0    0  0.13410935001E+03 -0.61759684057E+02  0.21409970755E+03  0.26007356865E+03  0.00000000000E+00 0. -1.
          1    1    6    6  503    0 -0.17837804590E+03  0.37868080798E+02  0.95882606852E+02  0.20602473905E+03  0.00000000000E+00 0. -1.
         -1    1    6    6    0  503 -0.93728109787E+02  0.52146748718E+01  0.13642791926E+03  0.16560413205E+03  0.00000000000E+00 0.  1.
<mgrwt>
<rscale>  0 0.15101111E+04</rscale>
<asrwt>0</asrwt>
<pdfrwt beam="1">  1        2 0.33689815E+00 0.15101111E+04</pdfrwt>
<pdfrwt beam="2">  1       -1 0.40052760E-01 0.15101111E+04</pdfrwt>
<totfact> 0.34995137E+01</totfact>
</mgrwt>
</event>
<event>
12    7  0.2426980E-007  0.3640348E+04  0.7818608E-02  0.8081312E-01
         -1   -1    0    0    0  501 -0.00000000000E+00  0.00000000000E+00  0.72768535095E+03  0.72768535095E+03  0.00000000000E+00 0.  1.
          2   -1    0    0  501    0  0.00000000000E+00 -0.00000000000E+00 -0.45528380425E+04  0.45528380425E+04  0.00000000000E+00 0. -1.
         24    2    1    2    0    0 -0.58154156426E+03 -0.76106625691E+03 -0.38464279660E+04  0.39652319985E+04  0.10317105246E+03 0.  0.
        254    2    1    2    0    0  0.58154156426E+03  0.76106625691E+03  0.21275274460E+02  0.13152913949E+04  0.90118054678E+03 0.  0.
         23    2    4    4    0    0 -0.22835632622E+03  0.22599738586E+03  0.63181654157E+02  0.33940963873E+03  0.89361911933E+02 0.  0.
         23    2    4    4    0    0  0.80989789047E+03  0.53506887106E+03 -0.41906379697E+02  0.97588175619E+03  0.91409888083E+02 0.  0.
          4    1    3    3  502    0 -0.50470383909E+03 -0.70456314197E+03 -0.35226356434E+04  0.36276848075E+04  0.00000000000E+00 0. -1.
         -3    1    3    3    0  502 -0.76837725169E+02 -0.56503114942E+02 -0.32379232260E+03  0.33754719105E+03  0.00000000000E+00 0.  1.
         13    1    5    5    0    0 -0.16624811918E+03  0.14878495926E+03  0.83569800408E+02  0.23824213055E+03  0.00000000000E+00 0. -1.
        -13    1    5    5    0    0 -0.62108207043E+02  0.77212426602E+02 -0.20388146250E+02  0.10116750818E+03  0.00000000000E+00 0.  1.
          2    1    6    6  503    0  0.72924833786E+03  0.45485945824E+03 -0.55828366594E+02  0.86128803054E+03  0.00000000000E+00 0. -1.
         -2    1    6    6    0  503  0.80649552613E+02  0.80209412814E+02  0.13921986897E+02  0.11459372566E+03  0.00000000000E+00 0.  1.
<mgrwt>
<rscale>  0 0.36403481E+04</rscale>
<asrwt>0</asrwt>
<pdfrwt beam="1">  1        2 0.70043661E+00 0.36403481E+04</pdfrwt>
<pdfrwt beam="2">  1       -1 0.11195159E+00 0.36403481E+04</pdfrwt>
<totfact> 0.73168222E-02</totfact>
</mgrwt>
</event>
<event>
12    7  0.2426980E-007  0.1478226E+04  0.7818608E-02  0.8899063E-01
         -1   -1    0    0    0  501 -0.00000000000E+00  0.00000000000E+00  0.15517977169E+04  0.15517977169E+04  0.00000000000E+00 0.  1.
          2   -1    0    0  501    0  0.00000000000E+00 -0.00000000000E+00 -0.35203568992E+03  0.35203568992E+03  0.00000000000E+00 0. -1.
         24    2    1    2    0    0 -0.21548828440E+03 -0.16865916851E+02 -0.14599495578E+03  0.27265203763E+03  0.79403694138E+02 0.  0.
        254    2    1    2    0    0  0.21548828440E+03  0.16865916851E+02  0.13457569828E+04  0.16311813692E+04  0.89608657097E+03 0.  0.
         23    2    4    4    0    0  0.66015708092E+02  0.15747311578E+03  0.13892758956E+04  0.14026271261E+04  0.90108185105E+02 0.  0.
         23    2    4    4    0    0  0.14947257631E+03 -0.14060719893E+03 -0.43518912744E+02  0.22855424312E+03  0.90723265056E+02 0.  0.
          2    1    3    3  502    0 -0.14993185959E+03 -0.37373995296E+02 -0.13045958478E+03  0.20222779558E+03  0.00000000000E+00 0. -1.
         -1    1    3    3    0  502 -0.65556424809E+02  0.20508078446E+02 -0.15535371002E+02  0.70424242044E+02  0.00000000000E+00 0.  1.
         13    1    5    5    0    0  0.59446822125E+02  0.16749539588E+03  0.12138893642E+04  0.12268317003E+04  0.00000000000E+00 0. -1.
        -13    1    5    5    0    0  0.65688859672E+01 -0.10022280100E+02  0.17538653132E+03  0.17579542579E+03  0.00000000000E+00 0.  1.
          1    1    6    6  503    0  0.15242976403E+03 -0.13103189428E+03 -0.59554424612E+02  0.20964474658E+03  0.00000000000E+00 0. -1.
         -1    1    6    6    0  503 -0.29571877177E+01 -0.95753046504E+01  0.16035511868E+02  0.18909496535E+02  0.00000000000E+00 0.  1.
<mgrwt>
<rscale>  0 0.14782262E+04</rscale>
<asrwt>0</asrwt>
<pdfrwt beam="1">  1        2 0.54159338E-01 0.14782262E+04</pdfrwt>
<pdfrwt beam="2">  1       -1 0.23873811E+00 0.14782262E+04</pdfrwt>
<totfact> 0.84072753E+00</totfact>
</mgrwt>
</event>
<event>
12    7  0.2426980E-007  0.2021403E+04  0.7818608E-02  0.8596679E-01
         -1   -1    0    0    0  501 -0.00000000000E+00  0.00000000000E+00  0.49055595190E+03  0.49055595190E+03  0.00000000000E+00 0.  1.
          2   -1    0    0  501    0  0.00000000000E+00 -0.00000000000E+00 -0.20823669444E+04  0.20823669444E+04  0.00000000000E+00 0. -1.
         24    2    1    2    0    0 -0.25607927100E+03  0.51002805074E+03 -0.13655444894E+04  0.14822716669E+04  0.81928849476E+02 0.  0.
        254    2    1    2    0    0  0.25607927100E+03 -0.51002805074E+03 -0.22626650311E+03  0.10906512294E+04  0.90145347535E+03 0.  0.
         23    2    4    4    0    0  0.40290651090E+03 -0.27273609140E+03  0.23212786005E+03  0.54650269282E+03  0.89795421821E+02 0.  0.
         23    2    4    4    0    0 -0.14682723990E+03 -0.23729195934E+03 -0.45839436316E+03  0.54414853660E+03  0.90036244686E+02 0.  0.
          4    1    3    3  502    0 -0.18405234543E+03  0.37964160736E+03 -0.10943350309E+04  0.11728478911E+04  0.00000000000E+00 0. -1.
         -3    1    3    3    0  502 -0.72026925570E+02  0.13038644338E+03 -0.27120945852E+03  0.30942377578E+03  0.00000000000E+00 0.  1.
         13    1    5    5    0    0  0.11417701739E+03 -0.11239596821E+03  0.11017760094E+03  0.19444369036E+03  0.00000000000E+00 0. -1.
        -13    1    5    5    0    0  0.28872949350E+03 -0.16034012319E+03  0.12195025911E+03  0.35205900247E+03  0.00000000000E+00 0.  1.
          2    1    6    6  503    0  0.10160352116E+01 -0.30239101707E+02 -0.10108545421E+03  0.10551637149E+03  0.00000000000E+00 0. -1.
         -2    1    6    6    0  503 -0.14784327511E+03 -0.20705285764E+03 -0.35730890895E+03  0.43863216511E+03  0.00000000000E+00 0.  1.
<mgrwt>
<rscale>  0 0.20214030E+04</rscale>
<asrwt>0</asrwt>
<pdfrwt beam="1">  1        2 0.32036415E+00 0.20214030E+04</pdfrwt>
<pdfrwt beam="2">  1       -1 0.75470146E-01 0.20214030E+04</pdfrwt>
<totfact> 0.11198977E+01</totfact>
</mgrwt>
</event>
<event>
12    7  0.2426980E-007  0.3099564E+04  0.7818608E-02  0.8215858E-01
         -1   -1    0    0    0  501 -0.00000000000E+00  0.00000000000E+00  0.18137487622E+04  0.18137487622E+04  0.00000000000E+00 0.  1.
          2   -1    0    0  501    0  0.00000000000E+00 -0.00000000000E+00 -0.13242320579E+04  0.13242320579E+04  0.00000000000E+00 0. -1.
         24    2    1    2    0    0  0.74224807054E+03 -0.11632353327E+04 -0.10561974313E+03  0.13862255031E+04  0.80106041551E+02 0.  0.
        254    2    1    2    0    0 -0.74224807054E+03  0.11632353327E+04  0.59513644746E+03  0.17517553170E+04  0.90022811668E+03 0.  0.
         23    2    4    4    0    0  0.83477485597E+02 -0.10062164037E+02 -0.95339643252E+02  0.15697566029E+03  0.92097625383E+02 0.  0.
         23    2    4    4    0    0 -0.82572555613E+03  0.11732974967E+04  0.69047609071E+03  0.15947796567E+04  0.90084469812E+02 0.  0.
          4    1    3    3  502    0  0.28627914150E+03 -0.51580800188E+03 -0.61419529091E+02  0.59311550327E+03  0.00000000000E+00 0. -1.
         -3    1    3    3    0  502  0.45596892903E+03 -0.64742733079E+03 -0.44200214042E+02  0.79310999982E+03  0.00000000000E+00 0.  1.
         13    1    5    5    0    0  0.91185943101E+01  0.32185034810E+02 -0.73063324541E+01  0.34240439860E+02  0.00000000000E+00 0.  1.
        -13    1    5    5    0    0  0.74358891287E+02 -0.42247198846E+02 -0.88033310798E+02  0.12273522043E+03  0.00000000000E+00 0. -1.
          3    1    6    6  503    0 -0.75384356735E+03  0.10298097312E+04  0.63011502825E+03  0.14233176579E+04  0.00000000000E+00 0. -1.
         -3    1    6    6    0  503 -0.71881988780E+02  0.14348776547E+03  0.60361062460E+02  0.17146199874E+03  0.00000000000E+00 0.  1.
<mgrwt>
<rscale>  0 0.30995640E+04</rscale>
<asrwt>0</asrwt>
<pdfrwt beam="1">  1        2 0.20372801E+00 0.30995640E+04</pdfrwt>
<pdfrwt beam="2">  1       -1 0.27903827E+00 0.30995640E+04</pdfrwt>
<totfact> 0.69864775E-01</totfact>
</mgrwt>
</event>
<event>
12    7  0.2426980E-007  0.2029328E+04  0.7818608E-02  0.8593030E-01
         -1   -1    0    0    0  501 -0.00000000000E+00  0.00000000000E+00  0.57056668040E+03  0.57056668040E+03  0.00000000000E+00 0.  1.
          2   -1    0    0  501    0  0.00000000000E+00 -0.00000000000E+00 -0.18044225923E+04  0.18044225923E+04  0.00000000000E+00 0. -1.
         24    2    1    2    0    0 -0.98525926584E+02 -0.79091575898E+03 -0.68185143764E+03  0.10519863153E+04  0.80614691548E+02 0.  0.
        254    2    1    2    0    0  0.98525926584E+02  0.79091575898E+03 -0.55200447426E+03  0.13230029574E+04  0.90020708160E+03 0.  0.
         23    2    4    4    0    0  0.35328055955E+03  0.81889454567E+03 -0.54774725186E+03  0.10506865910E+04  0.92302924110E+02 0.  0.
         23    2    4    4    0    0 -0.25475463296E+03 -0.27978786689E+02 -0.42572223976E+01  0.27231636648E+03  0.91952944432E+02 0.  0.
          4    1    3    3  502    0 -0.92223075142E+02 -0.45606644625E+03 -0.42080175766E+03  0.62735621319E+03  0.00000000000E+00 0. -1.
         -3    1    3    3    0  502 -0.63028514417E+01 -0.33484931273E+03 -0.26104967999E+03  0.42463010209E+03  0.00000000000E+00 0.  1.
         13    1    5    5    0    0  0.28523607669E+02  0.36917101561E+02 -0.50470097644E+02  0.68729173852E+02  0.00000000000E+00 0.  1.
        -13    1    5    5    0    0  0.32475695188E+03  0.78197744411E+03 -0.49727715421E+03  0.98195741710E+03  0.00000000000E+00 0. -1.
          1    1    6    6  503    0 -0.89391273752E+02 -0.48232463578E+02  0.21259684137E+02  0.10377448885E+03  0.00000000000E+00 0. -1.
         -1    1    6    6    0  503 -0.16536335921E+03  0.20253676890E+02 -0.25516906534E+02  0.16854187763E+03  0.00000000000E+00 0.  1.
<mgrwt>
<rscale>  0 0.20293284E+04</rscale>
<asrwt>0</asrwt>
<pdfrwt beam="1">  1        2 0.27760347E+00 0.20293284E+04</pdfrwt>
<pdfrwt beam="2">  1       -1 0.87779490E-01 0.20293284E+04</pdfrwt>
<totfact> 0.11557098E+01</totfact>
</mgrwt>
</event>
<event>
12    7  0.2426980E-007  0.1380572E+04  0.7818608E-02  0.8968003E-01
          2   -1    0    0  501    0  0.00000000000E+00  0.00000000000E+00  0.45772408719E+03  0.45772408719E+03  0.00000000000E+00 0. -1.
         -1   -1    0    0    0  501 -0.00000000000E+00 -0.00000000000E+00 -0.10410082071E+04  0.10410082071E+04  0.00000000000E+00 0.  1.
         24    2    1    2    0    0 -0.16984687033E+03 -0.23386649042E+03  0.11352309974E+03  0.32389597964E+03  0.92084834528E+02 0.  0.
        254    2    1    2    0    0  0.16984687033E+03  0.23386649042E+03 -0.69680721961E+03  0.11748363146E+04  0.90064342008E+03 0.  0.
         23    2    4    4    0    0  0.42860745421E+03  0.36710376792E+03 -0.22843409295E+03  0.61567888532E+03  0.91699666201E+02 0.  0.
         23    2    4    4    0    0 -0.25876058388E+03 -0.13323727750E+03 -0.46837312666E+03  0.55915742929E+03  0.92598234687E+02 0.  0.
          2    1    3    3  502    0 -0.10097501695E+03 -0.11702298487E+03  0.10723111100E+03  0.18811922869E+03  0.00000000000E+00 0. -1.
         -1    1    3    3    0  502 -0.68871853382E+02 -0.11684350555E+03  0.62919887418E+01  0.13577675095E+03  0.00000000000E+00 0.  1.
         13    1    5    5    0    0  0.44431179622E+02  0.13013109480E+02 -0.22451080599E+01  0.46352036106E+02  0.00000000000E+00 0. -1.
        -13    1    5    5    0    0  0.38417627459E+03  0.35409065844E+03 -0.22618898489E+03  0.56932684922E+03  0.00000000000E+00 0.  1.
          2    1    6    6  503    0 -0.18705567643E+03 -0.12356350161E+03 -0.40530751945E+03  0.46317593885E+03  0.00000000000E+00 0. -1.
         -2    1    6    6    0  503 -0.71704907457E+02 -0.96737758892E+01 -0.63065607215E+02  0.95981490438E+02  0.00000000000E+00 0.  1.
<mgrwt>
<rscale>  0 0.13805717E+04</rscale>
<asrwt>0</asrwt>
<pdfrwt beam="1">  1        2 0.70419091E-01 0.13805717E+04</pdfrwt>
<pdfrwt beam="2">  1       -1 0.16015511E+00 0.13805717E+04</pdfrwt>
<totfact> 0.22159562E+01</totfact>
</mgrwt>
</event>
<event>
12    7  0.2426980E-007  0.5341980E+04  0.7818608E-02  0.7777815E-01
          2   -1    0    0  501    0  0.00000000000E+00  0.00000000000E+00  0.30834798825E+04  0.30834798825E+04  0.00000000000E+00 0. -1.
         -1   -1    0    0    0  501 -0.00000000000E+00 -0.00000000000E+00 -0.23136802073E+04  0.23136802073E+04  0.00000000000E+00 0.  1.
         24    2    1    2    0    0  0.10634421626E+04  0.18172336973E+04 -0.11576609526E+04  0.24040974681E+04  0.79108856675E+02 0.  0.
        254    2    1    2    0    0 -0.10634421626E+04 -0.18172336973E+04  0.19274606277E+04  0.29930626217E+04  0.90003991162E+03 0.  0.
         23    2    4    4    0    0 -0.38542217281E+03 -0.11778589530E+03  0.61237972310E+03  0.73799161854E+03  0.84846539966E+02 0.  0.
         23    2    4    4    0    0 -0.67801998974E+03 -0.16994478020E+04  0.13150809046E+04  0.22550710032E+04  0.89852687949E+02 0.  0.
          4    1    3    3  502    0  0.43729313244E+03  0.71148024429E+03 -0.42018080774E+03  0.93486968765E+03  0.00000000000E+00 0. -1.
         -3    1    3    3    0  502  0.62614903011E+03  0.11057534530E+04 -0.73748014484E+03  0.14692277804E+04  0.00000000000E+00 0.  1.
         13    1    5    5    0    0 -0.25999148884E+03 -0.52008866909E+02  0.34176948778E+03  0.43255852700E+03  0.00000000000E+00 0. -1.
        -13    1    5    5    0    0 -0.12543068398E+03 -0.65777028392E+02  0.27061023532E+03  0.30543309154E+03  0.00000000000E+00 0.  1.
          2    1    6    6  503    0 -0.21770021565E+03 -0.66336258307E+03  0.49958529374E+03  0.85850379512E+03  0.00000000000E+00 0. -1.
         -2    1    6    6    0  503 -0.46031977408E+03 -0.10360852189E+04  0.81549561086E+03  0.13965672081E+04  0.00000000000E+00 0.  1.
<mgrwt>
<rscale>  0 0.53419795E+04</rscale>
<asrwt>0</asrwt>
<pdfrwt beam="1">  1        2 0.47438152E+00 0.53419795E+04</pdfrwt>
<pdfrwt beam="2">  1       -1 0.35595080E+00 0.53419795E+04</pdfrwt>
<totfact> 0.17612731E-02</totfact>
</mgrwt>
</event>
<event>
12    7  0.2426980E-007  0.2602725E+04  0.7818608E-02  0.8367276E-01
         -1   -1    0    0    0  501 -0.00000000000E+00  0.00000000000E+00  0.43412281159E+03  0.43412281159E+03  0.00000000000E+00 0.  1.
          2   -1    0    0  501    0  0.00000000000E+00 -0.00000000000E+00 -0.39010735125E+04  0.39010735125E+04  0.00000000000E+00 0. -1.
         24    2    1    2    0    0 -0.75897668155E+03  0.85559237089E+03 -0.14318403432E+04  0.18343013681E+04  0.80067673075E+02 0.  0.
        254    2    1    2    0    0  0.75897668155E+03 -0.85559237089E+03 -0.20351103577E+04  0.25008949560E+04  0.89706047993E+03 0.  0.
         23    2    4    4    0    0  0.54826292788E+03 -0.49327331292E+02 -0.11723695588E+04  0.12978604084E+04  0.83461569321E+02 0.  0.
         23    2    4    4    0    0  0.21071375367E+03 -0.80626503960E+03 -0.86274079884E+03  0.12030345476E+04  0.92232513658E+02 0.  0.
          2    1    3    3  502    0 -0.45496197985E+03  0.49094504050E+03 -0.89583740711E+03  0.11182763951E+04  0.00000000000E+00 0. -1.
         -1    1    3    3    0  502 -0.30401470171E+03  0.36464733039E+03 -0.53600293608E+03  0.71602497296E+03  0.00000000000E+00 0.  1.
         13    1    5    5    0    0  0.94917610992E+02  0.23058750482E+02 -0.20425771369E+03  0.22641173214E+03  0.00000000000E+00 0. -1.
        -13    1    5    5    0    0  0.45334531689E+03 -0.72386081774E+02 -0.96811184515E+03  0.10714486763E+04  0.00000000000E+00 0.  1.
          4    1    6    6  503    0  0.64870370653E+02 -0.15340928178E+03 -0.21398503966E+03  0.27116815802E+03  0.00000000000E+00 0. -1.
         -4    1    6    6    0  503  0.14584338302E+03 -0.65285575782E+03 -0.64875575918E+03  0.93186638954E+03  0.00000000000E+00 0.  1.
<mgrwt>
<rscale>  0 0.26027255E+04</rscale>
<asrwt>0</asrwt>
<pdfrwt beam="1">  1        2 0.60016515E+00 0.26027255E+04</pdfrwt>
<pdfrwt beam="2">  1       -1 0.66788126E-01 0.26027255E+04</pdfrwt>
<totfact> 0.93887039E-01</totfact>
</mgrwt>
</event>
<event>
12    7  0.2426980E-007  0.2175897E+04  0.7818608E-02  0.8528528E-01
          2   -1    0    0  501    0  0.00000000000E+00  0.00000000000E+00  0.21991679373E+04  0.21991679373E+04  0.00000000000E+00 0. -1.
         -1   -1    0    0    0  501 -0.00000000000E+00 -0.00000000000E+00 -0.53821785484E+03  0.53821785484E+03  0.00000000000E+00 0.  1.
         24    2    1    2    0    0 -0.67819001991E+03  0.26035884527E+02  0.14328753724E+04  0.15875353218E+04  0.80727905119E+02 0.  0.
        254    2    1    2    0    0  0.67819001991E+03 -0.26035884527E+02  0.22807471002E+03  0.11498504703E+04  0.89973243820E+03 0.  0.
         23    2    4    4    0    0  0.43582513421E+03  0.31138242237E+03  0.41617861319E+03  0.68458986355E+03  0.92499095287E+02 0.  0.
         23    2    4    4    0    0  0.24236488570E+03 -0.33741830690E+03 -0.18810390317E+03  0.46526060677E+03  0.92154772902E+02 0.  0.
          2    1    3    3  502    0 -0.56139695530E+03  0.38733947439E+02  0.12396933977E+04  0.13614354852E+04  0.00000000000E+00 0. -1.
         -1    1    3    3    0  502 -0.11679306461E+03 -0.12698062913E+02  0.19318197469E+03  0.22609983655E+03  0.00000000000E+00 0.  1.
         13    1    5    5    0    0  0.69884087141E+02  0.61177860291E+02  0.32783103169E+02  0.98494913973E+02  0.00000000000E+00 0. -1.
        -13    1    5    5    0    0  0.36594104707E+03  0.25020456208E+03  0.38339551002E+03  0.58609494958E+03  0.00000000000E+00 0.  1.
          2    1    6    6  503    0  0.12111559878E+03 -0.16071990929E+03 -0.14133699633E+03  0.24591873463E+03  0.00000000000E+00 0.  1.
         -2    1    6    6    0  503  0.12124928692E+03 -0.17669839761E+03 -0.46766906837E+02  0.21934187213E+03  0.00000000000E+00 0. -1.
<mgrwt>
<rscale>  0 0.21758966E+04</rscale>
<asrwt>0</asrwt>
<pdfrwt beam="1">  1        2 0.33833353E+00 0.21758966E+04</pdfrwt>
<pdfrwt beam="2">  1       -1 0.82802748E-01 0.21758966E+04</pdfrwt>
<totfact> 0.78065286E+00</totfact>
</mgrwt>
</event>
<event>
12    7  0.2426980E-007  0.2050433E+04  0.7818608E-02  0.8583398E-01
          2   -1    0    0  501    0  0.00000000000E+00  0.00000000000E+00  0.10526321145E+04  0.10526321145E+04  0.00000000000E+00 0. -1.
         -1   -1    0    0    0  501 -0.00000000000E+00 -0.00000000000E+00 -0.99851499754E+03  0.99851499754E+03  0.00000000000E+00 0.  1.
         24    2    1    2    0    0 -0.74903802473E+02  0.69325906454E+03  0.46490701886E+03  0.84194040534E+03  0.80662257403E+02 0.  0.
        254    2    1    2    0    0  0.74903802473E+02 -0.69325906454E+03 -0.41078990190E+03  0.12092067067E+04  0.89845078097E+03 0.  0.
         23    2    4    4    0    0  0.47665717368E+03 -0.42955490093E+03 -0.22037475617E+03  0.68456958504E+03  0.91383857817E+02 0.  0.
         23    2    4    4    0    0 -0.40175337121E+03 -0.26370416361E+03 -0.19041514574E+03  0.52463712166E+03  0.89668971884E+02 0.  0.
          2    1    3    3  502    0 -0.53345783002E+02  0.21517372492E+03  0.12046168372E+03  0.25230244094E+03  0.00000000000E+00 0. -1.
         -1    1    3    3    0  502 -0.21558019471E+02  0.47808533962E+03  0.34444533514E+03  0.58963796440E+03  0.00000000000E+00 0.  1.
         13    1    5    5    0    0  0.83462542847E+02 -0.44195572482E+02 -0.91195703496E+01  0.94881037351E+02  0.00000000000E+00 0. -1.
        -13    1    5    5    0    0  0.39319463083E+03 -0.38535932845E+03 -0.21125518582E+03  0.58968854769E+03  0.00000000000E+00 0.  1.
          2    1    6    6  503    0 -0.12063824029E+03 -0.11687963097E+03 -0.35527422170E+02  0.17168759677E+03  0.00000000000E+00 0. -1.
         -2    1    6    6    0  503 -0.28111513091E+03 -0.14682453264E+03 -0.15488772357E+03  0.35294952490E+03  0.00000000000E+00 0.  1.
<mgrwt>
<rscale>  0 0.20504331E+04</rscale>
<asrwt>0</asrwt>
<pdfrwt beam="1">  1        2 0.16194340E+00 0.20504331E+04</pdfrwt>
<pdfrwt beam="2">  1       -1 0.15361769E+00 0.20504331E+04</pdfrwt>
<totfact> 0.80484258E+00</totfact>
</mgrwt>
</event>
<event>
12    7  0.2426980E-007  0.1685513E+04  0.7818608E-02  0.8769670E-01
         -1   -1    0    0    0  501 -0.00000000000E+00  0.00000000000E+00  0.45218863897E+03  0.45218863897E+03  0.00000000000E+00 0.  1.
          2   -1    0    0  501    0  0.00000000000E+00 -0.00000000000E+00 -0.15706688393E+04  0.15706688393E+04  0.00000000000E+00 0. -1.
         24    2    1    2    0    0  0.21434530763E+03 -0.55738700599E+03 -0.45604215120E+03  0.75562640200E+03  0.79828756555E+02 0.  0.
        254    2    1    2    0    0 -0.21434530763E+03  0.55738700599E+03 -0.66243804915E+03  0.12672310763E+04  0.90023677241E+03 0.  0.
         23    2    4    4    0    0 -0.25252604007E+03  0.69367459951E+03 -0.19296850250E+03  0.76852825390E+03  0.91896589534E+02 0.  0.
         23    2    4    4    0    0  0.38180732445E+02 -0.13628759352E+03 -0.46946954665E+03  0.49870282239E+03  0.90943792283E+02 0.  0.
          4    1    3    3  502    0 -0.64639563567E+01 -0.11256356705E+02 -0.59586566849E+01  0.14282642876E+02  0.00000000000E+00 0. -1.
         -3    1    3    3    0  502  0.22080926398E+03 -0.54613064929E+03 -0.45008349452E+03  0.74134375912E+03  0.00000000000E+00 0.  1.
         13    1    5    5    0    0 -0.10324870833E+02  0.12987057340E+03 -0.34447835526E+02  0.13475764232E+03  0.00000000000E+00 0.  1.
        -13    1    5    5    0    0 -0.24220116924E+03  0.56380402611E+03 -0.15852066698E+03  0.63377061158E+03  0.00000000000E+00 0. -1.
          1    1    6    6  503    0  0.50907988375E+02 -0.10034866521E+03 -0.42723780200E+03  0.44180721741E+03  0.00000000000E+00 0. -1.
         -1    1    6    6    0  503 -0.12727255929E+02 -0.35938928302E+02 -0.42231744643E+02  0.56895604984E+02  0.00000000000E+00 0.  1.
<mgrwt>
<rscale>  0 0.16855131E+04</rscale>
<asrwt>0</asrwt>
<pdfrwt beam="1">  1        2 0.24164136E+00 0.16855131E+04</pdfrwt>
<pdfrwt beam="2">  1       -1 0.69567484E-01 0.16855131E+04</pdfrwt>
<totfact> 0.26269319E+01</totfact>
</mgrwt>
</event>
<event>
12    7  0.2426980E-007  0.1209668E+04  0.7818608E-02  0.9104436E-01
          2   -1    0    0  501    0  0.00000000000E+00  0.00000000000E+00  0.31259212334E+04  0.31259212334E+04  0.00000000000E+00 0. -1.
         -1   -1    0    0    0  501 -0.00000000000E+00 -0.00000000000E+00 -0.11702917274E+03  0.11702917274E+03  0.00000000000E+00 0.  1.
         24    2    1    2    0    0 -0.25670465457E+03  0.55300405350E+02  0.63236594407E+03  0.68824872207E+03  0.69600299503E+02 0.  0.
        254    2    1    2    0    0  0.25670465457E+03 -0.55300405350E+02  0.23765261166E+04  0.25547016841E+04  0.89981603528E+03 0.  0.
         23    2    4    4    0    0 -0.24325277924E+03  0.68798185549E+02  0.15744447024E+04  0.15971747559E+04  0.90476377852E+02 0.  0.
         23    2    4    4    0    0  0.49995743381E+03 -0.12409859090E+03  0.80208141422E+03  0.95752692824E+03  0.90362201061E+02 0.  0.
          4    1    3    3  502    0 -0.15521413865E+03  0.22375736794E+02  0.45496589120E+03  0.48123389801E+03  0.00000000000E+00 0. -1.
         -3    1    3    3    0  502 -0.10149051592E+03  0.32924668556E+02  0.17740005287E+03  0.20701482406E+03  0.00000000000E+00 0.  1.
         13    1    5    5    0    0 -0.22164203239E+03  0.85879527984E+02  0.14730520658E+04  0.14921068569E+04  0.00000000000E+00 0.  1.
        -13    1    5    5    0    0 -0.21610746855E+02 -0.17081342435E+02  0.10139263665E+03  0.10506789903E+03  0.00000000000E+00 0. -1.
          4    1    6    6  503    0  0.34351603894E+03 -0.42449210865E+02  0.51335912195E+03  0.61914682637E+03  0.00000000000E+00 0. -1.
         -4    1    6    6    0  503  0.15644139487E+03 -0.81649380034E+02  0.28872229227E+03  0.33838010187E+03  0.00000000000E+00 0.  1.
<mgrwt>
<rscale>  0 0.12096677E+04</rscale>
<asrwt>0</asrwt>
<pdfrwt beam="1">  1        2 0.48091090E+00 0.12096677E+04</pdfrwt>
<pdfrwt beam="2">  1       -1 0.18004491E-01 0.12096677E+04</pdfrwt>
<totfact> 0.40314113E+01</totfact>
</mgrwt>
</event>
<event>
12    7  0.2426980E-007  0.2181426E+04  0.7818608E-02  0.8526199E-01
          2   -1    0    0  501    0  0.00000000000E+00  0.00000000000E+00  0.17469987648E+04  0.17469987648E+04  0.00000000000E+00 0. -1.
         -1   -1    0    0    0  501 -0.00000000000E+00 -0.00000000000E+00 -0.68097068350E+03  0.68097068350E+03  0.00000000000E+00 0.  1.
         24    2    1    2    0    0 -0.78262709683E+03 -0.10621006008E+03  0.92825640391E+03  0.12218503247E+04  0.86443710611E+02 0.  0.
        254    2    1    2    0    0  0.78262709683E+03  0.10621006008E+03  0.13777167738E+03  0.12061191235E+04  0.90108631970E+03 0.  0.
         23    2    4    4    0    0  0.18600241762E+03 -0.16280378006E+02 -0.35910026470E+03  0.41497180044E+03  0.91578627333E+02 0.  0.
         23    2    4    4    0    0  0.59662467921E+03  0.12249043808E+03  0.49687194208E+03  0.79114732311E+03  0.89818955542E+02 0.  0.
          2    1    3    3  502    0 -0.61156544519E+03 -0.51819152496E+02  0.68859986792E+03  0.92242468332E+03  0.00000000000E+00 0. -1.
         -1    1    3    3    0  502 -0.17106165164E+03 -0.54390907581E+02  0.23965653600E+03  0.29942564142E+03  0.00000000000E+00 0.  1.
         13    1    5    5    0    0  0.12844671514E+03  0.32419625232E+02 -0.23479102191E+03  0.26958563519E+03  0.00000000000E+00 0. -1.
        -13    1    5    5    0    0  0.57555702472E+02 -0.48700003238E+02 -0.12430924279E+03  0.14538616524E+03  0.00000000000E+00 0.  1.
          1    1    6    6  503    0  0.37683425476E+03  0.45424483816E+02  0.26828607171E+03  0.46480625595E+03  0.00000000000E+00 0. -1.
         -1    1    6    6    0  503  0.21979042445E+03  0.77065954267E+02  0.22858587037E+03  0.32634106717E+03  0.00000000000E+00 0.  1.
<mgrwt>
<rscale>  0 0.21814261E+04</rscale>
<asrwt>0</asrwt>
<pdfrwt beam="1">  1        2 0.26876904E+00 0.21814261E+04</pdfrwt>
<pdfrwt beam="2">  1       -1 0.10476472E+00 0.21814261E+04</pdfrwt>
<totfact> 0.82374460E+00</totfact>
</mgrwt>
</event>
<event>
12    7  0.2426980E-007  0.3018134E+04  0.7818608E-02  0.8238571E-01
         -1   -1    0    0    0  501 -0.00000000000E+00  0.00000000000E+00  0.11202480721E+04  0.11202480721E+04  0.00000000000E+00 0.  1.
          2   -1    0    0  501    0  0.00000000000E+00 -0.00000000000E+00 -0.20328383429E+04  0.20328383429E+04  0.00000000000E+00 0. -1.
         24    2    1    2    0    0  0.34197680609E+03 -0.13267640651E+04 -0.51910147028E+03  0.14673499408E+04  0.79990573415E+02 0.  0.
        254    2    1    2    0    0 -0.34197680609E+03  0.13267640651E+04 -0.39348880055E+03  0.16857364743E+04  0.89979053349E+03 0.  0.
         23    2    4    4    0    0  0.20182724512E+03  0.10304775046E+03  0.90467047042E+02  0.25895084821E+03  0.86707435899E+02 0.  0.
         23    2    4    4    0    0 -0.54380405121E+03  0.12237163146E+04 -0.48395584759E+03  0.14267856261E+04  0.91101566785E+02 0.  0.
          4    1    3    3  502    0  0.27958003917E+03 -0.11854031237E+04 -0.45849339156E+03  0.13013691844E+04  0.00000000000E+00 0. -1.
         -3    1    3    3    0  502  0.62396766929E+02 -0.14136094140E+03 -0.60608078718E+02  0.16598075636E+03  0.00000000000E+00 0.  1.
         13    1    5    5    0    0  0.15558140253E+03  0.54378721402E+02  0.27853876581E+02  0.16714800805E+03  0.00000000000E+00 0. -1.
        -13    1    5    5    0    0  0.46245842592E+02  0.48669029060E+02  0.62613170461E+02  0.91802840163E+02  0.00000000000E+00 0.  1.
          3    1    6    6  503    0 -0.48367039511E+03  0.10715140905E+04 -0.39306416061E+03  0.12395882105E+04  0.00000000000E+00 0. -1.
         -3    1    6    6    0  503 -0.60133656102E+02  0.15220222411E+03 -0.90891686980E+02  0.18719741554E+03  0.00000000000E+00 0.  1.
<mgrwt>
<rscale>  0 0.30181340E+04</rscale>
<asrwt>0</asrwt>
<pdfrwt beam="1">  1        2 0.31274436E+00 0.30181340E+04</pdfrwt>
<pdfrwt beam="2">  1       -1 0.17234586E+00 0.30181340E+04</pdfrwt>
<totfact> 0.14728930E+00</totfact>
</mgrwt>
</event>
<event>
12    7  0.2426980E-007  0.1899626E+04  0.7818608E-02  0.8655043E-01
          2   -1    0    0  501    0  0.00000000000E+00  0.00000000000E+00  0.26325800188E+04  0.26325800188E+04  0.00000000000E+00 0. -1.
         -1   -1    0    0    0  501 -0.00000000000E+00 -0.00000000000E+00 -0.34268466217E+03  0.34268466217E+03  0.00000000000E+00 0.  1.
         24    2    1    2    0    0 -0.61343397996E+03  0.40020831872E+03  0.97323407671E+03  0.12208005559E+04  0.81862587133E+02 0.  0.
        254    2    1    2    0    0  0.61343397996E+03 -0.40020831872E+03  0.13166612799E+04  0.17544641250E+04  0.89893241894E+03 0.  0.
         23    2    4    4    0    0  0.32295422944E+03 -0.67142164912E+03  0.79897530154E+03  0.10956489343E+04  0.83537953188E+02 0.  0.
         23    2    4    4    0    0  0.29047975053E+03  0.27121333040E+03  0.51768597837E+03  0.65881519068E+03  0.90019593521E+02 0.  0.
          2    1    3    3  502    0 -0.14607742844E+03  0.65436812616E+02  0.17588270255E+03  0.23781361735E+03  0.00000000000E+00 0. -1.
         -1    1    3    3    0  502 -0.46735655153E+03  0.33477150610E+03  0.79735137417E+03  0.98298693859E+03  0.00000000000E+00 0.  1.
         13    1    5    5    0    0  0.22332164566E+03 -0.37544615577E+03  0.44447016404E+03  0.62320630615E+03  0.00000000000E+00 0.  1.
        -13    1    5    5    0    0  0.99632583776E+02 -0.29597549335E+03  0.35450513750E+03  0.47244262819E+03  0.00000000000E+00 0. -1.
          2    1    6    6  503    0  0.15542089014E+03  0.11015050176E+03  0.18673718031E+03  0.26675749406E+03  0.00000000000E+00 0. -1.
         -2    1    6    6    0  503  0.13505886039E+03  0.16106282864E+03  0.33094879805E+03  0.39205769661E+03  0.00000000000E+00 0.  1.
<mgrwt>
<rscale>  0 0.18996261E+04</rscale>
<asrwt>0</asrwt>
<pdfrwt beam="1">  1        2 0.40501230E+00 0.18996261E+04</pdfrwt>
<pdfrwt beam="2">  1       -1 0.52720719E-01 0.18996261E+04</pdfrwt>
<totfact> 0.11272480E+01</totfact>
</mgrwt>
</event>
<event>
12    7  0.2426980E-007  0.1620964E+04  0.7818608E-02  0.8807772E-01
         -1   -1    0    0    0  501 -0.00000000000E+00  0.00000000000E+00  0.45366675230E+03  0.45366675230E+03  0.00000000000E+00 0.  1.
          2   -1    0    0  501    0  0.00000000000E+00 -0.00000000000E+00 -0.14479371280E+04  0.14479371280E+04  0.00000000000E+00 0. -1.
         24    2    1    2    0    0  0.37163831641E+03 -0.36282697018E+03 -0.58421361877E+03  0.78572336966E+03  0.79354979446E+02 0.  0.
        254    2    1    2    0    0 -0.37163831641E+03  0.36282697018E+03 -0.41005675691E+03  0.11158805106E+04  0.89849002310E+03 0.  0.
         23    2    4    4    0    0 -0.55612448138E+03  0.34350685389E+03 -0.55605445669E+03  0.86333827283E+03  0.94260368528E+02 0.  0.
         23    2    4    4    0    0  0.18448616498E+03  0.19320116291E+02  0.14599769978E+03  0.25254223780E+03  0.89743197909E+02 0.  0.
          4    1    3    3  502    0  0.11186573847E+02 -0.10199720756E+01 -0.30214250002E+02  0.32234774401E+02  0.00000000000E+00 0. -1.
         -3    1    3    3    0  502  0.36045174256E+03 -0.36180699810E+03 -0.55399936876E+03  0.75348859525E+03  0.00000000000E+00 0.  1.
         13    1    5    5    0    0 -0.24334557232E+03  0.17345057947E+03 -0.19843412129E+03  0.35871753731E+03  0.00000000000E+00 0.  1.
        -13    1    5    5    0    0 -0.31277890907E+03  0.17005627442E+03 -0.35762033540E+03  0.50462073552E+03  0.00000000000E+00 0. -1.
          3    1    6    6  503    0  0.75664295382E+02  0.51667096048E+02  0.77086580129E+02  0.11973685834E+03  0.00000000000E+00 0. -1.
         -3    1    6    6    0  503  0.10882186959E+03 -0.32346979757E+02  0.68911119647E+02  0.13280537946E+03  0.00000000000E+00 0.  1.
<mgrwt>
<rscale>  0 0.16209638E+04</rscale>
<asrwt>0</asrwt>
<pdfrwt beam="1">  1        2 0.22275956E+00 0.16209638E+04</pdfrwt>
<pdfrwt beam="2">  1       -1 0.69794885E-01 0.16209638E+04</pdfrwt>
<totfact> 0.30770476E+01</totfact>
</mgrwt>
</event>
<event>
12    7  0.2478988E-007  0.2484424E+04  0.7818608E-02  0.8408556E-01
          2   -1    0    0  501    0  0.00000000000E+00  0.00000000000E+00  0.21464336138E+04  0.21464336138E+04  0.00000000000E+00 0. -1.
         -3   -1    0    0    0  501 -0.00000000000E+00 -0.00000000000E+00 -0.71890921090E+03  0.71890921090E+03  0.00000000000E+00 0.  1.
         24    2    1    2    0    0 -0.91186615186E+03 -0.42180423894E+03  0.17195093270E+03  0.10221892309E+04  0.76713790786E+02 0.  0.
        254    2    1    2    0    0  0.91186615186E+03  0.42180423894E+03  0.12555734702E+04  0.18431535938E+04  0.90073954961E+03 0.  0.
         23    2    4    4    0    0  0.87400671013E+03  0.48696625897E+02  0.54566672354E+03  0.10355418969E+04  0.91300363717E+02 0.  0.
         23    2    4    4    0    0  0.37859441733E+02  0.37310761305E+03  0.70990674666E+03  0.80761169682E+03  0.87329466127E+02 0.  0.
          4    1    3    3  502    0 -0.42722739238E+03 -0.16638302625E+03  0.10433878897E+03  0.47020542224E+03  0.00000000000E+00 0. -1.
         -3    1    3    3    0  502 -0.48463875948E+03 -0.25542121269E+03  0.67612143730E+02  0.55198380870E+03  0.00000000000E+00 0.  1.
         13    1    5    5    0    0  0.84585559536E+03  0.32709850563E+02  0.51437264107E+03  0.99051543976E+03  0.00000000000E+00 0.  1.
        -13    1    5    5    0    0  0.28151114768E+02  0.15986775335E+02  0.31294082470E+02  0.45026457177E+02  0.00000000000E+00 0. -1.
          4    1    6    6  503    0 -0.35844412587E+00  0.11518782038E+01 -0.26476970717E+01  0.29095713381E+01  0.00000000000E+00 0. -1.
         -4    1    6    6    0  503  0.38217885859E+02  0.37195573484E+03  0.71255444373E+03  0.80470212549E+03  0.00000000000E+00 0.  1.
<mgrwt>
<rscale>  0 0.24844242E+04</rscale>
<asrwt>0</asrwt>
<pdfrwt beam="1">  1        2 0.33022055E+00 0.24844242E+04</pdfrwt>
<pdfrwt beam="2">  1       -3 0.11060142E+00 0.24844242E+04</pdfrwt>
<totfact> 0.21683894E+00</totfact>
</mgrwt>
</event>
<event>
12    7  0.2426980E-007  0.1917684E+04  0.7818608E-02  0.8646104E-01
         -1   -1    0    0    0  501 -0.00000000000E+00  0.00000000000E+00  0.33483585148E+03  0.33483585148E+03  0.00000000000E+00 0.  1.
          2   -1    0    0  501    0  0.00000000000E+00 -0.00000000000E+00 -0.27457567300E+04  0.27457567300E+04  0.00000000000E+00 0. -1.
         24    2    1    2    0    0 -0.31777888971E+03 -0.36489830691E+03 -0.32280888778E+02  0.49147441723E+03  0.79817603834E+02 0.  0.
        254    2    1    2    0    0  0.31777888971E+03  0.36489830691E+03 -0.23786399898E+04  0.25891181643E+04  0.90081655763E+03 0.  0.
         23    2    4    4    0    0  0.51733291745E+03 -0.26285773865E+02 -0.88293346608E+03  0.10276913862E+04  0.90850373051E+02 0.  0.
         23    2    4    4    0    0 -0.19955402774E+03  0.39118408077E+03 -0.14957065237E+04  0.15614267781E+04  0.89826406769E+02 0.  0.
          4    1    3    3  502    0 -0.19068151758E+03 -0.23450640019E+03  0.17352377499E+02  0.30274378256E+03  0.00000000000E+00 0. -1.
         -3    1    3    3    0  502 -0.12709737213E+03 -0.13039190672E+03 -0.49633266278E+02  0.18873063467E+03  0.00000000000E+00 0.  1.
         13    1    5    5    0    0  0.44673327888E+03 -0.41388481263E+02 -0.70475868167E+03  0.83544504800E+03  0.00000000000E+00 0.  1.
        -13    1    5    5    0    0  0.70599638568E+02  0.15102707398E+02 -0.17817478441E+03  0.19224633816E+03  0.00000000000E+00 0. -1.
          2    1    6    6  503    0 -0.14256812968E+03  0.21908370682E+03 -0.75923090614E+03  0.80296631999E+03  0.00000000000E+00 0. -1.
         -2    1    6    6    0  503 -0.56985898061E+02  0.17210037396E+03 -0.73647561754E+03  0.75846045811E+03  0.00000000000E+00 0.  1.
<mgrwt>
<rscale>  0 0.19176838E+04</rscale>
<asrwt>0</asrwt>
<pdfrwt beam="1">  1        2 0.42242412E+00 0.19176838E+04</pdfrwt>
<pdfrwt beam="2">  1       -1 0.51513207E-01 0.19176838E+04</pdfrwt>
<totfact> 0.10081137E+01</totfact>
</mgrwt>
</event>
<event>
12    7  0.2426980E-007  0.2033549E+04  0.7818608E-02  0.8591094E-01
          2   -1    0    0  501    0  0.00000000000E+00  0.00000000000E+00  0.17859601202E+04  0.17859601202E+04  0.00000000000E+00 0. -1.
         -1   -1    0    0    0  501 -0.00000000000E+00 -0.00000000000E+00 -0.57886560484E+03  0.57886560484E+03  0.00000000000E+00 0.  1.
         24    2    1    2    0    0  0.51876280414E+01 -0.79661501919E+02  0.14306127314E+04  0.14350523157E+04  0.79683719714E+02 0.  0.
        254    2    1    2    0    0 -0.51876280414E+01  0.79661501919E+02 -0.22351821602E+03  0.92977340936E+03  0.89896903923E+03 0.  0.
         23    2    4    4    0    0 -0.20593273378E+03 -0.14921691163E+03 -0.46028841904E+03  0.53359086689E+03  0.90442285287E+02 0.  0.
         23    2    4    4    0    0  0.20074510574E+03  0.22887841355E+03  0.23677020302E+03  0.39618254247E+03  0.90645199854E+02 0.  0.
          4    1    3    3  502    0  0.14046322326E+01 -0.79664559522E+02  0.14284980548E+04  0.14307183886E+04  0.00000000000E+00 0. -1.
         -3    1    3    3    0  502  0.37829958087E+01  0.30576029471E-02  0.21146766014E+01  0.43339270606E+01  0.00000000000E+00 0.  1.
         13    1    5    5    0    0 -0.81868027081E+02 -0.46724833854E+02 -0.26063490557E+03  0.27715724411E+03  0.00000000000E+00 0. -1.
        -13    1    5    5    0    0 -0.12406470670E+03 -0.10249207777E+03 -0.19965351346E+03  0.25643362278E+03  0.00000000000E+00 0.  1.
          4    1    6    6  503    0  0.51448606780E+02  0.10101992021E+03  0.46244674566E+02  0.12243591526E+03  0.00000000000E+00 0.  1.
         -4    1    6    6    0  503  0.14929649896E+03  0.12785849333E+03  0.19052552845E+03  0.27374662721E+03  0.00000000000E+00 0. -1.
<mgrwt>
<rscale>  0 0.20335495E+04</rscale>
<asrwt>0</asrwt>
<pdfrwt beam="1">  1        2 0.27476309E+00 0.20335495E+04</pdfrwt>
<pdfrwt beam="2">  1       -1 0.89056247E-01 0.20335495E+04</pdfrwt>
<totfact> 0.11459793E+01</totfact>
</mgrwt>
</event>
<event>
12    7  0.2426980E-007  0.2629403E+04  0.7818608E-02  0.8358282E-01
          2   -1    0    0  501    0  0.00000000000E+00  0.00000000000E+00  0.28454898940E+04  0.28454898940E+04  0.00000000000E+00 0. -1.
         -3   -1    0    0    0  501 -0.00000000000E+00 -0.00000000000E+00 -0.60743144248E+03  0.60743144248E+03  0.00000000000E+00 0.  1.
         24    2    1    2    0    0 -0.40215250590E+03  0.10025332980E+04  0.15348021210E+04  0.18784307927E+04  0.78006671071E+02 0.  0.
        254    2    1    2    0    0  0.40215250590E+03 -0.10025332980E+04  0.70325633049E+03  0.15744905438E+04  0.90424076136E+03 0.  0.
         23    2    4    4    0    0  0.10886703022E+03 -0.10177325344E+04  0.73700791629E+03  0.12648257237E+04  0.94720118093E+02 0.  0.
         23    2    4    4    0    0  0.29328547567E+03  0.15199236391E+02 -0.33751585801E+02  0.30966482011E+03  0.92226591853E+02 0.  0.
          4    1    3    3  502    0 -0.38705012655E+03  0.97029114305E+03  0.15048883965E+04  0.18319284343E+04  0.00000000000E+00 0. -1.
         -3    1    3    3    0  502 -0.15102379342E+02  0.32242154926E+02  0.29913724563E+02  0.46502358363E+02  0.00000000000E+00 0.  1.
         13    1    5    5    0    0 -0.12498606177E+02 -0.12229026883E+03  0.67875053454E+02  0.14042132277E+03  0.00000000000E+00 0. -1.
        -13    1    5    5    0    0  0.12136563640E+03 -0.89544226554E+03  0.66913286283E+03  0.11244044009E+04  0.00000000000E+00 0.  1.
          1    1    6    6  503    0  0.30024518620E+02 -0.48198803145E+01  0.24787877402E+02  0.39231898127E+02  0.00000000000E+00 0. -1.
         -1    1    6    6    0  503  0.26326095705E+03  0.20019116706E+02 -0.58539463203E+02  0.27043292199E+03  0.00000000000E+00 0.  1.
<mgrwt>
<rscale>  0 0.26294030E+04</rscale>
<asrwt>0</asrwt>
<pdfrwt beam="1">  1        2 0.43776767E+00 0.26294030E+04</pdfrwt>
<pdfrwt beam="2">  1       -3 0.93450993E-01 0.26294030E+04</pdfrwt>
<totfact> 0.12533557E+00</totfact>
</mgrwt>
</event>
<event>
12    7  0.2426980E-007  0.1445239E+04  0.7818608E-02  0.8921708E-01
         -1   -1    0    0    0  501 -0.00000000000E+00  0.00000000000E+00  0.80001772492E+03  0.80001772492E+03  0.00000000000E+00 0.  1.
          2   -1    0    0  501    0  0.00000000000E+00 -0.00000000000E+00 -0.65270956806E+03  0.65270956806E+03  0.00000000000E+00 0. -1.
         24    2    1    2    0    0  0.24552308782E+03  0.32397556198E+03 -0.12995534103E+03  0.43420202189E+03  0.80007835513E+02 0.  0.
        254    2    1    2    0    0 -0.24552308782E+03 -0.32397556198E+03  0.27726349788E+03  0.10185252711E+04  0.89178300566E+03 0.  0.
         23    2    4    4    0    0 -0.85680141646E+02  0.22329999482E+03 -0.15389124635E+03  0.29818266786E+03  0.89590252527E+02 0.  0.
         23    2    4    4    0    0 -0.15984294618E+03 -0.54727555679E+03  0.43115474424E+03  0.72034260323E+03  0.89099663561E+02 0.  0.
          4    1    3    3  502    0  0.15641700744E+03  0.25233441873E+03 -0.11712209581E+03  0.31914968967E+03  0.00000000000E+00 0. -1.
         -3    1    3    3    0  502  0.89106080381E+02  0.71641143249E+02 -0.12833245221E+02  0.11505233222E+03  0.00000000000E+00 0.  1.
         13    1    5    5    0    0 -0.74752485561E+02  0.93861479951E+02 -0.10480961615E+03  0.15932032875E+03  0.00000000000E+00 0.  1.
        -13    1    5    5    0    0 -0.10927656085E+02  0.12943851487E+03 -0.49081630207E+02  0.13886233911E+03  0.00000000000E+00 0. -1.
          4    1    6    6  503    0 -0.87341183270E+02 -0.33843419091E+03  0.31545884551E+03  0.47082955205E+03  0.00000000000E+00 0.  1.
         -4    1    6    6    0  503 -0.72501762908E+02 -0.20884136588E+03  0.11569589873E+03  0.24951305118E+03  0.00000000000E+00 0. -1.
<mgrwt>
<rscale>  0 0.14452394E+04</rscale>
<asrwt>0</asrwt>
<pdfrwt beam="1">  1        2 0.10041686E+00 0.14452394E+04</pdfrwt>
<pdfrwt beam="2">  1       -1 0.12307965E+00 0.14452394E+04</pdfrwt>
<totfact> 0.28841136E+01</totfact>
</mgrwt>
</event>
<event>
12    7  0.2426980E-007  0.2634103E+04  0.7818608E-02  0.8356709E-01
         -1   -1    0    0    0  501 -0.00000000000E+00  0.00000000000E+00  0.16537981687E+04  0.16537981687E+04  0.00000000000E+00 0.  1.
          2   -1    0    0  501    0  0.00000000000E+00 -0.00000000000E+00 -0.10488731531E+04  0.10488731531E+04  0.00000000000E+00 0. -1.
         24    2    1    2    0    0  0.78115335605E+03  0.86000221919E+03  0.26489991806E+03  0.11944377189E+04  0.81884767739E+02 0.  0.
        254    2    1    2    0    0 -0.78115335605E+03 -0.86000221919E+03  0.34002509751E+03  0.15082336028E+04  0.89963723303E+03 0.  0.
         23    2    4    4    0    0 -0.75717381602E+03 -0.30939444855E+03  0.45160137107E+03  0.93870738984E+03  0.90502226088E+02 0.  0.
         23    2    4    4    0    0 -0.23979540031E+02 -0.55060777063E+03 -0.11157627357E+03  0.56952621298E+03  0.90370941241E+02 0.  0.
          4    1    3    3  502    0  0.50205603513E+03  0.58654640512E+03  0.14365124209E+03  0.78532326282E+03  0.00000000000E+00 0. -1.
         -3    1    3    3    0  502  0.27909732092E+03  0.27345581407E+03  0.12124867597E+03  0.40911445613E+03  0.00000000000E+00 0.  1.
         13    1    5    5    0    0 -0.18064263795E+03 -0.10503170765E+03  0.14619413097E+03  0.25502185434E+03  0.00000000000E+00 0. -1.
        -13    1    5    5    0    0 -0.57653117807E+03 -0.20436274090E+03  0.30540724011E+03  0.68368553551E+03  0.00000000000E+00 0.  1.
          1    1    6    6  503    0 -0.20194978930E+02 -0.22088108210E+02 -0.72682782966E+01  0.30798531908E+02  0.00000000000E+00 0. -1.
         -1    1    6    6    0  503 -0.37845611010E+01 -0.52851966242E+03 -0.10430799527E+03  0.53872768107E+03  0.00000000000E+00 0.  1.
<mgrwt>
<rscale>  0 0.26341029E+04</rscale>
<asrwt>0</asrwt>
<pdfrwt beam="1">  1        2 0.16136510E+00 0.26341029E+04</pdfrwt>
<pdfrwt beam="2">  1       -1 0.25443049E+00 0.26341029E+04</pdfrwt>
<totfact> 0.15376011E+00</totfact>
</mgrwt>
</event>
<event>
12    7  0.2426980E-007  0.2031987E+04  0.7818608E-02  0.8591810E-01
          2   -1    0    0  501    0  0.00000000000E+00  0.00000000000E+00  0.16482282394E+04  0.16482282394E+04  0.00000000000E+00 0. -1.
         -1   -1    0    0    0  501 -0.00000000000E+00 -0.00000000000E+00 -0.62627417370E+03  0.62627417370E+03  0.00000000000E+00 0.  1.
         24    2    1    2    0    0  0.24378992318E+03 -0.12631779960E+03 -0.44680212436E+03  0.53044040777E+03  0.79656605013E+02 0.  0.
        254    2    1    2    0    0 -0.24378992318E+03  0.12631779960E+03  0.14687561900E+04  0.17440620053E+04  0.89950976618E+03 0.  0.
         23    2    4    4    0    0  0.17374386176E+03  0.25545822716E+03  0.11527236868E+04  0.11967753187E+04  0.89740904506E+02 0.  0.
         23    2    4    4    0    0 -0.41753378494E+03 -0.12914042756E+03  0.31603250319E+03  0.54728668660E+03  0.92921809370E+02 0.  0.
          2    1    3    3  502    0  0.63049415040E+02 -0.20960346192E+02 -0.54879105682E+02  0.86175873015E+02  0.00000000000E+00 0. -1.
         -1    1    3    3    0  502  0.18074050814E+03 -0.10535745341E+03 -0.39192301868E+03  0.44426453475E+03  0.00000000000E+00 0.  1.
         13    1    5    5    0    0  0.16141731587E+03  0.20917040028E+03  0.84492793600E+03  0.88527454682E+03  0.00000000000E+00 0.  1.
        -13    1    5    5    0    0  0.12326545891E+02  0.46287826881E+02  0.30779575082E+03  0.31150077187E+03  0.00000000000E+00 0. -1.
          3    1    6    6  503    0 -0.20745560563E+02 -0.31903293084E+02  0.22121188308E+02  0.44017557461E+02  0.00000000000E+00 0. -1.
         -3    1    6    6    0  503 -0.39678822437E+03 -0.97237134478E+02  0.29391131488E+03  0.50326912914E+03  0.00000000000E+00 0.  1.
<mgrwt>
<rscale>  0 0.20319870E+04</rscale>
<asrwt>0</asrwt>
<pdfrwt beam="1">  1        2 0.25357357E+00 0.20319870E+04</pdfrwt>
<pdfrwt beam="2">  1       -1 0.96349874E-01 0.20319870E+04</pdfrwt>
<totfact> 0.11473888E+01</totfact>
</mgrwt>
</event>
<event>
12    7  0.2426980E-007  0.1827659E+04  0.7818608E-02  0.8691727E-01
         -3   -1    0    0    0  501 -0.00000000000E+00  0.00000000000E+00  0.38302605043E+04  0.38302605043E+04  0.00000000000E+00 0.  1.
          4   -1    0    0  501    0  0.00000000000E+00 -0.00000000000E+00 -0.21802297915E+03  0.21802297915E+03  0.00000000000E+00 0. -1.
         24    2    1    2    0    0  0.62086296358E+03 -0.68554590114E+02  0.20190910769E+04  0.21149334491E+04  0.77744233772E+02 0.  0.
        254    2    1    2    0    0 -0.62086296358E+03  0.68554590114E+02  0.15931464482E+04  0.19333500343E+04  0.89975340979E+03 0.  0.
         23    2    4    4    0    0 -0.43111537593E+03  0.34495236510E+03  0.14559570474E+04  0.15598422044E+04  0.91892205081E+02 0.  0.
         23    2    4    4    0    0 -0.18974758765E+03 -0.27639777498E+03  0.13718940083E+03  0.37350782990E+03  0.91034555326E+02 0.  0.
          2    1    3    3  502    0  0.19773945379E+03 -0.22377237298E+02  0.52700828578E+03  0.56332882548E+03  0.00000000000E+00 0. -1.
         -1    1    3    3    0  502  0.42312350979E+03 -0.46177352815E+02  0.14920827912E+04  0.15516046236E+04  0.00000000000E+00 0.  1.
         13    1    5    5    0    0 -0.24275366871E+03  0.16498081533E+03  0.88128629845E+03  0.92887757693E+03  0.00000000000E+00 0.  1.
        -13    1    5    5    0    0 -0.18836170722E+03  0.17997154977E+03  0.57467074895E+03  0.63096462751E+03  0.00000000000E+00 0. -1.
          4    1    6    6  503    0 -0.71916679504E+02 -0.13126943391E+03  0.10736679854E+03  0.18420451270E+03  0.00000000000E+00 0. -1.
         -4    1    6    6    0  503 -0.11783090814E+03 -0.14512834107E+03  0.29822602294E+02  0.18930331720E+03  0.00000000000E+00 0.  1.
<mgrwt>
<rscale>  0 0.18276595E+04</rscale>
<asrwt>0</asrwt>
<pdfrwt beam="1">  1        4 0.33541999E-01 0.18276595E+04</pdfrwt>
<pdfrwt beam="2">  1       -3 0.58927080E+00 0.18276595E+04</pdfrwt>
<totfact> 0.19559542E-02</totfact>
</mgrwt>
</event>
<event>
12    7  0.2426980E-007  0.2494949E+04  0.7818608E-02  0.8404787E-01
         -1   -1    0    0    0  501 -0.00000000000E+00  0.00000000000E+00  0.84358844945E+03  0.84358844945E+03  0.00000000000E+00 0.  1.
          2   -1    0    0  501    0  0.00000000000E+00 -0.00000000000E+00 -0.18447302083E+04  0.18447302083E+04  0.00000000000E+00 0. -1.
         24    2    1    2    0    0 -0.11508765484E+03  0.10756300530E+04 -0.50065376695E+03  0.11947657580E+04  0.81153207511E+02 0.  0.
        254    2    1    2    0    0  0.11508765484E+03 -0.10756300530E+04 -0.50048799191E+03  0.14935528997E+04  0.89999269726E+03 0.  0.
         23    2    4    4    0    0 -0.31846846949E+03 -0.11705665316E+03 -0.12529109191E+03  0.37290106786E+03  0.90735453900E+02 0.  0.
         23    2    4    4    0    0  0.43355612432E+03 -0.95857339980E+03 -0.37519690000E+03  0.11206518319E+04  0.90851190121E+02 0.  0.
          2    1    3    3  502    0 -0.49499451466E+02  0.79695979687E+03 -0.37236944446E+03  0.88105284557E+03  0.00000000000E+00 0. -1.
         -1    1    3    3    0  502 -0.65588203369E+02  0.27867025609E+03 -0.12828432249E+03  0.31371291246E+03  0.00000000000E+00 0.  1.
         13    1    5    5    0    0  0.23224660123E+01  0.28027403813E+01 -0.11463292374E+02  0.12027313669E+02  0.00000000000E+00 0. -1.
        -13    1    5    5    0    0 -0.32079093550E+03 -0.11985939354E+03 -0.11382779953E+03  0.36087375419E+03  0.00000000000E+00 0.  1.
          1    1    6    6  503    0  0.86770018436E+02 -0.28659656642E+03 -0.11948683511E+03  0.32240305791E+03  0.00000000000E+00 0. -1.
         -1    1    6    6    0  503  0.34678610589E+03 -0.67197683337E+03 -0.25571006489E+03  0.79824877395E+03  0.00000000000E+00 0.  1.
<mgrwt>
<rscale>  0 0.24949494E+04</rscale>
<asrwt>0</asrwt>
<pdfrwt beam="1">  1        2 0.28380465E+00 0.24949494E+04</pdfrwt>
<pdfrwt beam="2">  1       -1 0.12978284E+00 0.24949494E+04</pdfrwt>
<totfact> 0.42148658E+00</totfact>
</mgrwt>
</event>
<event>
12    7  0.2426980E-007  0.4314306E+04  0.7818608E-02  0.7943978E-01
          2   -1    0    0  501    0  0.00000000000E+00  0.00000000000E+00  0.32706262441E+04  0.32706262441E+04  0.00000000000E+00 0. -1.
         -1   -1    0    0    0  501 -0.00000000000E+00 -0.00000000000E+00 -0.14227577286E+04  0.14227577286E+04  0.00000000000E+00 0.  1.
         24    2    1    2    0    0 -0.20581156693E+04  0.21555328462E+00  0.10173655838E+04  0.22972118142E+04  0.79430683689E+02 0.  0.
        254    2    1    2    0    0  0.20581156693E+04 -0.21555328462E+00  0.83050293170E+03  0.23961721585E+04  0.90336356962E+03 0.  0.
         23    2    4    4    0    0  0.15442132094E+04  0.35648478343E+03  0.75981880771E+03  0.17599917133E+04  0.92576309964E+02 0.  0.
         23    2    4    4    0    0  0.51390245987E+03 -0.35670033671E+03  0.70684123990E+02  0.63618044525E+03  0.91643030615E+02 0.  0.
          2    1    3    3  502    0 -0.88740736757E+03  0.37532756063E+02  0.45223254355E+03  0.99670197012E+03  0.00000000000E+00 0. -1.
         -1    1    3    3    0  502 -0.11707083017E+04 -0.37317202778E+02  0.56513304023E+03  0.13005098441E+04  0.00000000000E+00 0.  1.
         13    1    5    5    0    0  0.55757073983E+03  0.11508999846E+03  0.22624902447E+03  0.61263321713E+03  0.00000000000E+00 0.  1.
        -13    1    5    5    0    0  0.98664246961E+03  0.24139478497E+03  0.53356978324E+03  0.11473584961E+04  0.00000000000E+00 0. -1.
          4    1    6    6  503    0  0.36999687069E+03 -0.21795369648E+03  0.19645728947E+02  0.42986911124E+03  0.00000000000E+00 0. -1.
         -4    1    6    6    0  503  0.14390558918E+03 -0.13874664023E+03  0.51038395044E+02  0.20631133401E+03  0.00000000000E+00 0.  1.
<mgrwt>
<rscale>  0 0.43143059E+04</rscale>
<asrwt>0</asrwt>
<pdfrwt beam="1">  1        2 0.50317327E+00 0.43143059E+04</pdfrwt>
<pdfrwt beam="2">  1       -1 0.21888580E+00 0.43143059E+04</pdfrwt>
<totfact> 0.11378593E-01</totfact>
</mgrwt>
</event>
<event>
12    7  0.2426980E-007  0.2055226E+04  0.7818608E-02  0.8581227E-01
          2   -1    0    0  501    0  0.00000000000E+00  0.00000000000E+00  0.12515860065E+04  0.12515860065E+04  0.00000000000E+00 0. -1.
         -1   -1    0    0    0  501 -0.00000000000E+00 -0.00000000000E+00 -0.84372038933E+03  0.84372038933E+03  0.00000000000E+00 0.  1.
         24    2    1    2    0    0  0.44892538506E+03  0.15714383720E+03 -0.51852411411E+03  0.70829339678E+03  0.81142418505E+02 0.  0.
        254    2    1    2    0    0 -0.44892538506E+03 -0.15714383720E+03  0.92638973128E+03  0.13870129991E+04  0.91617625947E+03 0.  0.
         23    2    4    4    0    0 -0.30254958647E+03 -0.52740754545E+03  0.46362277447E+03  0.77033899304E+03  0.93707608696E+02 0.  0.
         23    2    4    4    0    0 -0.14637579859E+03  0.37026370825E+03  0.46276695681E+03  0.61667400601E+03  0.87249557665E+02 0.  0.
          4    1    3    3  502    0  0.15537253370E+03  0.61287681439E+02 -0.12801623449E+03  0.21043992116E+03  0.00000000000E+00 0. -1.
         -3    1    3    3    0  502  0.29355285136E+03  0.95856155764E+02 -0.39050787962E+03  0.49785347562E+03  0.00000000000E+00 0.  1.
         13    1    5    5    0    0 -0.57690542234E+02 -0.11719120605E+03  0.55166954369E+02  0.14179340708E+03  0.00000000000E+00 0.  1.
        -13    1    5    5    0    0 -0.24485904423E+03 -0.41021633940E+03  0.40845582010E+03  0.62854558596E+03  0.00000000000E+00 0. -1.
          4    1    6    6  503    0 -0.11334322121E+03  0.27906041186E+03  0.28767042717E+03  0.41650411034E+03  0.00000000000E+00 0. -1.
         -4    1    6    6    0  503 -0.33032577383E+02  0.91203296394E+02  0.17509652964E+03  0.20016989568E+03  0.00000000000E+00 0.  1.
<mgrwt>
<rscale>  0 0.20552262E+04</rscale>
<asrwt>0</asrwt>
<pdfrwt beam="1">  1        2 0.19255169E+00 0.20552262E+04</pdfrwt>
<pdfrwt beam="2">  1       -1 0.12980314E+00 0.20552262E+04</pdfrwt>
<totfact> 0.94746050E+00</totfact>
</mgrwt>
</event>
<event>
12    7  0.2426980E-007  0.1998720E+04  0.7818608E-02  0.8607219E-01
          2   -1    0    0  501    0  0.00000000000E+00  0.00000000000E+00  0.17484651860E+04  0.17484651860E+04  0.00000000000E+00 0. -1.
         -1   -1    0    0    0  501 -0.00000000000E+00 -0.00000000000E+00 -0.57119840741E+03  0.57119840741E+03  0.00000000000E+00 0.  1.
         24    2    1    2    0    0 -0.78219951845E+03  0.12267192625E+03  0.54344978557E+03  0.96342891567E+03  0.77285949233E+02 0.  0.
        254    2    1    2    0    0  0.78219951845E+03 -0.12267192625E+03  0.63381699304E+03  0.13562346778E+04  0.90042436238E+03 0.  0.
         23    2    4    4    0    0 -0.12109473734E+03 -0.23624368480E+03  0.10379294220E+03  0.29872624672E+03  0.89383340773E+02 0.  0.
         23    2    4    4    0    0  0.90329425579E+03  0.11357175855E+03  0.53002405084E+03  0.10575084311E+04  0.92517730177E+02 0.  0.
          2    1    3    3  502    0 -0.55916303928E+03  0.91359481261E+02  0.42981762229E+03  0.71116316534E+03  0.00000000000E+00 0. -1.
         -1    1    3    3    0  502 -0.22303647918E+03  0.31312444986E+02  0.11363216328E+03  0.25226575032E+03  0.00000000000E+00 0.  1.
         13    1    5    5    0    0 -0.20397917482E+02 -0.68583464299E+02  0.70290073823E+02  0.10030184989E+03  0.00000000000E+00 0. -1.
        -13    1    5    5    0    0 -0.10069681985E+03 -0.16766022050E+03  0.33502868379E+02  0.19842439683E+03  0.00000000000E+00 0.  1.
          4    1    6    6  503    0  0.24452188216E+03  0.68959925247E+02  0.16669393117E+03  0.30386393144E+03  0.00000000000E+00 0. -1.
         -4    1    6    6    0  503  0.65877237363E+03  0.44611833307E+02  0.36333011967E+03  0.75364449961E+03  0.00000000000E+00 0.  1.
<mgrwt>
<rscale>  0 0.19987201E+04</rscale>
<asrwt>0</asrwt>
<pdfrwt beam="1">  1        2 0.26899464E+00 0.19987201E+04</pdfrwt>
<pdfrwt beam="2">  1       -1 0.87876678E-01 0.19987201E+04</pdfrwt>
<totfact> 0.12416515E+01</totfact>
</mgrwt>
</event>
<event>
12    7  0.2426980E-007  0.1633462E+04  0.7818608E-02  0.8800251E-01
         -1   -1    0    0    0  501 -0.00000000000E+00  0.00000000000E+00  0.73360000471E+03  0.73360000471E+03  0.00000000000E+00 0.  1.
          2   -1    0    0  501    0  0.00000000000E+00 -0.00000000000E+00 -0.90928269875E+03  0.90928269875E+03  0.00000000000E+00 0. -1.
         24    2    1    2    0    0 -0.16752310182E+03 -0.35445103052E+03  0.34850693412E+03  0.53040678125E+03  0.78579563408E+02 0.  0.
        254    2    1    2    0    0  0.16752310182E+03  0.35445103052E+03 -0.52418962816E+03  0.11124759222E+04  0.89951564107E+03 0.  0.
         23    2    4    4    0    0 -0.10907584576E+03 -0.17565866242E+03  0.97191916351E+02  0.24582346125E+03  0.90716038764E+02 0.  0.
         23    2    4    4    0    0  0.27659894758E+03  0.53010969294E+03 -0.62138154451E+03  0.86665246095E+03  0.86302953956E+02 0.  0.
          4    1    3    3  502    0 -0.77229021240E+02 -0.24963911215E+03  0.23556762518E+03  0.35181829695E+03  0.00000000000E+00 0. -1.
         -3    1    3    3    0  502 -0.90294080580E+02 -0.10481191838E+03  0.11293930894E+03  0.17858848430E+03  0.00000000000E+00 0.  1.
         13    1    5    5    0    0 -0.10981375046E+03 -0.12549332306E+03  0.10191052340E+03  0.19543128896E+03  0.00000000000E+00 0.  1.
        -13    1    5    5    0    0  0.73790470427E+00 -0.50165339357E+02 -0.47186070535E+01  0.50392172296E+02  0.00000000000E+00 0. -1.
          3    1    6    6  503    0  0.10965623854E+03  0.24612298287E+03 -0.22333057361E+03  0.34996793918E+03  0.00000000000E+00 0. -1.
         -3    1    6    6    0  503  0.16694270904E+03  0.28398671007E+03 -0.39805097090E+03  0.51668452177E+03  0.00000000000E+00 0.  1.
<mgrwt>
<rscale>  0 0.16334623E+04</rscale>
<asrwt>0</asrwt>
<pdfrwt beam="1">  1        2 0.13988965E+00 0.16334623E+04</pdfrwt>
<pdfrwt beam="2">  1       -1 0.11286154E+00 0.16334623E+04</pdfrwt>
<totfact> 0.22655293E+01</totfact>
</mgrwt>
</event>
<event>
12    7  0.2426980E-007  0.1631041E+04  0.7818608E-02  0.8801702E-01
          2   -1    0    0  501    0  0.00000000000E+00  0.00000000000E+00  0.31886409266E+04  0.31886409266E+04  0.00000000000E+00 0. -1.
         -1   -1    0    0    0  501 -0.00000000000E+00 -0.00000000000E+00 -0.20857592804E+03  0.20857592804E+03  0.00000000000E+00 0.  1.
         24    2    1    2    0    0 -0.54668294975E+02 -0.52647631775E+03  0.63973304696E+03  0.83445537181E+03  0.83014821263E+02 0.  0.
        254    2    1    2    0    0  0.54668294975E+02  0.52647631775E+03  0.23403319516E+04  0.25627614828E+04  0.90023710132E+03 0.  0.
         23    2    4    4    0    0 -0.41138131885E+03  0.23786261703E+03  0.12064240012E+04  0.12998294912E+04  0.91019895839E+02 0.  0.
         23    2    4    4    0    0  0.46604961383E+03  0.28861370072E+03  0.11339079505E+04  0.12629319917E+04  0.93540711602E+02 0.  0.
          2    1    3    3  502    0 -0.16096644640E+02 -0.20711791875E+03  0.31526020905E+03  0.37755255747E+03  0.00000000000E+00 0. -1.
         -1    1    3    3    0  502 -0.38571650334E+02 -0.31935839900E+03  0.32447283791E+03  0.45690281435E+03  0.00000000000E+00 0.  1.
         13    1    5    5    0    0 -0.50219085031E+02  0.53286747529E+02  0.26099885246E+03  0.27107533077E+03  0.00000000000E+00 0.  1.
        -13    1    5    5    0    0 -0.36116223382E+03  0.18457586950E+03  0.94542514869E+03  0.10287541604E+04  0.00000000000E+00 0. -1.
          1    1    6    6  503    0  0.14876938060E+03  0.76280176499E+02  0.44405072932E+03  0.47448081536E+03  0.00000000000E+00 0. -1.
         -1    1    6    6    0  503  0.31728023322E+03  0.21233352423E+03  0.68985722113E+03  0.78845117633E+03  0.00000000000E+00 0.  1.
<mgrwt>
<rscale>  0 0.16310411E+04</rscale>
<asrwt>0</asrwt>
<pdfrwt beam="1">  1        2 0.49056011E+00 0.16310411E+04</pdfrwt>
<pdfrwt beam="2">  1       -1 0.32088607E-01 0.16310411E+04</pdfrwt>
<totfact> 0.13116300E+01</totfact>
</mgrwt>
</event>
<event>
12    7  0.2426980E-007  0.2892038E+04  0.7818608E-02  0.8275250E-01
          2   -1    0    0  501    0  0.00000000000E+00  0.00000000000E+00  0.24150741601E+04  0.24150741601E+04  0.00000000000E+00 0. -1.
         -1   -1    0    0    0  501 -0.00000000000E+00 -0.00000000000E+00 -0.86579989612E+03  0.86579989612E+03  0.00000000000E+00 0.  1.
         24    2    1    2    0    0  0.10363088763E+04 -0.78166089353E+03  0.55528175802E+03  0.14144926997E+04  0.86729044294E+02 0.  0.
        254    2    1    2    0    0 -0.10363088763E+04  0.78166089353E+03  0.99399250596E+03  0.18663813565E+04  0.90023798325E+03 0.  0.
         23    2    4    4    0    0 -0.56560917898E+03  0.48742472688E+02  0.77327874397E+03  0.96341380124E+03  0.88975078222E+02 0.  0.
         23    2    4    4    0    0 -0.47069969732E+03  0.73291842084E+03  0.22071376199E+03  0.90296755528E+03  0.88928198545E+02 0.  0.
          2    1    3    3  502    0  0.65815428296E+03 -0.54783391492E+03  0.36262245249E+03  0.92993768693E+03  0.00000000000E+00 0. -1.
         -1    1    3    3    0  502  0.37815459335E+03 -0.23382697860E+03  0.19265930553E+03  0.48455501277E+03  0.00000000000E+00 0.  1.
         13    1    5    5    0    0 -0.39963472203E+03  0.17180596238E+02  0.47868953518E+03  0.62381628307E+03  0.00000000000E+00 0.  1.
        -13    1    5    5    0    0 -0.16597445695E+03  0.31561876450E+02  0.29458920879E+03  0.33959751816E+03  0.00000000000E+00 0. -1.
          4    1    6    6  503    0 -0.19182647285E+03  0.36341705223E+03  0.75637915206E+02  0.41784021318E+03  0.00000000000E+00 0. -1.
         -4    1    6    6    0  503 -0.27887322446E+03  0.36950136861E+03  0.14507584678E+03  0.48512734210E+03  0.00000000000E+00 0.  1.
<mgrwt>
<rscale>  0 0.28920380E+04</rscale>
<asrwt>0</asrwt>
<pdfrwt beam="1">  1        2 0.37154987E+00 0.28920380E+04</pdfrwt>
<pdfrwt beam="2">  1       -1 0.13319999E+00 0.28920380E+04</pdfrwt>
<totfact> 0.18237865E+00</totfact>
</mgrwt>
</event>
<event>
12    7  0.2486568E-007  0.2671968E+04  0.7818608E-02  0.8344158E-01
         -3   -1    0    0    0  501 -0.00000000000E+00  0.00000000000E+00  0.52851887111E+03  0.52851887111E+03  0.00000000000E+00 0.  1.
          2   -1    0    0  501    0  0.00000000000E+00 -0.00000000000E+00 -0.33770847753E+04  0.33770847753E+04  0.00000000000E+00 0. -1.
         24    2    1    2    0    0  0.11254739182E+04  0.55660458485E+02 -0.17911752020E+04  0.21180604362E+04  0.89898719584E+02 0.  0.
        254    2    1    2    0    0 -0.11254739182E+04 -0.55660458485E+02 -0.10573907021E+04  0.17875432102E+04  0.89857999314E+03 0.  0.
         23    2    4    4    0    0 -0.15500432733E+03  0.32205519040E+03 -0.13243483707E+03  0.39185095456E+03  0.90897180164E+02 0.  0.
         23    2    4    4    0    0 -0.97046959089E+03 -0.37771564889E+03 -0.92495586504E+03  0.13956922556E+04  0.89068410972E+02 0.  0.
          2    1    3    3  502    0  0.72706746069E+03  0.45594481655E+02 -0.12347218350E+04  0.14336122066E+04  0.00000000000E+00 0. -1.
         -1    1    3    3    0  502  0.39840645753E+03  0.10065976830E+02 -0.55645336707E+03  0.68444822961E+03  0.00000000000E+00 0.  1.
         13    1    5    5    0    0 -0.12858424546E+03  0.22336726127E+03 -0.13225747553E+03  0.28968755828E+03  0.00000000000E+00 0. -1.
        -13    1    5    5    0    0 -0.26420081869E+02  0.98687929135E+02 -0.17736154513E+00  0.10216339628E+03  0.00000000000E+00 0.  1.
          2    1    6    6  503    0 -0.70035247627E+03 -0.31405702710E+03 -0.66979321809E+03  0.10186993483E+04  0.00000000000E+00 0. -1.
         -2    1    6    6    0  503 -0.27011711462E+03 -0.63658621786E+02 -0.25516264695E+03  0.37699290728E+03  0.00000000000E+00 0.  1.
<mgrwt>
<rscale>  0 0.26719678E+04</rscale>
<asrwt>0</asrwt>
<pdfrwt beam="1">  1        2 0.51955149E+00 0.26719678E+04</pdfrwt>
<pdfrwt beam="2">  1       -3 0.81310598E-01 0.26719678E+04</pdfrwt>
<totfact> 0.78294392E-01</totfact>
</mgrwt>
</event>
<event>
12    7  0.2426980E-007  0.1423708E+04  0.7818608E-02  0.8936834E-01
         -1   -1    0    0    0  501 -0.00000000000E+00  0.00000000000E+00  0.35574811302E+03  0.35574811302E+03  0.00000000000E+00 0.  1.
          2   -1    0    0  501    0  0.00000000000E+00 -0.00000000000E+00 -0.14244242298E+04  0.14244242298E+04  0.00000000000E+00 0. -1.
         24    2    1    2    0    0 -0.30443189316E+03 -0.67516138161E+01  0.41042439386E+02  0.31732083867E+03  0.79269609349E+02 0.  0.
        254    2    1    2    0    0  0.30443189316E+03  0.67516138161E+01 -0.11097185562E+04  0.14628515042E+04  0.90318042908E+03 0.  0.
         23    2    4    4    0    0 -0.22271892911E+03 -0.24624840935E+02 -0.12603987100E+02  0.24192648571E+03  0.90329728350E+02 0.  0.
         23    2    4    4    0    0  0.52715082227E+03  0.31376454751E+02 -0.10971145691E+04  0.12209250185E+04  0.90139068558E+02 0.  0.
          2    1    3    3  502    0 -0.78303727505E+00  0.99962045901E+01  0.46103937998E+01  0.11035985890E+02  0.00000000000E+00 0. -1.
         -3    1    3    3    0  502 -0.30364885588E+03 -0.16747818406E+02  0.36432045587E+02  0.30628485278E+03  0.00000000000E+00 0.  1.
         13    1    5    5    0    0 -0.49519696092E+02  0.32348147404E+02 -0.63679618905E+01  0.59490788196E+02  0.00000000000E+00 0. -1.
        -13    1    5    5    0    0 -0.17319923302E+03 -0.56972988339E+02 -0.62360252099E+01  0.18243569752E+03  0.00000000000E+00 0.  1.
          3    1    6    6  503    0  0.26265724346E+03 -0.13072213129E+02 -0.46398273263E+03  0.53332887272E+03  0.00000000000E+00 0. -1.
         -3    1    6    6    0  503  0.26449357880E+03  0.44448667880E+02 -0.63313183648E+03  0.68759614576E+03  0.00000000000E+00 0.  1.
<mgrwt>
<rscale>  0 0.14237082E+04</rscale>
<asrwt>0</asrwt>
<pdfrwt beam="1">  1        2 0.21914219E+00 0.14237082E+04</pdfrwt>
<pdfrwt beam="2">  1       -1 0.54730480E-01 0.14237082E+04</pdfrwt>
<totfact> 0.52333367E+01</totfact>
</mgrwt>
</event>
<event>
12    7  0.2426980E-007  0.1762458E+04  0.7818608E-02  0.8726523E-01
          2   -1    0    0  501    0  0.00000000000E+00  0.00000000000E+00  0.61918891518E+03  0.61918891518E+03  0.00000000000E+00 0. -1.
         -1   -1    0    0    0  501 -0.00000000000E+00 -0.00000000000E+00 -0.12541643084E+04  0.12541643084E+04  0.00000000000E+00 0.  1.
         24    2    1    2    0    0  0.30308965639E+03 -0.56710423772E+03 -0.14790632590E+03  0.66470754961E+03  0.80556123403E+02 0.  0.
        254    2    1    2    0    0 -0.30308965639E+03  0.56710423772E+03 -0.48706906736E+03  0.12086456740E+04  0.90006529354E+03 0.  0.
         23    2    4    4    0    0 -0.60320593514E+03  0.24678098305E+03 -0.28128372000E+03  0.71536203164E+03  0.88679486837E+02 0.  0.
         23    2    4    4    0    0  0.30011627875E+03  0.32032325467E+03 -0.20578534736E+03  0.49328364236E+03  0.91128340141E+02 0.  0.
          2    1    3    3  502    0  0.25386031299E+03 -0.43197350390E+03 -0.87085053710E+02  0.50855675511E+03  0.00000000000E+00 0. -1.
         -1    1    3    3    0  502  0.49229343402E+02 -0.13513073382E+03 -0.60821272186E+02  0.15615079451E+03  0.00000000000E+00 0.  1.
         13    1    5    5    0    0 -0.43045684896E+03  0.21483767405E+03 -0.22306556824E+03  0.53028914070E+03  0.00000000000E+00 0.  1.
        -13    1    5    5    0    0 -0.17274908618E+03  0.31943309005E+02 -0.58218151752E+02  0.18507289094E+03  0.00000000000E+00 0. -1.
          1    1    6    6  503    0  0.20923143671E+03  0.27014983406E+03 -0.18045793002E+03  0.38642436706E+03  0.00000000000E+00 0. -1.
         -1    1    6    6    0  503  0.90884842039E+02  0.50173420606E+02 -0.25327417346E+02  0.10685927530E+03  0.00000000000E+00 0.  1.
<mgrwt>
<rscale>  0 0.17624581E+04</rscale>
<asrwt>0</asrwt>
<pdfrwt beam="1">  1        2 0.95259834E-01 0.17624581E+04</pdfrwt>
<pdfrwt beam="2">  1       -1 0.19294835E+00 0.17624581E+04</pdfrwt>
<totfact> 0.86967376E+00</totfact>
</mgrwt>
</event>
<event>
12    7  0.2426980E-007  0.5069683E+04  0.7818608E-02  0.7817847E-01
          2   -1    0    0  501    0  0.00000000000E+00  0.00000000000E+00  0.13865157483E+04  0.13865157483E+04  0.00000000000E+00 0. -1.
         -1   -1    0    0    0  501 -0.00000000000E+00 -0.00000000000E+00 -0.46342218194E+04  0.46342218194E+04  0.00000000000E+00 0.  1.
         24    2    1    2    0    0  0.24140458238E+04  0.16869750988E+03 -0.10911985778E+04  0.26563940708E+04  0.98178583148E+02 0.  0.
        254    2    1    2    0    0 -0.24140458238E+04 -0.16869750988E+03 -0.21565074934E+04  0.33643434970E+04  0.90122500371E+03 0.  0.
         23    2    4    4    0    0 -0.11736527717E+04 -0.18576946286E+03 -0.49871189021E+03  0.12918794201E+04  0.90927249626E+02 0.  0.
         23    2    4    4    0    0 -0.12403930521E+04  0.17071952982E+02 -0.16577956032E+04  0.20724640769E+04  0.89189196751E+02 0.  0.
          4    1    3    3  502    0  0.86703976524E+03  0.86756431031E+02 -0.34995749611E+03  0.93901804132E+03  0.00000000000E+00 0. -1.
         -3    1    3    3    0  502  0.15470060586E+04  0.81941078849E+02 -0.74124108165E+03  0.17173760295E+04  0.00000000000E+00 0.  1.
         13    1    5    5    0    0 -0.75161217141E+03 -0.14154291809E+03 -0.36101427877E+03  0.84574615775E+03  0.00000000000E+00 0.  1.
        -13    1    5    5    0    0 -0.42204060030E+03 -0.44226544776E+02 -0.13769761143E+03  0.44613326233E+03  0.00000000000E+00 0. -1.
          2    1    6    6  503    0 -0.11864550640E+04  0.23606281590E+02 -0.15537741276E+04  0.19551079036E+04  0.00000000000E+00 0. -1.
         -2    1    6    6    0  503 -0.53937988123E+02 -0.65343286085E+01 -0.10402147560E+03  0.11735617325E+03  0.00000000000E+00 0.  1.
<mgrwt>
<rscale>  0 0.50696830E+04</rscale>
<asrwt>0</asrwt>
<pdfrwt beam="1">  1        2 0.21331012E+00 0.50696830E+04</pdfrwt>
<pdfrwt beam="2">  1       -1 0.71295718E+00 0.50696830E+04</pdfrwt>
<totfact> 0.22096002E-03</totfact>
</mgrwt>
</event>
<event>
12    7  0.2426980E-007  0.2096102E+04  0.7818608E-02  0.8562962E-01
          2   -1    0    0  501    0  0.00000000000E+00  0.00000000000E+00  0.73283740420E+03  0.73283740420E+03  0.00000000000E+00 0. -1.
         -1   -1    0    0    0  501 -0.00000000000E+00 -0.00000000000E+00 -0.14988465134E+04  0.14988465134E+04  0.00000000000E+00 0.  1.
         24    2    1    2    0    0 -0.28211387527E+03 -0.77076846333E+03 -0.55617279858E+03  0.99476368911E+03  0.80958956341E+02 0.  0.
        254    2    1    2    0    0  0.28211387527E+03  0.77076846333E+03 -0.20983631063E+03  0.12369202285E+04  0.90125918123E+03 0.  0.
         23    2    4    4    0    0  0.21183599583E+03 -0.10731773280E+03  0.13357971855E+03  0.28708083456E+03  0.90444897383E+02 0.  0.
         23    2    4    4    0    0  0.70277879442E+02  0.87808619613E+03 -0.34341602918E+03  0.94983939395E+03  0.91027232344E+02 0.  0.
          2    1    3    3  502    0 -0.17754360209E+03 -0.53259960250E+03 -0.33832971319E+03  0.65547773575E+03  0.00000000000E+00 0. -1.
         -1    1    3    3    0  502 -0.10457027318E+03 -0.23816886082E+03 -0.21784308538E+03  0.33928595336E+03  0.00000000000E+00 0.  1.
         13    1    5    5    0    0  0.15373718301E+02 -0.26196990616E+02  0.50375501688E+02  0.58824524665E+02  0.00000000000E+00 0.  1.
        -13    1    5    5    0    0  0.19646227753E+03 -0.81120742185E+02  0.83204216860E+02  0.22825630990E+03  0.00000000000E+00 0. -1.
          3    1    6    6  503    0 -0.11459041213E+02  0.30828301818E+03 -0.14592398615E+03  0.34126754703E+03  0.00000000000E+00 0. -1.
         -3    1    6    6    0  503  0.81736920655E+02  0.56980317795E+03 -0.19749204303E+03  0.60857184692E+03  0.00000000000E+00 0.  1.
<mgrwt>
<rscale>  0 0.20961019E+04</rscale>
<asrwt>0</asrwt>
<pdfrwt beam="1">  1        2 0.11274422E+00 0.20961019E+04</pdfrwt>
<pdfrwt beam="2">  1       -1 0.23059177E+00 0.20961019E+04</pdfrwt>
<totfact> 0.38025458E+00</totfact>
</mgrwt>
</event>
<event>
12    7  0.2426980E-007  0.1473022E+04  0.7818608E-02  0.8902594E-01
         -1   -1    0    0    0  501 -0.00000000000E+00  0.00000000000E+00  0.37168154246E+03  0.37168154246E+03  0.00000000000E+00 0.  1.
          2   -1    0    0  501    0  0.00000000000E+00 -0.00000000000E+00 -0.14594436010E+04  0.14594436010E+04  0.00000000000E+00 0. -1.
         24    2    1    2    0    0 -0.71010273893E+02  0.43284534261E+03 -0.17335937247E+03  0.47831531756E+03  0.79589706419E+02 0.  0.
        254    2    1    2    0    0  0.71010273893E+02 -0.43284534261E+03 -0.91440268607E+03  0.13528098259E+04  0.89530140353E+03 0.  0.
         23    2    4    4    0    0  0.18309550175E+03 -0.60900552089E+03 -0.92315664272E+03  0.11248018422E+04  0.92462478922E+02 0.  0.
         23    2    4    4    0    0 -0.11208522785E+03  0.17616017828E+03  0.87539566505E+01  0.22800798370E+03  0.91189375250E+02 0.  0.
          2    1    3    3  502    0 -0.74234039212E+02  0.39510812589E+03 -0.17891379865E+03  0.44003553388E+03  0.00000000000E+00 0. -1.
         -1    1    3    3    0  502  0.32237653182E+01  0.37737216717E+02  0.55544261844E+01  0.38279783680E+02  0.00000000000E+00 0.  1.
         13    1    5    5    0    0  0.14439512091E+02 -0.19374012305E+03 -0.28982144880E+03  0.34891289310E+03  0.00000000000E+00 0. -1.
        -13    1    5    5    0    0  0.16865598966E+03 -0.41526539784E+03 -0.63333519392E+03  0.77588894911E+03  0.00000000000E+00 0.  1.
          3    1    6    6  503    0  0.38829953519E+00  0.10809355870E+02  0.25131713975E+02  0.27360482418E+02  0.00000000000E+00 0. -1.
         -3    1    6    6    0  503 -0.11247352739E+03  0.16535082241E+03 -0.16377757324E+02  0.20064750128E+03  0.00000000000E+00 0.  1.
<mgrwt>
<rscale>  0 0.14730217E+04</rscale>
<asrwt>0</asrwt>
<pdfrwt beam="1">  1        2 0.22452979E+00 0.14730217E+04</pdfrwt>
<pdfrwt beam="2">  1       -1 0.57181775E-01 0.14730217E+04</pdfrwt>
<totfact> 0.45723444E+01</totfact>
</mgrwt>
</event>
<event>
12    7  0.2426980E-007  0.1953082E+04  0.7818608E-02  0.8628876E-01
          2   -1    0    0  501    0  0.00000000000E+00  0.00000000000E+00  0.22061190287E+04  0.22061190287E+04  0.00000000000E+00 0. -1.
         -1   -1    0    0    0  501 -0.00000000000E+00 -0.00000000000E+00 -0.43226683031E+03  0.43226683031E+03  0.00000000000E+00 0.  1.
         24    2    1    2    0    0 -0.34456610907E+03 -0.38174870475E+03  0.14689363661E+04  0.15585544952E+04  0.82826262452E+02 0.  0.
        254    2    1    2    0    0  0.34456610907E+03  0.38174870475E+03  0.30491583230E+03  0.10798313638E+04  0.89922423923E+03 0.  0.
         23    2    4    4    0    0  0.59947362382E+03  0.27076712858E+03  0.39626848535E+03  0.77338329712E+03  0.91703588870E+02 0.  0.
         23    2    4    4    0    0 -0.25490751475E+03  0.11098157617E+03 -0.91352653048E+02  0.30644806671E+03  0.90941514413E+02 0.  0.
          4    1    3    3  502    0 -0.13174583858E+03 -0.16757488867E+03  0.72483869097E+03  0.75553255206E+03  0.00000000000E+00 0. -1.
         -3    1    3    3    0  502 -0.21282027049E+03 -0.21417381608E+03  0.74409767515E+03  0.80302194315E+03  0.00000000000E+00 0.  1.
         13    1    5    5    0    0  0.48757850441E+03  0.18479223735E+03  0.28921675993E+03  0.59626110319E+03  0.00000000000E+00 0.  1.
        -13    1    5    5    0    0  0.11189511940E+03  0.85974891226E+02  0.10705172542E+03  0.17712219393E+03  0.00000000000E+00 0. -1.
          1    1    6    6  503    0 -0.33736744815E+02 -0.14367113459E+02 -0.22674230864E+02  0.43112673834E+02  0.00000000000E+00 0. -1.
         -1    1    6    6    0  503 -0.22117076994E+03  0.12534868963E+03 -0.68678422184E+02  0.26333539287E+03  0.00000000000E+00 0.  1.
<mgrwt>
<rscale>  0 0.19530817E+04</rscale>
<asrwt>0</asrwt>
<pdfrwt beam="1">  1        2 0.33940292E+00 0.19530817E+04</pdfrwt>
<pdfrwt beam="2">  1       -1 0.66502590E-01 0.19530817E+04</pdfrwt>
<totfact> 0.12463582E+01</totfact>
</mgrwt>
</event>
<event>
12    7  0.2426980E-007  0.1254966E+04  0.7818608E-02  0.9066060E-01
          2   -1    0    0  501    0  0.00000000000E+00  0.00000000000E+00  0.32659370204E+03  0.32659370204E+03  0.00000000000E+00 0. -1.
         -1   -1    0    0    0  501 -0.00000000000E+00 -0.00000000000E+00 -0.12055809181E+04  0.12055809181E+04  0.00000000000E+00 0.  1.
         24    2    1    2    0    0  0.11582353039E+03  0.23879708659E+03 -0.37800200853E+03  0.46849315719E+03  0.78493191607E+02 0.  0.
        254    2    1    2    0    0 -0.11582353039E+03 -0.23879708659E+03 -0.50098520754E+03  0.10636814630E+04  0.89999607650E+03 0.  0.
         23    2    4    4    0    0  0.16730249052E+03  0.12852638918E+03 -0.54303188416E+03  0.58953056562E+03  0.90296758227E+02 0.  0.
         23    2    4    4    0    0 -0.28312602091E+03 -0.36732347577E+03  0.42046676613E+02  0.47415089734E+03  0.89242763678E+02 0.  0.
          4    1    3    3  502    0  0.11436148149E+02  0.88936618222E-01 -0.29186028556E+01  0.11803035069E+02  0.00000000000E+00 0. -1.
         -3    1    3    3    0  502  0.10438738224E+03  0.23870814997E+03 -0.37508340568E+03  0.45669012213E+03  0.00000000000E+00 0.  1.
         13    1    5    5    0    0  0.16805135173E+03  0.91409709498E+02 -0.43217624903E+03  0.47262384836E+03  0.00000000000E+00 0. -1.
        -13    1    5    5    0    0 -0.74886120946E+00  0.37116679679E+02 -0.11085563512E+03  0.11690671726E+03  0.00000000000E+00 0.  1.
          1    1    6    6  503    0 -0.28037082901E+03 -0.33677494980E+03  0.24675594521E+02  0.43890096096E+03  0.00000000000E+00 0. -1.
         -1    1    6    6    0  503 -0.27551918970E+01 -0.30548525972E+02  0.17371082093E+02  0.35249936376E+02  0.00000000000E+00 0.  1.
<mgrwt>
<rscale>  0 0.12549664E+04</rscale>
<asrwt>0</asrwt>
<pdfrwt beam="1">  1        2 0.50245185E-01 0.12549664E+04</pdfrwt>
<pdfrwt beam="2">  1       -1 0.18547399E+00 0.12549664E+04</pdfrwt>
<totfact> 0.21385138E+01</totfact>
</mgrwt>
</event>
<event>
12    7  0.2426980E-007  0.1372244E+04  0.7818608E-02  0.8974159E-01
          2   -1    0    0  501    0  0.00000000000E+00  0.00000000000E+00  0.14093438321E+04  0.14093438321E+04  0.00000000000E+00 0. -1.
         -1   -1    0    0    0  501 -0.00000000000E+00 -0.00000000000E+00 -0.33403001249E+03  0.33403001249E+03  0.00000000000E+00 0.  1.
         24    2    1    2    0    0 -0.32751901459E+03 -0.22141127103E+02  0.55674371661E+03  0.65179902588E+03  0.84376950153E+02 0.  0.
        254    2    1    2    0    0  0.32751901459E+03  0.22141127103E+02  0.51857010305E+03  0.10915748188E+04  0.90269690303E+03 0.  0.
         23    2    4    4    0    0 -0.29393700921E+02  0.60855368483E+02  0.67835713962E+03  0.68820140167E+03  0.94262372495E+02 0.  0.
         23    2    4    4    0    0  0.35691271551E+03 -0.38714241380E+02 -0.15978703657E+03  0.40337341709E+03  0.91064469357E+02 0.  0.
          4    1    3    3  502    0 -0.15248581604E+03 -0.36858679215E+02  0.32622478002E+03  0.36198493536E+03  0.00000000000E+00 0. -1.
         -3    1    3    3    0  502 -0.17503319855E+03  0.14717552112E+02  0.23051893659E+03  0.28981409051E+03  0.00000000000E+00 0.  1.
         13    1    5    5    0    0 -0.55031540503E+02  0.53667176377E+02  0.61028844715E+03  0.61511025434E+03  0.00000000000E+00 0. -1.
        -13    1    5    5    0    0  0.25637839582E+02  0.71881921060E+01  0.68068692468E+02  0.73091147334E+02  0.00000000000E+00 0.  1.
          3    1    6    6  503    0  0.13920483237E+03  0.19716715455E+02 -0.31747479236E+02  0.14413409264E+03  0.00000000000E+00 0. -1.
         -3    1    6    6    0  503  0.21770788314E+03 -0.58430956835E+02 -0.12803955733E+03  0.25923932444E+03  0.00000000000E+00 0.  1.
<mgrwt>
<rscale>  0 0.13722436E+04</rscale>
<asrwt>0</asrwt>
<pdfrwt beam="1">  1        2 0.21682212E+00 0.13722436E+04</pdfrwt>
<pdfrwt beam="2">  1       -1 0.51389234E-01 0.13722436E+04</pdfrwt>
<totfact> 0.60500702E+01</totfact>
</mgrwt>
</event>
<event>
12    7  0.2426980E-007  0.2958061E+04  0.7818608E-02  0.8255809E-01
          2   -1    0    0  501    0  0.00000000000E+00  0.00000000000E+00  0.13139097386E+04  0.13139097386E+04  0.00000000000E+00 0. -1.
         -1   -1    0    0    0  501 -0.00000000000E+00 -0.00000000000E+00 -0.16649021514E+04  0.16649021514E+04  0.00000000000E+00 0.  1.
         24    2    1    2    0    0 -0.12243477206E+04  0.14476759614E+03  0.37183993698E+03  0.12902202810E+04  0.80115148252E+02 0.  0.
        254    2    1    2    0    0  0.12243477206E+04 -0.14476759614E+03 -0.72283234986E+03  0.16885916090E+04  0.89937201332E+03 0.  0.
         23    2    4    4    0    0  0.81349169713E+03 -0.39955419845E+03 -0.77258817120E+03  0.11943902083E+04  0.90902081899E+02 0.  0.
         23    2    4    4    0    0  0.41085602344E+03  0.25478660231E+03  0.49755821347E+02  0.49420140078E+03  0.89668824339E+02 0.  0.
          4    1    3    3  502    0 -0.94853636098E+03  0.10233420556E+03  0.32082044289E+03  0.10065382627E+04  0.00000000000E+00 0. -1.
         -3    1    3    3    0  502 -0.27581135959E+03  0.42433390580E+02  0.51019494092E+02  0.28368201827E+03  0.00000000000E+00 0.  1.
         13    1    5    5    0    0  0.33651038253E+02 -0.26065021230E+02 -0.61987209859E+02  0.75194360782E+02  0.00000000000E+00 0. -1.
        -13    1    5    5    0    0  0.77984065888E+03 -0.37348917722E+03 -0.71060096135E+03  0.11191958475E+04  0.00000000000E+00 0.  1.
          4    1    6    6  503    0  0.22125414972E+03  0.98366585984E+02  0.55187229914E+02  0.24834454766E+03  0.00000000000E+00 0. -1.
         -4    1    6    6    0  503  0.18960187372E+03  0.15642001633E+03 -0.54314085675E+01  0.24585685311E+03  0.00000000000E+00 0.  1.
<mgrwt>
<rscale>  0 0.29580610E+04</rscale>
<asrwt>0</asrwt>
<pdfrwt beam="1">  1        2 0.20213996E+00 0.29580610E+04</pdfrwt>
<pdfrwt beam="2">  1       -1 0.25613879E+00 0.29580610E+04</pdfrwt>
<totfact> 0.10092538E+00</totfact>
</mgrwt>
</event>
<event>
12    7  0.2426980E-007  0.2378500E+04  0.7818608E-02  0.8447597E-01
          2   -1    0    0  501    0  0.00000000000E+00  0.00000000000E+00  0.21900303835E+04  0.21900303835E+04  0.00000000000E+00 0. -1.
         -1   -1    0    0    0  501 -0.00000000000E+00 -0.00000000000E+00 -0.64579733315E+03  0.64579733315E+03  0.00000000000E+00 0.  1.
         24    2    1    2    0    0 -0.64323024201E+03  0.75039307150E+03  0.94736640854E+03  0.13713371265E+04  0.78914488076E+02 0.  0.
        254    2    1    2    0    0  0.64323024201E+03 -0.75039307150E+03  0.59686664180E+03  0.14644905902E+04  0.90091508736E+03 0.  0.
         23    2    4    4    0    0  0.77246890791E+02 -0.10109736705E+02  0.51079095089E+03  0.52487105251E+03  0.92265580462E+02 0.  0.
         23    2    4    4    0    0  0.56598335122E+03 -0.74028333479E+03  0.86075690903E+02  0.93961953766E+03  0.84375834015E+02 0.  0.
          2    1    3    3  502    0 -0.38639801384E+03  0.40844803108E+03  0.57624946097E+03  0.80510661434E+03  0.00000000000E+00 0. -1.
         -1    1    3    3    0  502 -0.25683222817E+03  0.34194504042E+03  0.37111694757E+03  0.56623051213E+03  0.00000000000E+00 0.  1.
         13    1    5    5    0    0  0.16151329893E+02  0.37227438360E+02  0.12526015089E+03  0.13166948403E+03  0.00000000000E+00 0. -1.
        -13    1    5    5    0    0  0.61095560898E+02 -0.47337175066E+02  0.38553080000E+03  0.39320156848E+03  0.00000000000E+00 0.  1.
          2    1    6    6  503    0  0.82046254577E+02 -0.15751571341E+03  0.36125870260E+01  0.17763963141E+03  0.00000000000E+00 0. -1.
         -2    1    6    6    0  503  0.48393709664E+03 -0.58276762138E+03  0.82463103877E+02  0.76197990625E+03  0.00000000000E+00 0.  1.
<mgrwt>
<rscale>  0 0.23785002E+04</rscale>
<asrwt>0</asrwt>
<pdfrwt beam="1">  1        2 0.33692775E+00 0.23785002E+04</pdfrwt>
<pdfrwt beam="2">  1       -1 0.99353437E-01 0.23785002E+04</pdfrwt>
<totfact> 0.51858489E+00</totfact>
</mgrwt>
</event>
<event>
12    7  0.2426980E-007  0.2248708E+04  0.7818608E-02  0.8498424E-01
          2   -1    0    0  501    0  0.00000000000E+00  0.00000000000E+00  0.84833554173E+03  0.84833554173E+03  0.00000000000E+00 0. -1.
         -1   -1    0    0    0  501 -0.00000000000E+00 -0.00000000000E+00 -0.14901792547E+04  0.14901792547E+04  0.00000000000E+00 0.  1.
         24    2    1    2    0    0 -0.56464792378E+03 -0.58771533713E+03  0.22133710573E+03  0.84832983963E+03  0.80229714581E+02 0.  0.
        254    2    1    2    0    0  0.56464792378E+03  0.58771533713E+03 -0.86318081870E+03  0.14901849568E+04  0.90074051999E+03 0.  0.
         23    2    4    4    0    0  0.68731182988E+03  0.62424125456E+03 -0.42643574053E+03  0.10257696590E+04  0.91001413342E+02 0.  0.
         23    2    4    4    0    0 -0.12266390610E+03 -0.36525917427E+02 -0.43674507816E+03  0.46441529775E+03  0.92491777888E+02 0.  0.
          4    1    3    3  502    0 -0.49411980434E+03 -0.54833155874E+03  0.19679176794E+03  0.76390371073E+03  0.00000000000E+00 0. -1.
         -3    1    3    3    0  502 -0.70528119444E+02 -0.39383778397E+02  0.24545337792E+02  0.84426128897E+02  0.00000000000E+00 0.  1.
         13    1    5    5    0    0  0.30816347624E+03  0.30654393907E+03 -0.24452333634E+03  0.49872394838E+03  0.00000000000E+00 0. -1.
        -13    1    5    5    0    0  0.37914835364E+03  0.31769731549E+03 -0.18191240419E+03  0.52704571067E+03  0.00000000000E+00 0.  1.
          4    1    6    6  503    0 -0.13513645404E+03 -0.32763005755E+02 -0.34854792306E+03  0.37526114964E+03  0.00000000000E+00 0. -1.
         -4    1    6    6    0  503  0.12472547947E+02 -0.37629116728E+01 -0.88197155105E+02  0.89154148109E+02  0.00000000000E+00 0.  1.
<mgrwt>
<rscale>  0 0.22487081E+04</rscale>
<asrwt>0</asrwt>
<pdfrwt beam="1">  1        2 0.13051316E+00 0.22487081E+04</pdfrwt>
<pdfrwt beam="2">  1       -1 0.22925834E+00 0.22487081E+04</pdfrwt>
<totfact> 0.31551174E+00</totfact>
</mgrwt>
</event>
<event>
12    7  0.2426980E-007  0.2086739E+04  0.7818608E-02  0.8567108E-01
         -1   -1    0    0    0  501 -0.00000000000E+00  0.00000000000E+00  0.12373650618E+04  0.12373650618E+04  0.00000000000E+00 0.  1.
          2   -1    0    0  501    0  0.00000000000E+00 -0.00000000000E+00 -0.87978852148E+03  0.87978852148E+03  0.00000000000E+00 0. -1.
         24    2    1    2    0    0 -0.81717105057E+03 -0.20075199101E+03  0.24103608604E+03  0.87891495920E+03  0.79518695634E+02 0.  0.
        254    2    1    2    0    0  0.81717105057E+03  0.20075199101E+03  0.11654045426E+03  0.12382386241E+04  0.90087919550E+03 0.  0.
         23    2    4    4    0    0  0.77063563152E+03  0.20231892965E+03 -0.26402061523E+03  0.84428378165E+03  0.91082340866E+02 0.  0.
         23    2    4    4    0    0  0.46535419045E+02 -0.15669386408E+01  0.38056106949E+03  0.39395484243E+03  0.90585262247E+02 0.  0.
          2    1    3    3  502    0 -0.46233805965E+03 -0.13504995836E+03  0.10298330134E+03  0.49254495532E+03  0.00000000000E+00 0. -1.
         -1    1    3    3    0  502 -0.35483299091E+03 -0.65702032657E+02  0.13805278471E+03  0.38637000389E+03  0.00000000000E+00 0.  1.
         13    1    5    5    0    0  0.15892956207E+03  0.72461182319E+02 -0.82236045428E+02  0.19305956545E+03  0.00000000000E+00 0. -1.
        -13    1    5    5    0    0  0.61170606945E+03  0.12985774734E+03 -0.18178456980E+03  0.65122421620E+03  0.00000000000E+00 0.  1.
          2    1    6    6  503    0  0.57877286684E+02  0.25563898669E+02  0.17080036266E+03  0.18214295790E+03  0.00000000000E+00 0. -1.
         -2    1    6    6    0  503 -0.11341867639E+02 -0.27130837309E+02  0.20976070683E+03  0.21181188452E+03  0.00000000000E+00 0.  1.
<mgrwt>
<rscale>  0 0.20867387E+04</rscale>
<asrwt>0</asrwt>
<pdfrwt beam="1">  1        2 0.13535208E+00 0.20867387E+04</pdfrwt>
<pdfrwt beam="2">  1       -1 0.19036386E+00 0.20867387E+04</pdfrwt>
<totfact> 0.55957968E+00</totfact>
</mgrwt>
</event>
<event>
12    7  0.2426980E-007  0.1435960E+04  0.7818608E-02  0.8928192E-01
          2   -1    0    0  501    0  0.00000000000E+00  0.00000000000E+00  0.20025312633E+04  0.20025312633E+04  0.00000000000E+00 0. -1.
         -1   -1    0    0    0  501 -0.00000000000E+00 -0.00000000000E+00 -0.25742181826E+03  0.25742181826E+03  0.00000000000E+00 0.  1.
         24    2    1    2    0    0  0.25913728503E+03 -0.18086916802E+03  0.99448561967E+03  0.10465082679E+04  0.79448842863E+02 0.  0.
        254    2    1    2    0    0 -0.25913728503E+03  0.18086916802E+03  0.75062382533E+03  0.12134448136E+04  0.89952565283E+03 0.  0.
         23    2    4    4    0    0 -0.15124597483E+02 -0.34130305063E+03  0.17736661286E+03  0.39540404801E+03  0.90382077908E+02 0.  0.
         23    2    4    4    0    0 -0.24401268754E+03  0.52217221865E+03  0.57325721246E+03  0.81804076560E+03  0.91437655951E+02 0.  0.
          2    1    3    3  502    0  0.21013298059E+03 -0.16325887923E+03  0.73101299805E+03  0.77793915861E+03  0.00000000000E+00 0. -1.
         -1    1    3    3    0  502  0.49004304431E+02 -0.17610288788E+02  0.26347262162E+03  0.26856910929E+03  0.00000000000E+00 0.  1.
         13    1    5    5    0    0  0.25051856473E+02 -0.74999640724E+02  0.69548365665E+02  0.10530677465E+03  0.00000000000E+00 0. -1.
        -13    1    5    5    0    0 -0.40176453956E+02 -0.26630340991E+03  0.10781824720E+03  0.29009727336E+03  0.00000000000E+00 0.  1.
          3    1    6    6  503    0 -0.18448479788E+03  0.38085472825E+03  0.36134488017E+03  0.55646660916E+03  0.00000000000E+00 0. -1.
         -3    1    6    6    0  503 -0.59527889659E+02  0.14131749040E+03  0.21191233229E+03  0.26157415644E+03  0.00000000000E+00 0.  1.
<mgrwt>
<rscale>  0 0.14359599E+04</rscale>
<asrwt>0</asrwt>
<pdfrwt beam="1">  1        2 0.30808172E+00 0.14359599E+04</pdfrwt>
<pdfrwt beam="2">  1       -1 0.39603358E-01 0.14359599E+04</pdfrwt>
<totfact> 0.45706041E+01</totfact>
</mgrwt>
</event>
<event>
12    7  0.2426980E-007  0.3216620E+04  0.7818608E-02  0.8184442E-01
         -1   -1    0    0    0  501 -0.00000000000E+00  0.00000000000E+00  0.16772489433E+04  0.16772489433E+04  0.00000000000E+00 0.  1.
          2   -1    0    0  501    0  0.00000000000E+00 -0.00000000000E+00 -0.15422043266E+04  0.15422043266E+04  0.00000000000E+00 0. -1.
         24    2    1    2    0    0  0.64940974810E+03 -0.13237328505E+04  0.20310978152E+03  0.14905372708E+04  0.80287557283E+02 0.  0.
        254    2    1    2    0    0 -0.64940974810E+03  0.13237328505E+04 -0.68065164872E+02  0.17289159991E+04  0.90028661249E+03 0.  0.
         23    2    4    4    0    0 -0.73818183849E+03  0.12643319152E+04 -0.26114165314E+03  0.14897510347E+04  0.87838282014E+02 0.  0.
         23    2    4    4    0    0  0.88772090388E+02  0.59400935290E+02  0.19307648827E+03  0.23916496436E+03  0.92262639848E+02 0.  0.
          4    1    3    3  502    0  0.28019366428E+03 -0.64167848918E+03  0.12194903776E+03  0.71072592523E+03  0.00000000000E+00 0. -1.
         -3    1    3    3    0  502  0.36921608382E+03 -0.68205436136E+03  0.81160743755E+02  0.77981134559E+03  0.00000000000E+00 0.  1.
         13    1    5    5    0    0 -0.72959266886E+03  0.12549108313E+04 -0.26662840475E+03  0.14758717299E+04  0.00000000000E+00 0.  1.
        -13    1    5    5    0    0 -0.85891696252E+01  0.94210839296E+01  0.54867516114E+01  0.13879304756E+02  0.00000000000E+00 0. -1.
          2    1    6    6  503    0  0.22024600421E+02 -0.24480851625E+02  0.58279651490E+02  0.66939621285E+02  0.00000000000E+00 0. -1.
         -2    1    6    6    0  503  0.66747489967E+02  0.83881786915E+02  0.13479683678E+03  0.17222534308E+03  0.00000000000E+00 0.  1.
<mgrwt>
<rscale>  0 0.32166197E+04</rscale>
<asrwt>0</asrwt>
<pdfrwt beam="1">  1        2 0.23726220E+00 0.32166197E+04</pdfrwt>
<pdfrwt beam="2">  1       -1 0.25803830E+00 0.32166197E+04</pdfrwt>
<totfact> 0.71083501E-01</totfact>
</mgrwt>
</event>
<event>
12    7  0.2426980E-007  0.2493306E+04  0.7818608E-02  0.8405374E-01
          2   -1    0    0  501    0  0.00000000000E+00  0.00000000000E+00  0.18366988267E+04  0.18366988267E+04  0.00000000000E+00 0. -1.
         -1   -1    0    0    0  501 -0.00000000000E+00 -0.00000000000E+00 -0.84616140825E+03  0.84616140825E+03  0.00000000000E+00 0.  1.
         24    2    1    2    0    0 -0.72996138225E+03 -0.78990558818E+03  0.30113556543E+03  0.11199112927E+04  0.82001322294E+02 0.  0.
        254    2    1    2    0    0  0.72996138225E+03  0.78990558818E+03  0.68940185300E+03  0.15629489423E+04  0.90041103026E+03 0.  0.
         23    2    4    4    0    0  0.50297936294E+03  0.11200284751E+03  0.65964073201E+03  0.84197292685E+03  0.90882544153E+02 0.  0.
         23    2    4    4    0    0  0.22698201930E+03  0.67790274067E+03  0.29761120992E+02  0.72097601542E+03  0.88587400819E+02 0.  0.
          4    1    3    3  502    0 -0.54598150209E+03 -0.60221089696E+03  0.19140960494E+03  0.83509963592E+03  0.00000000000E+00 0. -1.
         -3    1    3    3    0  502 -0.18397988015E+03 -0.18769469122E+03  0.10972596049E+03  0.28481165675E+03  0.00000000000E+00 0.  1.
         13    1    5    5    0    0  0.29457576481E+02  0.45214247788E+01  0.11105711866E+02  0.31804542604E+02  0.00000000000E+00 0. -1.
        -13    1    5    5    0    0  0.47352178646E+03  0.10748142273E+03  0.64853502014E+03  0.81016838425E+03  0.00000000000E+00 0.  1.
          1    1    6    6  503    0  0.84430281990E+02  0.33876355651E+03  0.49230279478E+02  0.35258026059E+03  0.00000000000E+00 0. -1.
         -1    1    6    6    0  503  0.14255173731E+03  0.33913918416E+03 -0.19469158487E+02  0.36839575483E+03  0.00000000000E+00 0.  1.
<mgrwt>
<rscale>  0 0.24933060E+04</rscale>
<asrwt>0</asrwt>
<pdfrwt beam="1">  1        2 0.28256905E+00 0.24933060E+04</pdfrwt>
<pdfrwt beam="2">  1       -1 0.13017868E+00 0.24933060E+04</pdfrwt>
<totfact> 0.42263247E+00</totfact>
</mgrwt>
</event>
<event>
12    7  0.2426980E-007  0.3543518E+04  0.7818608E-02  0.8103553E-01
          2   -1    0    0  501    0  0.00000000000E+00  0.00000000000E+00  0.23053848558E+04  0.23053848558E+04  0.00000000000E+00 0. -1.
         -1   -1    0    0    0  501 -0.00000000000E+00 -0.00000000000E+00 -0.13616512789E+04  0.13616512789E+04  0.00000000000E+00 0.  1.
         24    2    1    2    0    0 -0.88400960522E+03  0.27434649293E+03 -0.98060722021E+03  0.13500176994E+04  0.64948348745E+02 0.  0.
        254    2    1    2    0    0  0.88400960522E+03 -0.27434649293E+03  0.19243407970E+04  0.23170184353E+04  0.89930414550E+03 0.  0.
         23    2    4    4    0    0  0.99573516015E+03 -0.48010662235E+02  0.13279001336E+04  0.16628883020E+04  0.89917781312E+02 0.  0.
         23    2    4    4    0    0 -0.11172555494E+03 -0.22633583069E+03  0.59644066345E+03  0.65413013328E+03  0.91838218416E+02 0.  0.
          4    1    3    3  502    0 -0.14104374728E+03  0.19335175053E+02 -0.14921891030E+03  0.20623644400E+03  0.00000000000E+00 0. -1.
         -3    1    3    3    0  502 -0.74296585794E+03  0.25501131788E+03 -0.83138830991E+03  0.11437812554E+04  0.00000000000E+00 0.  1.
         13    1    5    5    0    0  0.20507161567E+03  0.12404675725E+02  0.22743878604E+03  0.30649085619E+03  0.00000000000E+00 0. -1.
        -13    1    5    5    0    0  0.79066354449E+03 -0.60415337960E+02  0.11004613475E+04  0.13563974458E+04  0.00000000000E+00 0.  1.
          2    1    6    6  503    0 -0.74915599027E+02 -0.53995208732E+02  0.20097219871E+03  0.22117335779E+03  0.00000000000E+00 0.  1.
         -2    1    6    6    0  503 -0.36809955910E+02 -0.17234062196E+03  0.39546846474E+03  0.43295677548E+03  0.00000000000E+00 0. -1.
<mgrwt>
<rscale>  0 0.35435182E+04</rscale>
<asrwt>0</asrwt>
<pdfrwt beam="1">  1        2 0.35467459E+00 0.35435182E+04</pdfrwt>
<pdfrwt beam="2">  1       -1 0.20948481E+00 0.35435182E+04</pdfrwt>
<totfact> 0.54306203E-01</totfact>
</mgrwt>
</event>
<event>
12    7  0.2426980E-007  0.1619385E+04  0.7818608E-02  0.8808727E-01
         -3   -1    0    0    0  501 -0.00000000000E+00  0.00000000000E+00  0.95693869952E+03  0.95693869952E+03  0.00000000000E+00 0.  1.
          2   -1    0    0  501    0  0.00000000000E+00 -0.00000000000E+00 -0.68510298138E+03  0.68510298138E+03  0.00000000000E+00 0. -1.
         24    2    1    2    0    0  0.83983256357E+02 -0.45405983763E+03 -0.22635018576E+03  0.52038249163E+03  0.79624164090E+02 0.  0.
        254    2    1    2    0    0 -0.83983256357E+02  0.45405983763E+03  0.49818590389E+03  0.11216591893E+04  0.89258423609E+03 0.  0.
         23    2    4    4    0    0 -0.19495238519E+03  0.58965875810E+03  0.62581712664E+03  0.88654966341E+03  0.92840434147E+02 0.  0.
         23    2    4    4    0    0  0.11096912883E+03 -0.13559892047E+03 -0.12763122275E+03  0.23510952585E+03  0.91024970971E+02 0.  0.
          4    1    3    3  502    0  0.79104933355E+02 -0.45559043063E+03 -0.21956787505E+03  0.51188893591E+03  0.00000000000E+00 0. -1.
         -3    1    3    3    0  502  0.48783230020E+01  0.15305929909E+01 -0.67823107105E+01  0.84935557212E+01  0.00000000000E+00 0.  1.
         13    1    5    5    0    0 -0.44276726489E+02  0.27595968327E+03  0.26204703532E+03  0.38312246609E+03  0.00000000000E+00 0.  1.
        -13    1    5    5    0    0 -0.15067565870E+03  0.31369907483E+03  0.36377009131E+03  0.50342719732E+03  0.00000000000E+00 0. -1.
          1    1    6    6  503    0  0.40477119096E+02 -0.10117139150E+02 -0.67010261534E+02  0.78937499490E+02  0.00000000000E+00 0. -1.
         -1    1    6    6    0  503  0.70492009736E+02 -0.12548178132E+03 -0.60620961212E+02  0.15617202636E+03  0.00000000000E+00 0.  1.
<mgrwt>
<rscale>  0 0.16193845E+04</rscale>
<asrwt>0</asrwt>
<pdfrwt beam="1">  1        2 0.10540046E+00 0.16193845E+04</pdfrwt>
<pdfrwt beam="2">  1       -3 0.14722134E+00 0.16193845E+04</pdfrwt>
<totfact> 0.85887998E+00</totfact>
</mgrwt>
</event>
<event>
12    7  0.2426980E-007  0.2666788E+04  0.7818608E-02  0.8345862E-01
          2   -1    0    0  501    0  0.00000000000E+00  0.00000000000E+00  0.89932178261E+03  0.89932178261E+03  0.00000000000E+00 0. -1.
         -1   -1    0    0    0  501 -0.00000000000E+00 -0.00000000000E+00 -0.19769786405E+04  0.19769786405E+04  0.00000000000E+00 0.  1.
         24    2    1    2    0    0 -0.82678345539E+03  0.80390468230E+03 -0.20737752165E+03  0.11741646943E+04  0.76312990177E+02 0.  0.
        254    2    1    2    0    0  0.82678345539E+03 -0.80390468230E+03 -0.87027933622E+03  0.17021357288E+04  0.90002571956E+03 0.  0.
         23    2    4    4    0    0  0.10059972800E+04 -0.71440165123E+03 -0.68715889525E+03  0.14152260647E+04  0.90979229782E+02 0.  0.
         23    2    4    4    0    0 -0.17921382463E+03 -0.89503031067E+02 -0.18312044097E+03  0.28690966408E+03  0.93035863707E+02 0.  0.
          4    1    3    3  502    0 -0.33875993777E+03  0.38213566868E+03 -0.89177959381E+02  0.51840010913E+03  0.00000000000E+00 0. -1.
         -3    1    3    3    0  502 -0.48802351763E+03  0.42176901362E+03 -0.11819956227E+03  0.65576458515E+03  0.00000000000E+00 0.  1.
         13    1    5    5    0    0  0.86303777636E+03 -0.64886571389E+03 -0.60797897519E+03  0.12391526752E+04  0.00000000000E+00 0.  1.
        -13    1    5    5    0    0  0.14295950366E+03 -0.65535937341E+02 -0.79179920064E+02  0.17607338956E+03  0.00000000000E+00 0. -1.
          4    1    6    6  503    0 -0.16933736198E+03 -0.10243807774E+03 -0.14464671719E+03  0.24513542120E+03  0.00000000000E+00 0. -1.
         -4    1    6    6    0  503 -0.98764626453E+01  0.12935046677E+02 -0.38473723771E+02  0.41774242875E+02  0.00000000000E+00 0.  1.
<mgrwt>
<rscale>  0 0.26667883E+04</rscale>
<asrwt>0</asrwt>
<pdfrwt beam="1">  1        2 0.13835720E+00 0.26667883E+04</pdfrwt>
<pdfrwt beam="2">  1       -1 0.30415056E+00 0.26667883E+04</pdfrwt>
<totfact> 0.91376938E-01</totfact>
</mgrwt>
</event>
<event>
12    7  0.2426980E-007  0.2450703E+04  0.7818608E-02  0.8420761E-01
         -1   -1    0    0    0  501 -0.00000000000E+00  0.00000000000E+00  0.16404574471E+04  0.16404574471E+04  0.00000000000E+00 0.  1.
          2   -1    0    0  501    0  0.00000000000E+00 -0.00000000000E+00 -0.91528548957E+03  0.91528548957E+03  0.00000000000E+00 0. -1.
         24    2    1    2    0    0 -0.98381261949E+03 -0.87118453131E+02  0.71162987242E+03  0.12198692813E+04  0.78658075889E+02 0.  0.
        254    2    1    2    0    0  0.98381261949E+03  0.87118453131E+02  0.13542085122E+02  0.13358736554E+04  0.89938764726E+03 0.  0.
         23    2    4    4    0    0  0.73179803965E+03  0.46492820158E+03  0.30762330139E+02  0.87253137878E+03  0.93156226602E+02 0.  0.
         23    2    4    4    0    0  0.25201457984E+03 -0.37780974844E+03 -0.17220245017E+02  0.46334227664E+03  0.90210720040E+02 0.  0.
          2    1    3    3  502    0 -0.66575633227E+03 -0.22228242937E+02  0.48443216054E+03  0.82365047618E+03  0.00000000000E+00 0. -1.
         -1    1    3    3    0  502 -0.31805628722E+03 -0.64890210194E+02  0.22719771187E+03  0.39621880508E+03  0.00000000000E+00 0.  1.
         13    1    5    5    0    0  0.90000005283E+02  0.50716861381E+02  0.33718357153E+02  0.10866981452E+03  0.00000000000E+00 0. -1.
        -13    1    5    5    0    0  0.64179803436E+03  0.41421134020E+03 -0.29560270140E+01  0.76386156426E+03  0.00000000000E+00 0.  1.
          1    1    6    6  503    0  0.10017716835E+03 -0.22950150140E+03 -0.21648588013E+00  0.25041256172E+03  0.00000000000E+00 0. -1.
         -1    1    6    6    0  503  0.15183741148E+03 -0.14830824705E+03 -0.17003759137E+02  0.21292971491E+03  0.00000000000E+00 0.  1.
<mgrwt>
<rscale>  0 0.24507035E+04</rscale>
<asrwt>0</asrwt>
<pdfrwt beam="1">  1        2 0.14081315E+00 0.24507035E+04</pdfrwt>
<pdfrwt beam="2">  1       -1 0.25237807E+00 0.24507035E+04</pdfrwt>
<totfact> 0.19668657E+00</totfact>
</mgrwt>
</event>
<event>
12    7  0.2426980E-007  0.2257511E+04  0.7818608E-02  0.8494865E-01
         -1   -1    0    0    0  501 -0.00000000000E+00  0.00000000000E+00  0.41189620996E+03  0.41189620996E+03  0.00000000000E+00 0.  1.
          2   -1    0    0  501    0  0.00000000000E+00 -0.00000000000E+00 -0.30932282279E+04  0.30932282279E+04  0.00000000000E+00 0. -1.
         24    2    1    2    0    0  0.89315225072E+03  0.14638503520E+03 -0.69854551605E+03  0.11460292233E+04  0.79168309484E+02 0.  0.
        254    2    1    2    0    0 -0.89315225072E+03 -0.14638503520E+03 -0.19827865019E+04  0.23590952146E+04  0.90262860454E+03 0.  0.
         23    2    4    4    0    0 -0.73395852370E+03  0.82974350815E+02 -0.19191160835E+04  0.20584438147E+04  0.92760653201E+02 0.  0.
         23    2    4    4    0    0 -0.15919372701E+03 -0.22935938602E+03 -0.63670418452E+02  0.30065139994E+03  0.91591328308E+02 0.  0.
          2    1    3    3  502    0  0.22697356381E+02  0.37338496796E+01 -0.36521337568E+02  0.43161553701E+02  0.00000000000E+00 0. -1.
         -1    1    3    3    0  502  0.87045489433E+03  0.14265118553E+03 -0.66202417848E+03  0.11028676696E+04  0.00000000000E+00 0.  1.
         13    1    5    5    0    0 -0.36068919438E+03  0.41667750268E+01 -0.85337208377E+03  0.92647610348E+03  0.00000000000E+00 0.  1.
        -13    1    5    5    0    0 -0.37326932932E+03  0.78807575789E+02 -0.10657439997E+04  0.11319677112E+04  0.00000000000E+00 0. -1.
          1    1    6    6  503    0 -0.13385710060E+03 -0.23223058685E+03 -0.54337781737E+02  0.27349837910E+03  0.00000000000E+00 0. -1.
         -1    1    6    6    0  503 -0.25336626415E+02  0.28712008265E+01 -0.93326367145E+01  0.27153020832E+02  0.00000000000E+00 0.  1.
<mgrwt>
<rscale>  0 0.22575110E+04</rscale>
<asrwt>0</asrwt>
<pdfrwt beam="1">  1        2 0.47588127E+00 0.22575110E+04</pdfrwt>
<pdfrwt beam="2">  1       -1 0.63368647E-01 0.22575110E+04</pdfrwt>
<totfact> 0.39785982E+00</totfact>
</mgrwt>
</event>
<event>
12    7  0.2426980E-007  0.1647482E+04  0.7818608E-02  0.8791898E-01
         -1   -1    0    0    0  501 -0.00000000000E+00  0.00000000000E+00  0.55827034423E+03  0.55827034423E+03  0.00000000000E+00 0.  1.
          2   -1    0    0  501    0  0.00000000000E+00 -0.00000000000E+00 -0.12154485421E+04  0.12154485421E+04  0.00000000000E+00 0. -1.
         24    2    1    2    0    0  0.46675024547E+03 -0.10087161543E+03  0.11410972825E+03  0.49739811007E+03  0.79705554272E+02 0.  0.
        254    2    1    2    0    0 -0.46675024547E+03  0.10087161543E+03 -0.77128792609E+03  0.12763207762E+04  0.89781890405E+03 0.  0.
         23    2    4    4    0    0 -0.21925331227E+03  0.15311629380E+03  0.14851686278E+03  0.31826776169E+03  0.87866348684E+02 0.  0.
         23    2    4    4    0    0 -0.24749693319E+03 -0.52244678373E+02 -0.91980478887E+03  0.95805301454E+03  0.88546545212E+02 0.  0.
          4    1    3    3  502    0  0.11452072664E+03 -0.60583468120E+02  0.27455816564E+02  0.13243555151E+03  0.00000000000E+00 0. -1.
         -3    1    3    3    0  502  0.35222951882E+03 -0.40288147311E+02  0.86653911682E+02  0.36496255856E+03  0.00000000000E+00 0.  1.
         13    1    5    5    0    0 -0.18111903616E+03  0.12475180517E+03  0.78237776150E+02  0.23342722157E+03  0.00000000000E+00 0.  1.
        -13    1    5    5    0    0 -0.38134276107E+02  0.28364488637E+02  0.70279086635E+02  0.84840540121E+02  0.00000000000E+00 0. -1.
          1    1    6    6  503    0 -0.48769715783E+02 -0.27723923503E+02 -0.34119356008E+03  0.34577470491E+03  0.00000000000E+00 0. -1.
         -1    1    6    6    0  503 -0.19872721741E+03 -0.24520754870E+02 -0.57861122879E+03  0.61227830963E+03  0.00000000000E+00 0.  1.
<mgrwt>
<rscale>  0 0.16474816E+04</rscale>
<asrwt>0</asrwt>
<pdfrwt beam="1">  1        2 0.18699208E+00 0.16474816E+04</pdfrwt>
<pdfrwt beam="2">  1       -1 0.85887746E-01 0.16474816E+04</pdfrwt>
<totfact> 0.27041767E+01</totfact>
</mgrwt>
</event>
<event>
12    7  0.2426980E-007  0.1380608E+04  0.7818608E-02  0.8967976E-01
          2   -1    0    0  501    0  0.00000000000E+00  0.00000000000E+00  0.11950085893E+04  0.11950085893E+04  0.00000000000E+00 0. -1.
         -1   -1    0    0    0  501 -0.00000000000E+00 -0.00000000000E+00 -0.39875851360E+03  0.39875851360E+03  0.00000000000E+00 0.  1.
         24    2    1    2    0    0 -0.13303279492E+03 -0.28781714191E+03 -0.30724263197E+02  0.33119353149E+03  0.90602115027E+02 0.  0.
        254    2    1    2    0    0  0.13303279492E+03  0.28781714191E+03  0.82697433888E+03  0.12625735714E+04  0.89981611139E+03 0.  0.
         23    2    4    4    0    0 -0.36607866408E+03  0.89937787348E+02  0.21509142782E+03  0.44344388471E+03  0.90971218948E+02 0.  0.
         23    2    4    4    0    0  0.49911145900E+03  0.19787935456E+03  0.61188291106E+03  0.81912968669E+03  0.91127708692E+02 0.  0.
          4    1    3    3  502    0 -0.83781707004E+02 -0.97508882566E+02 -0.39291099552E+02  0.13442896679E+03  0.00000000000E+00 0. -1.
         -3    1    3    3    0  502 -0.49251087918E+02 -0.19030825934E+03  0.85668363552E+01  0.19676456470E+03  0.00000000000E+00 0.  1.
         13    1    5    5    0    0 -0.33038610255E+03  0.94838912101E+02  0.16379576941E+03  0.38076035782E+03  0.00000000000E+00 0.  1.
        -13    1    5    5    0    0 -0.35692561532E+02 -0.49011247531E+01  0.51295658407E+02  0.62683526895E+02  0.00000000000E+00 0. -1.
          4    1    6    6  503    0  0.10026271791E+03  0.80697924543E+02  0.13595158132E+03  0.18721004271E+03  0.00000000000E+00 0. -1.
         -4    1    6    6    0  503  0.39884874110E+03  0.11718143002E+03  0.47593132974E+03  0.63191964398E+03  0.00000000000E+00 0.  1.
<mgrwt>
<rscale>  0 0.13806083E+04</rscale>
<asrwt>0</asrwt>
<pdfrwt beam="1">  1        2 0.18384747E+00 0.13806083E+04</pdfrwt>
<pdfrwt beam="2">  1       -1 0.61347464E-01 0.13806083E+04</pdfrwt>
<totfact> 0.57116951E+01</totfact>
</mgrwt>
</event>
<event>
12    7  0.2426980E-007  0.2434041E+04  0.7818608E-02  0.8426868E-01
         -1   -1    0    0    0  501 -0.00000000000E+00  0.00000000000E+00  0.24362307006E+04  0.24362307006E+04  0.00000000000E+00 0.  1.
          2   -1    0    0  501    0  0.00000000000E+00 -0.00000000000E+00 -0.60796310506E+03  0.60796310506E+03  0.00000000000E+00 0. -1.
         24    2    1    2    0    0 -0.51684725099E+03  0.83338933641E+03  0.12527000796E+04  0.15929200114E+04  0.80422672943E+02 0.  0.
        254    2    1    2    0    0  0.51684725099E+03 -0.83338933641E+03  0.57556751594E+03  0.14512737943E+04  0.90180307920E+03 0.  0.
         23    2    4    4    0    0  0.31208899704E+03  0.12347466792E+03  0.11556364460E+03  0.36608954518E+03  0.89560389946E+02 0.  0.
         23    2    4    4    0    0  0.20475825395E+03 -0.95686400433E+03  0.46000387135E+03  0.10851842491E+04  0.92231380221E+02 0.  0.
          2    1    3    3  502    0 -0.28364484756E+03  0.49437999957E+03  0.78293626255E+03  0.96842923063E+03  0.00000000000E+00 0. -1.
         -1    1    3    3    0  502 -0.23320240343E+03  0.33900933684E+03  0.46976381703E+03  0.62449078074E+03  0.00000000000E+00 0.  1.
         13    1    5    5    0    0  0.31560638175E+03  0.11404475929E+03  0.11802301168E+03  0.35572886671E+03  0.00000000000E+00 0.  1.
        -13    1    5    5    0    0 -0.35173847136E+01  0.94299086229E+01 -0.24593670854E+01  0.10360678468E+02  0.00000000000E+00 0. -1.
          3    1    6    6  503    0  0.30458302435E+02 -0.21445403867E+03  0.14161663707E+03  0.25879241640E+03  0.00000000000E+00 0. -1.
         -3    1    6    6    0  503  0.17429995152E+03 -0.74240996565E+03  0.31838723428E+03  0.82639183270E+03  0.00000000000E+00 0.  1.
<mgrwt>
<rscale>  0 0.24340406E+04</rscale>
<asrwt>0</asrwt>
<pdfrwt beam="1">  1        2 0.93532786E-01 0.24340406E+04</pdfrwt>
<pdfrwt beam="2">  1       -1 0.37480472E+00 0.24340406E+04</pdfrwt>
<totfact> 0.52996622E-01</totfact>
</mgrwt>
</event>
<event>
12    7  0.2426980E-007  0.1366535E+04  0.7818608E-02  0.8978405E-01
          2   -1    0    0  501    0  0.00000000000E+00  0.00000000000E+00  0.11726899506E+04  0.11726899506E+04  0.00000000000E+00 0. -1.
         -1   -1    0    0    0  501 -0.00000000000E+00 -0.00000000000E+00 -0.39810568894E+03  0.39810568894E+03  0.00000000000E+00 0.  1.
         24    2    1    2    0    0  0.20119657048E+02 -0.26625008108E+03  0.53515903433E+03  0.60349424050E+03  0.80722983217E+02 0.  0.
        254    2    1    2    0    0 -0.20119657048E+02  0.26625008108E+03  0.23942522730E+03  0.96730139900E+03  0.89836164809E+03 0.  0.
         23    2    4    4    0    0  0.24845971528E+03  0.41428177967E+03 -0.98475460579E+02  0.50171007807E+03  0.93026679062E+02 0.  0.
         23    2    4    4    0    0 -0.26857937233E+03 -0.14803169858E+03  0.33790068788E+03  0.46559132093E+03  0.92466968298E+02 0.  0.
          4    1    3    3  502    0 -0.56023257203E+01 -0.25621611139E+02  0.12105332897E+03  0.12386186445E+03  0.00000000000E+00 0. -1.
         -3    1    3    3    0  502  0.25721982768E+02 -0.24062846995E+03  0.41410570536E+03  0.47963237605E+03  0.00000000000E+00 0.  1.
         13    1    5    5    0    0  0.81883531212E+02  0.82654339061E+02 -0.52903376712E+02  0.12781009239E+03  0.00000000000E+00 0. -1.
        -13    1    5    5    0    0  0.16657618407E+03  0.33162744061E+03 -0.45572083867E+02  0.37389998568E+03  0.00000000000E+00 0.  1.
          4    1    6    6  503    0 -0.18871051950E+03 -0.54956078913E+02  0.22666919937E+03  0.30001792734E+03  0.00000000000E+00 0. -1.
         -4    1    6    6    0  503 -0.79868852832E+02 -0.93075619670E+02  0.11123148851E+03  0.16557339359E+03  0.00000000000E+00 0.  1.
<mgrwt>
<rscale>  0 0.13665351E+04</rscale>
<asrwt>0</asrwt>
<pdfrwt beam="1">  1        2 0.18041384E+00 0.13665351E+04</pdfrwt>
<pdfrwt beam="2">  1       -1 0.61247030E-01 0.13665351E+04</pdfrwt>
<totfact> 0.59164631E+01</totfact>
</mgrwt>
</event>
<event>
12    7  0.2426980E-007  0.2636732E+04  0.7818608E-02  0.8355830E-01
          2   -1    0    0  501    0  0.00000000000E+00  0.00000000000E+00  0.19040265535E+04  0.19040265535E+04  0.00000000000E+00 0. -1.
         -1   -1    0    0    0  501 -0.00000000000E+00 -0.00000000000E+00 -0.91284910602E+03  0.91284910602E+03  0.00000000000E+00 0.  1.
         24    2    1    2    0    0 -0.35167312316E+03 -0.96620284116E+03 -0.14085349099E+03  0.10409821270E+04  0.81130555363E+02 0.  0.
        254    2    1    2    0    0  0.35167312316E+03  0.96620284116E+03  0.11320309384E+04  0.17758935325E+04  0.90281885077E+03 0.  0.
         23    2    4    4    0    0 -0.24299740938E+03  0.12922190644E+03  0.76382212348E+02  0.30053172247E+03  0.93482788663E+02 0.  0.
         23    2    4    4    0    0  0.59467053254E+03  0.83698093472E+03  0.10556487261E+04  0.14753618100E+04  0.90156032449E+02 0.  0.
          2    1    3    3  502    0 -0.11193981399E+03 -0.36188129647E+03 -0.86704175799E+02  0.38859517340E+03  0.00000000000E+00 0. -1.
         -1    1    3    3    0  502 -0.23973330917E+03 -0.60432154469E+03 -0.54149315188E+02  0.65238695361E+03  0.00000000000E+00 0.  1.
         13    1    5    5    0    0 -0.40945588192E+02 -0.96718173813E+01 -0.45870014160E+01  0.42321694505E+02  0.00000000000E+00 0. -1.
        -13    1    5    5    0    0 -0.20205182119E+03  0.13889372382E+03  0.80969213764E+02  0.25821002796E+03  0.00000000000E+00 0.  1.
          1    1    6    6  503    0  0.19799515939E+03  0.27420204212E+03  0.40968067852E+03  0.53125050720E+03  0.00000000000E+00 0. -1.
         -1    1    6    6    0  503  0.39667537315E+03  0.56277889260E+03  0.64596804757E+03  0.94411130281E+03  0.00000000000E+00 0.  1.
<mgrwt>
<rscale>  0 0.26367320E+04</rscale>
<asrwt>0</asrwt>
<pdfrwt beam="1">  1        2 0.29292716E+00 0.26367320E+04</pdfrwt>
<pdfrwt beam="2">  1       -1 0.14043832E+00 0.26367320E+04</pdfrwt>
<totfact> 0.31517734E+00</totfact>
</mgrwt>
</event>
<event>
12    7  0.2426980E-007  0.1606917E+04  0.7818608E-02  0.8816310E-01
          2   -1    0    0  501    0  0.00000000000E+00  0.00000000000E+00  0.55353303968E+03  0.55353303968E+03  0.00000000000E+00 0. -1.
         -1   -1    0    0    0  501 -0.00000000000E+00 -0.00000000000E+00 -0.11662270848E+04  0.11662270848E+04  0.00000000000E+00 0.  1.
         24    2    1    2    0    0  0.23301395321E+03 -0.39239945931E+03  0.11086248889E+03  0.47620173868E+03  0.78770339723E+02 0.  0.
        254    2    1    2    0    0 -0.23301395321E+03  0.39239945931E+03 -0.72355653400E+03  0.12435583858E+04  0.90256886878E+03 0.  0.
         23    2    4    4    0    0 -0.26772220579E+03 -0.24053503422E+03 -0.27619385745E+03  0.46266464171E+03  0.90792299398E+02 0.  0.
         23    2    4    4    0    0  0.34708252580E+02  0.63293449354E+03 -0.44736267655E+03  0.78089374407E+03  0.88605526103E+02 0.  0.
          2    1    3    3  502    0  0.20108638899E+03 -0.28627292490E+03  0.10484734479E+03  0.36521348425E+03  0.00000000000E+00 0. -1.
         -1    1    3    3    0  502  0.31927564224E+02 -0.10612653441E+03  0.60151441032E+01  0.11098825444E+03  0.00000000000E+00 0.  1.
         13    1    5    5    0    0 -0.29659824248E+01 -0.33787653596E+02 -0.14700687147E+02  0.36966373772E+02  0.00000000000E+00 0.  1.
        -13    1    5    5    0    0 -0.26475622337E+03 -0.20674738063E+03 -0.26149317030E+03  0.42569826793E+03  0.00000000000E+00 0. -1.
          2    1    6    6  503    0 -0.78998761470E+01  0.13795568202E+03 -0.58766346047E+02  0.15015878820E+03  0.00000000000E+00 0.  1.
         -2    1    6    6    0  503  0.42608128727E+02  0.49497881151E+03 -0.38859633050E+03  0.63073495588E+03  0.00000000000E+00 0. -1.
<mgrwt>
<rscale>  0 0.16069166E+04</rscale>
<asrwt>0</asrwt>
<pdfrwt beam="1">  1        2 0.85158930E-01 0.16069166E+04</pdfrwt>
<pdfrwt beam="2">  1       -1 0.17941955E+00 0.16069166E+04</pdfrwt>
<totfact> 0.12572061E+01</totfact>
</mgrwt>
</event>
<event>
12    7  0.2426980E-007  0.1803174E+04  0.7818608E-02  0.8704613E-01
          2   -1    0    0  501    0  0.00000000000E+00  0.00000000000E+00  0.17419879773E+04  0.17419879773E+04  0.00000000000E+00 0. -1.
         -1   -1    0    0    0  501 -0.00000000000E+00 -0.00000000000E+00 -0.46662726122E+03  0.46662726122E+03  0.00000000000E+00 0.  1.
         24    2    1    2    0    0 -0.33411133822E+03 -0.56005198693E+03  0.68670987497E+03  0.95064982386E+03  0.82921775344E+02 0.  0.
        254    2    1    2    0    0  0.33411133822E+03  0.56005198693E+03  0.58865084108E+03  0.12579654146E+04  0.90037689737E+03 0.  0.
         23    2    4    4    0    0 -0.73527901778E+01  0.65753167212E+03  0.59515208416E+03  0.89142606063E+03  0.89623964017E+02 0.  0.
         23    2    4    4    0    0  0.34146412840E+03 -0.97479685182E+02 -0.65012430800E+01  0.36653935401E+03  0.90602383356E+02 0.  0.
          2    1    3    3  502    0 -0.71286160819E+02 -0.14769241059E+03  0.22246581316E+03  0.27637981637E+03  0.00000000000E+00 0. -1.
         -1    1    3    3    0  502 -0.26282517740E+03 -0.41235957634E+03  0.46424406182E+03  0.67427000750E+03  0.00000000000E+00 0.  1.
         13    1    5    5    0    0 -0.18678901625E+02  0.47475432823E+03  0.37646910457E+03  0.60619267583E+03  0.00000000000E+00 0. -1.
        -13    1    5    5    0    0  0.11326111447E+02  0.18277734389E+03  0.21868297959E+03  0.28523338479E+03  0.00000000000E+00 0.  1.
          4    1    6    6  503    0  0.29261615558E+03 -0.10311015809E+03  0.19599819740E+02  0.31086986368E+03  0.00000000000E+00 0. -1.
         -4    1    6    6    0  503  0.48847972821E+02  0.56304729085E+01 -0.26101062820E+02  0.55669490336E+02  0.00000000000E+00 0.  1.
<mgrwt>
<rscale>  0 0.18031740E+04</rscale>
<asrwt>0</asrwt>
<pdfrwt beam="1">  1        2 0.26799815E+00 0.18031740E+04</pdfrwt>
<pdfrwt beam="2">  1       -1 0.71788810E-01 0.18031740E+04</pdfrwt>
<totfact> 0.19566580E+01</totfact>
</mgrwt>
</event>
<event>
12    7  0.2426980E-007  0.3862204E+04  0.7818608E-02  0.8032936E-01
          2   -1    0    0  501    0  0.00000000000E+00  0.00000000000E+00  0.38796941725E+04  0.38796941725E+04  0.00000000000E+00 0. -1.
         -1   -1    0    0    0  501 -0.00000000000E+00 -0.00000000000E+00 -0.96119806217E+03  0.96119806217E+03  0.00000000000E+00 0.  1.
         24    2    1    2    0    0 -0.73385077233E+02 -0.17975169331E+04  0.17669409049E+04  0.25228602608E+04  0.79317334312E+02 0.  0.
        254    2    1    2    0    0  0.73385077233E+02  0.17975169331E+04  0.11515552055E+04  0.23180319740E+04  0.90041120965E+03 0.  0.
         23    2    4    4    0    0 -0.37682984774E+03  0.72657297903E+03  0.65224927766E+03  0.10503468511E+04  0.88827694987E+02 0.  0.
         23    2    4    4    0    0  0.45021492497E+03  0.10709439541E+04  0.49930592784E+03  0.12676851229E+04  0.90026271865E+02 0.  0.
          4    1    3    3  502    0 -0.18406855159E+02 -0.13139709095E+04  0.12904156289E+04  0.18417466868E+04  0.00000000000E+00 0. -1.
         -3    1    3    3    0  502 -0.54978222074E+02 -0.48354602364E+03  0.47652527603E+03  0.68111357392E+03  0.00000000000E+00 0.  1.
         13    1    5    5    0    0 -0.29138838377E+03  0.50424179380E+03  0.42325861174E+03  0.71994085119E+03  0.00000000000E+00 0.  1.
        -13    1    5    5    0    0 -0.85441463971E+02  0.22233118523E+03  0.22899066592E+03  0.33040599990E+03  0.00000000000E+00 0. -1.
          3    1    6    6  503    0  0.24510004338E+03  0.53952569998E+03  0.20916276789E+03  0.62841950612E+03  0.00000000000E+00 0. -1.
         -3    1    6    6    0  503  0.20511488159E+03  0.53141825413E+03  0.29014315996E+03  0.63926561674E+03  0.00000000000E+00 0.  1.
<mgrwt>
<rscale>  0 0.38622038E+04</rscale>
<asrwt>0</asrwt>
<pdfrwt beam="1">  1        2 0.59687602E+00 0.38622038E+04</pdfrwt>
<pdfrwt beam="2">  1       -1 0.14787663E+00 0.38622038E+04</pdfrwt>
<totfact> 0.13948850E-01</totfact>
</mgrwt>
</event>
<event>
12    7  0.2426980E-007  0.1920110E+04  0.7818608E-02  0.8644911E-01
          2   -1    0    0  501    0  0.00000000000E+00  0.00000000000E+00  0.27989739490E+04  0.27989739490E+04  0.00000000000E+00 0. -1.
         -1   -1    0    0    0  501 -0.00000000000E+00 -0.00000000000E+00 -0.32930111323E+03  0.32930111323E+03  0.00000000000E+00 0.  1.
         24    2    1    2    0    0 -0.27211422299E+03 -0.41689916486E+03  0.57823726338E+02  0.50723829672E+03  0.78077156190E+02 0.  0.
        254    2    1    2    0    0  0.27211422299E+03  0.41689916486E+03  0.24118491094E+04  0.26210367655E+04  0.89719927300E+03 0.  0.
         23    2    4    4    0    0  0.33022356120E+03 -0.18846239396E+03  0.12013026708E+04  0.12633053765E+04  0.90811305229E+02 0.  0.
         23    2    4    4    0    0 -0.58109338210E+02  0.60536155882E+03  0.12105464387E+04  0.13577313890E+04  0.90402060229E+02 0.  0.
          4    1    3    3  502    0 -0.22703669985E+03 -0.33205592221E+03  0.76242612269E+02  0.40941389141E+03  0.00000000000E+00 0. -1.
         -3    1    3    3    0  502 -0.45077523142E+02 -0.84843242642E+02 -0.18418885931E+02  0.97824405307E+02  0.00000000000E+00 0.  1.
         13    1    5    5    0    0  0.30275487063E+03 -0.19709737753E+03  0.11323932860E+04  0.11886220771E+04  0.00000000000E+00 0.  1.
        -13    1    5    5    0    0  0.27468690565E+02  0.86349835683E+01  0.68909384769E+02  0.74683299417E+02  0.00000000000E+00 0. -1.
          4    1    6    6  503    0 -0.59904601829E+02  0.40513271507E+03  0.89129066901E+03  0.98087722718E+03  0.00000000000E+00 0. -1.
         -4    1    6    6    0  503  0.17952636190E+01  0.20022884375E+03  0.31925576968E+03  0.37685416186E+03  0.00000000000E+00 0.  1.
<mgrwt>
<rscale>  0 0.19201096E+04</rscale>
<asrwt>0</asrwt>
<pdfrwt beam="1">  1        2 0.43061136E+00 0.19201096E+04</pdfrwt>
<pdfrwt beam="2">  1       -1 0.50661712E-01 0.19201096E+04</pdfrwt>
<totfact> 0.96669829E+00</totfact>
</mgrwt>
</event>
<event>
12    7  0.2426980E-007  0.1726060E+04  0.7818608E-02  0.8746639E-01
         -1   -1    0    0    0  501 -0.00000000000E+00  0.00000000000E+00  0.25317230837E+04  0.25317230837E+04  0.00000000000E+00 0.  1.
          2   -1    0    0  501    0  0.00000000000E+00 -0.00000000000E+00 -0.29419534170E+03  0.29419534170E+03  0.00000000000E+00 0. -1.
         24    2    1    2    0    0  0.52395032562E+03 -0.30885365793E+03  0.58400724655E+03  0.84718976449E+03  0.82167556213E+02 0.  0.
        254    2    1    2    0    0 -0.52395032562E+03  0.30885365793E+03  0.16535204955E+04  0.19787286609E+04  0.90073445529E+03 0.  0.
         23    2    4    4    0    0 -0.22661673395E+03  0.10149563571E+03 -0.18852183765E+02  0.26471469235E+03  0.89788392023E+02 0.  0.
         23    2    4    4    0    0 -0.29733359168E+03  0.20735802221E+03  0.16723726792E+04  0.17140139686E+04  0.98024956798E+02 0.  0.
          4    1    3    3  502    0  0.41041769684E+03 -0.22467930970E+03  0.40285518934E+03  0.61742674194E+03  0.00000000000E+00 0. -1.
         -3    1    3    3    0  502  0.11353262878E+03 -0.84174348227E+02  0.18115205721E+03  0.22976302254E+03  0.00000000000E+00 0.  1.
         13    1    5    5    0    0  0.50842961362E+01  0.76146018715E+01  0.94037857176E+01  0.13124915797E+02  0.00000000000E+00 0.  1.
        -13    1    5    5    0    0 -0.23170103008E+03  0.93881033842E+02 -0.28255969482E+02  0.25158977656E+03  0.00000000000E+00 0. -1.
          2    1    6    6  503    0 -0.56345979211E+02  0.88027669819E+02  0.55326816408E+03  0.56305363990E+03  0.00000000000E+00 0. -1.
         -2    1    6    6    0  503 -0.24098761246E+03  0.11933035239E+03  0.11191045151E+04  0.11509603287E+04  0.00000000000E+00 0.  1.
<mgrwt>
<rscale>  0 0.17260604E+04</rscale>
<asrwt>0</asrwt>
<pdfrwt beam="1">  1        2 0.45260824E-01 0.17260604E+04</pdfrwt>
<pdfrwt beam="2">  1       -1 0.38949584E+00 0.17260604E+04</pdfrwt>
<totfact> 0.10327168E+00</totfact>
</mgrwt>
</event>
<event>
12    7  0.2426980E-007  0.1097132E+04  0.7818608E-02  0.9207992E-01
          2   -1    0    0  501    0  0.00000000000E+00  0.00000000000E+00  0.95009029566E+03  0.95009029566E+03  0.00000000000E+00 0. -1.
         -1   -1    0    0    0  501 -0.00000000000E+00 -0.00000000000E+00 -0.31673273839E+03  0.31673273839E+03  0.00000000000E+00 0.  1.
         24    2    1    2    0    0 -0.15975988601E+03 -0.66613269482E+01  0.77193524818E+02  0.19468730949E+03  0.79854328298E+02 0.  0.
        254    2    1    2    0    0  0.15975988601E+03  0.66613269482E+01  0.55616403245E+03  0.10721357246E+04  0.90254583620E+03 0.  0.
         23    2    4    4    0    0  0.10388000296E+03 -0.21098631291E+03 -0.17295487702E+03  0.30400125559E+03  0.84835692164E+02 0.  0.
         23    2    4    4    0    0  0.55879883044E+02  0.21764763986E+03  0.72911890948E+03  0.76813446897E+03  0.89011919453E+02 0.  0.
          4    1    3    3  502    0 -0.84570963477E+02  0.27069563888E+02  0.11990182214E+02  0.89603424165E+02  0.00000000000E+00 0. -1.
         -3    1    3    3    0  502 -0.75188922530E+02 -0.33730890836E+02  0.65203342604E+02  0.10508388532E+03  0.00000000000E+00 0.  1.
         13    1    5    5    0    0  0.77838195162E+02 -0.18331359659E+03 -0.10257561399E+03  0.22401878472E+03  0.00000000000E+00 0.  1.
        -13    1    5    5    0    0  0.26041807801E+02 -0.27672716318E+02 -0.70379263034E+02  0.79982470875E+02  0.00000000000E+00 0. -1.
          3    1    6    6  503    0 -0.70474331209E+01  0.14234919953E+03  0.39624880749E+03  0.42110103105E+03  0.00000000000E+00 0. -1.
         -3    1    6    6    0  503  0.62927316165E+02  0.75298440327E+02  0.33287010199E+03  0.34703343792E+03  0.00000000000E+00 0.  1.
<mgrwt>
<rscale>  0 0.10971321E+04</rscale>
<asrwt>0</asrwt>
<pdfrwt beam="1">  1        2 0.14616774E+00 0.10971321E+04</pdfrwt>
<pdfrwt beam="2">  1       -1 0.48728114E-01 0.10971321E+04</pdfrwt>
<totfact> 0.12957591E+02</totfact>
</mgrwt>
</event>
<event>
12    7  0.2426980E-007  0.2964752E+04  0.7818608E-02  0.8253868E-01
          2   -1    0    0  501    0  0.00000000000E+00  0.00000000000E+00  0.28633995147E+04  0.28633995147E+04  0.00000000000E+00 0. -1.
         -1   -1    0    0    0  501 -0.00000000000E+00 -0.00000000000E+00 -0.76742280191E+03  0.76742280191E+03  0.00000000000E+00 0.  1.
         24    2    1    2    0    0  0.70328858291E+03 -0.11191558021E+04  0.65035545202E+03  0.14751368228E+04  0.77083666365E+02 0.  0.
        254    2    1    2    0    0 -0.70328858291E+03  0.11191558021E+04  0.14456212607E+04  0.21556854938E+04  0.90001921003E+03 0.  0.
         23    2    4    4    0    0 -0.79403278576E+03  0.53272253994E+03  0.65374172195E+03  0.11618832466E+04  0.91176040379E+02 0.  0.
         23    2    4    4    0    0  0.90744202849E+02  0.58643326219E+03  0.79187953878E+03  0.99380224719E+03  0.91821681604E+02 0.  0.
          2    1    3    3  502    0  0.27693003507E+03 -0.50911179418E+03  0.27169967670E+03  0.64008263343E+03  0.00000000000E+00 0. -1.
         -1    1    3    3    0  502  0.42635854783E+03 -0.61004400796E+03  0.37865577532E+03  0.83505418934E+03  0.00000000000E+00 0.  1.
         13    1    5    5    0    0 -0.65621589518E+03  0.39736564438E+03  0.51272209536E+03  0.92271485492E+03  0.00000000000E+00 0. -1.
        -13    1    5    5    0    0 -0.13781689057E+03  0.13535689556E+03  0.14101962659E+03  0.23916839170E+03  0.00000000000E+00 0.  1.
          4    1    6    6  503    0  0.52221307699E+02  0.44694933809E+03  0.53607860068E+03  0.69990788102E+03  0.00000000000E+00 0. -1.
         -4    1    6    6    0  503  0.38522895150E+02  0.13948392410E+03  0.25580093810E+03  0.29389436617E+03  0.00000000000E+00 0.  1.
<mgrwt>
<rscale>  0 0.29647516E+04</rscale>
<asrwt>0</asrwt>
<pdfrwt beam="1">  1        2 0.44052299E+00 0.29647516E+04</pdfrwt>
<pdfrwt beam="2">  1       -1 0.11806505E+00 0.29647516E+04</pdfrwt>
<totfact> 0.13289314E+00</totfact>
</mgrwt>
</event>
<event>
12    7  0.2426980E-007  0.3148594E+04  0.7818608E-02  0.8202527E-01
          2   -1    0    0  501    0  0.00000000000E+00  0.00000000000E+00  0.17998430400E+04  0.17998430400E+04  0.00000000000E+00 0. -1.
         -1   -1    0    0    0  501 -0.00000000000E+00 -0.00000000000E+00 -0.13770152628E+04  0.13770152628E+04  0.00000000000E+00 0.  1.
         24    2    1    2    0    0 -0.55702262994E+03  0.79669273755E+03  0.12730742347E+04  0.16037809658E+04  0.80011567231E+02 0.  0.
        254    2    1    2    0    0  0.55702262994E+03 -0.79669273755E+03 -0.85024645749E+03  0.15730773370E+04  0.89814238369E+03 0.  0.
         23    2    4    4    0    0 -0.88269112908E+02 -0.10012932851E+03 -0.54898471922E+03  0.57262351396E+03  0.93253139771E+02 0.  0.
         23    2    4    4    0    0  0.64529174284E+03 -0.69656340904E+03 -0.30126173827E+03  0.10004538230E+04  0.92451073017E+02 0.  0.
          4    1    3    3  502    0 -0.19535641193E+03  0.34677794310E+03  0.53189089098E+03  0.66432446094E+03  0.00000000000E+00 0. -1.
         -3    1    3    3    0  502 -0.36166621801E+03  0.44991479445E+03  0.74118334371E+03  0.93945650485E+03  0.00000000000E+00 0.  1.
         13    1    5    5    0    0 -0.30545937875E+02  0.14928054459E+02 -0.10651347026E+03  0.11180796249E+03  0.00000000000E+00 0. -1.
        -13    1    5    5    0    0 -0.57723175032E+02 -0.11505738297E+03 -0.44247124897E+03  0.46081555147E+03  0.00000000000E+00 0.  1.
          4    1    6    6  503    0  0.41252109756E+03 -0.47949238289E+03 -0.23881469320E+03  0.67610580450E+03  0.00000000000E+00 0. -1.
         -4    1    6    6    0  503  0.23277064528E+03 -0.21707102614E+03 -0.62447045069E+02  0.32434801854E+03  0.00000000000E+00 0.  1.
<mgrwt>
<rscale>  0 0.31485942E+04</rscale>
<asrwt>0</asrwt>
<pdfrwt beam="1">  1        2 0.27689893E+00 0.31485942E+04</pdfrwt>
<pdfrwt beam="2">  1       -1 0.21184850E+00 0.31485942E+04</pdfrwt>
<totfact> 0.10372907E+00</totfact>
</mgrwt>
</event>
<event>
12    7  0.2426980E-007  0.1883250E+04  0.7818608E-02  0.8663239E-01
         -1   -1    0    0    0  501 -0.00000000000E+00  0.00000000000E+00  0.73000532634E+03  0.73000532634E+03  0.00000000000E+00 0.  1.
          2   -1    0    0  501    0  0.00000000000E+00 -0.00000000000E+00 -0.12145911371E+04  0.12145911371E+04  0.00000000000E+00 0. -1.
         24    2    1    2    0    0 -0.70879061613E+03  0.14482496333E+03 -0.16704105605E+03  0.74674123735E+03  0.79758094486E+02 0.  0.
        254    2    1    2    0    0  0.70879061613E+03 -0.14482496333E+03 -0.31754475468E+03  0.11978552260E+04  0.90036884876E+03 0.  0.
         23    2    4    4    0    0  0.28276061680E+03  0.17740959184E+03 -0.51539778316E+03  0.62102743598E+03  0.92803403322E+02 0.  0.
         23    2    4    4    0    0  0.42602999934E+03 -0.32223455516E+03  0.19785302848E+03  0.57682779006E+03  0.90817452242E+02 0.  0.
          2    1    3    3  502    0 -0.55719853724E+02  0.17779131436E+02 -0.35898718103E+02  0.68625924949E+02  0.00000000000E+00 0. -1.
         -1    1    3    3    0  502 -0.65307076241E+03  0.12704583189E+03 -0.13114233795E+03  0.67811531241E+03  0.00000000000E+00 0.  1.
         13    1    5    5    0    0  0.10946007913E+03  0.94363489869E+02 -0.29580709225E+03  0.32922304441E+03  0.00000000000E+00 0.  1.
        -13    1    5    5    0    0  0.17330053767E+03  0.83046101967E+02 -0.21959069091E+03  0.29180439158E+03  0.00000000000E+00 0. -1.
          2    1    6    6  503    0  0.60259278636E+02 -0.90370912318E+02  0.34340741222E+02  0.11391825562E+03  0.00000000000E+00 0. -1.
         -2    1    6    6    0  503  0.36577072070E+03 -0.23186364285E+03  0.16351228726E+03  0.46290953445E+03  0.00000000000E+00 0.  1.
<mgrwt>
<rscale>  0 0.18832504E+04</rscale>
<asrwt>0</asrwt>
<pdfrwt beam="1">  1        2 0.18686018E+00 0.18832504E+04</pdfrwt>
<pdfrwt beam="2">  1       -1 0.11230851E+00 0.18832504E+04</pdfrwt>
<totfact> 0.14421595E+01</totfact>
</mgrwt>
</event>
<event>
12    7  0.2426980E-007  0.2428733E+04  0.7818608E-02  0.8428824E-01
         -1   -1    0    0    0  501 -0.00000000000E+00  0.00000000000E+00  0.54191653763E+03  0.54191653763E+03  0.00000000000E+00 0.  1.
          2   -1    0    0  501    0  0.00000000000E+00 -0.00000000000E+00 -0.27212416513E+04  0.27212416513E+04  0.00000000000E+00 0. -1.
         24    2    1    2    0    0 -0.10131338649E+04  0.25628101691E+03 -0.97444538138E+03  0.14309707393E+04  0.77545261307E+02 0.  0.
        254    2    1    2    0    0  0.10131338649E+04 -0.25628101691E+03 -0.12048797322E+04  0.18321874496E+04  0.90169589857E+03 0.  0.
         23    2    4    4    0    0  0.64967569452E+03  0.18899088833E+03 -0.27624225014E+03  0.73638507897E+03  0.90316885711E+02 0.  0.
         23    2    4    4    0    0  0.36345817037E+03 -0.44527190524E+03 -0.92863748210E+03  0.10958023706E+04  0.89701455478E+02 0.  0.
          4    1    3    3  502    0 -0.23254194879E+03  0.90470320554E+02 -0.21567683028E+03  0.32981378377E+03  0.00000000000E+00 0. -1.
         -3    1    3    3    0  502 -0.78059191611E+03  0.16581069636E+03 -0.75876855110E+03  0.11011569555E+04  0.00000000000E+00 0.  1.
         13    1    5    5    0    0  0.23644971180E+03  0.11069315289E+03 -0.12479015340E+03  0.28936831667E+03  0.00000000000E+00 0. -1.
        -13    1    5    5    0    0  0.41322598273E+03  0.78297735444E+02 -0.15145209674E+03  0.44701676231E+03  0.00000000000E+00 0.  1.
          3    1    6    6  503    0  0.29294550196E+03 -0.33086862568E+03 -0.64409482322E+03  0.78112051303E+03  0.00000000000E+00 0. -1.
         -3    1    6    6    0  503  0.70512668408E+02 -0.11440327956E+03 -0.28454265888E+03  0.31468185760E+03  0.00000000000E+00 0.  1.
<mgrwt>
<rscale>  0 0.24287329E+04</rscale>
<asrwt>0</asrwt>
<pdfrwt beam="1">  1        2 0.41865255E+00 0.24287329E+04</pdfrwt>
<pdfrwt beam="2">  1       -1 0.83371776E-01 0.24287329E+04</pdfrwt>
<totfact> 0.37571853E+00</totfact>
</mgrwt>
</event>
<event>
12    7  0.2426980E-007  0.2347592E+04  0.7818608E-02  0.8459389E-01
          2   -1    0    0  501    0  0.00000000000E+00  0.00000000000E+00  0.30398232266E+04  0.30398232266E+04  0.00000000000E+00 0. -1.
         -3   -1    0    0    0  501 -0.00000000000E+00 -0.00000000000E+00 -0.45324898102E+03  0.45324898102E+03  0.00000000000E+00 0.  1.
         24    2    1    2    0    0  0.65432189721E+03  0.75373209684E+03  0.10192696776E+04  0.14287220742E+04  0.78018400019E+02 0.  0.
        254    2    1    2    0    0 -0.65432189721E+03 -0.75373209684E+03  0.15673045680E+04  0.20643501334E+04  0.89936013109E+03 0.  0.
         23    2    4    4    0    0 -0.71488617847E+03 -0.65403217100E+03  0.16367723461E+04  0.19042620169E+04  0.91486539891E+02 0.  0.
         23    2    4    4    0    0  0.60564281260E+02 -0.99699925844E+02 -0.69467778185E+02  0.16008811648E+03  0.84819369567E+02 0.  0.
          4    1    3    3  502    0  0.20328827373E+03  0.18329185054E+03  0.26492515842E+03  0.38092960540E+03  0.00000000000E+00 0. -1.
         -3    1    3    3    0  502  0.45103362348E+03  0.57044024630E+03  0.75434451918E+03  0.10477924688E+04  0.00000000000E+00 0.  1.
         13    1    5    5    0    0 -0.24656074287E+02 -0.53151436902E+01  0.55906412630E+02  0.61332697029E+02  0.00000000000E+00 0. -1.
        -13    1    5    5    0    0 -0.69023010418E+03 -0.64871702731E+03  0.15808659335E+04  0.18429293199E+04  0.00000000000E+00 0.  1.
          1    1    6    6  503    0 -0.68326264275E+01 -0.66077708247E+02 -0.17871341020E+02  0.68791955496E+02  0.00000000000E+00 0. -1.
         -1    1    6    6    0  503  0.67396907688E+02 -0.33622217597E+02 -0.51596437165E+02  0.91296160982E+02  0.00000000000E+00 0.  1.
<mgrwt>
<rscale>  0 0.23475918E+04</rscale>
<asrwt>0</asrwt>
<pdfrwt beam="1">  1        2 0.46766510E+00 0.23475918E+04</pdfrwt>
<pdfrwt beam="2">  1       -3 0.69730614E-01 0.23475918E+04</pdfrwt>
<totfact> 0.18789324E+00</totfact>
</mgrwt>
</event>
<event>
12    7  0.2426980E-007  0.1242327E+04  0.7818608E-02  0.9076594E-01
          2   -1    0    0  501    0  0.00000000000E+00  0.00000000000E+00  0.44489516501E+03  0.44489516501E+03  0.00000000000E+00 0. -1.
         -1   -1    0    0    0  501 -0.00000000000E+00 -0.00000000000E+00 -0.86726953878E+03  0.86726953878E+03  0.00000000000E+00 0.  1.
         24    2    1    2    0    0  0.44644235238E+02  0.86020881651E+02 -0.38605966322E+03  0.40642884845E+03  0.82156225983E+02 0.  0.
        254    2    1    2    0    0 -0.44644235238E+02 -0.86020881651E+02 -0.36314710551E+02  0.90573585534E+03  0.89980330163E+03 0.  0.
         23    2    4    4    0    0 -0.19412475395E+03 -0.14066717220E+02 -0.42321855081E+03  0.47506299897E+03  0.93212759920E+02 0.  0.
         23    2    4    4    0    0  0.14948051871E+03 -0.71954164431E+02  0.38690384026E+03  0.43067285637E+03  0.90899396873E+02 0.  0.
          4    1    3    3  502    0 -0.12280373271E+02  0.65274539108E+02 -0.19645245625E+03  0.20737680823E+03  0.00000000000E+00 0. -1.
         -3    1    3    3    0  502  0.56924608508E+02  0.20746342543E+02 -0.18960720697E+03  0.19905204022E+03  0.00000000000E+00 0.  1.
         13    1    5    5    0    0 -0.16182669041E+03 -0.12466739527E+02 -0.40844241775E+03  0.43950939233E+03  0.00000000000E+00 0. -1.
        -13    1    5    5    0    0 -0.32298063544E+02 -0.15999776926E+01 -0.14776133055E+02  0.35553606644E+02  0.00000000000E+00 0.  1.
          3    1    6    6  503    0  0.34111574574E+02  0.49650777817E+01  0.16835877571E+03  0.17185147330E+03  0.00000000000E+00 0. -1.
         -3    1    6    6    0  503  0.11536894414E+03 -0.76919242213E+02  0.21854506455E+03  0.25882138307E+03  0.00000000000E+00 0.  1.
<mgrwt>
<rscale>  0 0.12423269E+04</rscale>
<asrwt>0</asrwt>
<pdfrwt beam="1">  1        2 0.68445411E-01 0.12423269E+04</pdfrwt>
<pdfrwt beam="2">  1       -1 0.13342608E+00 0.12423269E+04</pdfrwt>
<totfact> 0.37663108E+01</totfact>
</mgrwt>
</event>
<event>
12    7  0.2426980E-007  0.1669982E+04  0.7818608E-02  0.8778673E-01
          2   -1    0    0  501    0  0.00000000000E+00  0.00000000000E+00  0.21688920897E+04  0.21688920897E+04  0.00000000000E+00 0. -1.
         -1   -1    0    0    0  501 -0.00000000000E+00 -0.00000000000E+00 -0.32145891497E+03  0.32145891497E+03  0.00000000000E+00 0.  1.
         24    2    1    2    0    0  0.33815453493E+03 -0.46386353188E+03  0.45772656464E+03  0.73856068748E+03  0.80252198749E+02 0.  0.
        254    2    1    2    0    0 -0.33815453493E+03  0.46386353188E+03  0.13897066101E+04  0.17517903172E+04  0.89886983908E+03 0.  0.
         23    2    4    4    0    0  0.25131850839E+03  0.14901131287E+03  0.15115391442E+03  0.34141902982E+03  0.91400678666E+02 0.  0.
         23    2    4    4    0    0 -0.58947304332E+03  0.31485221901E+03  0.12385526957E+04  0.14103712874E+04  0.92325509333E+02 0.  0.
          4    1    3    3  502    0  0.25066449743E+03 -0.33812144727E+03  0.37870631698E+03  0.56619544143E+03  0.00000000000E+00 0. -1.
         -3    1    3    3    0  502  0.87490037507E+02 -0.12574208461E+03  0.79020247662E+02  0.17236524605E+03  0.00000000000E+00 0.  1.
         13    1    5    5    0    0  0.46396217059E+02  0.73160380871E+02  0.55535627462E+02  0.10290411170E+03  0.00000000000E+00 0. -1.
        -13    1    5    5    0    0  0.20492229133E+03  0.75850931997E+02  0.95618286956E+02  0.23851491813E+03  0.00000000000E+00 0.  1.
          2    1    6    6  503    0 -0.99669796045E+02  0.95102900131E+02  0.25865085293E+03  0.29305100849E+03  0.00000000000E+00 0.  1.
         -2    1    6    6    0  503 -0.48980324728E+03  0.21974931888E+03  0.97990184274E+03  0.11173202789E+04  0.00000000000E+00 0. -1.
<mgrwt>
<rscale>  0 0.16699817E+04</rscale>
<asrwt>0</asrwt>
<pdfrwt beam="1">  1        2 0.33367570E+00 0.16699817E+04</pdfrwt>
<pdfrwt beam="2">  1       -1 0.49455219E-01 0.16699817E+04</pdfrwt>
<totfact> 0.23946068E+01</totfact>
</mgrwt>
</event>
<event>
12    7  0.2426980E-007  0.1921366E+04  0.7818608E-02  0.8644294E-01
          2   -1    0    0  501    0  0.00000000000E+00  0.00000000000E+00  0.98177090452E+03  0.98177090452E+03  0.00000000000E+00 0. -1.
         -1   -1    0    0    0  501 -0.00000000000E+00 -0.00000000000E+00 -0.94004833379E+03  0.94004833379E+03  0.00000000000E+00 0.  1.
         24    2    1    2    0    0 -0.23952753717E+03  0.67524265486E+03 -0.19314105136E+03  0.74609782373E+03  0.77668609161E+02 0.  0.
        254    2    1    2    0    0  0.23952753717E+03 -0.67524265486E+03  0.23486362209E+03  0.11757214146E+04  0.90212739661E+03 0.  0.
         23    2    4    4    0    0 -0.31801232386E+03 -0.39703924151E+03  0.53959060403E+02  0.51952301848E+03  0.90667464425E+02 0.  0.
         23    2    4    4    0    0  0.55753986103E+03 -0.27820341335E+03  0.18090456169E+03  0.65619839611E+03  0.98091991388E+02 0.  0.
          2    1    3    3  502    0 -0.14848605928E+03  0.32353451901E+03 -0.72487359104E+02  0.36328654259E+03  0.00000000000E+00 0. -1.
         -1    1    3    3    0  502 -0.91041477894E+02  0.35170813585E+03 -0.12065369225E+03  0.38281128115E+03  0.00000000000E+00 0.  1.
         13    1    5    5    0    0 -0.11080155624E+03 -0.19781385518E+03 -0.16825513827E+01  0.22673803639E+03  0.00000000000E+00 0.  1.
        -13    1    5    5    0    0 -0.20721076762E+03 -0.19922538633E+03  0.55641611785E+02  0.29278498209E+03  0.00000000000E+00 0. -1.
          1    1    6    6  503    0  0.28056681819E+03 -0.18237425313E+03  0.64196038391E+02  0.34073338407E+03  0.00000000000E+00 0. -1.
         -1    1    6    6    0  503  0.27697304284E+03 -0.95829160220E+02  0.11670852330E+03  0.31546501203E+03  0.00000000000E+00 0.  1.
<mgrwt>
<rscale>  0 0.19213663E+04</rscale>
<asrwt>0</asrwt>
<pdfrwt beam="1">  1        2 0.15104168E+00 0.19213663E+04</pdfrwt>
<pdfrwt beam="2">  1       -1 0.14462282E+00 0.19213663E+04</pdfrwt>
<totfact> 0.10621618E+01</totfact>
</mgrwt>
</event>
<event>
12    7  0.2426980E-007  0.1981898E+04  0.7818608E-02  0.8615131E-01
          2   -1    0    0  501    0  0.00000000000E+00  0.00000000000E+00  0.16882504237E+04  0.16882504237E+04  0.00000000000E+00 0. -1.
         -1   -1    0    0    0  501 -0.00000000000E+00 -0.00000000000E+00 -0.58165535696E+03  0.58165535696E+03  0.00000000000E+00 0.  1.
         24    2    1    2    0    0 -0.22700403656E+03  0.46157391494E+03 -0.23766760991E+03  0.57235826168E+03  0.80788460521E+02 0.  0.
        254    2    1    2    0    0  0.22700403656E+03 -0.46157391494E+03  0.13442626767E+04  0.16975475190E+04  0.90002451289E+03 0.  0.
         23    2    4    4    0    0  0.54133012150E+03 -0.13381647205E+03  0.84332345894E+03  0.10152577327E+04  0.92782858572E+02 0.  0.
         23    2    4    4    0    0 -0.31432608494E+03 -0.32775744289E+03  0.50093921772E+03  0.68228978625E+03  0.91397065244E+02 0.  0.
          2    1    3    3  502    0 -0.14260695027E+03  0.32054190351E+03 -0.12224077981E+03  0.37151939710E+03  0.00000000000E+00 0. -1.
         -1    1    3    3    0  502 -0.84397086287E+02  0.14103201143E+03 -0.11542683010E+03  0.20083886459E+03  0.00000000000E+00 0.  1.
         13    1    5    5    0    0  0.33061727560E+03 -0.60217065835E+02  0.43244145688E+03  0.54766731833E+03  0.00000000000E+00 0. -1.
        -13    1    5    5    0    0  0.21071284590E+03 -0.73599406211E+02  0.41088200207E+03  0.46759041441E+03  0.00000000000E+00 0.  1.
          4    1    6    6  503    0 -0.30109572073E+03 -0.29066246076E+03  0.42341246117E+03  0.59533302564E+03  0.00000000000E+00 0. -1.
         -4    1    6    6    0  503 -0.13230364203E+02 -0.37094982133E+02  0.77526756544E+02  0.86956760615E+02  0.00000000000E+00 0.  1.
<mgrwt>
<rscale>  0 0.19818980E+04</rscale>
<asrwt>0</asrwt>
<pdfrwt beam="1">  1        2 0.25973083E+00 0.19818980E+04</pdfrwt>
<pdfrwt beam="2">  1       -1 0.89485440E-01 0.19818980E+04</pdfrwt>
<totfact> 0.12906386E+01</totfact>
</mgrwt>
</event>
<event>
12    7  0.2426980E-007  0.1248162E+04  0.7818608E-02  0.9071714E-01
          2   -1    0    0  501    0  0.00000000000E+00  0.00000000000E+00  0.37257703245E+03  0.37257703245E+03  0.00000000000E+00 0. -1.
         -1   -1    0    0    0  501 -0.00000000000E+00 -0.00000000000E+00 -0.10453606369E+04  0.10453606369E+04  0.00000000000E+00 0.  1.
         24    2    1    2    0    0 -0.96250918727E+02 -0.20470098578E+03  0.44931117371E+02  0.24429227512E+03  0.80580254659E+02 0.  0.
        254    2    1    2    0    0  0.96250918727E+02  0.20470098578E+03 -0.71771472178E+03  0.11736453942E+04  0.90064552212E+03 0.  0.
         23    2    4    4    0    0  0.27781583008E+03  0.48578568930E+03 -0.33965918139E+03  0.66086321697E+03  0.90567437123E+02 0.  0.
         23    2    4    4    0    0 -0.18156491135E+03 -0.28108470353E+03 -0.37805554039E+03  0.51278217723E+03  0.89694715949E+02 0.  0.
          2    1    3    3  502    0 -0.10407129210E+03 -0.20598815671E+03  0.48120732513E+02  0.23574893307E+03  0.00000000000E+00 0. -1.
         -1    1    3    3    0  502  0.78203733707E+01  0.12871709352E+01 -0.31896151422E+01  0.85433420527E+01  0.00000000000E+00 0.  1.
         13    1    5    5    0    0  0.71430457950E+01  0.16267130267E+02 -0.34745317748E+02  0.39024091735E+02  0.00000000000E+00 0.  1.
        -13    1    5    5    0    0  0.27067278428E+03  0.46951855903E+03 -0.30491386364E+03  0.62183912523E+03  0.00000000000E+00 0. -1.
          1    1    6    6  503    0 -0.11738861221E+03 -0.21015196531E+03 -0.32159797470E+03  0.40170784424E+03  0.00000000000E+00 0. -1.
         -1    1    6    6    0  503 -0.64176299145E+02 -0.70932738220E+02 -0.56457565696E+02  0.11107433298E+03  0.00000000000E+00 0.  1.
<mgrwt>
<rscale>  0 0.12481624E+04</rscale>
<asrwt>0</asrwt>
<pdfrwt beam="1">  1        2 0.57319545E-01 0.12481624E+04</pdfrwt>
<pdfrwt beam="2">  1       -1 0.16082471E+00 0.12481624E+04</pdfrwt>
<totfact> 0.27942713E+01</totfact>
</mgrwt>
</event>
<event>
12    7  0.2426980E-007  0.3297231E+04  0.7818608E-02  0.8163600E-01
         -1   -1    0    0    0  501 -0.00000000000E+00  0.00000000000E+00  0.71217613862E+03  0.71217613862E+03  0.00000000000E+00 0.  1.
          2   -1    0    0  501    0  0.00000000000E+00 -0.00000000000E+00 -0.38163779516E+04  0.38163779516E+04  0.00000000000E+00 0. -1.
         24    2    1    2    0    0  0.15048443205E+03  0.24091602216E+02 -0.35207633601E+04  0.35250228409E+04  0.82373671493E+02 0.  0.
        254    2    1    2    0    0 -0.15048443205E+03 -0.24091602216E+02  0.41656154707E+03  0.10035312493E+04  0.90018080199E+03 0.  0.
         23    2    4    4    0    0 -0.12498543511E+03  0.68928897194E+01  0.69237351900E+03  0.70942076467E+03  0.90707555491E+02 0.  0.
         23    2    4    4    0    0 -0.25498996937E+02 -0.30984491935E+02 -0.27581197192E+03  0.29411048464E+03  0.93906846057E+02 0.  0.
          2    1    3    3  502    0  0.10204031748E+03  0.44731013430E+02 -0.28580402800E+04  0.28602110643E+04  0.00000000000E+00 0. -1.
         -1    1    3    3    0  502  0.48444114573E+02 -0.20639411214E+02 -0.66272308008E+03  0.66481177667E+03  0.00000000000E+00 0.  1.
         13    1    5    5    0    0 -0.31498425994E+02 -0.35357242214E+02  0.30677485208E+03  0.31040794978E+03  0.00000000000E+00 0. -1.
        -13    1    5    5    0    0 -0.93487009121E+02  0.42250131933E+02  0.38559866692E+03  0.39901281490E+03  0.00000000000E+00 0.  1.
          1    1    6    6  503    0 -0.42847708168E+02 -0.17460733580E+02 -0.26605220457E+03  0.27004551258E+03  0.00000000000E+00 0. -1.
         -1    1    6    6    0  503  0.17348711230E+02 -0.13523758355E+02 -0.97597673568E+01  0.24064972060E+02  0.00000000000E+00 0.  1.
<mgrwt>
<rscale>  0 0.32972311E+04</rscale>
<asrwt>0</asrwt>
<pdfrwt beam="1">  1        2 0.58713508E+00 0.32972311E+04</pdfrwt>
<pdfrwt beam="2">  1       -1 0.10956556E+00 0.32972311E+04</pdfrwt>
<totfact> 0.34802820E-01</totfact>
</mgrwt>
</event>
<event>
12    7  0.2426980E-007  0.2053215E+04  0.7818608E-02  0.8582137E-01
         -1   -1    0    0    0  501 -0.00000000000E+00  0.00000000000E+00  0.72327528375E+03  0.72327528375E+03  0.00000000000E+00 0.  1.
          2   -1    0    0  501    0  0.00000000000E+00 -0.00000000000E+00 -0.14571531052E+04  0.14571531052E+04  0.00000000000E+00 0. -1.
         24    2    1    2    0    0  0.73660193802E+03  0.32960012141E+03 -0.10299400558E+03  0.81796067422E+03  0.85048481784E+02 0.  0.
        254    2    1    2    0    0 -0.73660193802E+03 -0.32960012141E+03 -0.63088381586E+03  0.13624677147E+04  0.89837922360E+03 0.  0.
         23    2    4    4    0    0 -0.76601304228E+02  0.22442780434E+02  0.20470475200E+03  0.23731785756E+03  0.89689976156E+02 0.  0.
         23    2    4    4    0    0 -0.66000063380E+03 -0.35204290185E+03 -0.83558856786E+03  0.11251498572E+04  0.90658176564E+02 0.  0.
          2    1    3    3  502    0  0.36831479472E+03  0.15610184700E+03 -0.93159051222E+02  0.41073371358E+03  0.00000000000E+00 0. -1.
         -1    1    3    3    0  502  0.36828714331E+03  0.17349827442E+03 -0.98349543575E+01  0.40722696065E+03  0.00000000000E+00 0.  1.
         13    1    5    5    0    0  0.14547927614E+02 -0.14625593398E+02  0.48492499464E+02  0.52697938142E+02  0.00000000000E+00 0.  1.
        -13    1    5    5    0    0 -0.91149231842E+02  0.37068373832E+02  0.15621225253E+03  0.18461991942E+03  0.00000000000E+00 0. -1.
          4    1    6    6  503    0 -0.32530482966E+03 -0.21550050132E+03 -0.39476347761E+03  0.55506927632E+03  0.00000000000E+00 0. -1.
         -4    1    6    6    0  503 -0.33469580414E+03 -0.13654240053E+03 -0.44082509025E+03  0.57008058083E+03  0.00000000000E+00 0.  1.
<mgrwt>
<rscale>  0 0.20532149E+04</rscale>
<asrwt>0</asrwt>
<pdfrwt beam="1">  1        2 0.22417740E+00 0.20532149E+04</pdfrwt>
<pdfrwt beam="2">  1       -1 0.11127312E+00 0.20532149E+04</pdfrwt>
<totfact> 0.10508114E+01</totfact>
</mgrwt>
</event>
<event>
12    7  0.2426980E-007  0.2358507E+04  0.7818608E-02  0.8455203E-01
         -3   -1    0    0    0  501 -0.00000000000E+00  0.00000000000E+00  0.13104157139E+04  0.13104157139E+04  0.00000000000E+00 0.  1.
          2   -1    0    0  501    0  0.00000000000E+00 -0.00000000000E+00 -0.10612194810E+04  0.10612194810E+04  0.00000000000E+00 0. -1.
         24    2    1    2    0    0  0.91891561112E+03 -0.13595245424E+03 -0.28200725907E+03  0.97408433909E+03  0.80145089078E+02 0.  0.
        254    2    1    2    0    0 -0.91891561112E+03  0.13595245424E+03  0.53120349195E+03  0.13975508558E+04  0.89893396556E+03 0.  0.
         23    2    4    4    0    0 -0.30825909886E+03  0.37850998147E+03  0.53949540136E+03  0.73424780845E+03  0.98848763358E+02 0.  0.
         23    2    4    4    0    0 -0.61065651226E+03 -0.24255752723E+03 -0.82919094143E+01  0.66330304732E+03  0.90369501712E+02 0.  0.
          2    1    3    3  502    0  0.26097086006E+03 -0.16132269828E+02 -0.10917310118E+03  0.28334573572E+03  0.00000000000E+00 0. -1.
         -1    1    3    3    0  502  0.65794475106E+03 -0.11982018441E+03 -0.17283415789E+03  0.69073860336E+03  0.00000000000E+00 0.  1.
         13    1    5    5    0    0 -0.21301228774E+03  0.21325112768E+03  0.27402039733E+03  0.40735421483E+03  0.00000000000E+00 0. -1.
        -13    1    5    5    0    0 -0.95246811121E+02  0.16525885379E+03  0.26547500403E+03  0.32689359362E+03  0.00000000000E+00 0.  1.
          1    1    6    6  503    0 -0.54479666936E+03 -0.19041261074E+03 -0.24995235345E+02  0.57765485808E+03  0.00000000000E+00 0. -1.
         -1    1    6    6    0  503 -0.65859842900E+02 -0.52144916491E+02  0.16703325931E+02  0.85648189238E+02  0.00000000000E+00 0.  1.
<mgrwt>
<rscale>  0 0.23585069E+04</rscale>
<asrwt>0</asrwt>
<pdfrwt beam="1">  1        2 0.16326454E+00 0.23585069E+04</pdfrwt>
<pdfrwt beam="2">  1       -3 0.20160242E+00 0.23585069E+04</pdfrwt>
<totfact> 0.18717321E+00</totfact>
</mgrwt>
</event>
<event>
12    7  0.2426980E-007  0.1434770E+04  0.7818608E-02  0.8929028E-01
          2   -1    0    0  501    0  0.00000000000E+00  0.00000000000E+00  0.14877815808E+04  0.14877815808E+04  0.00000000000E+00 0. -1.
         -1   -1    0    0    0  501 -0.00000000000E+00 -0.00000000000E+00 -0.34591160961E+03  0.34591160961E+03  0.00000000000E+00 0.  1.
         24    2    1    2    0    0  0.31448131239E+03 -0.27135979488E+03  0.49027940083E+03  0.64796302424E+03  0.83351999282E+02 0.  0.
        254    2    1    2    0    0 -0.31448131239E+03  0.27135979488E+03  0.65159057036E+03  0.11857301662E+04  0.89936150767E+03 0.  0.
         23    2    4    4    0    0  0.10713134451E+03 -0.20736563474E+03 -0.26045613605E+02  0.25112362203E+03  0.88921696481E+02 0.  0.
         23    2    4    4    0    0 -0.42161265690E+03  0.47872542962E+03  0.67763618396E+03  0.93460654414E+03  0.85809819409E+02 0.  0.
          4    1    3    3  502    0  0.25221952238E+03 -0.17091561891E+03  0.37074557196E+03  0.47987406200E+03  0.00000000000E+00 0. -1.
         -3    1    3    3    0  502  0.62261790017E+02 -0.10044417597E+03  0.11953382887E+03  0.16808896224E+03  0.00000000000E+00 0.  1.
         13    1    5    5    0    0  0.11879002808E+03 -0.15059746114E+03 -0.20815539916E+02  0.19293509990E+03  0.00000000000E+00 0.  1.
        -13    1    5    5    0    0 -0.11658683567E+02 -0.56768173604E+02 -0.52300736898E+01  0.58188522130E+02  0.00000000000E+00 0. -1.
          1    1    6    6  503    0 -0.41182369733E+03  0.48056095554E+03  0.66036224391E+03  0.91466708854E+03  0.00000000000E+00 0. -1.
         -1    1    6    6    0  503 -0.97889595713E+01 -0.18355259139E+01  0.17273940049E+02  0.19939455601E+02  0.00000000000E+00 0.  1.
<mgrwt>
<rscale>  0 0.14347696E+04</rscale>
<asrwt>0</asrwt>
<pdfrwt beam="1">  1        2 0.22888947E+00 0.14347696E+04</pdfrwt>
<pdfrwt beam="2">  1       -1 0.53217171E-01 0.14347696E+04</pdfrwt>
<totfact> 0.50809439E+01</totfact>
</mgrwt>
</event>
<event>
12    7  0.2426980E-007  0.2815367E+04  0.7818608E-02  0.8298513E-01
         -1   -1    0    0    0  501 -0.00000000000E+00  0.00000000000E+00  0.18197086917E+04  0.18197086917E+04  0.00000000000E+00 0.  1.
          2   -1    0    0  501    0  0.00000000000E+00 -0.00000000000E+00 -0.10889502291E+04  0.10889502291E+04  0.00000000000E+00 0. -1.
         24    2    1    2    0    0 -0.55507460836E+03 -0.10889934503E+04  0.65497720391E+03  0.13888040823E+04  0.75941329714E+02 0.  0.
        254    2    1    2    0    0  0.55507460836E+03  0.10889934503E+04  0.75781258681E+02  0.15198548385E+04  0.90011186810E+03 0.  0.
         23    2    4    4    0    0 -0.21034853426E+03  0.19012149568E+03  0.15009166223E+03  0.33318015651E+03  0.89937870983E+02 0.  0.
         23    2    4    4    0    0  0.76542314262E+03  0.89887195466E+03 -0.74310403549E+02  0.11866746819E+04  0.93975457241E+02 0.  0.
          2    1    3    3  502    0 -0.39577988494E+03 -0.72079423388E+03  0.41149576042E+03  0.91951879032E+03  0.00000000000E+00 0. -1.
         -1    1    3    3    0  502 -0.15929472342E+03 -0.36819921646E+03  0.24348144349E+03  0.46928529194E+03  0.00000000000E+00 0.  1.
         13    1    5    5    0    0 -0.10004598194E+03  0.34521788519E+02  0.66060434295E+02  0.12475950210E+03  0.00000000000E+00 0. -1.
        -13    1    5    5    0    0 -0.11030255232E+03  0.15559970716E+03  0.84031227935E+02  0.20842065441E+03  0.00000000000E+00 0.  1.
          2    1    6    6  503    0  0.17254811838E+03  0.26647602800E+03 -0.15855280358E+02  0.31785801323E+03  0.00000000000E+00 0. -1.
         -2    1    6    6    0  503  0.59287502423E+03  0.63239592666E+03 -0.58455123192E+02  0.86881666872E+03  0.00000000000E+00 0.  1.
<mgrwt>
<rscale>  0 0.28153665E+04</rscale>
<asrwt>0</asrwt>
<pdfrwt beam="1">  1        2 0.16753080E+00 0.28153665E+04</pdfrwt>
<pdfrwt beam="2">  1       -1 0.27995518E+00 0.28153665E+04</pdfrwt>
<totfact> 0.97617002E-01</totfact>
</mgrwt>
</event>
<event>
12    7  0.2426980E-007  0.2739696E+04  0.7818608E-02  0.8322239E-01
          2   -1    0    0  501    0  0.00000000000E+00  0.00000000000E+00  0.18450535422E+04  0.18450535422E+04  0.00000000000E+00 0. -1.
         -1   -1    0    0    0  501 -0.00000000000E+00 -0.00000000000E+00 -0.10170344888E+04  0.10170344888E+04  0.00000000000E+00 0.  1.
         24    2    1    2    0    0 -0.34280183304E+03  0.64357523960E+03 -0.65273791406E+03  0.98162522902E+03  0.76283156893E+02 0.  0.
        254    2    1    2    0    0  0.34280183304E+03 -0.64357523960E+03  0.14807569675E+04  0.18804628020E+04  0.90099776214E+03 0.  0.
         23    2    4    4    0    0  0.49702970510E+03 -0.22758657945E+02  0.74353604634E+03  0.89933274429E+03  0.91635410607E+02 0.  0.
         23    2    4    4    0    0 -0.15422787206E+03 -0.62081658166E+03  0.73722092112E+03  0.98113005774E+03  0.99609432715E+02 0.  0.
          4    1    3    3  502    0 -0.11865603415E+03  0.26986721167E+03 -0.22343608695E+03  0.36990708472E+03  0.00000000000E+00 0. -1.
         -3    1    3    3    0  502 -0.22414579889E+03  0.37370802793E+03 -0.42930182711E+03  0.61171814430E+03  0.00000000000E+00 0.  1.
         13    1    5    5    0    0  0.15237531291E+03 -0.32954319116E+02  0.29412420051E+03  0.33288626956E+03  0.00000000000E+00 0. -1.
        -13    1    5    5    0    0  0.34465439220E+03  0.10195661171E+02  0.44941184582E+03  0.56644647473E+03  0.00000000000E+00 0.  1.
          3    1    6    6  503    0 -0.76766374153E+02 -0.30390219373E+03  0.28597019784E+03  0.42429774170E+03  0.00000000000E+00 0. -1.
         -3    1    6    6    0  503 -0.77461497911E+02 -0.31691438792E+03  0.45125072327E+03  0.55683231604E+03  0.00000000000E+00 0.  1.
<mgrwt>
<rscale>  0 0.27396957E+04</rscale>
<asrwt>0</asrwt>
<pdfrwt beam="1">  1        2 0.28385439E+00 0.27396957E+04</pdfrwt>
<pdfrwt beam="2">  1       -1 0.15646684E+00 0.27396957E+04</pdfrwt>
<totfact> 0.25206936E+00</totfact>
</mgrwt>
</event>
<event>
12    7  0.2426980E-007  0.2464760E+04  0.7818608E-02  0.8415648E-01
          2   -1    0    0  501    0  0.00000000000E+00  0.00000000000E+00  0.32568963644E+04  0.32568963644E+04  0.00000000000E+00 0. -1.
         -1   -1    0    0    0  501 -0.00000000000E+00 -0.00000000000E+00 -0.46632152592E+03  0.46632152592E+03  0.00000000000E+00 0.  1.
         24    2    1    2    0    0 -0.42625428980E+03 -0.95851557288E+03  0.92270720406E+03  0.13995090873E+04  0.82415277292E+02 0.  0.
        254    2    1    2    0    0  0.42625428980E+03  0.95851557288E+03  0.18678676344E+04  0.23237088030E+04  0.90013792194E+03 0.  0.
         23    2    4    4    0    0  0.31277811757E+03  0.98921166467E+03  0.19045121736E+04  0.21707010917E+04  0.91688287959E+02 0.  0.
         23    2    4    4    0    0  0.11347617223E+03 -0.30696091786E+02 -0.36644539162E+02  0.15300771126E+03  0.90826459461E+02 0.  0.
          4    1    3    3  502    0 -0.26673041040E+03 -0.52245215160E+03  0.48002637312E+03  0.75797538313E+03  0.00000000000E+00 0. -1.
         -3    1    3    3    0  502 -0.15952387940E+03 -0.43606342128E+03  0.44268083093E+03  0.64153370414E+03  0.00000000000E+00 0.  1.
         13    1    5    5    0    0  0.29305116341E+03  0.86270274199E+03  0.16183306031E+04  0.18571830675E+04  0.00000000000E+00 0. -1.
        -13    1    5    5    0    0  0.19726954167E+02  0.12650892268E+03  0.28618157046E+03  0.31351802422E+03  0.00000000000E+00 0.  1.
          3    1    6    6  503    0  0.10787713908E+03 -0.33782203191E+02 -0.60566682117E+02  0.12824600333E+03  0.00000000000E+00 0. -1.
         -3    1    6    6    0  503  0.55990331564E+01  0.30861114049E+01  0.23922142954E+02  0.24761707926E+02  0.00000000000E+00 0.  1.
<mgrwt>
<rscale>  0 0.24647603E+04</rscale>
<asrwt>0</asrwt>
<pdfrwt beam="1">  1        2 0.50106096E+00 0.24647603E+04</pdfrwt>
<pdfrwt beam="2">  1       -1 0.71741775E-01 0.24647603E+04</pdfrwt>
<totfact> 0.23756002E+00</totfact>
</mgrwt>
</event>
<event>
12    7  0.2426980E-007  0.2621775E+04  0.7818608E-02  0.8360842E-01
          2   -1    0    0  501    0  0.00000000000E+00  0.00000000000E+00  0.64263735389E+03  0.64263735389E+03  0.00000000000E+00 0. -1.
         -1   -1    0    0    0  501 -0.00000000000E+00 -0.00000000000E+00 -0.26740205887E+04  0.26740205887E+04  0.00000000000E+00 0.  1.
         24    2    1    2    0    0 -0.47954881041E+03  0.10436660274E+04 -0.75933785041E+03  0.13793576257E+04  0.82629597131E+02 0.  0.
        254    2    1    2    0    0  0.47954881041E+03 -0.10436660274E+04 -0.12720453844E+04  0.19373003168E+04  0.90323154253E+03 0.  0.
         23    2    4    4    0    0 -0.14576695525E+03 -0.18444321228E+03  0.29245376801E+02  0.25456835648E+03  0.93179677295E+02 0.  0.
         23    2    4    4    0    0  0.62531576566E+03 -0.85922281511E+03 -0.13012907612E+04  0.16827319604E+04  0.94580930892E+02 0.  0.
          4    1    3    3  502    0 -0.79055824878E+02  0.23209328291E+03 -0.13515032787E+03  0.27996915284E+03  0.00000000000E+00 0. -1.
         -3    1    3    3    0  502 -0.40049298554E+03  0.81157274448E+03 -0.62418752254E+03  0.10993884729E+04  0.00000000000E+00 0.  1.
         13    1    5    5    0    0 -0.45896773300E+02 -0.43271250060E+02 -0.32487540951E+02  0.70953190190E+02  0.00000000000E+00 0. -1.
        -13    1    5    5    0    0 -0.99870181950E+02 -0.14117196222E+03  0.61732917752E+02  0.18361516630E+03  0.00000000000E+00 0.  1.
          3    1    6    6  503    0  0.66125272147E+02 -0.53876539509E+02 -0.84190025949E+02  0.11984654186E+03  0.00000000000E+00 0. -1.
         -3    1    6    6    0  503  0.55919049352E+03 -0.80534627560E+03 -0.12171007352E+04  0.15628854185E+04  0.00000000000E+00 0.  1.
<mgrwt>
<rscale>  0 0.26217746E+04</rscale>
<asrwt>0</asrwt>
<pdfrwt beam="1">  1        2 0.98867283E-01 0.26217746E+04</pdfrwt>
<pdfrwt beam="2">  1       -1 0.41138779E+00 0.26217746E+04</pdfrwt>
<totfact> 0.27442078E-01</totfact>
</mgrwt>
</event>
<event>
12    7  0.2426980E-007  0.3831841E+04  0.7818608E-02  0.8039356E-01
          2   -1    0    0  501    0  0.00000000000E+00  0.00000000000E+00  0.16023354707E+04  0.16023354707E+04  0.00000000000E+00 0. -1.
         -1   -1    0    0    0  501 -0.00000000000E+00 -0.00000000000E+00 -0.22908755809E+04  0.22908755809E+04  0.00000000000E+00 0.  1.
         24    2    1    2    0    0 -0.54262422728E+03  0.15071680703E+04  0.52848890350E+03  0.16886810906E+04  0.79665931106E+02 0.  0.
        254    2    1    2    0    0  0.54262422728E+03 -0.15071680703E+04 -0.12170290137E+04  0.22045299610E+04  0.90155204217E+03 0.  0.
         23    2    4    4    0    0 -0.85292089836E+02 -0.97006702104E+03 -0.46258177495E+03  0.10819507453E+04  0.91272946684E+02 0.  0.
         23    2    4    4    0    0  0.62791631712E+03 -0.53710104926E+03 -0.75444723874E+03  0.11225792158E+04  0.90758036402E+02 0.  0.
          4    1    3    3  502    0 -0.20333459928E+03  0.52419245312E+03  0.14830697203E+03  0.58147884323E+03  0.00000000000E+00 0. -1.
         -3    1    3    3    0  502 -0.33928962800E+03  0.98297561718E+03  0.38018193147E+03  0.11072022474E+04  0.00000000000E+00 0.  1.
         13    1    5    5    0    0 -0.64654853851E+02 -0.30863972417E+03 -0.12670872640E+03  0.33984383297E+03  0.00000000000E+00 0. -1.
        -13    1    5    5    0    0 -0.20637235986E+02 -0.66142729687E+03 -0.33587304855E+03  0.74210691231E+03  0.00000000000E+00 0.  1.
          2    1    6    6  503    0  0.20989677796E+03 -0.17310837857E+03 -0.30717484234E+03  0.41034077533E+03  0.00000000000E+00 0. -1.
         -2    1    6    6    0  503  0.41801953916E+03 -0.36399267069E+03 -0.44727239640E+03  0.71223844042E+03  0.00000000000E+00 0.  1.
<mgrwt>
<rscale>  0 0.38318409E+04</rscale>
<asrwt>0</asrwt>
<pdfrwt beam="1">  1        2 0.24651315E+00 0.38318409E+04</pdfrwt>
<pdfrwt beam="2">  1       -1 0.35244240E+00 0.38318409E+04</pdfrwt>
<totfact> 0.15146860E-01</totfact>
</mgrwt>
</event>
<event>
12    7  0.2426980E-007  0.1310142E+04  0.7818608E-02  0.9021561E-01
         -3   -1    0    0    0  501 -0.00000000000E+00  0.00000000000E+00  0.55802741077E+03  0.55802741077E+03  0.00000000000E+00 0.  1.
          4   -1    0    0  501    0  0.00000000000E+00 -0.00000000000E+00 -0.76899118687E+03  0.76899118687E+03  0.00000000000E+00 0. -1.
         24    2    1    2    0    0 -0.14549213391E+03  0.29882654085E+03 -0.12482764506E+03  0.36373713659E+03  0.79104367866E+02 0.  0.
        254    2    1    2    0    0  0.14549213391E+03 -0.29882654085E+03 -0.86136131041E+02  0.96328146105E+03  0.90001470965E+03 0.  0.
         23    2    4    4    0    0 -0.20473610946E+03 -0.31008667849E+03  0.25967955573E+03  0.46241510373E+03  0.91233950917E+02 0.  0.
         23    2    4    4    0    0  0.35022824337E+03  0.11260137644E+02 -0.34581568677E+03  0.50086635732E+03  0.92152078238E+02 0.  0.
          4    1    3    3  502    0 -0.13496831591E+03  0.19510011014E+03 -0.81681008977E+02  0.25090294240E+03  0.00000000000E+00 0. -1.
         -1    1    3    3    0  502 -0.10523818001E+02  0.10372643071E+03 -0.43146636082E+02  0.11283419419E+03  0.00000000000E+00 0.  1.
         13    1    5    5    0    0 -0.14004126328E+03 -0.13031611578E+03  0.13848477263E+03  0.23616070313E+03  0.00000000000E+00 0. -1.
        -13    1    5    5    0    0 -0.64694846173E+02 -0.17977056271E+03  0.12119478310E+03  0.22625440060E+03  0.00000000000E+00 0.  1.
          3    1    6    6  503    0  0.28359167109E+03 -0.27566944019E+02 -0.27995592402E+03  0.39944898511E+03  0.00000000000E+00 0. -1.
         -3    1    6    6    0  503  0.66636572284E+02  0.38827081662E+02 -0.65859762754E+02  0.10141737221E+03  0.00000000000E+00 0.  1.
<mgrwt>
<rscale>  0 0.13101422E+04</rscale>
<asrwt>0</asrwt>
<pdfrwt beam="1">  1        4 0.11830634E+00 0.13101422E+04</pdfrwt>
<pdfrwt beam="2">  1       -3 0.85850371E-01 0.13101422E+04</pdfrwt>
<totfact> 0.15242907E+00</totfact>
</mgrwt>
</event>
<event>
12    7  0.2426980E-007  0.2229340E+04  0.7818608E-02  0.8506315E-01
          2   -1    0    0  501    0  0.00000000000E+00  0.00000000000E+00  0.22217110459E+04  0.22217110459E+04  0.00000000000E+00 0. -1.
         -1   -1    0    0    0  501 -0.00000000000E+00 -0.00000000000E+00 -0.55924872694E+03  0.55924872694E+03  0.00000000000E+00 0.  1.
         24    2    1    2    0    0 -0.27271231840E+03  0.88541985710E+03  0.86992264898E+03  0.12733675432E+04  0.79744297319E+02 0.  0.
        254    2    1    2    0    0  0.27271231840E+03 -0.88541985710E+03  0.79253966999E+03  0.15075922296E+04  0.88677780214E+03 0.  0.
         23    2    4    4    0    0  0.22262048208E+03  0.21330671334E+02 -0.70642892673E+02  0.25137161540E+03  0.90456587164E+02 0.  0.
         23    2    4    4    0    0  0.50091836316E+02 -0.90675052844E+03  0.86318256267E+03  0.12562206142E+04  0.91106433571E+02 0.  0.
          2    1    3    3  502    0 -0.13541758821E+03  0.31060837224E+03  0.32440159364E+03  0.46909687491E+03  0.00000000000E+00 0. -1.
         -1    1    3    3    0  502 -0.13729473019E+03  0.57481148486E+03  0.54552105534E+03  0.80427066830E+03  0.00000000000E+00 0.  1.
         13    1    5    5    0    0  0.84575532163E+02 -0.14941656403E+02 -0.66430782342E+02  0.10857864698E+03  0.00000000000E+00 0. -1.
        -13    1    5    5    0    0  0.13804494992E+03  0.36272327737E+02 -0.42121103314E+01  0.14279296842E+03  0.00000000000E+00 0.  1.
          3    1    6    6  503    0 -0.32690885482E+01 -0.51684013791E+03  0.53387352482E+03  0.74307156829E+03  0.00000000000E+00 0. -1.
         -3    1    6    6    0  503  0.53360924864E+02 -0.38991039052E+03  0.32930903785E+03  0.51314904594E+03  0.00000000000E+00 0.  1.
<mgrwt>
<rscale>  0 0.22293399E+04</rscale>
<asrwt>0</asrwt>
<pdfrwt beam="1">  1        2 0.34180169E+00 0.22293399E+04</pdfrwt>
<pdfrwt beam="2">  1       -1 0.86038267E-01 0.22293399E+04</pdfrwt>
<totfact> 0.69458051E+00</totfact>
</mgrwt>
</event>
<event>
12    7  0.2426980E-007  0.2589787E+04  0.7818608E-02  0.8371679E-01
         -1   -1    0    0    0  501 -0.00000000000E+00  0.00000000000E+00  0.55578231255E+03  0.55578231255E+03  0.00000000000E+00 0.  1.
          2   -1    0    0  501    0  0.00000000000E+00 -0.00000000000E+00 -0.30169166521E+04  0.30169166521E+04  0.00000000000E+00 0. -1.
         24    2    1    2    0    0 -0.30305701087E+03  0.65460525930E+03  0.12912005706E+03  0.73721375860E+03  0.80377480636E+02 0.  0.
        254    2    1    2    0    0  0.30305701087E+03 -0.65460525930E+03 -0.25902543966E+04  0.28354852061E+04  0.90011494671E+03 0.  0.
         23    2    4    4    0    0  0.40017107020E+03 -0.83432220239E+03 -0.20544434235E+04  0.22551940571E+04  0.94509428374E+02 0.  0.
         23    2    4    4    0    0 -0.97114059335E+02  0.17971694308E+03 -0.53581097315E+03  0.58029114899E+03  0.88966839274E+02 0.  0.
          2    1    3    3  502    0 -0.14768093789E+03  0.38980221884E+03  0.47565537314E+02  0.41954488386E+03  0.00000000000E+00 0. -1.
         -1    1    3    3    0  502 -0.15537607297E+03  0.26480304046E+03  0.81554519744E+02  0.31766887474E+03  0.00000000000E+00 0.  1.
         13    1    5    5    0    0  0.15348084104E+03 -0.33857166709E+03 -0.93788866957E+03  0.10088717950E+04  0.00000000000E+00 0.  1.
        -13    1    5    5    0    0  0.24669022916E+03 -0.49575053529E+03 -0.11165547539E+04  0.12463222621E+04  0.00000000000E+00 0. -1.
          1    1    6    6  503    0 -0.10307616748E+03  0.17053729961E+03 -0.43014189343E+03  0.47405665837E+03  0.00000000000E+00 0. -1.
         -1    1    6    6    0  503  0.59621081418E+01  0.91796434767E+01 -0.10566907972E+03  0.10623449062E+03  0.00000000000E+00 0.  1.
<mgrwt>
<rscale>  0 0.25897868E+04</rscale>
<asrwt>0</asrwt>
<pdfrwt beam="1">  1        2 0.46414103E+00 0.25897868E+04</pdfrwt>
<pdfrwt beam="2">  1       -1 0.85504971E-01 0.25897868E+04</pdfrwt>
<totfact> 0.23114856E+00</totfact>
</mgrwt>
</event>
<event>
12    7  0.2426980E-007  0.1786728E+04  0.7818608E-02  0.8713389E-01
         -1   -1    0    0    0  501 -0.00000000000E+00  0.00000000000E+00  0.32362740417E+03  0.32362740417E+03  0.00000000000E+00 0.  1.
          2   -1    0    0  501    0  0.00000000000E+00 -0.00000000000E+00 -0.24661053752E+04  0.24661053752E+04  0.00000000000E+00 0. -1.
         24    2    1    2    0    0  0.78307520414E+02  0.40564457754E+03 -0.16162880858E+04  0.16702271584E+04  0.81191092658E+02 0.  0.
        254    2    1    2    0    0 -0.78307520414E+02 -0.40564457754E+03 -0.52618988527E+03  0.11195056209E+04  0.89762879238E+03 0.  0.
         23    2    4    4    0    0 -0.17139345742E+03 -0.43717431597E+03  0.91760122060E+02  0.48694337354E+03  0.90536342098E+02 0.  0.
         23    2    4    4    0    0  0.93085937003E+02  0.31529738426E+02 -0.61795000733E+03  0.63256224740E+03  0.92809855140E+02 0.  0.
          2    1    3    3  502    0  0.55377197325E+02  0.19237143080E+03 -0.92549001389E+03  0.94689237360E+03  0.00000000000E+00 0. -1.
         -1    1    3    3    0  502  0.22930323089E+02  0.21327314675E+03 -0.69079807189E+03  0.72333478485E+03  0.00000000000E+00 0.  1.
         13    1    5    5    0    0 -0.10858963337E+03 -0.32579602726E+03  0.29372352521E+02  0.34467012483E+03  0.00000000000E+00 0. -1.
        -13    1    5    5    0    0 -0.62803824042E+02 -0.11137828871E+03  0.62387769539E+02  0.14227324871E+03  0.00000000000E+00 0.  1.
          3    1    6    6  503    0  0.98776506214E+02  0.53593157114E+02 -0.51695847497E+03  0.52903221973E+03  0.00000000000E+00 0. -1.
         -3    1    6    6    0  503 -0.56905692110E+01 -0.22063418688E+02 -0.10099153235E+03  0.10353002767E+03  0.00000000000E+00 0.  1.
<mgrwt>
<rscale>  0 0.17867280E+04</rscale>
<asrwt>0</asrwt>
<pdfrwt beam="1">  1        2 0.37940081E+00 0.17867280E+04</pdfrwt>
<pdfrwt beam="2">  1       -1 0.49788833E-01 0.17867280E+04</pdfrwt>
<totfact> 0.15875746E+01</totfact>
</mgrwt>
</event>
<event>
12    7  0.2426980E-007  0.1837905E+04  0.7818608E-02  0.8686398E-01
         -1   -1    0    0    0  501 -0.00000000000E+00  0.00000000000E+00  0.67469349454E+03  0.67469349454E+03  0.00000000000E+00 0.  1.
          2   -1    0    0  501    0  0.00000000000E+00 -0.00000000000E+00 -0.12516399684E+04  0.12516399684E+04  0.00000000000E+00 0. -1.
         24    2    1    2    0    0 -0.77654257938E+02 -0.75000704637E+02  0.50336225538E+03  0.52121202658E+03  0.81444011722E+02 0.  0.
        254    2    1    2    0    0  0.77654257938E+02  0.75000704637E+02 -0.10803087292E+04  0.14051214363E+04  0.89198879529E+03 0.  0.
         23    2    4    4    0    0  0.37056530447E+02 -0.36134388599E+03 -0.78404982980E+03  0.86930098333E+03  0.94907711050E+02 0.  0.
         23    2    4    4    0    0  0.40597727491E+02  0.43634459062E+03 -0.29625889939E+03  0.53582045298E+03  0.85378247318E+02 0.  0.
          4    1    3    3  502    0  0.13577357684E+01  0.12999820179E+02  0.10058061709E+03  0.10142632452E+03  0.00000000000E+00 0. -1.
         -3    1    3    3    0  502 -0.79011993707E+02 -0.88000524816E+02  0.40278163828E+03  0.41978570206E+03  0.00000000000E+00 0.  1.
         13    1    5    5    0    0 -0.93798918018E+01 -0.27830779104E+03 -0.54512782587E+03  0.61213360916E+03  0.00000000000E+00 0. -1.
        -13    1    5    5    0    0  0.46436422249E+02 -0.83036094948E+02 -0.23892200393E+03  0.25716737417E+03  0.00000000000E+00 0.  1.
          1    1    6    6  503    0  0.60840625381E+02  0.20758776316E+03 -0.13106593293E+03  0.25292793417E+03  0.00000000000E+00 0. -1.
         -1    1    6    6    0  503 -0.20242897890E+02  0.22875682746E+03 -0.16519296646E+03  0.28289251880E+03  0.00000000000E+00 0.  1.
<mgrwt>
<rscale>  0 0.18379046E+04</rscale>
<asrwt>0</asrwt>
<pdfrwt beam="1">  1        2 0.19255999E+00 0.18379046E+04</pdfrwt>
<pdfrwt beam="2">  1       -1 0.10379900E+00 0.18379046E+04</pdfrwt>
<totfact> 0.16562135E+01</totfact>
</mgrwt>
</event>
<event>
12    7  0.2426980E-007  0.2925490E+04  0.7818608E-02  0.8265334E-01
         -1   -1    0    0    0  501 -0.00000000000E+00  0.00000000000E+00  0.94645354443E+03  0.94645354443E+03  0.00000000000E+00 0.  1.
          2   -1    0    0  501    0  0.00000000000E+00 -0.00000000000E+00 -0.22606737283E+04  0.22606737283E+04  0.00000000000E+00 0. -1.
         24    2    1    2    0    0  0.10428160448E+04  0.40683164895E+03 -0.13684732005E+04  0.17698619683E+04  0.81946277462E+02 0.  0.
        254    2    1    2    0    0 -0.10428160448E+04 -0.40683164895E+03  0.54253016575E+02  0.14372653045E+04  0.89989492267E+03 0.  0.
         23    2    4    4    0    0 -0.44037749022E+02 -0.28096591845E+03  0.27059938327E+03  0.40340958166E+03  0.92919823950E+02 0.  0.
         23    2    4    4    0    0 -0.99877829578E+03 -0.12586573050E+03 -0.21634636669E+03  0.10338557228E+04  0.93014187385E+02 0.  0.
          2    1    3    3  502    0  0.15072464265E+03  0.57802298265E+02 -0.24544170143E+03  0.29376972681E+03  0.00000000000E+00 0. -1.
         -1    1    3    3    0  502  0.89209140215E+03  0.34902935068E+03 -0.11230314991E+04  0.14760922415E+04  0.00000000000E+00 0.  1.
         13    1    5    5    0    0  0.70880379134E+01  0.48738758946E+01  0.10525262177E+02  0.13593236980E+02  0.00000000000E+00 0. -1.
        -13    1    5    5    0    0 -0.51125786936E+02 -0.28583979434E+03  0.26007412109E+03  0.38981634468E+03  0.00000000000E+00 0.  1.
          3    1    6    6  503    0 -0.39502711549E+02 -0.12768225675E+02  0.78695646907E+01  0.42254252508E+02  0.00000000000E+00 0. -1.
         -3    1    6    6    0  503 -0.95927558423E+03 -0.11309750483E+03 -0.22421593138E+03  0.99160147034E+03  0.00000000000E+00 0.  1.
<mgrwt>
<rscale>  0 0.29254898E+04</rscale>
<asrwt>0</asrwt>
<pdfrwt beam="1">  1        2 0.34779596E+00 0.29254898E+04</pdfrwt>
<pdfrwt beam="2">  1       -1 0.14560824E+00 0.29254898E+04</pdfrwt>
<totfact> 0.17656928E+00</totfact>
</mgrwt>
</event>
<event>
12    7  0.2426980E-007  0.1681943E+04  0.7818608E-02  0.8771730E-01
          2   -1    0    0  501    0  0.00000000000E+00  0.00000000000E+00  0.19072197280E+04  0.19072197280E+04  0.00000000000E+00 0. -1.
         -1   -1    0    0    0  501 -0.00000000000E+00 -0.00000000000E+00 -0.37081883611E+03  0.37081883611E+03  0.00000000000E+00 0.  1.
         24    2    1    2    0    0  0.47947756652E+03 -0.24301891608E+03  0.20133790098E+03  0.57974338375E+03  0.81292744204E+02 0.  0.
        254    2    1    2    0    0 -0.47947756652E+03  0.24301891608E+03  0.13350629910E+04  0.16982951804E+04  0.90158549213E+03 0.  0.
         23    2    4    4    0    0 -0.21877641468E+03 -0.30117051989E+03  0.79667582652E+03  0.88426057389E+03  0.93046162291E+02 0.  0.
         23    2    4    4    0    0 -0.26070115185E+03  0.54418943597E+03  0.53838716444E+03  0.81403460652E+03  0.93189961812E+02 0.  0.
          4    1    3    3  502    0  0.17408733626E+03 -0.68214617656E+02  0.10704222961E+03  0.21544761226E+03  0.00000000000E+00 0. -1.
         -3    1    3    3    0  502  0.30539023026E+03 -0.17480429842E+03  0.94295671366E+02  0.36429577149E+03  0.00000000000E+00 0.  1.
         13    1    5    5    0    0 -0.19035219413E+03 -0.18999330488E+03  0.55861941518E+03  0.61998956824E+03  0.00000000000E+00 0. -1.
        -13    1    5    5    0    0 -0.28424220545E+02 -0.11117721501E+03  0.23805641133E+03  0.26427100565E+03  0.00000000000E+00 0.  1.
          3    1    6    6  503    0 -0.25566621240E+03  0.52260338077E+03  0.48936876552E+03  0.76023765654E+03  0.00000000000E+00 0. -1.
         -3    1    6    6    0  503 -0.50349394497E+01  0.21586055198E+02  0.49018398924E+02  0.53796949982E+02  0.00000000000E+00 0.  1.
<mgrwt>
<rscale>  0 0.16819429E+04</rscale>
<asrwt>0</asrwt>
<pdfrwt beam="1">  1        2 0.29341842E+00 0.16819429E+04</pdfrwt>
<pdfrwt beam="2">  1       -1 0.57049053E-01 0.16819429E+04</pdfrwt>
<totfact> 0.25404433E+01</totfact>
</mgrwt>
</event>
<event>
12    7  0.2426980E-007  0.1979268E+04  0.7818608E-02  0.8616376E-01
         -1   -1    0    0    0  501 -0.00000000000E+00  0.00000000000E+00  0.95461792470E+03  0.95461792470E+03  0.00000000000E+00 0.  1.
          2   -1    0    0  501    0  0.00000000000E+00 -0.00000000000E+00 -0.10259340429E+04  0.10259340429E+04  0.00000000000E+00 0. -1.
         24    2    1    2    0    0  0.35509277288E+03 -0.43441022374E+03  0.51924742508E+03  0.76897211861E+03  0.83048846542E+02 0.  0.
        254    2    1    2    0    0 -0.35509277288E+03  0.43441022374E+03 -0.59056354328E+03  0.12115798490E+04  0.89685969470E+03 0.  0.
         23    2    4    4    0    0 -0.47725319392E+03 -0.92476926661E+02 -0.17365413295E+03  0.52237425392E+03  0.79978185768E+02 0.  0.
         23    2    4    4    0    0  0.12216042104E+03  0.52688715040E+03 -0.41690941033E+03  0.68920559506E+03  0.93046537392E+02 0.  0.
          2    1    3    3  502    0  0.30734657593E+03 -0.35210052993E+03  0.39149635193E+03  0.60967704113E+03  0.00000000000E+00 0. -1.
         -3    1    3    3    0  502  0.47746196953E+02 -0.82309693809E+02  0.12775107315E+03  0.15929507748E+03  0.00000000000E+00 0.  1.
         13    1    5    5    0    0 -0.44946718828E+03 -0.10389141288E+03 -0.15343847913E+03  0.48616617107E+03  0.00000000000E+00 0. -1.
        -13    1    5    5    0    0 -0.27786005639E+02  0.11414486216E+02 -0.20215653812E+02  0.36208082854E+02  0.00000000000E+00 0.  1.
          4    1    6    6  503    0  0.67526913815E+02  0.13064090045E+03 -0.13711166436E+03  0.20106351599E+03  0.00000000000E+00 0.  1.
         -4    1    6    6    0  503  0.54633507227E+02  0.39624624995E+03 -0.27979774597E+03  0.48814207907E+03  0.00000000000E+00 0. -1.
<mgrwt>
<rscale>  0 0.19792676E+04</rscale>
<asrwt>0</asrwt>
<pdfrwt beam="1">  1        2 0.15783601E+00 0.19792676E+04</pdfrwt>
<pdfrwt beam="2">  1       -1 0.14686430E+00 0.19792676E+04</pdfrwt>
<totfact> 0.95042131E+00</totfact>
</mgrwt>
</event>
<event>
12    7  0.2426980E-007  0.1559013E+04  0.7818608E-02  0.8846131E-01
          2   -1    0    0  501    0  0.00000000000E+00  0.00000000000E+00  0.11879173580E+04  0.11879173580E+04  0.00000000000E+00 0. -1.
         -1   -1    0    0    0  501 -0.00000000000E+00 -0.00000000000E+00 -0.51150907883E+03  0.51150907883E+03  0.00000000000E+00 0.  1.
         24    2    1    2    0    0 -0.37068118039E+03  0.31407006355E+03  0.33043921740E+02  0.49343750500E+03  0.79650036151E+02 0.  0.
        254    2    1    2    0    0  0.37068118039E+03 -0.31407006355E+03  0.64336435746E+03  0.12059889319E+04  0.89690973070E+03 0.  0.
         23    2    4    4    0    0 -0.28480876533E+02  0.28157469102E+03  0.19833713938E+03  0.35731001697E+03  0.90759905333E+02 0.  0.
         23    2    4    4    0    0  0.39916205692E+03 -0.59564475457E+03  0.44502721808E+03  0.84867891490E+03  0.89909145402E+02 0.  0.
          4    1    3    3  502    0 -0.18553408749E+03  0.17664833287E+03  0.54353379282E+02  0.26188131084E+03  0.00000000000E+00 0. -1.
         -3    1    3    3    0  502 -0.18514709290E+03  0.13742173068E+03 -0.21309457541E+02  0.23155619416E+03  0.00000000000E+00 0.  1.
         13    1    5    5    0    0 -0.18001632238E+01  0.95314730297E+02  0.18661864508E+02  0.97141152897E+02  0.00000000000E+00 0.  1.
        -13    1    5    5    0    0 -0.26680713309E+02  0.18625996073E+03  0.17967527487E+03  0.26016886407E+03  0.00000000000E+00 0. -1.
          2    1    6    6  503    0  0.30540934486E+03 -0.38024990061E+03  0.29816689145E+03  0.57163655411E+03  0.00000000000E+00 0. -1.
         -2    1    6    6    0  503  0.93752712067E+02 -0.21539485396E+03  0.14686032663E+03  0.27704236079E+03  0.00000000000E+00 0.  1.
<mgrwt>
<rscale>  0 0.15590132E+04</rscale>
<asrwt>0</asrwt>
<pdfrwt beam="1">  1        2 0.18275652E+00 0.15590132E+04</pdfrwt>
<pdfrwt beam="2">  1       -1 0.78693705E-01 0.15590132E+04</pdfrwt>
<totfact> 0.34132306E+01</totfact>
</mgrwt>
</event>
<event>
12    7  0.2426980E-007  0.3060144E+04  0.7818608E-02  0.8226762E-01
         -1   -1    0    0    0  501 -0.00000000000E+00  0.00000000000E+00  0.93202240140E+03  0.93202240140E+03  0.00000000000E+00 0.  1.
          2   -1    0    0  501    0  0.00000000000E+00 -0.00000000000E+00 -0.25118708744E+04  0.25118708744E+04  0.00000000000E+00 0. -1.
         24    2    1    2    0    0  0.64107517899E+03 -0.50667895097E+03  0.55242919118E+03  0.98966729916E+03  0.81008686432E+02 0.  0.
        254    2    1    2    0    0 -0.64107517899E+03  0.50667895097E+03 -0.21322776642E+04  0.24542259767E+04  0.89939766670E+03 0.  0.
         23    2    4    4    0    0 -0.74464020567E+03  0.54969083703E+03 -0.12382887619E+04  0.15486715849E+04  0.91518128050E+02 0.  0.
         23    2    4    4    0    0  0.10356502668E+03 -0.43011886059E+02 -0.89398890227E+03  0.90555439176E+03  0.90757159338E+02 0.  0.
          4    1    3    3  502    0  0.39627563412E+03 -0.32368802689E+03  0.29899589143E+03  0.59262708346E+03  0.00000000000E+00 0. -1.
         -3    1    3    3    0  502  0.24479954487E+03 -0.18299092408E+03  0.25343329974E+03  0.39704021570E+03  0.00000000000E+00 0.  1.
         13    1    5    5    0    0 -0.30948897194E+03  0.25758562613E+03 -0.60327375108E+03  0.72530889784E+03  0.00000000000E+00 0. -1.
        -13    1    5    5    0    0 -0.43515123373E+03  0.29210521090E+03 -0.63501501083E+03  0.82336268706E+03  0.00000000000E+00 0.  1.
          3    1    6    6  503    0  0.45265191131E+02 -0.86905264067E+01 -0.11894114999E+03  0.12755963287E+03  0.00000000000E+00 0. -1.
         -3    1    6    6    0  503  0.58299835550E+02 -0.34321359652E+02 -0.77504775227E+03  0.77799475889E+03  0.00000000000E+00 0.  1.
<mgrwt>
<rscale>  0 0.30601437E+04</rscale>
<asrwt>0</asrwt>
<pdfrwt beam="1">  1        2 0.38644167E+00 0.30601437E+04</pdfrwt>
<pdfrwt beam="2">  1       -1 0.14338806E+00 0.30601437E+04</pdfrwt>
<totfact> 0.13052391E+00</totfact>
</mgrwt>
</event>
<event>
12    7  0.2426980E-007  0.1970898E+04  0.7818608E-02  0.8620349E-01
          2   -1    0    0  501    0  0.00000000000E+00  0.00000000000E+00  0.16205329688E+04  0.16205329688E+04  0.00000000000E+00 0. -1.
         -1   -1    0    0    0  501 -0.00000000000E+00 -0.00000000000E+00 -0.59925315596E+03  0.59925315596E+03  0.00000000000E+00 0.  1.
         24    2    1    2    0    0  0.54384874291E+03  0.31323945223E+03  0.91685812567E+03  0.11131864990E+04  0.68300435241E+02 0.  0.
        254    2    1    2    0    0 -0.54384874291E+03 -0.31323945223E+03  0.10442168713E+03  0.11065996257E+04  0.90541064341E+03 0.  0.
         23    2    4    4    0    0 -0.34468887279E+03  0.13788375748E+03  0.37520203455E+03  0.53575919523E+03  0.91864024189E+02 0.  0.
         23    2    4    4    0    0 -0.19915987013E+03 -0.45112320972E+03 -0.27078034742E+03  0.57084043044E+03  0.96747073687E+02 0.  0.
          4    1    3    3  502    0  0.56420636010E+02  0.54859124828E+02  0.13561456977E+03  0.15679325011E+03  0.00000000000E+00 0. -1.
         -3    1    3    3    0  502  0.48742810690E+03  0.25838032741E+03  0.78124355589E+03  0.95639324894E+03  0.00000000000E+00 0.  1.
         13    1    5    5    0    0 -0.24781631837E+03  0.58429818077E+02  0.27963128397E+03  0.37818067939E+03  0.00000000000E+00 0.  1.
        -13    1    5    5    0    0 -0.96872554422E+02  0.79453939406E+02  0.95570750576E+02  0.15757851584E+03  0.00000000000E+00 0. -1.
          1    1    6    6  503    0 -0.54490962282E+02 -0.69316086258E+02 -0.84259606134E+02  0.12195764023E+03  0.00000000000E+00 0. -1.
         -1    1    6    6    0  503 -0.14466890784E+03 -0.38180712346E+03 -0.18652074129E+03  0.44888279021E+03  0.00000000000E+00 0.  1.
<mgrwt>
<rscale>  0 0.19708978E+04</rscale>
<asrwt>0</asrwt>
<pdfrwt beam="1">  1        2 0.24931276E+00 0.19708978E+04</pdfrwt>
<pdfrwt beam="2">  1       -1 0.92192794E-01 0.19708978E+04</pdfrwt>
<totfact> 0.13192834E+01</totfact>
</mgrwt>
</event>
<event>
12    7  0.2426980E-007  0.2032765E+04  0.7818608E-02  0.8591453E-01
          2   -1    0    0  501    0  0.00000000000E+00  0.00000000000E+00  0.16728226518E+04  0.16728226518E+04  0.00000000000E+00 0. -1.
         -1   -1    0    0    0  501 -0.00000000000E+00 -0.00000000000E+00 -0.61753930404E+03  0.61753930404E+03  0.00000000000E+00 0.  1.
         24    2    1    2    0    0  0.69651977984E+03  0.34144704334E+03  0.66787818787E+03  0.10266792398E+04  0.79266010380E+02 0.  0.
        254    2    1    2    0    0 -0.69651977984E+03 -0.34144704334E+03  0.38740515987E+03  0.12636827161E+04  0.91928524512E+03 0.  0.
         23    2    4    4    0    0 -0.75614898957E+01  0.26608237760E+03  0.75041225936E+02  0.28975826661E+03  0.86438762620E+02 0.  0.
         23    2    4    4    0    0 -0.68895828994E+03 -0.60752942094E+03  0.31236393394E+03  0.97392444946E+03  0.84865089698E+02 0.  0.
          2    1    3    3  502    0  0.43802384553E+03  0.17186280489E+03  0.40913907323E+03  0.62353547950E+03  0.00000000000E+00 0. -1.
         -1    1    3    3    0  502  0.25849593431E+03  0.16958423845E+03  0.25873911465E+03  0.40314376026E+03  0.00000000000E+00 0.  1.
         13    1    5    5    0    0 -0.59975349775E+01  0.61826227692E+02 -0.18901922723E+02  0.64928695806E+02  0.00000000000E+00 0.  1.
        -13    1    5    5    0    0 -0.15639549181E+01  0.20425614991E+03  0.93943148659E+02  0.22482957081E+03  0.00000000000E+00 0. -1.
          2    1    6    6  503    0 -0.63025862961E+03 -0.56504841476E+03  0.26350923773E+03  0.88653413335E+03  0.00000000000E+00 0. -1.
         -2    1    6    6    0  503 -0.58699660330E+02 -0.42481006176E+02  0.48854696208E+02  0.87390316112E+02  0.00000000000E+00 0.  1.
<mgrwt>
<rscale>  0 0.20327653E+04</rscale>
<asrwt>0</asrwt>
<pdfrwt beam="1">  1        2 0.25735733E+00 0.20327653E+04</pdfrwt>
<pdfrwt beam="2">  1       -1 0.95006047E-01 0.20327653E+04</pdfrwt>
<totfact> 0.11473522E+01</totfact>
</mgrwt>
</event>
<event>
12    7  0.2426980E-007  0.2257297E+04  0.7818608E-02  0.8494951E-01
         -3   -1    0    0    0  501 -0.00000000000E+00  0.00000000000E+00  0.97885103115E+03  0.97885103115E+03  0.00000000000E+00 0.  1.
          4   -1    0    0  501    0  0.00000000000E+00 -0.00000000000E+00 -0.13013702672E+04  0.13013702672E+04  0.00000000000E+00 0. -1.
         24    2    1    2    0    0 -0.87812733704E+03 -0.10153770738E+03  0.20593546701E+03  0.91144421933E+03  0.83088039400E+02 0.  0.
        254    2    1    2    0    0  0.87812733704E+03  0.10153770738E+03 -0.52845470309E+03  0.13687770790E+04  0.90159236510E+03 0.  0.
         23    2    4    4    0    0 -0.12384813532E+03  0.18553462796E+03 -0.31324214367E+02  0.24350456431E+03  0.92475984136E+02 0.  0.
         23    2    4    4    0    0  0.10019754724E+04 -0.83996920579E+02 -0.49713048872E+03  0.11252725147E+04  0.89939867128E+02 0.  0.
          2    1    3    3  502    0 -0.14270486513E+03 -0.25966734518E+02  0.41569957553E+01  0.14510765123E+03  0.00000000000E+00 0. -1.
         -1    1    3    3    0  502 -0.73542247191E+03 -0.75570972864E+02  0.20177847126E+03  0.76633656810E+03  0.00000000000E+00 0.  1.
         13    1    5    5    0    0 -0.12554646244E+03  0.11945900643E+03 -0.36861974235E+02  0.17717554457E+03  0.00000000000E+00 0. -1.
        -13    1    5    5    0    0  0.16983271266E+01  0.66075621533E+02  0.55377598672E+01  0.66329019745E+02  0.00000000000E+00 0.  1.
          2    1    6    6  503    0  0.94936762793E+03 -0.92667917532E+02 -0.45261963936E+03  0.10558175855E+04  0.00000000000E+00 0.  1.
         -2    1    6    6    0  503  0.52607844431E+02  0.86709969523E+01 -0.44510849360E+02  0.69454929231E+02  0.00000000000E+00 0. -1.
<mgrwt>
<rscale>  0 0.22572972E+04</rscale>
<asrwt>0</asrwt>
<pdfrwt beam="1">  1        4 0.20021081E+00 0.22572972E+04</pdfrwt>
<pdfrwt beam="2">  1       -3 0.15059247E+00 0.22572972E+04</pdfrwt>
<totfact> 0.86863615E-02</totfact>
</mgrwt>
</event>
<event>
12    7  0.2526802E-007  0.1745697E+04  0.7818608E-02  0.8735723E-01
         -1   -1    0    0    0  501 -0.00000000000E+00  0.00000000000E+00  0.45038720305E+03  0.45038720305E+03  0.00000000000E+00 0.  1.
          2   -1    0    0  501    0  0.00000000000E+00 -0.00000000000E+00 -0.16915759410E+04  0.16915759410E+04  0.00000000000E+00 0. -1.
         24    2    1    2    0    0 -0.56800157338E+03  0.27332147647E+03 -0.33832738467E+03  0.72000225383E+03  0.81285973250E+02 0.  0.
        254    2    1    2    0    0  0.56800157338E+03 -0.27332147647E+03 -0.90286135325E+03  0.14219608902E+04  0.89971313937E+03 0.  0.
         23    2    4    4    0    0  0.14699186174E+03 -0.55660903991E+03 -0.48204774296E+03  0.75628668282E+03  0.90439423933E+02 0.  0.
         23    2    4    4    0    0  0.42100971163E+03  0.28328756344E+03 -0.42081361029E+03  0.66567420736E+03  0.92396075925E+02 0.  0.
          4    1    3    3  502    0 -0.28859261057E+03  0.15719809914E+03 -0.21807750732E+03  0.39440428046E+03  0.00000000000E+00 0. -1.
         -3    1    3    3    0  502 -0.27940896281E+03  0.11612337733E+03 -0.12024987735E+03  0.32559797337E+03  0.00000000000E+00 0.  1.
         13    1    5    5    0    0  0.29326459308E+02 -0.38558997340E+02 -0.64071490600E+02  0.80324301423E+02  0.00000000000E+00 0. -1.
        -13    1    5    5    0    0  0.11766540244E+03 -0.51805004257E+03 -0.41797625236E+03  0.67596238140E+03  0.00000000000E+00 0.  1.
          2    1    6    6  503    0  0.58997755020E+02  0.32840137043E+02 -0.20222103397E+02  0.70485056318E+02  0.00000000000E+00 0. -1.
         -2    1    6    6    0  503  0.36201195661E+03  0.25044742640E+03 -0.40059150689E+03  0.59518915104E+03  0.00000000000E+00 0.  1.
<mgrwt>
<rscale>  0 0.17456966E+04</rscale>
<asrwt>0</asrwt>
<pdfrwt beam="1">  1        2 0.26024246E+00 0.17456966E+04</pdfrwt>
<pdfrwt beam="2">  1       -1 0.69290338E-01 0.17456966E+04</pdfrwt>
<totfact> 0.22557956E+01</totfact>
</mgrwt>
</event>
<event>
12    7  0.2426980E-007  0.1481427E+04  0.7818608E-02  0.8896899E-01
          2   -1    0    0  501    0  0.00000000000E+00  0.00000000000E+00  0.15379140553E+04  0.15379140553E+04  0.00000000000E+00 0. -1.
         -3   -1    0    0    0  501 -0.00000000000E+00 -0.00000000000E+00 -0.35675360929E+03  0.35675360929E+03  0.00000000000E+00 0.  1.
         24    2    1    2    0    0  0.14056644960E+03  0.29143435964E+03 -0.47929321541E+02  0.33687198036E+03  0.80576662585E+02 0.  0.
        254    2    1    2    0    0 -0.14056644960E+03 -0.29143435964E+03  0.12290897675E+04  0.15577956842E+04  0.90076235731E+03 0.  0.
         23    2    4    4    0    0  0.65689704850E+02  0.65641482040E+02  0.11117959566E+04  0.11194845018E+04  0.92365357192E+02 0.  0.
         23    2    4    4    0    0 -0.20625615445E+03 -0.35707584168E+03  0.11729381098E+03  0.43831118243E+03  0.91181668059E+02 0.  0.
          4    1    3    3  502    0  0.18483686410E+02  0.85119338172E+02  0.16463243793E+02  0.88645286340E+02  0.00000000000E+00 0. -1.
         -3    1    3    3    0  502  0.12208276319E+03  0.20631502147E+03 -0.64392565334E+02  0.24822669402E+03  0.00000000000E+00 0.  1.
         13    1    5    5    0    0  0.61649353945E+02  0.31012666152E+02  0.34166293969E+03  0.34856275284E+03  0.00000000000E+00 0.  1.
        -13    1    5    5    0    0  0.40403509054E+01  0.34628815888E+02  0.77013301687E+03  0.77092174895E+03  0.00000000000E+00 0. -1.
          2    1    6    6  503    0 -0.52098754853E+02 -0.15264399945E+03  0.12895870183E+02  0.16180474126E+03  0.00000000000E+00 0. -1.
         -2    1    6    6    0  503 -0.15415739960E+03 -0.20443184223E+03  0.10439794080E+03  0.27650644117E+03  0.00000000000E+00 0.  1.
<mgrwt>
<rscale>  0 0.14814269E+04</rscale>
<asrwt>0</asrwt>
<pdfrwt beam="1">  1        2 0.23660216E+00 0.14814269E+04</pdfrwt>
<pdfrwt beam="2">  1       -3 0.54885172E-01 0.14814269E+04</pdfrwt>
<totfact> 0.24489142E+01</totfact>
</mgrwt>
</event>
<event>
12    7  0.2426980E-007  0.3340619E+04  0.7818608E-02  0.8152636E-01
          2   -1    0    0  501    0  0.00000000000E+00  0.00000000000E+00  0.25149265966E+04  0.25149265966E+04  0.00000000000E+00 0. -1.
         -1   -1    0    0    0  501 -0.00000000000E+00 -0.00000000000E+00 -0.11093501990E+04  0.11093501990E+04  0.00000000000E+00 0.  1.
         24    2    1    2    0    0  0.79021908512E+03  0.29100746541E+03 -0.75694115617E+03  0.11351900313E+04  0.81024352957E+02 0.  0.
        254    2    1    2    0    0 -0.79021908512E+03 -0.29100746541E+03  0.21625175538E+04  0.24890867643E+04  0.89996622304E+03 0.  0.
         23    2    4    4    0    0  0.14140316654E+03 -0.62231459666E+01  0.76894562469E+02  0.18539266386E+03  0.91782803535E+02 0.  0.
         23    2    4    4    0    0 -0.93162225165E+03 -0.28478431945E+03  0.20856229913E+04  0.23036941005E+04  0.90338908154E+02 0.  0.
          2    1    3    3  502    0  0.53405648815E+03  0.18442573984E+03 -0.45783548280E+03  0.72721559070E+03  0.00000000000E+00 0. -1.
         -1    1    3    3    0  502  0.25616259697E+03  0.10658172557E+03 -0.29910567337E+03  0.40797444056E+03  0.00000000000E+00 0.  1.
         13    1    5    5    0    0  0.84430899564E+02 -0.23528994389E+02 -0.61828048169E+00  0.87650286074E+02  0.00000000000E+00 0. -1.
        -13    1    5    5    0    0  0.56972266972E+02  0.17305848422E+02  0.77512842951E+02  0.97742377789E+02  0.00000000000E+00 0.  1.
          3    1    6    6  503    0 -0.52543747401E+03 -0.13118155510E+03  0.12392424897E+04  0.13524108428E+04  0.00000000000E+00 0. -1.
         -3    1    6    6    0  503 -0.40618477765E+03 -0.15360276435E+03  0.84638050163E+03  0.95128325768E+03  0.00000000000E+00 0.  1.
<mgrwt>
<rscale>  0 0.33406193E+04</rscale>
<asrwt>0</asrwt>
<pdfrwt beam="1">  1        2 0.38691178E+00 0.33406193E+04</pdfrwt>
<pdfrwt beam="2">  1       -1 0.17066926E+00 0.33406193E+04</pdfrwt>
<totfact> 0.78521170E-01</totfact>
</mgrwt>
</event>
<event>
12    7  0.2426980E-007  0.1192175E+04  0.7818608E-02  0.9119734E-01
          2   -1    0    0  501    0  0.00000000000E+00  0.00000000000E+00  0.21475343713E+04  0.21475343713E+04  0.00000000000E+00 0. -1.
         -1   -1    0    0    0  501 -0.00000000000E+00 -0.00000000000E+00 -0.16545491507E+03  0.16545491507E+03  0.00000000000E+00 0.  1.
         24    2    1    2    0    0 -0.93832971297E+02  0.20959590659E+03  0.58416503300E+03  0.63277675335E+03  0.80140896191E+02 0.  0.
        254    2    1    2    0    0  0.93832971297E+02 -0.20959590659E+03  0.13979144232E+04  0.16802125330E+04  0.90344582066E+03 0.  0.
         23    2    4    4    0    0 -0.12198935616E+03 -0.17473489569E+02 -0.78078178423E+02  0.17343687014E+03  0.93794563409E+02 0.  0.
         23    2    4    4    0    0  0.21582232745E+03 -0.19212241702E+03  0.14759926016E+04  0.15067756629E+04  0.91260275955E+02 0.  0.
          4    1    3    3  502    0 -0.86532941053E+02  0.12520557365E+03  0.43986646937E+03  0.46545343101E+03  0.00000000000E+00 0. -1.
         -3    1    3    3    0  502 -0.73000302443E+01  0.84390332936E+02  0.14429856363E+03  0.16732332234E+03  0.00000000000E+00 0.  1.
         13    1    5    5    0    0 -0.54160170879E+02  0.13340468802E+02 -0.81612357021E+02  0.98852764433E+02  0.00000000000E+00 0.  1.
        -13    1    5    5    0    0 -0.67829185278E+02 -0.30813958370E+02  0.35341785979E+01  0.74584105708E+02  0.00000000000E+00 0. -1.
          3    1    6    6  503    0  0.16074824146E+03 -0.16306674510E+03  0.95460912733E+03  0.98168699007E+03  0.00000000000E+00 0.  1.
         -3    1    6    6    0  503  0.55074085993E+02 -0.29055671924E+02  0.52138347429E+03  0.52508867278E+03  0.00000000000E+00 0. -1.
<mgrwt>
<rscale>  0 0.11921747E+04</rscale>
<asrwt>0</asrwt>
<pdfrwt beam="1">  1        2 0.33038988E+00 0.11921747E+04</pdfrwt>
<pdfrwt beam="2">  1       -1 0.25454604E-01 0.11921747E+04</pdfrwt>
<totfact> 0.84615795E+01</totfact>
</mgrwt>
</event>
<event>
12    7  0.2426980E-007  0.3661107E+04  0.7818608E-02  0.8076636E-01
         -1   -1    0    0    0  501 -0.00000000000E+00  0.00000000000E+00  0.15071806489E+04  0.15071806489E+04  0.00000000000E+00 0.  1.
          2   -1    0    0  501    0  0.00000000000E+00 -0.00000000000E+00 -0.22233072861E+04  0.22233072861E+04  0.00000000000E+00 0. -1.
         24    2    1    2    0    0  0.36118515815E+03  0.14641257873E+04 -0.11778405327E+04  0.19148553913E+04  0.72414152737E+02 0.  0.
        254    2    1    2    0    0 -0.36118515815E+03 -0.14641257873E+04  0.46171389544E+03  0.18156325437E+04  0.89956810353E+03 0.  0.
         23    2    4    4    0    0 -0.55999827681E+03 -0.72828554467E+03  0.49468961342E+03  0.10475522452E+04  0.93005312959E+02 0.  0.
         23    2    4    4    0    0  0.19881311866E+03 -0.73584024267E+03 -0.32975717986E+02  0.76808029847E+03  0.88726704232E+02 0.  0.
          4    1    3    3  502    0  0.12964377003E+03  0.58441302602E+03 -0.42647960635E+03  0.73500404538E+03  0.00000000000E+00 0. -1.
         -3    1    3    3    0  502  0.23154138812E+03  0.87971276131E+03 -0.75136092631E+03  0.11798513459E+04  0.00000000000E+00 0.  1.
         13    1    5    5    0    0 -0.46179105787E+03 -0.64375283840E+03  0.44572087104E+03  0.90903013864E+03  0.00000000000E+00 0. -1.
        -13    1    5    5    0    0 -0.98207218943E+02 -0.84532706269E+02  0.48968742381E+02  0.13852210658E+03  0.00000000000E+00 0.  1.
          2    1    6    6  503    0  0.72805729872E+02 -0.26450324886E+03 -0.54560786053E+02  0.27971328594E+03  0.00000000000E+00 0. -1.
         -2    1    6    6    0  503  0.12600738879E+03 -0.47133699381E+03  0.21585068067E+02  0.48836701253E+03  0.00000000000E+00 0.  1.
<mgrwt>
<rscale>  0 0.36611068E+04</rscale>
<asrwt>0</asrwt>
<pdfrwt beam="1">  1        2 0.34204727E+00 0.36611068E+04</pdfrwt>
<pdfrwt beam="2">  1       -1 0.23187395E+00 0.36611068E+04</pdfrwt>
<totfact> 0.42377521E-01</totfact>
</mgrwt>
</event>
<event>
12    7  0.2426980E-007  0.1719667E+04  0.7818608E-02  0.8750227E-01
          2   -1    0    0  501    0  0.00000000000E+00  0.00000000000E+00  0.10299468231E+04  0.10299468231E+04  0.00000000000E+00 0. -1.
         -1   -1    0    0    0  501 -0.00000000000E+00 -0.00000000000E+00 -0.71781697109E+03  0.71781697109E+03  0.00000000000E+00 0.  1.
         24    2    1    2    0    0  0.48511082195E+03 -0.33038454729E+03 -0.92071292730E+02  0.59946930254E+03  0.79999144303E+02 0.  0.
        254    2    1    2    0    0 -0.48511082195E+03  0.33038454729E+03  0.40420114470E+03  0.11482944916E+04  0.90039725424E+03 0.  0.
         23    2    4    4    0    0 -0.25133280281E+03  0.44969295306E+03 -0.13651929754E+03  0.54056182840E+03  0.90430315317E+02 0.  0.
         23    2    4    4    0    0 -0.23377801914E+03 -0.11930840577E+03  0.54072044224E+03  0.60773266322E+03  0.89853966909E+02 0.  0.
          2    1    3    3  502    0  0.17475177855E+03 -0.12759854243E+03  0.42694708034E+01  0.21642042537E+03  0.00000000000E+00 0. -1.
         -3    1    3    3    0  502  0.31035904340E+03 -0.20278600486E+03 -0.96340763533E+02  0.38304887717E+03  0.00000000000E+00 0.  1.
         13    1    5    5    0    0 -0.25525962098E+02  0.10806031828E+03 -0.78573768774E+01  0.11131192883E+03  0.00000000000E+00 0. -1.
        -13    1    5    5    0    0 -0.22580684071E+03  0.34163263477E+03 -0.12866192066E+03  0.42924989957E+03  0.00000000000E+00 0.  1.
          1    1    6    6  503    0 -0.92597322470E+02 -0.80028736636E+02  0.17324045489E+03  0.21211109831E+03  0.00000000000E+00 0. -1.
         -1    1    6    6    0  503 -0.14118069667E+03 -0.39279669137E+02  0.36747998735E+03  0.39562156491E+03  0.00000000000E+00 0.  1.
<mgrwt>
<rscale>  0 0.17196666E+04</rscale>
<asrwt>0</asrwt>
<pdfrwt beam="1">  1        2 0.15845336E+00 0.17196666E+04</pdfrwt>
<pdfrwt beam="2">  1       -1 0.11043338E+00 0.17196666E+04</pdfrwt>
<totfact> 0.19755281E+01</totfact>
</mgrwt>
</event>
<event>
12    7  0.2426980E-007  0.3074053E+04  0.7818608E-02  0.8222895E-01
          2   -1    0    0  501    0  0.00000000000E+00  0.00000000000E+00  0.15075676367E+04  0.15075676367E+04  0.00000000000E+00 0. -1.
         -1   -1    0    0    0  501 -0.00000000000E+00 -0.00000000000E+00 -0.15670614164E+04  0.15670614164E+04  0.00000000000E+00 0.  1.
         24    2    1    2    0    0 -0.13899450331E+04  0.74284725977E+02 -0.18784381374E+03  0.14068472232E+04  0.80426336158E+02 0.  0.
        254    2    1    2    0    0  0.13899450331E+04 -0.74284725977E+02  0.12835003402E+03  0.16677818300E+04  0.90970164648E+03 0.  0.
         23    2    4    4    0    0  0.14007861296E+04 -0.22725299362E+03  0.26078390356E+03  0.14456409763E+04  0.89576133956E+02 0.  0.
         23    2    4    4    0    0 -0.10841096548E+02  0.15296826765E+03 -0.13243386953E+03  0.22214085371E+03  0.91054976835E+02 0.  0.
          2    1    3    3  502    0 -0.34416358838E+03  0.13255096221E+02 -0.11979278316E+02  0.34462701034E+03  0.00000000000E+00 0. -1.
         -1    1    3    3    0  502 -0.10457814447E+04  0.61029629755E+02 -0.17586453542E+03  0.10622202129E+04  0.00000000000E+00 0.  1.
         13    1    5    5    0    0  0.12167985955E+03  0.52193843348E+01  0.26442268367E+02  0.12462914487E+03  0.00000000000E+00 0.  1.
        -13    1    5    5    0    0  0.12791062701E+04 -0.23247237796E+03  0.23434163519E+03  0.13210118314E+04  0.00000000000E+00 0. -1.
          4    1    6    6  503    0 -0.12507639452E+02  0.13582721016E+03 -0.14630567340E+03  0.20002705350E+03  0.00000000000E+00 0. -1.
         -4    1    6    6    0  503  0.16665429042E+01  0.17141057489E+02  0.13871803867E+02  0.22113800207E+02  0.00000000000E+00 0.  1.
<mgrwt>
<rscale>  0 0.30740534E+04</rscale>
<asrwt>0</asrwt>
<pdfrwt beam="1">  1        2 0.23193348E+00 0.30740534E+04</pdfrwt>
<pdfrwt beam="2">  1       -1 0.24108637E+00 0.30740534E+04</pdfrwt>
<totfact> 0.97110466E-01</totfact>
</mgrwt>
</event>
<event>
12    7  0.2426980E-007  0.1763038E+04  0.7818608E-02  0.8726206E-01
          2   -1    0    0  501    0  0.00000000000E+00  0.00000000000E+00  0.13036122864E+04  0.13036122864E+04  0.00000000000E+00 0. -1.
         -1   -1    0    0    0  501 -0.00000000000E+00 -0.00000000000E+00 -0.59609448713E+03  0.59609448713E+03  0.00000000000E+00 0.  1.
         24    2    1    2    0    0 -0.25864281120E+03  0.36048838833E+03  0.77544722096E+03  0.89704187396E+03  0.80732578553E+02 0.  0.
        254    2    1    2    0    0  0.25864281120E+03 -0.36048838833E+03 -0.67929421741E+02  0.10026648995E+04  0.89659049320E+03 0.  0.
         23    2    4    4    0    0  0.85520359751E+02 -0.56398258739E+03  0.20333788794E+03  0.61217664767E+03  0.89576003838E+02 0.  0.
         23    2    4    4    0    0  0.17312245145E+03  0.20349419906E+03 -0.27126730968E+03  0.39048825186E+03  0.86682462454E+02 0.  0.
          4    1    3    3  502    0 -0.19649246557E+03  0.32131418117E+03  0.62735743014E+03  0.73173044025E+03  0.00000000000E+00 0. -1.
         -3    1    3    3    0  502 -0.62150345625E+02  0.39174207160E+02  0.14808979082E+03  0.16531143371E+03  0.00000000000E+00 0.  1.
         13    1    5    5    0    0  0.10240735363E+03 -0.46331793790E+03  0.15447358097E+03  0.49901188851E+03  0.00000000000E+00 0. -1.
        -13    1    5    5    0    0 -0.16886993877E+02 -0.10066464949E+03  0.48864306960E+02  0.11316475915E+03  0.00000000000E+00 0.  1.
          4    1    6    6  503    0  0.11612167028E+03  0.17077461919E+03 -0.24311736565E+03  0.31898944552E+03  0.00000000000E+00 0. -1.
         -4    1    6    6    0  503  0.57000781167E+02  0.32719579870E+02 -0.28149944024E+02  0.71498806347E+02  0.00000000000E+00 0.  1.
<mgrwt>
<rscale>  0 0.17630384E+04</rscale>
<asrwt>0</asrwt>
<pdfrwt beam="1">  1        2 0.20055574E+00 0.17630384E+04</pdfrwt>
<pdfrwt beam="2">  1       -1 0.91706844E-01 0.17630384E+04</pdfrwt>
<totfact> 0.20576050E+01</totfact>
</mgrwt>
</event>
<event>
12    7  0.2426980E-007  0.1835357E+04  0.7818608E-02  0.8687720E-01
          2   -1    0    0  501    0  0.00000000000E+00  0.00000000000E+00  0.21436847004E+04  0.21436847004E+04  0.00000000000E+00 0. -1.
         -1   -1    0    0    0  501 -0.00000000000E+00 -0.00000000000E+00 -0.39284393281E+03  0.39284393281E+03  0.00000000000E+00 0.  1.
         24    2    1    2    0    0 -0.61368094881E+03 -0.20049053390E+03  0.10011373211E+04  0.11939004632E+04  0.79508611519E+02 0.  0.
        254    2    1    2    0    0  0.61368094881E+03  0.20049053390E+03  0.74970344656E+03  0.13426281700E+04  0.90763119386E+03 0.  0.
         23    2    4    4    0    0  0.60171195620E+03  0.50788730032E+03  0.50921308603E+03  0.94217850701E+03  0.91627419623E+02 0.  0.
         23    2    4    4    0    0  0.11968992611E+02 -0.30739676642E+03  0.24049036053E+03  0.40044966302E+03  0.88816047641E+02 0.  0.
          2    1    3    3  502    0 -0.41619370919E+03 -0.13986317667E+03  0.74595119012E+03  0.86557616060E+03  0.00000000000E+00 0. -1.
         -1    1    3    3    0  502 -0.19748723962E+03 -0.60627357236E+02  0.25518613095E+03  0.32832430261E+03  0.00000000000E+00 0.  1.
         13    1    5    5    0    0  0.18699673500E+03  0.12367826747E+03  0.18356165162E+03  0.28975674745E+03  0.00000000000E+00 0.  1.
        -13    1    5    5    0    0  0.41471522120E+03  0.38420903285E+03  0.32565143441E+03  0.65242175956E+03  0.00000000000E+00 0. -1.
          4    1    6    6  503    0  0.14500566366E+02 -0.19464637946E+01  0.13184412094E+02  0.19694767541E+02  0.00000000000E+00 0. -1.
         -4    1    6    6    0  503 -0.25315737552E+01 -0.30545030263E+03  0.22730594843E+03  0.38075489548E+03  0.00000000000E+00 0.  1.
<mgrwt>
<rscale>  0 0.18353567E+04</rscale>
<asrwt>0</asrwt>
<pdfrwt beam="1">  1        2 0.32979764E+00 0.18353567E+04</pdfrwt>
<pdfrwt beam="2">  1       -1 0.60437529E-01 0.18353567E+04</pdfrwt>
<totfact> 0.16531485E+01</totfact>
</mgrwt>
</event>
<event>
12    7  0.2426980E-007  0.1529447E+04  0.7818608E-02  0.8865104E-01
         -1   -1    0    0    0  501 -0.00000000000E+00  0.00000000000E+00  0.30845886164E+03  0.30845886164E+03  0.00000000000E+00 0.  1.
          2   -1    0    0  501    0  0.00000000000E+00 -0.00000000000E+00 -0.18958827211E+04  0.18958827211E+04  0.00000000000E+00 0. -1.
         24    2    1    2    0    0 -0.11351561801E+03  0.41617481139E+03 -0.88606375003E+03  0.98868849841E+03  0.79427379424E+02 0.  0.
        254    2    1    2    0    0  0.11351561801E+03 -0.41617481139E+03 -0.70136010946E+03  0.12156530844E+04  0.89432608661E+03 0.  0.
         23    2    4    4    0    0  0.13117195416E+02 -0.67360568059E+02  0.20554061350E+03  0.23477358253E+03  0.90344807887E+02 0.  0.
         23    2    4    4    0    0  0.10039842260E+03 -0.34881424334E+03 -0.90690072296E+03  0.98087950182E+03  0.88907008574E+02 0.  0.
          4    1    3    3  502    0 -0.72627825803E+02  0.27460082863E+03 -0.66372699481E+03  0.72195148023E+03  0.00000000000E+00 0. -1.
         -3    1    3    3    0  502 -0.40887792209E+02  0.14157398276E+03 -0.22233675522E+03  0.26673701818E+03  0.00000000000E+00 0.  1.
         13    1    5    5    0    0 -0.34590594507E+02 -0.91374390812E+01  0.45219555416E+02  0.57661167291E+02  0.00000000000E+00 0. -1.
        -13    1    5    5    0    0  0.47707789923E+02 -0.58223128978E+02  0.16032105809E+03  0.17711241524E+03  0.00000000000E+00 0.  1.
          1    1    6    6  503    0  0.16631557484E+01 -0.50819018352E+02 -0.66159254364E+02  0.83440911136E+02  0.00000000000E+00 0. -1.
         -1    1    6    6    0  503  0.98735266848E+02 -0.29799522498E+03 -0.84074146860E+03  0.89743859069E+03  0.00000000000E+00 0.  1.
<mgrwt>
<rscale>  0 0.15294467E+04</rscale>
<asrwt>0</asrwt>
<pdfrwt beam="1">  1        2 0.29167426E+00 0.15294467E+04</pdfrwt>
<pdfrwt beam="2">  1       -1 0.47455210E-01 0.15294467E+04</pdfrwt>
<totfact> 0.37158889E+01</totfact>
</mgrwt>
</event>
<event>
12    7  0.2426980E-007  0.2394298E+04  0.7818608E-02  0.8441641E-01
          2   -1    0    0  501    0  0.00000000000E+00  0.00000000000E+00  0.18487648335E+04  0.18487648335E+04  0.00000000000E+00 0. -1.
         -1   -1    0    0    0  501 -0.00000000000E+00 -0.00000000000E+00 -0.77520203835E+03  0.77520203835E+03  0.00000000000E+00 0.  1.
         24    2    1    2    0    0  0.74276864718E+03 -0.54019497031E+03 -0.40001743545E+02  0.92275451426E+03  0.79748886597E+02 0.  0.
        254    2    1    2    0    0 -0.74276864718E+03  0.54019497031E+03  0.11135645387E+04  0.17012123576E+04  0.90032307232E+03 0.  0.
         23    2    4    4    0    0  0.14308092962E+03  0.10616061083E+03 -0.13507812948E+02  0.20062290665E+03  0.91240681425E+02 0.  0.
         23    2    4    4    0    0 -0.88584957681E+03  0.43403435948E+03  0.11270723516E+04  0.15005894509E+04  0.91440234483E+02 0.  0.
          4    1    3    3  502    0  0.31620364398E+03 -0.21638468743E+03  0.21089978781E+02  0.38373410668E+03  0.00000000000E+00 0. -1.
         -1    1    3    3    0  502  0.42656500320E+03 -0.32381028287E+03 -0.61091722326E+02  0.53902040758E+03  0.00000000000E+00 0.  1.
         13    1    5    5    0    0  0.90408639989E+02  0.10874707612E+03 -0.31530615965E+02  0.14489247217E+03  0.00000000000E+00 0. -1.
        -13    1    5    5    0    0  0.52672289633E+02 -0.25864652901E+01  0.18022803016E+02  0.55730434472E+02  0.00000000000E+00 0.  1.
          1    1    6    6  503    0 -0.72606654029E+03  0.39077792902E+03  0.95785829060E+03  0.12638720329E+04  0.00000000000E+00 0. -1.
         -1    1    6    6    0  503 -0.15978303652E+03  0.43256430457E+02  0.16921406104E+03  0.23671741801E+03  0.00000000000E+00 0.  1.
<mgrwt>
<rscale>  0 0.23942985E+04</rscale>
<asrwt>0</asrwt>
<pdfrwt beam="1">  1        2 0.28442536E+00 0.23942985E+04</pdfrwt>
<pdfrwt beam="2">  1       -1 0.11926185E+00 0.23942985E+04</pdfrwt>
<totfact> 0.52180628E+00</totfact>
</mgrwt>
</event>
<event>
12    7  0.2426980E-007  0.1033053E+04  0.7818608E-02  0.9273018E-01
          2   -1    0    0  501    0  0.00000000000E+00  0.00000000000E+00  0.10599991038E+04  0.10599991038E+04  0.00000000000E+00 0. -1.
         -1   -1    0    0    0  501 -0.00000000000E+00 -0.00000000000E+00 -0.25169785779E+03  0.25169785779E+03  0.00000000000E+00 0.  1.
         24    2    1    2    0    0  0.43705125385E+02  0.82733930574E+02  0.14363329438E+03  0.18824860313E+03  0.77794421855E+02 0.  0.
        254    2    1    2    0    0 -0.43705125385E+02 -0.82733930574E+02  0.66466795162E+03  0.11234483585E+04  0.90088716662E+03 0.  0.
         23    2    4    4    0    0 -0.20786137859E+02 -0.19104963941E+03  0.85719228406E+03  0.88355120926E+03  0.94615534076E+02 0.  0.
         23    2    4    4    0    0 -0.22918987526E+02  0.10831570883E+03 -0.19252433244E+03  0.23989714921E+03  0.90705296687E+02 0.  0.
          4    1    3    3  502    0  0.54012562182E+02  0.25069737395E+02  0.49775121431E+02  0.77610639219E+02  0.00000000000E+00 0. -1.
         -3    1    3    3    0  502 -0.10307436797E+02  0.57664193180E+02  0.93858172953E+02  0.11063796391E+03  0.00000000000E+00 0.  1.
         13    1    5    5    0    0 -0.46440039026E+01 -0.38078873570E+02  0.56984816724E+02  0.68693789542E+02  0.00000000000E+00 0. -1.
        -13    1    5    5    0    0 -0.16142133957E+02 -0.15297076584E+03  0.80020746733E+03  0.81485741972E+03  0.00000000000E+00 0.  1.
          1    1    6    6  503    0 -0.18842187454E+01  0.10781532833E+02  0.95541456232E+01  0.14528366360E+02  0.00000000000E+00 0. -1.
         -1    1    6    6    0  503 -0.21034768780E+02  0.97534176001E+02 -0.20207847806E+03  0.22536878285E+03  0.00000000000E+00 0.  1.
<mgrwt>
<rscale>  0 0.10330528E+04</rscale>
<asrwt>0</asrwt>
<pdfrwt beam="1">  1        2 0.16307678E+00 0.10330528E+04</pdfrwt>
<pdfrwt beam="2">  1       -1 0.38722748E-01 0.10330528E+04</pdfrwt>
<totfact> 0.16926969E+02</totfact>
</mgrwt>
</event>
<event>
12    7  0.2426980E-007  0.1230360E+04  0.7818608E-02  0.9086690E-01
          2   -1    0    0  501    0  0.00000000000E+00  0.00000000000E+00  0.33939672162E+04  0.33939672162E+04  0.00000000000E+00 0. -1.
         -1   -1    0    0    0  501 -0.00000000000E+00 -0.00000000000E+00 -0.11150556203E+03  0.11150556203E+03  0.00000000000E+00 0.  1.
         24    2    1    2    0    0  0.24969983658E+03  0.82113226908E+02  0.10254468941E+04  0.10621697907E+04  0.87010006655E+02 0.  0.
        254    2    1    2    0    0 -0.24969983658E+03 -0.82113226908E+02  0.22570147600E+04  0.24433029875E+04  0.89806529341E+03 0.  0.
         23    2    4    4    0    0 -0.19497483387E+03  0.13151371484E+03  0.97448986850E+02  0.27046271947E+03  0.91338570988E+02 0.  0.
         23    2    4    4    0    0 -0.54725002708E+02 -0.21362694175E+03  0.21595657732E+04  0.21728402680E+04  0.94229535926E+02 0.  0.
          2    1    3    3  502    0  0.18487992750E+03  0.98602171778E+02  0.75000726376E+03  0.77872579998E+03  0.00000000000E+00 0. -1.
         -1    1    3    3    0  502  0.64819909084E+02 -0.16488944870E+02  0.27543963032E+03  0.28344399071E+03  0.00000000000E+00 0.  1.
         13    1    5    5    0    0 -0.11301856122E+03  0.30603072626E+02  0.18980333424E+02  0.11861701519E+03  0.00000000000E+00 0. -1.
        -13    1    5    5    0    0 -0.81956272652E+02  0.10091064221E+03  0.78468653426E+02  0.15184570428E+03  0.00000000000E+00 0.  1.
          3    1    6    6  503    0  0.27039474728E+02 -0.58894154007E+02  0.58652933518E+03  0.59009856430E+03  0.00000000000E+00 0. -1.
         -3    1    6    6    0  503 -0.81764477435E+02 -0.15473278774E+03  0.15730364380E+04  0.15827417037E+04  0.00000000000E+00 0.  1.
<mgrwt>
<rscale>  0 0.12303597E+04</rscale>
<asrwt>0</asrwt>
<pdfrwt beam="1">  1        2 0.52214872E+00 0.12303597E+04</pdfrwt>
<pdfrwt beam="2">  1       -1 0.17154704E-01 0.12303597E+04</pdfrwt>
<totfact> 0.29124656E+01</totfact>
</mgrwt>
</event>
<event>
12    7  0.2426980E-007  0.1900735E+04  0.7818608E-02  0.8654490E-01
         -1   -1    0    0    0  501 -0.00000000000E+00  0.00000000000E+00  0.32275801500E+03  0.32275801500E+03  0.00000000000E+00 0.  1.
          2   -1    0    0  501    0  0.00000000000E+00 -0.00000000000E+00 -0.27983774608E+04  0.27983774608E+04  0.00000000000E+00 0. -1.
         24    2    1    2    0    0 -0.26290014933E+03  0.20640053365E+03 -0.20362223451E+04  0.20650353905E+04  0.80324693543E+02 0.  0.
        254    2    1    2    0    0  0.26290014933E+03 -0.20640053365E+03 -0.43939710069E+03  0.10561000853E+04  0.90031100699E+03 0.  0.
         23    2    4    4    0    0 -0.26497296936E+03 -0.19044053743E+01  0.70323676573E+02  0.28873247870E+03  0.90590968189E+02 0.  0.
         23    2    4    4    0    0  0.52787311869E+03 -0.20449612827E+03 -0.50972077726E+03  0.76736760662E+03  0.92569309134E+02 0.  0.
          2    1    3    3  502    0 -0.17600941477E+03  0.18229853502E+03 -0.14714241452E+04  0.14930844199E+04  0.00000000000E+00 0. -1.
         -3    1    3    3    0  502 -0.86890734555E+02  0.24101998631E+02 -0.56479819993E+03  0.57195097057E+03  0.00000000000E+00 0.  1.
         13    1    5    5    0    0 -0.13831882292E+03  0.18023855244E+01  0.83115426162E+02  0.16138004657E+03  0.00000000000E+00 0. -1.
        -13    1    5    5    0    0 -0.12665414645E+03 -0.37067908987E+01 -0.12791749588E+02  0.12735243213E+03  0.00000000000E+00 0.  1.
          4    1    6    6  503    0  0.33171434437E+03 -0.12753087199E+03 -0.25839021818E+03  0.43939052610E+03  0.00000000000E+00 0.  1.
         -4    1    6    6    0  503  0.19615877432E+03 -0.76965256281E+02 -0.25133055908E+03  0.32797708052E+03  0.00000000000E+00 0. -1.
<mgrwt>
<rscale>  0 0.19007354E+04</rscale>
<asrwt>0</asrwt>
<pdfrwt beam="1">  1        2 0.43051960E+00 0.19007354E+04</pdfrwt>
<pdfrwt beam="2">  1       -1 0.49655080E-01 0.19007354E+04</pdfrwt>
<totfact> 0.10069526E+01</totfact>
</mgrwt>
</event>
<event>
12    7  0.2426980E-007  0.2347471E+04  0.7818608E-02  0.8459436E-01
          2   -1    0    0  501    0  0.00000000000E+00  0.00000000000E+00  0.21183195320E+04  0.21183195320E+04  0.00000000000E+00 0. -1.
         -1   -1    0    0    0  501 -0.00000000000E+00 -0.00000000000E+00 -0.65035289225E+03  0.65035289225E+03  0.00000000000E+00 0.  1.
         24    2    1    2    0    0 -0.86084679581E+03  0.17440314197E+02  0.29176832348E+02  0.86520536832E+03  0.79797690497E+02 0.  0.
        254    2    1    2    0    0  0.86084679581E+03 -0.17440314197E+02  0.14387898074E+04  0.19034670559E+04  0.90094913990E+03 0.  0.
         23    2    4    4    0    0  0.59505001186E+03 -0.43081792064E+03  0.76531923399E+03  0.10647630712E+04  0.91204552825E+02 0.  0.
         23    2    4    4    0    0  0.26579678395E+03  0.41337760644E+03  0.67347057337E+03  0.83870398472E+03  0.91284089119E+02 0.  0.
          4    1    3    3  502    0 -0.62956025731E+02 -0.84276299262E+01  0.20849396516E+02  0.66851951783E+02  0.00000000000E+00 0. -1.
         -3    1    3    3    0  502 -0.79789077008E+03  0.25867944123E+02  0.83274358320E+01  0.79835341654E+03  0.00000000000E+00 0.  1.
         13    1    5    5    0    0  0.21222870461E+03 -0.20753181969E+03  0.29319656000E+03  0.41722260490E+03  0.00000000000E+00 0. -1.
        -13    1    5    5    0    0  0.38282130725E+03 -0.22328610095E+03  0.47212267399E+03  0.64754046627E+03  0.00000000000E+00 0.  1.
          2    1    6    6  503    0  0.16435136110E+03  0.17531628200E+03  0.34772410463E+03  0.42268099268E+03  0.00000000000E+00 0. -1.
         -2    1    6    6    0  503  0.10144542285E+03  0.23806132444E+03  0.32574646874E+03  0.41602299204E+03  0.00000000000E+00 0.  1.
<mgrwt>
<rscale>  0 0.23474712E+04</rscale>
<asrwt>0</asrwt>
<pdfrwt beam="1">  1        2 0.32589531E+00 0.23474712E+04</pdfrwt>
<pdfrwt beam="2">  1       -1 0.10005429E+00 0.23474712E+04</pdfrwt>
<totfact> 0.56135108E+00</totfact>
</mgrwt>
</event>
<event>
12    7  0.2426980E-007  0.1765382E+04  0.7818608E-02  0.8724929E-01
         -1   -1    0    0    0  501 -0.00000000000E+00  0.00000000000E+00  0.63782500352E+03  0.63782500352E+03  0.00000000000E+00 0.  1.
          2   -1    0    0  501    0  0.00000000000E+00 -0.00000000000E+00 -0.12215628735E+04  0.12215628735E+04  0.00000000000E+00 0. -1.
         24    2    1    2    0    0 -0.34937165359E+03 -0.50790614436E+03 -0.79411008379E+00  0.62372881892E+03  0.94909457542E+02 0.  0.
        254    2    1    2    0    0  0.34937165359E+03  0.50790614436E+03 -0.58294375985E+03  0.12356590580E+04  0.89833216394E+03 0.  0.
         23    2    4    4    0    0 -0.18267786643E+03  0.49615543095E+03 -0.38548121901E+03  0.66060449515E+03  0.90890671997E+02 0.  0.
         23    2    4    4    0    0  0.53204952002E+03  0.11750713412E+02 -0.19746254084E+03  0.57505456290E+03  0.92095191261E+02 0.  0.
          4    1    3    3  502    0 -0.14266589973E+03 -0.16500996048E+03 -0.38767981308E+02  0.22155090246E+03  0.00000000000E+00 0. -1.
         -3    1    3    3    0  502 -0.20670575386E+03 -0.34289618388E+03  0.37973871224E+02  0.40217791647E+03  0.00000000000E+00 0.  1.
         13    1    5    5    0    0  0.43232466451E+01  0.79058271672E+02 -0.50660868819E+02  0.93996938305E+02  0.00000000000E+00 0. -1.
        -13    1    5    5    0    0 -0.18700111308E+03  0.41709715928E+03 -0.33482035019E+03  0.56660755684E+03  0.00000000000E+00 0.  1.
          2    1    6    6  503    0  0.10947239503E+03 -0.29359229496E+02 -0.20992584757E+02  0.11526863513E+03  0.00000000000E+00 0. -1.
         -2    1    6    6    0  503  0.42257712500E+03  0.41109942908E+02 -0.17646995609E+03  0.45978592777E+03  0.00000000000E+00 0.  1.
<mgrwt>
<rscale>  0 0.17653819E+04</rscale>
<asrwt>0</asrwt>
<pdfrwt beam="1">  1        2 0.18793275E+00 0.17653819E+04</pdfrwt>
<pdfrwt beam="2">  1       -1 0.98126925E-01 0.17653819E+04</pdfrwt>
<totfact> 0.19753341E+01</totfact>
</mgrwt>
</event>
<event>
12    7  0.2426980E-007  0.2891766E+04  0.7818608E-02  0.8275331E-01
          2   -1    0    0  501    0  0.00000000000E+00  0.00000000000E+00  0.27055493553E+04  0.27055493553E+04  0.00000000000E+00 0. -1.
         -1   -1    0    0    0  501 -0.00000000000E+00 -0.00000000000E+00 -0.77270004090E+03  0.77270004090E+03  0.00000000000E+00 0.  1.
         24    2    1    2    0    0  0.99358069714E+03 -0.48342273603E+03  0.17084546418E+04  0.20362118124E+04  0.80256704247E+02 0.  0.
        254    2    1    2    0    0 -0.99358069714E+03  0.48342273603E+03  0.22439467259E+03  0.14420375838E+04  0.89901016705E+03 0.  0.
         23    2    4    4    0    0  0.41960977374E+02 -0.15600466116E+02  0.26913222473E+03  0.28806078481E+03  0.92427069586E+02 0.  0.
         23    2    4    4    0    0 -0.10355416745E+04  0.49902320214E+03 -0.44737552135E+02  0.11539767990E+04  0.91051018817E+02 0.  0.
          4    1    3    3  502    0  0.43776403153E+03 -0.18440135164E+03  0.67835965805E+03  0.82813829248E+03  0.00000000000E+00 0. -1.
         -3    1    3    3    0  502  0.55581666561E+03 -0.29902138438E+03  0.10300949838E+04  0.12080735200E+04  0.00000000000E+00 0.  1.
         13    1    5    5    0    0 -0.11803490843E+02  0.13778025283E+02  0.17376148857E+03  0.17470607112E+03  0.00000000000E+00 0.  1.
        -13    1    5    5    0    0  0.53764468217E+02 -0.29378491399E+02  0.95370736153E+02  0.11335471368E+03  0.00000000000E+00 0. -1.
          3    1    6    6  503    0 -0.53287514124E+03  0.22144872152E+03  0.10141712338E+02  0.57714669430E+03  0.00000000000E+00 0. -1.
         -3    1    6    6    0  503 -0.50266653327E+03  0.27757448063E+03 -0.54879264473E+02  0.57683010465E+03  0.00000000000E+00 0.  1.
<mgrwt>
<rscale>  0 0.28917663E+04</rscale>
<asrwt>0</asrwt>
<pdfrwt beam="1">  1        2 0.41623836E+00 0.28917663E+04</pdfrwt>
<pdfrwt beam="2">  1       -1 0.11887693E+00 0.28917663E+04</pdfrwt>
<totfact> 0.16381661E+00</totfact>
</mgrwt>
</event>
<event>
12    7  0.2426980E-007  0.2143555E+04  0.7818608E-02  0.8542296E-01
         -1   -1    0    0    0  501 -0.00000000000E+00  0.00000000000E+00  0.15224757563E+04  0.15224757563E+04  0.00000000000E+00 0.  1.
          2   -1    0    0  501    0  0.00000000000E+00 -0.00000000000E+00 -0.75449918047E+03  0.75449918047E+03  0.00000000000E+00 0. -1.
         24    2    1    2    0    0 -0.84855628283E+03  0.93562825617E+02  0.89743732208E+02  0.86279936025E+03  0.86988683860E+02 0.  0.
        254    2    1    2    0    0  0.84855628283E+03 -0.93562825617E+02  0.67823284365E+03  0.14141755765E+04  0.90060590916E+03 0.  0.
         23    2    4    4    0    0  0.10286921322E+01 -0.19005579292E+03  0.49346324419E+03  0.53670590368E+03  0.91787749974E+02 0.  0.
         23    2    4    4    0    0  0.84752759070E+03  0.96492967302E+02  0.18476959945E+03  0.87746967286E+03  0.90550053422E+02 0.  0.
          4    1    3    3  502    0 -0.22811477242E+03 -0.11961863934E+02  0.34648305851E+02  0.23104099351E+03  0.00000000000E+00 0. -1.
         -3    1    3    3    0  502 -0.62044151041E+03  0.10552468955E+03  0.55095426357E+02  0.63175836675E+03  0.00000000000E+00 0.  1.
         13    1    5    5    0    0 -0.93007165111E+01 -0.18092922073E+03  0.36482974534E+03  0.40733601526E+03  0.00000000000E+00 0.  1.
        -13    1    5    5    0    0  0.10329408643E+02 -0.91265721884E+01  0.12863349886E+03  0.12936988842E+03  0.00000000000E+00 0. -1.
          2    1    6    6  503    0  0.10633288307E+03  0.40493053583E+02  0.12549703047E+02  0.11447211213E+03  0.00000000000E+00 0.  1.
         -2    1    6    6    0  503  0.74119470763E+03  0.55999913719E+02  0.17221989641E+03  0.76299756073E+03  0.00000000000E+00 0. -1.
<mgrwt>
<rscale>  0 0.21435547E+04</rscale>
<asrwt>0</asrwt>
<pdfrwt beam="1">  1        2 0.11607680E+00 0.21435547E+04</pdfrwt>
<pdfrwt beam="2">  1       -1 0.23422704E+00 0.21435547E+04</pdfrwt>
<totfact> 0.34504985E+00</totfact>
</mgrwt>
</event>
<event>
12    7  0.2426980E-007  0.1666714E+04  0.7818608E-02  0.8780580E-01
          2   -1    0    0  501    0  0.00000000000E+00  0.00000000000E+00  0.68407074286E+03  0.68407074286E+03  0.00000000000E+00 0. -1.
         -1   -1    0    0    0  501 -0.00000000000E+00 -0.00000000000E+00 -0.10152217415E+04  0.10152217415E+04  0.00000000000E+00 0.  1.
         24    2    1    2    0    0  0.52855793114E+03 -0.19519857217E+03 -0.28262365885E+03  0.63541308258E+03  0.79985522632E+02 0.  0.
        254    2    1    2    0    0 -0.52855793114E+03  0.19519857217E+03 -0.48527339788E+02  0.10638794018E+04  0.90111514784E+03 0.  0.
         23    2    4    4    0    0 -0.35492699365E+03  0.53245138530E+03  0.85041607715E+02  0.65172389610E+03  0.89634330373E+02 0.  0.
         23    2    4    4    0    0 -0.17363093748E+03 -0.33725281312E+03 -0.13356894750E+03  0.41215550567E+03  0.90245967829E+02 0.  0.
          4    1    3    3  502    0  0.25492017138E+03 -0.10929124838E+03 -0.97254259631E+02  0.29391710016E+03  0.00000000000E+00 0. -1.
         -3    1    3    3    0  502  0.27363775975E+03 -0.85907323794E+02 -0.18536939922E+03  0.34149598242E+03  0.00000000000E+00 0.  1.
         13    1    5    5    0    0 -0.18477821885E+03  0.33886156719E+03  0.78710862337E+02  0.39391058849E+03  0.00000000000E+00 0. -1.
        -13    1    5    5    0    0 -0.17014877481E+03  0.19358981810E+03  0.63307453780E+01  0.25781330761E+03  0.00000000000E+00 0.  1.
          2    1    6    6  503    0 -0.24777231361E+02 -0.45847366454E+02  0.12839543493E+02  0.53672582217E+02  0.00000000000E+00 0.  1.
         -2    1    6    6    0  503 -0.14885370612E+03 -0.29140544667E+03 -0.14640849100E+03  0.35848292346E+03  0.00000000000E+00 0. -1.
<mgrwt>
<rscale>  0 0.16667135E+04</rscale>
<asrwt>0</asrwt>
<pdfrwt beam="1">  1        2 0.10524165E+00 0.16667135E+04</pdfrwt>
<pdfrwt beam="2">  1       -1 0.15618796E+00 0.16667135E+04</pdfrwt>
<totfact> 0.14362351E+01</totfact>
</mgrwt>
</event>
<event>
12    7  0.2426980E-007  0.3730496E+04  0.7818608E-02  0.8061237E-01
         -1   -1    0    0    0  501 -0.00000000000E+00  0.00000000000E+00  0.13441344918E+04  0.13441344918E+04  0.00000000000E+00 0.  1.
          2   -1    0    0  501    0  0.00000000000E+00 -0.00000000000E+00 -0.25883942121E+04  0.25883942121E+04  0.00000000000E+00 0. -1.
         24    2    1    2    0    0  0.18576419293E+03 -0.17240279968E+04 -0.29778626601E+03  0.17615155580E+04  0.86484286058E+02 0.  0.
        254    2    1    2    0    0 -0.18576419293E+03  0.17240279968E+04 -0.94647345428E+03  0.21710131459E+04  0.90039169856E+03 0.  0.
         23    2    4    4    0    0  0.52166986232E+02  0.13807743721E+04 -0.33516673429E+03  0.14249151919E+04  0.93740617092E+02 0.  0.
         23    2    4    4    0    0 -0.23793117916E+03  0.34325362473E+03 -0.61130671999E+03  0.74609795399E+03  0.92368577662E+02 0.  0.
          4    1    3    3  502    0  0.16373307160E+03 -0.11531524681E+04 -0.21042560078E+03  0.11835742760E+04  0.00000000000E+00 0. -1.
         -3    1    3    3    0  502  0.22031121330E+02 -0.57087552875E+03 -0.87360665228E+02  0.57794128202E+03  0.00000000000E+00 0.  1.
         13    1    5    5    0    0 -0.22559938560E+02  0.37999918381E+03 -0.11256613995E+03  0.39696280227E+03  0.00000000000E+00 0. -1.
        -13    1    5    5    0    0  0.74726924792E+02  0.10007751883E+04 -0.22260059434E+03  0.10279523897E+04  0.00000000000E+00 0.  1.
          3    1    6    6  503    0 -0.81560775855E+02  0.17325257904E+03 -0.33593596009E+03  0.38668021100E+03  0.00000000000E+00 0. -1.
         -3    1    6    6    0  503 -0.15637040331E+03  0.17000104568E+03 -0.27537075990E+03  0.35941774298E+03  0.00000000000E+00 0.  1.
<mgrwt>
<rscale>  0 0.37304959E+04</rscale>
<asrwt>0</asrwt>
<pdfrwt beam="1">  1        2 0.39821449E+00 0.37304959E+04</pdfrwt>
<pdfrwt beam="2">  1       -1 0.20678992E+00 0.37304959E+04</pdfrwt>
<totfact> 0.38289371E-01</totfact>
</mgrwt>
</event>
<event>
12    7  0.2426980E-007  0.2126757E+04  0.7818608E-02  0.8549547E-01
          2   -1    0    0  501    0  0.00000000000E+00  0.00000000000E+00  0.13939963174E+04  0.13939963174E+04  0.00000000000E+00 0. -1.
         -1   -1    0    0    0  501 -0.00000000000E+00 -0.00000000000E+00 -0.81117435374E+03  0.81117435374E+03  0.00000000000E+00 0.  1.
         24    2    1    2    0    0  0.65728881488E+03  0.52049482735E+03  0.48291394987E+03  0.97083868018E+03  0.79864938978E+02 0.  0.
        254    2    1    2    0    0 -0.65728881488E+03 -0.52049482735E+03  0.99908013818E+02  0.12343319910E+04  0.90036126156E+03 0.  0.
         23    2    4    4    0    0 -0.70701019570E+03 -0.37557539425E+03 -0.24776423107E+03  0.84314061083E+03  0.92621173802E+02 0.  0.
         23    2    4    4    0    0  0.49721380823E+02 -0.14491943310E+03  0.34767224489E+03  0.39119138017E+03  0.93171069829E+02 0.  0.
          2    1    3    3  502    0  0.38417744432E+03  0.26819810838E+03  0.30123293334E+03  0.55701329804E+03  0.00000000000E+00 0. -1.
         -1    1    3    3    0  502  0.27311137055E+03  0.25229671897E+03  0.18168101653E+03  0.41382538213E+03  0.00000000000E+00 0.  1.
         13    1    5    5    0    0 -0.56263013778E+03 -0.25553296947E+03 -0.19812375548E+03  0.64892433528E+03  0.00000000000E+00 0.  1.
        -13    1    5    5    0    0 -0.14438005792E+03 -0.12004242479E+03 -0.49640475589E+02  0.19421627555E+03  0.00000000000E+00 0. -1.
          4    1    6    6  503    0  0.19872017249E+02 -0.43252293127E+02  0.22089554963E+03  0.22596570929E+03  0.00000000000E+00 0. -1.
         -4    1    6    6    0  503  0.29849363574E+02 -0.10166713997E+03  0.12677669526E+03  0.16522567088E+03  0.00000000000E+00 0.  1.
<mgrwt>
<rscale>  0 0.21267572E+04</rscale>
<asrwt>0</asrwt>
<pdfrwt beam="1">  1        2 0.21446097E+00 0.21267572E+04</pdfrwt>
<pdfrwt beam="2">  1       -1 0.12479605E+00 0.21267572E+04</pdfrwt>
<totfact> 0.85886258E+00</totfact>
</mgrwt>
</event>
<event>
12    7  0.2426980E-007  0.1902062E+04  0.7818608E-02  0.8653831E-01
         -1   -1    0    0    0  501 -0.00000000000E+00  0.00000000000E+00  0.41151281321E+03  0.41151281321E+03  0.00000000000E+00 0.  1.
          2   -1    0    0  501    0  0.00000000000E+00 -0.00000000000E+00 -0.21978903947E+04  0.21978903947E+04  0.00000000000E+00 0. -1.
         24    2    1    2    0    0  0.62159215228E+03  0.12018650103E+03 -0.12095239219E+04  0.13677887852E+04  0.84121603923E+02 0.  0.
        254    2    1    2    0    0 -0.62159215228E+03 -0.12018650103E+03 -0.57685365959E+03  0.12416144228E+04  0.89890190316E+03 0.  0.
         23    2    4    4    0    0 -0.27660784625E+03 -0.49094843322E+03 -0.20308048752E+03  0.60595411556E+03  0.91632096311E+02 0.  0.
         23    2    4    4    0    0 -0.34498430604E+03  0.37076193219E+03 -0.37377317208E+03  0.63566030723E+03  0.88764070756E+02 0.  0.
          4    1    3    3  502    0  0.30547724920E+03  0.73002151693E+02 -0.68473337050E+03  0.75332957768E+03  0.00000000000E+00 0. -1.
         -3    1    3    3    0  502  0.31611490308E+03  0.47184349338E+02 -0.52479055144E+03  0.61445920747E+03  0.00000000000E+00 0.  1.
         13    1    5    5    0    0 -0.10050673100E+03 -0.10279145251E+03 -0.66252348871E+02  0.15829421789E+03  0.00000000000E+00 0. -1.
        -13    1    5    5    0    0 -0.17610111525E+03 -0.38815698070E+03 -0.13682813865E+03  0.44765989768E+03  0.00000000000E+00 0.  1.
          3    1    6    6  503    0 -0.31833808805E+03  0.36905987806E+03 -0.35666713266E+03  0.60395014316E+03  0.00000000000E+00 0. -1.
         -3    1    6    6    0  503 -0.26646217983E+02  0.17020541221E+01 -0.17106039415E+02  0.31710164073E+02  0.00000000000E+00 0.  1.
<mgrwt>
<rscale>  0 0.19020621E+04</rscale>
<asrwt>0</asrwt>
<pdfrwt beam="1">  1        2 0.33813698E+00 0.19020621E+04</pdfrwt>
<pdfrwt beam="2">  1       -1 0.63309664E-01 0.19020621E+04</pdfrwt>
<totfact> 0.13971711E+01</totfact>
</mgrwt>
</event>
<event>
12    7  0.2426980E-007  0.1715964E+04  0.7818608E-02  0.8752311E-01
          2   -1    0    0  501    0  0.00000000000E+00  0.00000000000E+00  0.11575726815E+04  0.11575726815E+04  0.00000000000E+00 0. -1.
         -1   -1    0    0    0  501 -0.00000000000E+00 -0.00000000000E+00 -0.63592846858E+03  0.63592846858E+03  0.00000000000E+00 0.  1.
         24    2    1    2    0    0  0.53772521219E+03 -0.20994334305E+03 -0.38563627027E+02  0.58659168760E+03  0.96840298986E+02 0.  0.
        254    2    1    2    0    0 -0.53772521219E+03  0.20994334305E+03  0.56020783996E+03  0.12069094625E+04  0.89976275517E+03 0.  0.
         23    2    4    4    0    0 -0.47817719893E+02 -0.31716382533E+03  0.25655929936E+03  0.42061667690E+03  0.90643744207E+02 0.  0.
         23    2    4    4    0    0 -0.48990749230E+03  0.52710716838E+03  0.30364854059E+03  0.78629278560E+03  0.90568153902E+02 0.  0.
          4    1    3    3  502    0  0.19114761748E+03 -0.26504261949E+02 -0.52262831934E+01  0.19304714866E+03  0.00000000000E+00 0. -1.
         -3    1    3    3    0  502  0.34657759471E+03 -0.18343908110E+03 -0.33337343834E+02  0.39354453894E+03  0.00000000000E+00 0.  1.
         13    1    5    5    0    0  0.23836341005E+02 -0.13519239282E+03  0.94978712612E+02  0.16693145323E+03  0.00000000000E+00 0. -1.
        -13    1    5    5    0    0 -0.71654060897E+02 -0.18197143251E+03  0.16158058675E+03  0.25368522367E+03  0.00000000000E+00 0.  1.
          4    1    6    6  503    0 -0.15480859177E+03  0.13874385633E+03  0.12786407625E+03  0.24405896778E+03  0.00000000000E+00 0. -1.
         -4    1    6    6    0  503 -0.33509890053E+03  0.38836331205E+03  0.17578446434E+03  0.54223381782E+03  0.00000000000E+00 0.  1.
<mgrwt>
<rscale>  0 0.17159644E+04</rscale>
<asrwt>0</asrwt>
<pdfrwt beam="1">  1        2 0.17808810E+00 0.17159644E+04</pdfrwt>
<pdfrwt beam="2">  1       -1 0.97835149E-01 0.17159644E+04</pdfrwt>
<totfact> 0.21816328E+01</totfact>
</mgrwt>
</event>
<event>
12    7  0.2426980E-007  0.6043012E+04  0.7818608E-02  0.7685092E-01
         -1   -1    0    0    0  501 -0.00000000000E+00  0.00000000000E+00  0.19231607819E+04  0.19231607819E+04  0.00000000000E+00 0.  1.
          2   -1    0    0  501    0  0.00000000000E+00 -0.00000000000E+00 -0.47471317896E+04  0.47471317896E+04  0.00000000000E+00 0. -1.
         24    2    1    2    0    0 -0.19579746850E+04  0.22118880608E+04 -0.13763042696E+04  0.32598512700E+04  0.79392688219E+02 0.  0.
        254    2    1    2    0    0  0.19579746850E+04 -0.22118880608E+04 -0.14476667381E+04  0.34104413015E+04  0.89958725292E+03 0.  0.
         23    2    4    4    0    0  0.28817403378E+03 -0.41165535615E+03 -0.64864322293E+03  0.82663698746E+03  0.10043043565E+03 0.  0.
         23    2    4    4    0    0  0.16698006512E+04 -0.18002327047E+04 -0.79902351517E+03  0.25838043141E+04  0.92380461041E+02 0.  0.
          4    1    3    3  502    0 -0.80209102407E+03  0.84941119550E+03 -0.53340825196E+03  0.12842794685E+04  0.00000000000E+00 0. -1.
         -3    1    3    3    0  502 -0.11558836609E+04  0.13624768653E+04 -0.84289601765E+03  0.19755718015E+04  0.00000000000E+00 0.  1.
         13    1    5    5    0    0  0.10422345637E+03 -0.23464109754E+03 -0.34159879505E+03  0.42732740409E+03  0.00000000000E+00 0. -1.
        -13    1    5    5    0    0  0.18395057740E+03 -0.17701425861E+03 -0.30704442788E+03  0.39930958337E+03  0.00000000000E+00 0.  1.
          1    1    6    6  503    0  0.52868443887E+03 -0.53288364675E+03 -0.28039411771E+03  0.80130710599E+03  0.00000000000E+00 0. -1.
         -1    1    6    6    0  503  0.11411162124E+04 -0.12673490579E+04 -0.51862939745E+03  0.17824972081E+04  0.00000000000E+00 0.  1.
<mgrwt>
<rscale>  0 0.60430117E+04</rscale>
<asrwt>0</asrwt>
<pdfrwt beam="1">  1        2 0.73032797E+00 0.60430117E+04</pdfrwt>
<pdfrwt beam="2">  1       -1 0.29587089E+00 0.60430117E+04</pdfrwt>
<totfact> 0.17946579E-03</totfact>
</mgrwt>
</event>
<event>
12    7  0.2426980E-007  0.4019950E+04  0.7818608E-02  0.8000534E-01
          2   -1    0    0  501    0  0.00000000000E+00  0.00000000000E+00  0.18007457934E+04  0.18007457934E+04  0.00000000000E+00 0. -1.
         -1   -1    0    0    0  501 -0.00000000000E+00 -0.00000000000E+00 -0.22435144904E+04  0.22435144904E+04  0.00000000000E+00 0.  1.
         24    2    1    2    0    0 -0.15033389237E+04  0.10138738623E+04 -0.80518230249E+03  0.19857189244E+04  0.82419526163E+02 0.  0.
        254    2    1    2    0    0  0.15033389237E+04 -0.10138738623E+04  0.36241360553E+03  0.20585413594E+04  0.90458873447E+03 0.  0.
         23    2    4    4    0    0  0.56441262485E+03 -0.82213407743E+03 -0.68557090596E+02  0.10038519457E+04  0.92480277697E+02 0.  0.
         23    2    4    4    0    0  0.93892629884E+03 -0.19173978490E+03  0.43097069613E+03  0.10546894137E+04  0.91034491789E+02 0.  0.
          4    1    3    3  502    0 -0.10933938763E+04  0.73789879609E+03 -0.62551870503E+03  0.14598898768E+04  0.00000000000E+00 0. -1.
         -3    1    3    3    0  502 -0.40994504738E+03  0.27597506624E+03 -0.17966359746E+03  0.52582904760E+03  0.00000000000E+00 0.  1.
         13    1    5    5    0    0  0.35531635537E+03 -0.58652838614E+03 -0.64871242231E+02  0.68882039619E+03  0.00000000000E+00 0.  1.
        -13    1    5    5    0    0  0.20909626948E+03 -0.23560569129E+03 -0.36858483656E+01  0.31503154946E+03  0.00000000000E+00 0. -1.
          1    1    6    6  503    0  0.31756305499E+02  0.40431575556E+01  0.14184227319E+01  0.32044063178E+02  0.00000000000E+00 0. -1.
         -1    1    6    6    0  503  0.90716999334E+03 -0.19578294246E+03  0.42955227340E+03  0.10226453505E+04  0.00000000000E+00 0.  1.
<mgrwt>
<rscale>  0 0.40199499E+04</rscale>
<asrwt>0</asrwt>
<pdfrwt beam="1">  1        2 0.27703781E+00 0.40199499E+04</pdfrwt>
<pdfrwt beam="2">  1       -1 0.34515607E+00 0.40199499E+04</pdfrwt>
<totfact> 0.12924919E-01</totfact>
</mgrwt>
</event>
<event>
12    7  0.2426980E-007  0.1145282E+04  0.7818608E-02  0.9162147E-01
          2   -1    0    0  501    0  0.00000000000E+00  0.00000000000E+00  0.20828160473E+04  0.20828160473E+04  0.00000000000E+00 0. -1.
         -1   -1    0    0    0  501 -0.00000000000E+00 -0.00000000000E+00 -0.15743956625E+03  0.15743956625E+03  0.00000000000E+00 0.  1.
         24    2    1    2    0    0 -0.13468790158E+03 -0.93938556981E+02  0.11958126049E+03  0.21575155977E+03  0.72689575329E+02 0.  0.
        254    2    1    2    0    0  0.13468790158E+03  0.93938556981E+02  0.18057952206E+04  0.20245040538E+04  0.90041934778E+03 0.  0.
         23    2    4    4    0    0  0.15844198551E+03 -0.26937022039E+03  0.15149715953E+04  0.15494122699E+04  0.88742714402E+02 0.  0.
         23    2    4    4    0    0 -0.23754083925E+02  0.36330877737E+03  0.29082362533E+03  0.47509178388E+03  0.92608303294E+02 0.  0.
          4    1    3    3  502    0 -0.31100939917E+02 -0.31537283864E+02  0.74537273970E+02  0.86704520921E+02  0.00000000000E+00 0. -1.
         -3    1    3    3    0  502 -0.10358696166E+03 -0.62401273117E+02  0.45043986522E+02  0.12904703885E+03  0.00000000000E+00 0.  1.
         13    1    5    5    0    0  0.22506812439E+02 -0.10467691578E+03  0.63049883617E+03  0.63952528934E+03  0.00000000000E+00 0. -1.
        -13    1    5    5    0    0  0.13593517307E+03 -0.16469330461E+03  0.88447275909E+03  0.90988698058E+03  0.00000000000E+00 0.  1.
          1    1    6    6  503    0  0.18018538544E+02  0.17260122252E+03  0.91896355807E+02  0.19636901476E+03  0.00000000000E+00 0. -1.
         -1    1    6    6    0  503 -0.41772622469E+02  0.19070755485E+03  0.19892726952E+03  0.27872276912E+03  0.00000000000E+00 0.  1.
<mgrwt>
<rscale>  0 0.11452819E+04</rscale>
<asrwt>0</asrwt>
<pdfrwt beam="1">  1        2 0.32043322E+00 0.11452819E+04</pdfrwt>
<pdfrwt beam="2">  1       -1 0.24221473E-01 0.11452819E+04</pdfrwt>
<totfact> 0.10044946E+02</totfact>
</mgrwt>
</event>
<event>
12    7  0.2426980E-007  0.1816503E+04  0.7818608E-02  0.8697572E-01
         -1   -1    0    0    0  501 -0.00000000000E+00  0.00000000000E+00  0.97024993112E+03  0.97024993112E+03  0.00000000000E+00 0.  1.
          2   -1    0    0  501    0  0.00000000000E+00 -0.00000000000E+00 -0.85021449132E+03  0.85021449132E+03  0.00000000000E+00 0. -1.
         24    2    1    2    0    0  0.60947323602E+03  0.24957276240E+03  0.22397988511E+03  0.70100608239E+03  0.86593010475E+02 0.  0.
        254    2    1    2    0    0 -0.60947323602E+03 -0.24957276240E+03 -0.10394444531E+03  0.11194583400E+04  0.89924320305E+03 0.  0.
         23    2    4    4    0    0 -0.81895328043E+03 -0.29972711530E+03 -0.48834213860E+02  0.87904712070E+03  0.99087036414E+02 0.  0.
         23    2    4    4    0    0  0.20948004441E+03  0.50154352901E+02 -0.55110231447E+02  0.24041121935E+03  0.91449814958E+02 0.  0.
          4    1    3    3  502    0  0.29453791330E+03  0.74360049719E+02  0.10811417659E+03  0.32244483954E+03  0.00000000000E+00 0. -1.
         -3    1    3    3    0  502  0.31493532272E+03  0.17521271268E+03  0.11586570851E+03  0.37856124285E+03  0.00000000000E+00 0.  1.
         13    1    5    5    0    0 -0.35976712580E+03 -0.17048895532E+03 -0.55531861615E+02  0.40197345229E+03  0.00000000000E+00 0. -1.
        -13    1    5    5    0    0 -0.45918615463E+03 -0.12923815998E+03  0.66976477551E+01  0.47707366840E+03  0.00000000000E+00 0.  1.
          2    1    6    6  503    0  0.15123813096E+03  0.28417298723E+02  0.49596404507E+01  0.15396464905E+03  0.00000000000E+00 0. -1.
         -2    1    6    6    0  503  0.58241913457E+02  0.21737054177E+02 -0.60069871898E+02  0.86446570303E+02  0.00000000000E+00 0.  1.
<mgrwt>
<rscale>  0 0.18165027E+04</rscale>
<asrwt>0</asrwt>
<pdfrwt beam="1">  1        2 0.13080223E+00 0.18165027E+04</pdfrwt>
<pdfrwt beam="2">  1       -1 0.14926922E+00 0.18165027E+04</pdfrwt>
<totfact> 0.12070537E+01</totfact>
</mgrwt>
</event>
<event>
12    7  0.2426980E-007  0.9919623E+03  0.7818608E-02  0.9317405E-01
         -1   -1    0    0    0  501 -0.00000000000E+00  0.00000000000E+00  0.93925147532E+03  0.93925147532E+03  0.00000000000E+00 0.  1.
          2   -1    0    0  501    0  0.00000000000E+00 -0.00000000000E+00 -0.26190781994E+03  0.26190781994E+03  0.00000000000E+00 0. -1.
         24    2    1    2    0    0 -0.17326418196E+01 -0.65039921445E+01  0.11207733722E+03  0.13846258616E+03  0.81026256771E+02 0.  0.
        254    2    1    2    0    0  0.17326418196E+01  0.65039921445E+01  0.56526631816E+03  0.10626967091E+04  0.89986275683E+03 0.  0.
         23    2    4    4    0    0  0.37197617507E+02  0.24388078821E+03 -0.14977374396E+03  0.30285957360E+03  0.91816367465E+02 0.  0.
         23    2    4    4    0    0 -0.35464975687E+02 -0.23737679606E+03  0.71504006211E+03  0.75983713550E+03  0.92003664349E+02 0.  0.
          2    1    3    3  502    0  0.19678590881E+01 -0.43526366807E+02  0.52546051894E+02  0.68260564357E+02  0.00000000000E+00 0. -1.
         -1    1    3    3    0  502 -0.37005009077E+01  0.37022374662E+02  0.59531285328E+02  0.70202021804E+02  0.00000000000E+00 0.  1.
         13    1    5    5    0    0  0.33979359863E+02  0.78133475692E+02 -0.95608797720E+01  0.85737082657E+02  0.00000000000E+00 0. -1.
        -13    1    5    5    0    0  0.32182576435E+01  0.16574731251E+03 -0.14021286419E+03  0.21712249094E+03  0.00000000000E+00 0.  1.
          3    1    6    6  503    0  0.34576712863E+01 -0.64662326223E+02  0.94667081217E+02  0.11469537126E+03  0.00000000000E+00 0. -1.
         -3    1    6    6    0  503 -0.38922646974E+02 -0.17271446984E+03  0.62037298090E+03  0.64514176424E+03  0.00000000000E+00 0.  1.
<mgrwt>
<rscale>  0 0.99196231E+03</rscale>
<asrwt>0</asrwt>
<pdfrwt beam="1">  1        2 0.40293511E-01 0.99196231E+03</pdfrwt>
<pdfrwt beam="2">  1       -1 0.14450023E+00 0.99196231E+03</pdfrwt>
<totfact> 0.56446417E+01</totfact>
</mgrwt>
</event>
<event>
12    7  0.2426980E-007  0.2608845E+04  0.7818608E-02  0.8365203E-01
         -1   -1    0    0    0  501 -0.00000000000E+00  0.00000000000E+00  0.94748836175E+03  0.94748836175E+03  0.00000000000E+00 0.  1.
          2   -1    0    0  501    0  0.00000000000E+00 -0.00000000000E+00 -0.17958194545E+04  0.17958194545E+04  0.00000000000E+00 0. -1.
         24    2    1    2    0    0  0.96437224505E+03 -0.54571336267E+03 -0.60107987779E+02  0.11125255921E+04  0.79267405334E+02 0.  0.
        254    2    1    2    0    0 -0.96437224505E+03  0.54571336267E+03 -0.78822310497E+03  0.16307822242E+04  0.90018781279E+03 0.  0.
         23    2    4    4    0    0 -0.11165842229E+04  0.53960828101E+03 -0.74674987770E+03  0.14506696172E+04  0.94178206276E+02 0.  0.
         23    2    4    4    0    0  0.15221197784E+03  0.61050816662E+01 -0.41473227266E+02  0.18011260703E+03  0.86687740844E+02 0.  0.
          4    1    3    3  502    0  0.42261499076E+03 -0.28438052835E+03 -0.24368906826E+02  0.50997015495E+03  0.00000000000E+00 0. -1.
         -3    1    3    3    0  502  0.54175725429E+03 -0.26133283432E+03 -0.35739080953E+02  0.60255543710E+03  0.00000000000E+00 0.  1.
         13    1    5    5    0    0 -0.21278419557E+03  0.11049126577E+03 -0.18832460740E+03  0.30487963436E+03  0.00000000000E+00 0.  1.
        -13    1    5    5    0    0 -0.90380002732E+03  0.42911701523E+03 -0.55842527030E+03  0.11457899828E+04  0.00000000000E+00 0. -1.
          3    1    6    6  503    0  0.54562497467E+01  0.25866792140E+02 -0.12424071564E+02  0.29209915289E+02  0.00000000000E+00 0. -1.
         -3    1    6    6    0  503  0.14675572809E+03 -0.19761710474E+02 -0.29049155701E+02  0.15090269175E+03  0.00000000000E+00 0.  1.
<mgrwt>
<rscale>  0 0.26088450E+04</rscale>
<asrwt>0</asrwt>
<pdfrwt beam="1">  1        2 0.27627992E+00 0.26088450E+04</pdfrwt>
<pdfrwt beam="2">  1       -1 0.14576744E+00 0.26088450E+04</pdfrwt>
<totfact> 0.32882200E+00</totfact>
</mgrwt>
</event>
<event>
12    7  0.2426980E-007  0.1584524E+04  0.7818608E-02  0.8830112E-01
          2   -1    0    0  501    0  0.00000000000E+00  0.00000000000E+00  0.12392315683E+04  0.12392315683E+04  0.00000000000E+00 0. -1.
         -1   -1    0    0    0  501 -0.00000000000E+00 -0.00000000000E+00 -0.50650658283E+03  0.50650658283E+03  0.00000000000E+00 0.  1.
         24    2    1    2    0    0 -0.29931595170E+03  0.14438260302E+03  0.70281926298E+03  0.78185322061E+03  0.83085300583E+02 0.  0.
        254    2    1    2    0    0  0.29931595170E+03 -0.14438260302E+03  0.29905722475E+02  0.96388493050E+03  0.90429167419E+03 0.  0.
         23    2    4    4    0    0  0.17241134560E+02 -0.20979107573E+02 -0.40990572740E+03  0.42054399895E+03  0.89984276551E+02 0.  0.
         23    2    4    4    0    0  0.28207481714E+03 -0.12340349545E+03  0.43981144987E+03  0.54334093155E+03  0.83609995227E+02 0.  0.
          4    1    3    3  502    0 -0.16839874877E+03  0.69203204665E+02  0.47355485458E+03  0.50734743758E+03  0.00000000000E+00 0. -1.
         -3    1    3    3    0  502 -0.13091720293E+03  0.75179398354E+02  0.22926440840E+03  0.27450578303E+03  0.00000000000E+00 0.  1.
         13    1    5    5    0    0 -0.36944090018E+02 -0.92567868137E+01 -0.14671884948E+03  0.15158157765E+03  0.00000000000E+00 0. -1.
        -13    1    5    5    0    0  0.54185224577E+02 -0.11722320760E+02 -0.26318687792E+03  0.26896242131E+03  0.00000000000E+00 0.  1.
          4    1    6    6  503    0  0.28289459825E+03 -0.11525262967E+03  0.43938599623E+03  0.53513790377E+03  0.00000000000E+00 0.  1.
         -4    1    6    6    0  503 -0.81978110886E+00 -0.81508657752E+01  0.42545364217E+00  0.82030277797E+01  0.00000000000E+00 0. -1.
<mgrwt>
<rscale>  0 0.15845238E+04</rscale>
<asrwt>0</asrwt>
<pdfrwt beam="1">  1        2 0.19065101E+00 0.15845238E+04</pdfrwt>
<pdfrwt beam="2">  1       -1 0.77924090E-01 0.15845238E+04</pdfrwt>
<totfact> 0.32411929E+01</totfact>
</mgrwt>
</event>
<event>
12    7  0.2426980E-007  0.1559671E+04  0.7818608E-02  0.8845714E-01
         -1   -1    0    0    0  501 -0.00000000000E+00  0.00000000000E+00  0.31026312182E+03  0.31026312182E+03  0.00000000000E+00 0.  1.
          2   -1    0    0  501    0  0.00000000000E+00 -0.00000000000E+00 -0.19600900241E+04  0.19600900241E+04  0.00000000000E+00 0. -1.
         24    2    1    2    0    0 -0.35121918850E+03  0.33321211837E+03 -0.29391717366E+03  0.57176987533E+03  0.78410784699E+02 0.  0.
        254    2    1    2    0    0  0.35121918850E+03 -0.33321211837E+03 -0.13559097286E+04  0.16985832706E+04  0.90128169890E+03 0.  0.
         23    2    4    4    0    0  0.33885576866E+03 -0.62353786776E+03 -0.88684274120E+03  0.11394408717E+04  0.90624212715E+02 0.  0.
         23    2    4    4    0    0  0.12363419845E+02  0.29032574939E+03 -0.46906698739E+03  0.55914239889E+03  0.90412878914E+02 0.  0.
          4    1    3    3  502    0 -0.12392976966E+03  0.11287461306E+03 -0.14626763523E+03  0.22247131769E+03  0.00000000000E+00 0. -1.
         -3    1    3    3    0  502 -0.22728941884E+03  0.22033750531E+03 -0.14764953843E+03  0.34929855763E+03  0.00000000000E+00 0.  1.
         13    1    5    5    0    0  0.26647408514E+03 -0.55430225729E+03 -0.75228021109E+03  0.97169179604E+03  0.00000000000E+00 0.  1.
        -13    1    5    5    0    0  0.72381683520E+02 -0.69235610471E+02 -0.13456253012E+03  0.16774907564E+03  0.00000000000E+00 0. -1.
          3    1    6    6  503    0 -0.26068744880E+02  0.38343727331E+02 -0.10428520820E+03  0.11412811018E+03  0.00000000000E+00 0. -1.
         -3    1    6    6    0  503  0.38432164725E+02  0.25198202206E+03 -0.36478177919E+03  0.44501428871E+03  0.00000000000E+00 0.  1.
<mgrwt>
<rscale>  0 0.15596713E+04</rscale>
<asrwt>0</asrwt>
<pdfrwt beam="1">  1        2 0.30155231E+00 0.15596713E+04</pdfrwt>
<pdfrwt beam="2">  1       -1 0.47732789E-01 0.15596713E+04</pdfrwt>
<totfact> 0.33778389E+01</totfact>
</mgrwt>
</event>
<event>
12    7  0.2426980E-007  0.2643390E+04  0.7818608E-02  0.8353610E-01
          2   -1    0    0  501    0  0.00000000000E+00  0.00000000000E+00  0.20480490627E+04  0.20480490627E+04  0.00000000000E+00 0. -1.
         -1   -1    0    0    0  501 -0.00000000000E+00 -0.00000000000E+00 -0.85294692134E+03  0.85294692134E+03  0.00000000000E+00 0.  1.
         24    2    1    2    0    0 -0.87368416283E+03  0.76414965138E+03  0.67275481682E+03  0.13440770164E+04  0.81824667883E+02 0.  0.
        254    2    1    2    0    0  0.87368416283E+03 -0.76414965138E+03  0.52234732458E+03  0.15569189677E+04  0.89660539730E+03 0.  0.
         23    2    4    4    0    0 -0.17191558447E+03 -0.65059808560E+02  0.82681596871E+02  0.22131034977E+03  0.91401737299E+02 0.  0.
         23    2    4    4    0    0  0.10455997473E+04 -0.69908984282E+03  0.43966572771E+03  0.13356086179E+04  0.92406646546E+02 0.  0.
          4    1    3    3  502    0 -0.26054440743E+03  0.18218102492E+03  0.19786108400E+03  0.37446271196E+03  0.00000000000E+00 0. -1.
         -3    1    3    3    0  502 -0.61313975540E+03  0.58196862646E+03  0.47489373283E+03  0.96961430441E+03  0.00000000000E+00 0.  1.
         13    1    5    5    0    0 -0.13371537719E+03 -0.13392594094E+02  0.28759353126E+02  0.13742730466E+03  0.00000000000E+00 0. -1.
        -13    1    5    5    0    0 -0.38200207282E+02 -0.51667214466E+02  0.53922243745E+02  0.83883045114E+02  0.00000000000E+00 0.  1.
          1    1    6    6  503    0  0.86093223598E+03 -0.61631457296E+03  0.36828311491E+03  0.11210175826E+04  0.00000000000E+00 0. -1.
         -1    1    6    6    0  503  0.18466751132E+03 -0.82775269862E+02  0.71382612801E+02  0.21459103534E+03  0.00000000000E+00 0.  1.
<mgrwt>
<rscale>  0 0.26433896E+04</rscale>
<asrwt>0</asrwt>
<pdfrwt beam="1">  1        2 0.31508447E+00 0.26433896E+04</pdfrwt>
<pdfrwt beam="2">  1       -1 0.13122260E+00 0.26433896E+04</pdfrwt>
<totfact> 0.31194018E+00</totfact>
</mgrwt>
</event>
<event>
12    7  0.2426980E-007  0.2651932E+04  0.7818608E-02  0.8350772E-01
          2   -1    0    0  501    0  0.00000000000E+00  0.00000000000E+00  0.15487583757E+04  0.15487583757E+04  0.00000000000E+00 0. -1.
         -1   -1    0    0    0  501 -0.00000000000E+00 -0.00000000000E+00 -0.11352228693E+04  0.11352228693E+04  0.00000000000E+00 0.  1.
         24    2    1    2    0    0 -0.15121023489E+03  0.10503512815E+04 -0.31786091619E+03  0.11129993548E+04  0.10784086460E+03 0.  0.
        254    2    1    2    0    0  0.15121023489E+03 -0.10503512815E+04  0.73139642260E+03  0.15709818903E+04  0.89829896083E+03 0.  0.
         23    2    4    4    0    0 -0.10071676031E+03 -0.65883217126E+03 -0.30127682172E+02  0.67380612219E+03  0.94357391709E+02 0.  0.
         23    2    4    4    0    0  0.25192699520E+03 -0.39151911022E+03  0.76152410477E+03  0.89717576811E+03  0.90834862060E+02 0.  0.
          2    1    3    3  502    0 -0.41931074922E+02  0.64769902217E+03 -0.17910912921E+03  0.67331442768E+03  0.00000000000E+00 0. -1.
         -1    1    3    3    0  502 -0.10927915997E+03  0.40265225931E+03 -0.13875178698E+03  0.43968492711E+03  0.00000000000E+00 0.  1.
         13    1    5    5    0    0 -0.94338056136E+02 -0.65979527464E+03 -0.28320775943E+02  0.66710684274E+03  0.00000000000E+00 0. -1.
        -13    1    5    5    0    0 -0.63787041743E+01  0.96310338095E+00 -0.18069062286E+01  0.66992794527E+01  0.00000000000E+00 0.  1.
          2    1    6    6  503    0  0.14022585214E+03 -0.29509363119E+03  0.51754544193E+03  0.61204315635E+03  0.00000000000E+00 0. -1.
         -2    1    6    6    0  503  0.11170114307E+03 -0.96425479033E+02  0.24397866284E+03  0.28513261176E+03  0.00000000000E+00 0.  1.
<mgrwt>
<rscale>  0 0.26519321E+04</rscale>
<asrwt>0</asrwt>
<pdfrwt beam="1">  1        2 0.23827052E+00 0.26519321E+04</pdfrwt>
<pdfrwt beam="2">  1       -1 0.17464967E+00 0.26519321E+04</pdfrwt>
<totfact> 0.27192045E+00</totfact>
</mgrwt>
</event>
<event>
12    7  0.2426980E-007  0.2259611E+04  0.7818608E-02  0.8494018E-01
          2   -1    0    0  501    0  0.00000000000E+00  0.00000000000E+00  0.18547732604E+04  0.18547732604E+04  0.00000000000E+00 0. -1.
         -1   -1    0    0    0  501 -0.00000000000E+00 -0.00000000000E+00 -0.68820317146E+03  0.68820317146E+03  0.00000000000E+00 0.  1.
         24    2    1    2    0    0 -0.10445008798E+03  0.81963000790E+03  0.10159125295E+04  0.13118795324E+04  0.79034606580E+02 0.  0.
        254    2    1    2    0    0  0.10445008798E+03 -0.81963000790E+03  0.15065755942E+03  0.12310968995E+04  0.90011038493E+03 0.  0.
         23    2    4    4    0    0  0.42946671313E+03 -0.73403969957E+03  0.20638580360E+03  0.88020740135E+03  0.94414147382E+02 0.  0.
         23    2    4    4    0    0 -0.32501662515E+03 -0.85590308331E+02 -0.55728244180E+02  0.35088949817E+03  0.84001757248E+02 0.  0.
          4    1    3    3  502    0 -0.59978179450E+02  0.34733907125E+03  0.49029535007E+03  0.60384711867E+03  0.00000000000E+00 0. -1.
         -3    1    3    3    0  502 -0.44471908529E+02  0.47229093665E+03  0.52561717948E+03  0.70803241370E+03  0.00000000000E+00 0.  1.
         13    1    5    5    0    0  0.36179852355E+03 -0.57848451626E+03  0.19760084517E+03  0.71034400202E+03  0.00000000000E+00 0.  1.
        -13    1    5    5    0    0  0.67668189581E+02 -0.15555518331E+03  0.87849584291E+01  0.16986339933E+03  0.00000000000E+00 0. -1.
          2    1    6    6  503    0 -0.32111255175E+01 -0.15624345777E+02  0.33758232498E+01  0.16304223093E+02  0.00000000000E+00 0. -1.
         -2    1    6    6    0  503 -0.32180549963E+03 -0.69965962554E+02 -0.59104067430E+02  0.33458527508E+03  0.00000000000E+00 0.  1.
<mgrwt>
<rscale>  0 0.22596113E+04</rscale>
<asrwt>0</asrwt>
<pdfrwt beam="1">  1        2 0.28534973E+00 0.22596113E+04</pdfrwt>
<pdfrwt beam="2">  1       -1 0.10587741E+00 0.22596113E+04</pdfrwt>
<totfact> 0.69556968E+00</totfact>
</mgrwt>
</event>
<event>
12    7  0.2426980E-007  0.1858319E+04  0.7818608E-02  0.8675886E-01
          2   -1    0    0  501    0  0.00000000000E+00  0.00000000000E+00  0.10073401672E+04  0.10073401672E+04  0.00000000000E+00 0. -1.
         -1   -1    0    0    0  501 -0.00000000000E+00 -0.00000000000E+00 -0.85704664485E+03  0.85704664485E+03  0.00000000000E+00 0.  1.
         24    2    1    2    0    0 -0.18307573843E+02  0.51820312896E+03  0.54205672577E+03  0.75463316785E+03  0.82316911661E+02 0.  0.
        254    2    1    2    0    0  0.18307573843E+02 -0.51820312896E+03 -0.39176320341E+03  0.11097536442E+04  0.89955827668E+03 0.  0.
         23    2    4    4    0    0 -0.29550899307E+03 -0.58763772892E+03 -0.11003552179E+03  0.67299466697E+03  0.90389934619E+02 0.  0.
         23    2    4    4    0    0  0.31381656691E+03  0.69434599958E+02 -0.28172768162E+03  0.43675897723E+03  0.89921722993E+02 0.  0.
          4    1    3    3  502    0 -0.14827277586E+02  0.89362946697E+02  0.14022318129E+03  0.16693748822E+03  0.00000000000E+00 0. -1.
         -3    1    3    3    0  502 -0.34802962573E+01  0.42884018226E+03  0.40183354448E+03  0.58769567963E+03  0.00000000000E+00 0.  1.
         13    1    5    5    0    0 -0.13280276143E+03 -0.31505403997E+03 -0.96489894042E+02  0.35525472720E+03  0.00000000000E+00 0.  1.
        -13    1    5    5    0    0 -0.16270623163E+03 -0.27258368894E+03 -0.13545627750E+02  0.31773993976E+03  0.00000000000E+00 0. -1.
          2    1    6    6  503    0  0.21641388215E+02 -0.13721981527E+02 -0.44402905571E+02  0.51266563021E+02  0.00000000000E+00 0. -1.
         -2    1    6    6    0  503  0.29217517869E+03  0.83156581485E+02 -0.23732477605E+03  0.38549241421E+03  0.00000000000E+00 0.  1.
<mgrwt>
<rscale>  0 0.18583191E+04</rscale>
<asrwt>0</asrwt>
<pdfrwt beam="1">  1        2 0.15497541E+00 0.18583191E+04</pdfrwt>
<pdfrwt beam="2">  1       -1 0.13185333E+00 0.18583191E+04</pdfrwt>
<totfact> 0.13069526E+01</totfact>
</mgrwt>
</event>
<event>
12    7  0.2426980E-007  0.1377517E+04  0.7818608E-02  0.8970256E-01
          2   -1    0    0  501    0  0.00000000000E+00  0.00000000000E+00  0.10277014915E+04  0.10277014915E+04  0.00000000000E+00 0. -1.
         -1   -1    0    0    0  501 -0.00000000000E+00 -0.00000000000E+00 -0.46160121980E+03  0.46160121980E+03  0.00000000000E+00 0.  1.
         24    2    1    2    0    0 -0.13164970207E+03 -0.36495776400E+03  0.19242948977E+03  0.44035151604E+03  0.79715340954E+02 0.  0.
        254    2    1    2    0    0  0.13164970207E+03  0.36495776400E+03  0.37367078190E+03  0.10489511952E+04  0.90007940937E+03 0.  0.
         23    2    4    4    0    0 -0.26376724368E+03  0.35830547477E+03  0.44562876404E+03  0.63623767025E+03  0.90870268081E+02 0.  0.
         23    2    4    4    0    0  0.39541694575E+03  0.66522892354E+01 -0.71957982140E+02  0.41271352498E+03  0.93571836376E+02 0.  0.
          2    1    3    3  502    0 -0.11025900963E+03 -0.23019799158E+03  0.15594753174E+03  0.29911168013E+03  0.00000000000E+00 0. -1.
         -1    1    3    3    0  502 -0.21390692439E+02 -0.13475977242E+03  0.36481958023E+02  0.14123983591E+03  0.00000000000E+00 0.  1.
         13    1    5    5    0    0 -0.13379226742E+03  0.18702493478E+03  0.29346996158E+03  0.37283148392E+03  0.00000000000E+00 0.  1.
        -13    1    5    5    0    0 -0.12997497626E+03  0.17128053999E+03  0.15215880246E+03  0.26340618633E+03  0.00000000000E+00 0. -1.
          2    1    6    6  503    0  0.36104598483E+03 -0.56087018261E+01 -0.38380112438E+02  0.36312352406E+03  0.00000000000E+00 0. -1.
         -2    1    6    6    0  503  0.34370960923E+02  0.12260991061E+02 -0.33577869702E+02  0.49590000910E+02  0.00000000000E+00 0.  1.
<mgrwt>
<rscale>  0 0.13775170E+04</rscale>
<asrwt>0</asrwt>
<pdfrwt beam="1">  1        2 0.15810792E+00 0.13775170E+04</pdfrwt>
<pdfrwt beam="2">  1       -1 0.71015572E-01 0.13775170E+04</pdfrwt>
<totfact> 0.53871300E+01</totfact>
</mgrwt>
</event>
<event>
12    7  0.2426980E-007  0.1627671E+04  0.7818608E-02  0.8803727E-01
         -1   -1    0    0    0  501 -0.00000000000E+00  0.00000000000E+00  0.43402892284E+03  0.43402892284E+03  0.00000000000E+00 0.  1.
          2   -1    0    0  501    0  0.00000000000E+00 -0.00000000000E+00 -0.15260002198E+04  0.15260002198E+04  0.00000000000E+00 0. -1.
         24    2    1    2    0    0 -0.11785136476E+03  0.91192031921E+02  0.26900557867E+03  0.31740256332E+03  0.78584063192E+02 0.  0.
        254    2    1    2    0    0  0.11785136476E+03 -0.91192031921E+02 -0.13609768757E+04  0.16426265794E+04  0.90761175194E+03 0.  0.
         23    2    4    4    0    0  0.43483002943E+03  0.40818265935E+02 -0.33837301080E+03  0.55993707614E+03  0.91049159640E+02 0.  0.
         23    2    4    4    0    0 -0.31697866467E+03 -0.13201029786E+03 -0.10226038649E+04  0.10826895032E+04  0.92713016049E+02 0.  0.
          2    1    3    3  502    0 -0.94801936066E+01  0.34521450758E+01 -0.39972585880E+01  0.10852163501E+02  0.00000000000E+00 0. -1.
         -1    1    3    3    0  502 -0.10837117115E+03  0.87739886845E+02  0.27300283725E+03  0.30655039982E+03  0.00000000000E+00 0.  1.
         13    1    5    5    0    0  0.40974186188E+03  0.14932362465E+02 -0.31366887264E+03  0.51623592522E+03  0.00000000000E+00 0. -1.
        -13    1    5    5    0    0  0.25088167552E+02  0.25885903470E+02 -0.24704138153E+02  0.43701150917E+02  0.00000000000E+00 0.  1.
          2    1    6    6  503    0 -0.16240576213E+03 -0.21450594173E+02 -0.52813412799E+03  0.55295697546E+03  0.00000000000E+00 0. -1.
         -2    1    6    6    0  503 -0.15457290255E+03 -0.11055970368E+03 -0.49446973688E+03  0.52973252776E+03  0.00000000000E+00 0.  1.
<mgrwt>
<rscale>  0 0.16276710E+04</rscale>
<asrwt>0</asrwt>
<pdfrwt beam="1">  1        2 0.23476927E+00 0.16276710E+04</pdfrwt>
<pdfrwt beam="2">  1       -1 0.66773679E-01 0.16276710E+04</pdfrwt>
<totfact> 0.30404037E+01</totfact>
</mgrwt>
</event>
<event>
12    7  0.2426980E-007  0.1764179E+04  0.7818608E-02  0.8725584E-01
          2   -1    0    0  501    0  0.00000000000E+00  0.00000000000E+00  0.21412967029E+04  0.21412967029E+04  0.00000000000E+00 0. -1.
         -1   -1    0    0    0  501 -0.00000000000E+00 -0.00000000000E+00 -0.36336930116E+03  0.36336930116E+03  0.00000000000E+00 0.  1.
         24    2    1    2    0    0  0.37709553135E+03  0.27431185144E+03  0.13027320162E+04  0.13860650017E+04  0.81347718853E+02 0.  0.
        254    2    1    2    0    0 -0.37709553135E+03 -0.27431185144E+03  0.47519538559E+03  0.11186010024E+04  0.89889349561E+03 0.  0.
         23    2    4    4    0    0  0.21206341214E+03  0.37602955934E+02 -0.77345996912E+02  0.24796592885E+03  0.95497777825E+02 0.  0.
         23    2    4    4    0    0 -0.58915894349E+03 -0.31191480737E+03  0.55254138250E+03  0.87063507353E+03  0.91128174228E+02 0.  0.
          2    1    3    3  502    0  0.29578397989E+03  0.25117029082E+03  0.10987455547E+04  0.11652538229E+04  0.00000000000E+00 0. -1.
         -3    1    3    3    0  502  0.81311551462E+02  0.23141560616E+02  0.20398646151E+03  0.22081117886E+03  0.00000000000E+00 0.  1.
         13    1    5    5    0    0  0.64887627831E+02  0.91181524524E+01  0.20847888809E+02  0.68761758395E+02  0.00000000000E+00 0.  1.
        -13    1    5    5    0    0  0.14717578431E+03  0.28484803482E+02 -0.98193885721E+02  0.17920417046E+03  0.00000000000E+00 0. -1.
          2    1    6    6  503    0 -0.34930324069E+03 -0.16434312960E+03  0.37208705174E+03  0.53616246818E+03  0.00000000000E+00 0. -1.
         -2    1    6    6    0  503 -0.23985570280E+03 -0.14757167778E+03  0.18045433075E+03  0.33447260536E+03  0.00000000000E+00 0.  1.
<mgrwt>
<rscale>  0 0.17641785E+04</rscale>
<asrwt>0</asrwt>
<pdfrwt beam="1">  1        2 0.32943026E+00 0.17641785E+04</pdfrwt>
<pdfrwt beam="2">  1       -1 0.55902970E-01 0.17641785E+04</pdfrwt>
<totfact> 0.19447441E+01</totfact>
</mgrwt>
</event>
<event>
12    7  0.2426980E-007  0.1731845E+04  0.7818608E-02  0.8743407E-01
         -1   -1    0    0    0  501 -0.00000000000E+00  0.00000000000E+00  0.69418777049E+03  0.69418777049E+03  0.00000000000E+00 0.  1.
          2   -1    0    0  501    0  0.00000000000E+00 -0.00000000000E+00 -0.10801429517E+04  0.10801429517E+04  0.00000000000E+00 0. -1.
         24    2    1    2    0    0  0.44540772035E+03 -0.42550374607E+03 -0.11606056068E+02  0.62120576580E+03  0.79501117368E+02 0.  0.
        254    2    1    2    0    0 -0.44540772035E+03  0.42550374607E+03 -0.37434912518E+03  0.11531249564E+04  0.90006578778E+03 0.  0.
         23    2    4    4    0    0 -0.66708976750E+03  0.34839908447E+03 -0.46278046739E+03  0.88821173458E+03  0.91452963238E+02 0.  0.
         23    2    4    4    0    0  0.22168204715E+03  0.77104661596E+02  0.88431342208E+02  0.26491322184E+03  0.85269302516E+02 0.  0.
          2    1    3    3  502    0  0.13715889517E+03 -0.12423440527E+03 -0.39697264511E+02  0.18926865241E+03  0.00000000000E+00 0. -1.
         -1    1    3    3    0  502  0.30824882518E+03 -0.30126934080E+03  0.28091208444E+02  0.43193711339E+03  0.00000000000E+00 0.  1.
         13    1    5    5    0    0 -0.16772506261E+01  0.49269150735E+01  0.33174180919E+01  0.61719465812E+01  0.00000000000E+00 0.  1.
        -13    1    5    5    0    0 -0.66541251687E+03  0.34347216940E+03 -0.46609788548E+03  0.88203978800E+03  0.00000000000E+00 0. -1.
          3    1    6    6  503    0  0.18013913993E+03  0.51333766959E+02  0.31615590607E+02  0.18996002457E+03  0.00000000000E+00 0. -1.
         -3    1    6    6    0  503  0.41542907218E+02  0.25770894636E+02  0.56815751601E+02  0.74953197267E+02  0.00000000000E+00 0.  1.
<mgrwt>
<rscale>  0 0.17318453E+04</rscale>
<asrwt>0</asrwt>
<pdfrwt beam="1">  1        2 0.16617584E+00 0.17318453E+04</pdfrwt>
<pdfrwt beam="2">  1       -1 0.10679812E+00 0.17318453E+04</pdfrwt>
<totfact> 0.19857431E+01</totfact>
</mgrwt>
</event>
<event>
12    7  0.2426980E-007  0.2475843E+04  0.7818608E-02  0.8411642E-01
         -1   -1    0    0    0  501 -0.00000000000E+00  0.00000000000E+00  0.52417304466E+03  0.52417304466E+03  0.00000000000E+00 0.  1.
          2   -1    0    0  501    0  0.00000000000E+00 -0.00000000000E+00 -0.29235573291E+04  0.29235573291E+04  0.00000000000E+00 0. -1.
         24    2    1    2    0    0  0.16874813370E+03 -0.10517685932E+04 -0.86838896738E+03  0.13766607929E+04  0.80015209650E+02 0.  0.
        254    2    1    2    0    0 -0.16874813370E+03  0.10517685932E+04 -0.15309953170E+04  0.20710695808E+04  0.90038294163E+03 0.  0.
         23    2    4    4    0    0  0.25620885617E+03  0.77672028018E+03 -0.12133284732E+04  0.14662755099E+04  0.94130311237E+02 0.  0.
         23    2    4    4    0    0 -0.42495698987E+03  0.27504831302E+03 -0.31766684386E+03  0.60479407093E+03  0.92863484790E+02 0.  0.
          2    1    3    3  502    0  0.60890536040E+02 -0.34805896640E+03 -0.24070462321E+03  0.42754112914E+03  0.00000000000E+00 0. -1.
         -3    1    3    3    0  502  0.10785759766E+03 -0.70370962680E+03 -0.62768434418E+03  0.94911966376E+03  0.00000000000E+00 0.  1.
         13    1    5    5    0    0  0.23390131749E+03  0.72197346170E+03 -0.10755007097E+04  0.13163044034E+04  0.00000000000E+00 0. -1.
        -13    1    5    5    0    0  0.22307538679E+02  0.54746818479E+02 -0.13782776343E+03  0.14997110651E+03  0.00000000000E+00 0.  1.
          1    1    6    6  503    0 -0.14611154531E+03  0.11576015810E+03 -0.16615129924E+03  0.24971033642E+03  0.00000000000E+00 0. -1.
         -1    1    6    6    0  503 -0.27884544456E+03  0.15928815492E+03 -0.15151554461E+03  0.35508373450E+03  0.00000000000E+00 0.  1.
<mgrwt>
<rscale>  0 0.24758432E+04</rscale>
<asrwt>0</asrwt>
<pdfrwt beam="1">  1        2 0.44977804E+00 0.24758432E+04</pdfrwt>
<pdfrwt beam="2">  1       -1 0.80642009E-01 0.24758432E+04</pdfrwt>
<totfact> 0.30285406E+00</totfact>
</mgrwt>
</event>
<event>
12    7  0.2426980E-007  0.2350089E+04  0.7818608E-02  0.8458430E-01
         -1   -1    0    0    0  501 -0.00000000000E+00  0.00000000000E+00  0.72335228802E+03  0.72335228802E+03  0.00000000000E+00 0.  1.
          2   -1    0    0  501    0  0.00000000000E+00 -0.00000000000E+00 -0.19087922686E+04  0.19087922686E+04  0.00000000000E+00 0. -1.
         24    2    1    2    0    0 -0.66273810229E+03 -0.99282098374E+02 -0.13389850547E+04  0.14994714288E+04  0.80342154376E+02 0.  0.
        254    2    1    2    0    0  0.66273810229E+03  0.99282098374E+02  0.15354507411E+03  0.11326731278E+04  0.90016309491E+03 0.  0.
         23    2    4    4    0    0  0.73330472309E+03  0.20723644133E+03  0.37975754000E+03  0.85602119622E+03  0.88734095345E+02 0.  0.
         23    2    4    4    0    0 -0.70566620794E+02 -0.10795434296E+03 -0.22621246589E+03  0.27665193161E+03  0.93436734773E+02 0.  0.
          2    1    3    3  502    0 -0.53843004851E+03 -0.10497132766E+03 -0.11330410973E+04  0.12588518678E+04  0.00000000000E+00 0. -1.
         -1    1    3    3    0  502 -0.12430805378E+03  0.56892292874E+01 -0.20594395731E+03  0.24061956096E+03  0.00000000000E+00 0.  1.
         13    1    5    5    0    0  0.20847760790E+03  0.20362428199E+02  0.11899488462E+03  0.24090936894E+03  0.00000000000E+00 0. -1.
        -13    1    5    5    0    0  0.52482711519E+03  0.18687401313E+03  0.26076265538E+03  0.61511182729E+03  0.00000000000E+00 0.  1.
          3    1    6    6  503    0 -0.25012393857E+02  0.18049008353E+01 -0.10082521228E+03  0.10389706899E+03  0.00000000000E+00 0. -1.
         -3    1    6    6    0  503 -0.45554226938E+02 -0.10975924380E+03 -0.12538725361E+03  0.17275486262E+03  0.00000000000E+00 0.  1.
<mgrwt>
<rscale>  0 0.23500887E+04</rscale>
<asrwt>0</asrwt>
<pdfrwt beam="1">  1        2 0.29366035E+00 0.23500887E+04</pdfrwt>
<pdfrwt beam="2">  1       -1 0.11128497E+00 0.23500887E+04</pdfrwt>
<totfact> 0.57287795E+00</totfact>
</mgrwt>
</event>
<event>
12    7  0.2426980E-007  0.1725309E+04  0.7818608E-02  0.8747060E-01
          2   -1    0    0  501    0  0.00000000000E+00  0.00000000000E+00  0.10202017816E+04  0.10202017816E+04  0.00000000000E+00 0. -1.
         -1   -1    0    0    0  501 -0.00000000000E+00 -0.00000000000E+00 -0.72943660731E+03  0.72943660731E+03  0.00000000000E+00 0.  1.
         24    2    1    2    0    0 -0.63490771470E+02  0.61041832640E+03  0.20755238254E+03  0.65279913439E+03  0.80169240325E+02 0.  0.
        254    2    1    2    0    0  0.63490771470E+02 -0.61041832640E+03  0.83212791711E+02  0.10968392545E+04  0.90525707411E+03 0.  0.
         23    2    4    4    0    0 -0.16589903940E+03 -0.67093517608E+03 -0.19266741841E+03  0.72333928900E+03  0.91774130937E+02 0.  0.
         23    2    4    4    0    0  0.22938981087E+03  0.60516849684E+02  0.27588021013E+03  0.37349996549E+03  0.84322947399E+02 0.  0.
          4    1    3    3  502    0 -0.64253819775E+02  0.26700454374E+03  0.10958812966E+03  0.29568486248E+03  0.00000000000E+00 0. -1.
         -3    1    3    3    0  502  0.76304830513E+00  0.34341378265E+03  0.97964252877E+02  0.35711427191E+03  0.00000000000E+00 0.  1.
         13    1    5    5    0    0 -0.40264567531E+02 -0.31956538230E+03 -0.11633112624E+03  0.34245612842E+03  0.00000000000E+00 0. -1.
        -13    1    5    5    0    0 -0.12563447187E+03 -0.35136979378E+03 -0.76336292172E+02  0.38088316057E+03  0.00000000000E+00 0.  1.
          2    1    6    6  503    0  0.79288253286E+02 -0.14710371068E+02  0.11876062868E+03  0.14355176436E+03  0.00000000000E+00 0. -1.
         -2    1    6    6    0  503  0.15010155759E+03  0.75227220752E+02  0.15711958144E+03  0.22994820113E+03  0.00000000000E+00 0.  1.
<mgrwt>
<rscale>  0 0.17253087E+04</rscale>
<asrwt>0</asrwt>
<pdfrwt beam="1">  1        2 0.15695412E+00 0.17253087E+04</pdfrwt>
<pdfrwt beam="2">  1       -1 0.11222102E+00 0.17253087E+04</pdfrwt>
<totfact> 0.19280839E+01</totfact>
</mgrwt>
</event>
<event>
12    7  0.2426980E-007  0.2768925E+04  0.7818608E-02  0.8312981E-01
         -1   -1    0    0    0  501 -0.00000000000E+00  0.00000000000E+00  0.53759855520E+03  0.53759855520E+03  0.00000000000E+00 0.  1.
          2   -1    0    0  501    0  0.00000000000E+00 -0.00000000000E+00 -0.35653682291E+04  0.35653682291E+04  0.00000000000E+00 0. -1.
         24    2    1    2    0    0 -0.10084344503E+04  0.55538898680E+03 -0.20245081284E+04  0.23303067941E+04  0.79370178986E+02 0.  0.
        254    2    1    2    0    0  0.10084344503E+04 -0.55538898680E+03 -0.10032615455E+04  0.17726599902E+04  0.90021816529E+03 0.  0.
         23    2    4    4    0    0  0.82014914672E+03 -0.72387412141E+03 -0.10265372607E+04  0.15028735620E+04  0.90619143018E+02 0.  0.
         23    2    4    4    0    0  0.18828530356E+03  0.16848513461E+03  0.23275715234E+02  0.26978642827E+03  0.91675306574E+02 0.  0.
          4    1    3    3  502    0 -0.78998125471E+03  0.40938675540E+03 -0.16111108615E+04  0.18404744243E+04  0.00000000000E+00 0. -1.
         -3    1    3    3    0  502 -0.21845319557E+03  0.14600223140E+03 -0.41339726689E+03  0.48983236979E+03  0.00000000000E+00 0.  1.
         13    1    5    5    0    0  0.51076813427E+03 -0.39159823383E+03 -0.60811873729E+03  0.88546127096E+03  0.00000000000E+00 0. -1.
        -13    1    5    5    0    0  0.30938101245E+03 -0.33227588758E+03 -0.41841852341E+03  0.61741229099E+03  0.00000000000E+00 0.  1.
          4    1    6    6  503    0  0.76505541053E+02  0.14270697666E+02  0.14166674386E+02  0.79104015618E+02  0.00000000000E+00 0.  1.
         -4    1    6    6    0  503  0.11177976251E+03  0.15421443694E+03  0.91090408479E+01  0.19068241265E+03  0.00000000000E+00 0. -1.
<mgrwt>
<rscale>  0 0.27689253E+04</rscale>
<asrwt>0</asrwt>
<pdfrwt beam="1">  1        2 0.54851819E+00 0.27689253E+04</pdfrwt>
<pdfrwt beam="2">  1       -1 0.82707469E-01 0.27689253E+04</pdfrwt>
<totfact> 0.10527462E+00</totfact>
</mgrwt>
</event>
<event>
12    7  0.2426980E-007  0.1925342E+04  0.7818608E-02  0.8642344E-01
         -1   -1    0    0    0  501 -0.00000000000E+00  0.00000000000E+00  0.58036145455E+03  0.58036145455E+03  0.00000000000E+00 0.  1.
          2   -1    0    0  501    0  0.00000000000E+00 -0.00000000000E+00 -0.15968247016E+04  0.15968247016E+04  0.00000000000E+00 0. -1.
         24    2    1    2    0    0  0.40833926350E+03  0.50351346131E+03 -0.82254840724E+03  0.10503342186E+04  0.79682674998E+02 0.  0.
        254    2    1    2    0    0 -0.40833926350E+03 -0.50351346131E+03 -0.19391483982E+03  0.11268519376E+04  0.90106912289E+03 0.  0.
         23    2    4    4    0    0 -0.88839261781E+02 -0.41336330970E+03 -0.50350743812E+03  0.66345634097E+03  0.88842196566E+02 0.  0.
         23    2    4    4    0    0 -0.31950000172E+03 -0.90150151615E+02  0.30959259829E+03  0.46339559659E+03  0.93169743398E+02 0.  0.
          2    1    3    3  502    0  0.27089737723E+03  0.36366354229E+03 -0.62308888280E+03  0.77063371121E+03  0.00000000000E+00 0. -1.
         -1    1    3    3    0  502  0.13744188627E+03  0.13984991902E+03 -0.19945952444E+03  0.27970050740E+03  0.00000000000E+00 0.  1.
         13    1    5    5    0    0 -0.30738989774E+02 -0.23379207493E+03 -0.21755029960E+03  0.32082978766E+03  0.00000000000E+00 0. -1.
        -13    1    5    5    0    0 -0.58100272007E+02 -0.17957123477E+03 -0.28595713852E+03  0.34262655331E+03  0.00000000000E+00 0.  1.
          2    1    6    6  503    0 -0.29882108732E+03 -0.10431491181E+03  0.26750058264E+03  0.41440584548E+03  0.00000000000E+00 0.  1.
         -2    1    6    6    0  503 -0.20678914395E+02  0.14164760195E+02  0.42092015652E+02  0.48989751108E+02  0.00000000000E+00 0. -1.
<mgrwt>
<rscale>  0 0.19253421E+04</rscale>
<asrwt>0</asrwt>
<pdfrwt beam="1">  1        2 0.24566534E+00 0.19253421E+04</pdfrwt>
<pdfrwt beam="2">  1       -1 0.89286378E-01 0.19253421E+04</pdfrwt>
<totfact> 0.14657356E+01</totfact>
</mgrwt>
</event>
<event>
12    7  0.2426980E-007  0.1550614E+04  0.7818608E-02  0.8851476E-01
          2   -1    0    0  501    0  0.00000000000E+00  0.00000000000E+00  0.18096475135E+04  0.18096475135E+04  0.00000000000E+00 0. -1.
         -3   -1    0    0    0  501 -0.00000000000E+00 -0.00000000000E+00 -0.33216446925E+03  0.33216446925E+03  0.00000000000E+00 0.  1.
         24    2    1    2    0    0  0.19823367881E+03  0.67954677260E+01 -0.15655968224E+03  0.26537600084E+03  0.81059965007E+02 0.  0.
        254    2    1    2    0    0 -0.19823367881E+03 -0.67954677260E+01  0.16340427265E+04  0.18764359819E+04  0.90087379386E+03 0.  0.
         23    2    4    4    0    0  0.16029617927E+03 -0.33769839566E+03  0.44520412066E+03  0.58814081565E+03  0.89262749597E+02 0.  0.
         23    2    4    4    0    0 -0.35852985807E+03  0.33090292793E+03  0.11888386059E+04  0.12882951663E+04  0.91251289760E+02 0.  0.
          4    1    3    3  502    0  0.68067061344E+02 -0.39709367244E+01 -0.97510313716E+01  0.68876525691E+02  0.00000000000E+00 0. -1.
         -3    1    3    3    0  502  0.13016661746E+03  0.10766404450E+02 -0.14680865086E+03  0.19649947515E+03  0.00000000000E+00 0.  1.
         13    1    5    5    0    0  0.13597198684E+01 -0.47723519957E+02  0.26494333836E+02  0.54601583499E+02  0.00000000000E+00 0. -1.
        -13    1    5    5    0    0  0.15893645940E+03 -0.28997487570E+03  0.41870978683E+03  0.53353923215E+03  0.00000000000E+00 0.  1.
          1    1    6    6  503    0 -0.17802256096E+03  0.16320617412E+03  0.70708261893E+03  0.74719081731E+03  0.00000000000E+00 0. -1.
         -1    1    6    6    0  503 -0.18050729711E+03  0.16769675381E+03  0.48175598692E+03  0.54110434898E+03  0.00000000000E+00 0.  1.
<mgrwt>
<rscale>  0 0.15506136E+04</rscale>
<asrwt>0</asrwt>
<pdfrwt beam="1">  1        2 0.27840730E+00 0.15506136E+04</pdfrwt>
<pdfrwt beam="2">  1       -3 0.51102227E-01 0.15506136E+04</pdfrwt>
<totfact> 0.19971595E+01</totfact>
</mgrwt>
</event>
<event>
12    7  0.2426980E-007  0.4441162E+04  0.7818608E-02  0.7921019E-01
          2   -1    0    0  501    0  0.00000000000E+00  0.00000000000E+00  0.26489373013E+04  0.26489373013E+04  0.00000000000E+00 0. -1.
         -3   -1    0    0    0  501 -0.00000000000E+00 -0.00000000000E+00 -0.18614933736E+04  0.18614933736E+04  0.00000000000E+00 0.  1.
         24    2    1    2    0    0  0.66150166838E+03 -0.19050079177E+04  0.10718154073E+04  0.22851960495E+04  0.81811328910E+02 0.  0.
        254    2    1    2    0    0 -0.66150166838E+03  0.19050079177E+04 -0.28437147964E+03  0.22252346254E+04  0.89675101110E+03 0.  0.
         23    2    4    4    0    0 -0.54551728858E+03  0.18549047549E+04 -0.40629996220E+02  0.19360092184E+04  0.90664960983E+02 0.  0.
         23    2    4    4    0    0 -0.11598437980E+03  0.50103162729E+02 -0.24374148342E+03  0.28922540697E+03  0.90987482774E+02 0.  0.
          4    1    3    3  502    0  0.47970298812E+03 -0.13136948685E+04  0.77740012174E+03  0.16000812834E+04  0.00000000000E+00 0. -1.
         -3    1    3    3    0  502  0.18179868026E+03 -0.59131304917E+03  0.29441528557E+03  0.68511476603E+03  0.00000000000E+00 0.  1.
         13    1    5    5    0    0 -0.14444144631E+03  0.37415778703E+03 -0.24560512630E+02  0.40182160194E+03  0.00000000000E+00 0. -1.
        -13    1    5    5    0    0 -0.40107584226E+03  0.14807469679E+04 -0.16069483590E+02  0.15341876165E+04  0.00000000000E+00 0.  1.
          3    1    6    6  503    0 -0.88166831009E+02  0.23034052020E+02 -0.81008632727E+02  0.12192766798E+03  0.00000000000E+00 0.  1.
         -3    1    6    6    0  503 -0.27817548793E+02  0.27069110709E+02 -0.16273285070E+03  0.16729773899E+03  0.00000000000E+00 0. -1.
<mgrwt>
<rscale>  0 0.44411617E+04</rscale>
<asrwt>0</asrwt>
<pdfrwt beam="1">  1        2 0.40752882E+00 0.44411617E+04</pdfrwt>
<pdfrwt beam="2">  1       -3 0.28638360E+00 0.44411617E+04</pdfrwt>
<totfact> 0.61912183E-02</totfact>
</mgrwt>
</event>
<event>
12    7  0.2426980E-007  0.3381475E+04  0.7818608E-02  0.8142468E-01
         -1   -1    0    0    0  501 -0.00000000000E+00  0.00000000000E+00  0.77973026018E+03  0.77973026018E+03  0.00000000000E+00 0.  1.
          2   -1    0    0  501    0  0.00000000000E+00 -0.00000000000E+00 -0.36661315542E+04  0.36661315542E+04  0.00000000000E+00 0. -1.
         24    2    1    2    0    0  0.12945353397E+04  0.84240682750E+03 -0.17088121269E+04  0.23048702416E+04  0.83168123654E+02 0.  0.
        254    2    1    2    0    0 -0.12945353397E+04 -0.84240682750E+03 -0.11775891671E+04  0.21409915728E+04  0.90092045129E+03 0.  0.
         23    2    4    4    0    0 -0.10266727200E+04 -0.17696528686E+03 -0.54317424118E+03  0.11784682599E+04  0.91518285347E+02 0.  0.
         23    2    4    4    0    0 -0.26786261967E+03 -0.66544154064E+03 -0.63441492590E+03  0.96252331287E+03  0.96984548169E+02 0.  0.
          2    1    3    3  502    0  0.60920342397E+03  0.36238487439E+03 -0.73904023574E+03  0.10240273820E+04  0.00000000000E+00 0. -1.
         -1    1    3    3    0  502  0.68533191570E+03  0.48002195311E+03 -0.96977189116E+03  0.12808428596E+04  0.00000000000E+00 0.  1.
         13    1    5    5    0    0 -0.48452866592E+03 -0.12337154498E+03 -0.28633150544E+03  0.57617210729E+03  0.00000000000E+00 0. -1.
        -13    1    5    5    0    0 -0.54214405408E+03 -0.53593741883E+02 -0.25684273573E+03  0.60229615261E+03  0.00000000000E+00 0.  1.
          2    1    6    6  503    0 -0.20430650234E+03 -0.54259875726E+03 -0.55714316116E+03  0.80409145022E+03  0.00000000000E+00 0. -1.
         -2    1    6    6    0  503 -0.63556117327E+02 -0.12284278338E+03 -0.77271764743E+02  0.15843186265E+03  0.00000000000E+00 0.  1.
<mgrwt>
<rscale>  0 0.33814752E+04</rscale>
<asrwt>0</asrwt>
<pdfrwt beam="1">  1        2 0.56402023E+00 0.33814752E+04</pdfrwt>
<pdfrwt beam="2">  1       -1 0.11995850E+00 0.33814752E+04</pdfrwt>
<totfact> 0.36012964E-01</totfact>
</mgrwt>
</event>
<event>
12    7  0.2426980E-007  0.2128480E+04  0.7818608E-02  0.8548800E-01
         -1   -1    0    0    0  501 -0.00000000000E+00  0.00000000000E+00  0.49218432430E+03  0.49218432430E+03  0.00000000000E+00 0.  1.
          2   -1    0    0  501    0  0.00000000000E+00 -0.00000000000E+00 -0.23011847371E+04  0.23011847371E+04  0.00000000000E+00 0. -1.
         24    2    1    2    0    0 -0.60050798598E+03 -0.19531426522E+03  0.44136561808E+02  0.63837560985E+03  0.82570453194E+02 0.  0.
        254    2    1    2    0    0  0.60050798598E+03  0.19531426522E+03 -0.18531369746E+04  0.21549934515E+04  0.90062346523E+03 0.  0.
         23    2    4    4    0    0  0.60726353663E+03  0.41357956609E+03 -0.17438447863E+04  0.18945775549E+04  0.92803083724E+02 0.  0.
         23    2    4    4    0    0 -0.67555506518E+01 -0.21826530087E+03 -0.10929218831E+03  0.26041589666E+03  0.90478051367E+02 0.  0.
          2    1    3    3  502    0 -0.19644858943E+03 -0.79687722084E+02 -0.21185515267E+02  0.21305165429E+03  0.00000000000E+00 0. -1.
         -1    1    3    3    0  502 -0.40405939655E+03 -0.11562654313E+03  0.65322077076E+02  0.42532395556E+03  0.00000000000E+00 0.  1.
         13    1    5    5    0    0  0.28474450365E+02  0.25137261986E+01 -0.44274718633E+02  0.52700700688E+02  0.00000000000E+00 0.  1.
        -13    1    5    5    0    0  0.57878908627E+03  0.41106583989E+03 -0.16995700677E+04  0.18418768542E+04  0.00000000000E+00 0. -1.
          4    1    6    6  503    0  0.28691730864E+01 -0.20318350935E+03 -0.12330641788E+03  0.23768938411E+03  0.00000000000E+00 0. -1.
         -4    1    6    6    0  503 -0.96247237382E+01 -0.15081791519E+02  0.14014229570E+02  0.22726512554E+02  0.00000000000E+00 0.  1.
<mgrwt>
<rscale>  0 0.21284803E+04</rscale>
<asrwt>0</asrwt>
<pdfrwt beam="1">  1        2 0.35402843E+00 0.21284803E+04</pdfrwt>
<pdfrwt beam="2">  1       -1 0.75720664E-01 0.21284803E+04</pdfrwt>
<totfact> 0.83008380E+00</totfact>
</mgrwt>
</event>
<event>
12    7  0.2426980E-007  0.1589303E+04  0.7818608E-02  0.8827147E-01
          2   -1    0    0  501    0  0.00000000000E+00  0.00000000000E+00  0.74143960324E+03  0.74143960324E+03  0.00000000000E+00 0. -1.
         -1   -1    0    0    0  501 -0.00000000000E+00 -0.00000000000E+00 -0.85168194655E+03  0.85168194655E+03  0.00000000000E+00 0.  1.
         24    2    1    2    0    0  0.47477368485E+03 -0.10714711710E+03  0.18686947403E+03  0.52746669593E+03  0.80064714211E+02 0.  0.
        254    2    1    2    0    0 -0.47477368485E+03  0.10714711710E+03 -0.29711181735E+03  0.10656548539E+04  0.90025234186E+03 0.  0.
         23    2    4    4    0    0  0.10888042457E+03 -0.43667568825E+01 -0.42764635537E+03  0.45024741270E+03  0.89259800379E+02 0.  0.
         23    2    4    4    0    0 -0.58365410942E+03  0.11151387398E+03  0.13053453803E+03  0.61540744116E+03  0.92733971559E+02 0.  0.
          2    1    3    3  502    0  0.46199316673E+03 -0.90575336145E+02  0.18692292978E+03  0.50653900077E+03  0.00000000000E+00 0. -1.
         -1    1    3    3    0  502  0.12780518123E+02 -0.16571780951E+02 -0.53455742806E-01  0.20927695164E+02  0.00000000000E+00 0.  1.
         13    1    5    5    0    0  0.49484231938E+02 -0.86914956747E+01 -0.62086641485E+02  0.79868531716E+02  0.00000000000E+00 0. -1.
        -13    1    5    5    0    0  0.59396192630E+02  0.43247387923E+01 -0.36555971389E+03  0.37037888099E+03  0.00000000000E+00 0.  1.
          1    1    6    6  503    0 -0.10848744638E+03  0.56080853765E+02  0.40141192962E+02  0.12855311569E+03  0.00000000000E+00 0. -1.
         -1    1    6    6    0  503 -0.47516666304E+03  0.55433020213E+02  0.90393345065E+02  0.48685432547E+03  0.00000000000E+00 0.  1.
<mgrwt>
<rscale>  0 0.15893026E+04</rscale>
<asrwt>0</asrwt>
<pdfrwt beam="1">  1        2 0.11406763E+00 0.15893026E+04</pdfrwt>
<pdfrwt beam="2">  1       -1 0.13102799E+00 0.15893026E+04</pdfrwt>
<totfact> 0.20740786E+01</totfact>
</mgrwt>
</event>
<event>
12    7  0.2426980E-007  0.1169536E+04  0.7818608E-02  0.9139947E-01
         -1   -1    0    0    0  501 -0.00000000000E+00  0.00000000000E+00  0.16493888462E+03  0.16493888462E+03  0.00000000000E+00 0.  1.
          2   -1    0    0  501    0  0.00000000000E+00 -0.00000000000E+00 -0.20732151170E+04  0.20732151170E+04  0.00000000000E+00 0. -1.
         24    2    1    2    0    0 -0.13870222635E+03  0.11259415305E+03 -0.68281721991E+03  0.71033442509E+03  0.80124208341E+02 0.  0.
        254    2    1    2    0    0  0.13870222635E+03 -0.11259415305E+03 -0.12254590124E+04  0.15278195765E+04  0.89474416246E+03 0.  0.
         23    2    4    4    0    0  0.17075084399E+03 -0.11640522332E+03  0.63202171316E+02  0.23509341996E+03  0.92565516841E+02 0.  0.
         23    2    4    4    0    0 -0.32048617642E+02  0.38110702734E+01 -0.12886611837E+04  0.12927261565E+04  0.97219499825E+02 0.  0.
          2    1    3    3  502    0 -0.40682189552E+01  0.17076041135E+01 -0.14238128256E+03  0.14244962597E+03  0.00000000000E+00 0. -1.
         -1    1    3    3    0  502 -0.13463400739E+03  0.11088654894E+03 -0.54043593736E+03  0.56788479912E+03  0.00000000000E+00 0.  1.
         13    1    5    5    0    0  0.61371049844E+02 -0.89379920975E+02  0.56301850797E+01  0.10856737547E+03  0.00000000000E+00 0.  1.
        -13    1    5    5    0    0  0.10937979414E+03 -0.27025302347E+02  0.57571986236E+02  0.12652604449E+03  0.00000000000E+00 0. -1.
          2    1    6    6  503    0 -0.60988324764E+02 -0.13341550621E+02 -0.10294166123E+04  0.10313079727E+04  0.00000000000E+00 0. -1.
         -2    1    6    6    0  503  0.28939707122E+02  0.17152620895E+02 -0.25924457141E+03  0.26141818387E+03  0.00000000000E+00 0.  1.
<mgrwt>
<rscale>  0 0.11695363E+04</rscale>
<asrwt>0</asrwt>
<pdfrwt beam="1">  1        2 0.31895618E+00 0.11695363E+04</pdfrwt>
<pdfrwt beam="2">  1       -1 0.25375213E-01 0.11695363E+04</pdfrwt>
<totfact> 0.93718078E+01</totfact>
</mgrwt>
</event>
<event>
12    7  0.2426980E-007  0.2046502E+04  0.7818608E-02  0.8585183E-01
         -1   -1    0    0    0  501 -0.00000000000E+00  0.00000000000E+00  0.77396515179E+03  0.77396515179E+03  0.00000000000E+00 0.  1.
          2   -1    0    0  501    0  0.00000000000E+00 -0.00000000000E+00 -0.13528292932E+04  0.13528292932E+04  0.00000000000E+00 0. -1.
         24    2    1    2    0    0  0.42781872664E+03  0.68347276970E+03 -0.40628680722E+03  0.90650751171E+03  0.80765148880E+02 0.  0.
        254    2    1    2    0    0 -0.42781872664E+03 -0.68347276970E+03 -0.17257733423E+03  0.12202869333E+04  0.89952952900E+03 0.  0.
         23    2    4    4    0    0  0.11803639709E+03  0.83320233832E+02  0.14342599764E+03  0.22326180244E+03  0.91651313269E+02 0.  0.
         23    2    4    4    0    0 -0.54585512373E+03 -0.76679300353E+03 -0.31600333187E+03  0.99702513088E+03  0.90948773908E+02 0.  0.
          4    1    3    3  502    0  0.18811598381E+03  0.37592852950E+03 -0.20485223912E+03  0.46762626373E+03  0.00000000000E+00 0. -1.
         -3    1    3    3    0  502  0.23970274283E+03  0.30754424020E+03 -0.20143456810E+03  0.43888124798E+03  0.00000000000E+00 0.  1.
         13    1    5    5    0    0  0.12269676013E+03  0.51463174087E+02  0.89160996153E+02  0.16016440450E+03  0.00000000000E+00 0. -1.
        -13    1    5    5    0    0 -0.46603630459E+01  0.31857059746E+02  0.54265001491E+02  0.63097397935E+02  0.00000000000E+00 0.  1.
          2    1    6    6  503    0 -0.15777818288E+03 -0.16449848335E+03 -0.97926845346E+02  0.24807936846E+03  0.00000000000E+00 0. -1.
         -2    1    6    6    0  503 -0.38807694085E+03 -0.60229452019E+03 -0.21807648653E+03  0.74894576242E+03  0.00000000000E+00 0.  1.
<mgrwt>
<rscale>  0 0.20465021E+04</rscale>
<asrwt>0</asrwt>
<pdfrwt beam="1">  1        2 0.20812758E+00 0.20465021E+04</pdfrwt>
<pdfrwt beam="2">  1       -1 0.11907156E+00 0.20465021E+04</pdfrwt>
<totfact> 0.10253554E+01</totfact>
</mgrwt>
</event>
<event>
12    7  0.2426980E-007  0.1659475E+04  0.7818608E-02  0.8784821E-01
          2   -1    0    0  501    0  0.00000000000E+00  0.00000000000E+00  0.10346218459E+04  0.10346218459E+04  0.00000000000E+00 0. -1.
         -1   -1    0    0    0  501 -0.00000000000E+00 -0.00000000000E+00 -0.66542640851E+03  0.66542640851E+03  0.00000000000E+00 0.  1.
         24    2    1    2    0    0  0.85497160217E+02 -0.57331326523E+03  0.71911826149E+02  0.59022301473E+03  0.84817639008E+02 0.  0.
        254    2    1    2    0    0 -0.85497160217E+02  0.57331326523E+03  0.29728361128E+03  0.11098252397E+04  0.89851914430E+03 0.  0.
         23    2    4    4    0    0 -0.25613481913E+03 -0.12558942733E+03 -0.56749530312E+02  0.30348492985E+03  0.86630500559E+02 0.  0.
         23    2    4    4    0    0  0.17063765891E+03  0.69890269256E+03  0.35403314159E+03  0.80634030986E+03  0.85223504183E+02 0.  0.
          4    1    3    3  502    0 -0.50999275686E+00 -0.85716609312E+02  0.38516734113E+02  0.93974124158E+02  0.00000000000E+00 0. -1.
         -3    1    3    3    0  502  0.86007152974E+02 -0.48759665592E+03  0.33395092037E+02  0.49624889058E+03  0.00000000000E+00 0.  1.
         13    1    5    5    0    0 -0.10046154717E+03 -0.90352492118E+02 -0.32780690180E+01  0.13515487793E+03  0.00000000000E+00 0.  1.
        -13    1    5    5    0    0 -0.15567327196E+03 -0.35236935209E+02 -0.53471461294E+02  0.16833005192E+03  0.00000000000E+00 0. -1.
          2    1    6    6  503    0  0.14618846811E+03  0.53477062351E+03  0.23511808781E+03  0.60218867740E+03  0.00000000000E+00 0.  1.
         -2    1    6    6    0  503  0.24449190802E+02  0.16413206905E+03  0.11891505378E+03  0.20415163246E+03  0.00000000000E+00 0. -1.
<mgrwt>
<rscale>  0 0.16594755E+04</rscale>
<asrwt>0</asrwt>
<pdfrwt beam="1">  1        2 0.15917259E+00 0.16594755E+04</pdfrwt>
<pdfrwt beam="2">  1       -1 0.10237329E+00 0.16594755E+04</pdfrwt>
<totfact> 0.23542846E+01</totfact>
</mgrwt>
</event>
<event>
12    7  0.2426980E-007  0.2141643E+04  0.7818608E-02  0.8543118E-01
          2   -1    0    0  501    0  0.00000000000E+00  0.00000000000E+00  0.20004658582E+04  0.20004658582E+04  0.00000000000E+00 0. -1.
         -1   -1    0    0    0  501 -0.00000000000E+00 -0.00000000000E+00 -0.57319601258E+03  0.57319601258E+03  0.00000000000E+00 0.  1.
         24    2    1    2    0    0  0.17790471056E+03  0.12609320982E+03 -0.43566235079E+03  0.49318884293E+03  0.76707022441E+02 0.  0.
        254    2    1    2    0    0 -0.17790471056E+03 -0.12609320982E+03  0.18629321964E+04  0.20804730278E+04  0.90016779969E+03 0.  0.
         23    2    4    4    0    0 -0.44275565568E+02 -0.50418956612E+03  0.10735490667E+04  0.11903750631E+04  0.91201688170E+02 0.  0.
         23    2    4    4    0    0 -0.13362914499E+03  0.37809635630E+03  0.78938312969E+03  0.89009796474E+03  0.91296540802E+02 0.  0.
          4    1    3    3  502    0  0.12286211828E+03  0.54225343579E+02 -0.20164548542E+03  0.24227337820E+03  0.00000000000E+00 0. -1.
         -3    1    3    3    0  502  0.55042592284E+02  0.71867866236E+02 -0.23401686537E+03  0.25091546473E+03  0.00000000000E+00 0.  1.
         13    1    5    5    0    0 -0.40231722816E+02 -0.33660940138E+03  0.80940000673E+03  0.87752655316E+03  0.00000000000E+00 0.  1.
        -13    1    5    5    0    0 -0.40438427525E+01 -0.16758016474E+03  0.26414905997E+03  0.31284850992E+03  0.00000000000E+00 0. -1.
          4    1    6    6  503    0 -0.46899259943E+02  0.86211003597E+02  0.27929560698E+03  0.29603701424E+03  0.00000000000E+00 0. -1.
         -4    1    6    6    0  503 -0.86729885051E+02  0.29188535270E+03  0.51008752271E+03  0.59406095050E+03  0.00000000000E+00 0.  1.
<mgrwt>
<rscale>  0 0.21416433E+04</rscale>
<asrwt>0</asrwt>
<pdfrwt beam="1">  1        2 0.30776398E+00 0.21416433E+04</pdfrwt>
<pdfrwt beam="2">  1       -1 0.88184002E-01 0.21416433E+04</pdfrwt>
<totfact> 0.88192709E+00</totfact>
</mgrwt>
</event>
<event>
12    7  0.2426980E-007  0.1682121E+04  0.7818608E-02  0.8771628E-01
          2   -1    0    0  501    0  0.00000000000E+00  0.00000000000E+00  0.33846694758E+03  0.33846694758E+03  0.00000000000E+00 0. -1.
         -1   -1    0    0    0  501 -0.00000000000E+00 -0.00000000000E+00 -0.20899604961E+04  0.20899604961E+04  0.00000000000E+00 0.  1.
         24    2    1    2    0    0 -0.36683841486E+03 -0.26218558600E+02  0.54429733438E+02  0.38001125019E+03  0.78664597850E+02 0.  0.
        254    2    1    2    0    0  0.36683841486E+03  0.26218558600E+02 -0.18059232819E+04  0.20484161935E+04  0.89408733689E+03 0.  0.
         23    2    4    4    0    0  0.68786053403E+02 -0.34215401736E+03 -0.30595237832E+03  0.47261704412E+03  0.89213899424E+02 0.  0.
         23    2    4    4    0    0  0.29805236146E+03  0.36837257596E+03 -0.14999709036E+04  0.15757991493E+04  0.93256005314E+02 0.  0.
          4    1    3    3  502    0 -0.12139049709E+03 -0.24923211030E+02  0.52414940708E+02  0.13455164526E+03  0.00000000000E+00 0. -1.
         -3    1    3    3    0  502 -0.24544791778E+03 -0.12953475699E+01  0.20147927300E+01  0.24545960494E+03  0.00000000000E+00 0.  1.
         13    1    5    5    0    0 -0.14060556883E+02 -0.54546194644E+02 -0.78870830416E+02  0.96920557677E+02  0.00000000000E+00 0.  1.
        -13    1    5    5    0    0  0.82846610286E+02 -0.28760782272E+03 -0.22708154791E+03  0.37569648644E+03  0.00000000000E+00 0. -1.
          2    1    6    6  503    0  0.25436475111E+03  0.33938915688E+03 -0.12380927176E+04  0.13087245714E+04  0.00000000000E+00 0. -1.
         -2    1    6    6    0  503  0.43687610357E+02  0.28983419080E+02 -0.26187818599E+03  0.26707457793E+03  0.00000000000E+00 0.  1.
<mgrwt>
<rscale>  0 0.16821207E+04</rscale>
<asrwt>0</asrwt>
<pdfrwt beam="1">  1        2 0.52071838E-01 0.16821207E+04</pdfrwt>
<pdfrwt beam="2">  1       -1 0.32153238E+00 0.16821207E+04</pdfrwt>
<totfact> 0.25077703E+00</totfact>
</mgrwt>
</event>
<event>
12    7  0.2426980E-007  0.1338830E+04  0.7818608E-02  0.8999327E-01
          2   -1    0    0  501    0  0.00000000000E+00  0.00000000000E+00  0.91633068708E+03  0.91633068708E+03  0.00000000000E+00 0. -1.
         -1   -1    0    0    0  501 -0.00000000000E+00 -0.00000000000E+00 -0.48903383440E+03  0.48903383440E+03  0.00000000000E+00 0.  1.
         24    2    1    2    0    0  0.28870907179E+03  0.98900705641E+02  0.32046999432E+03  0.44899716553E+03  0.75915477246E+02 0.  0.
        254    2    1    2    0    0 -0.28870907179E+03 -0.98900705641E+02  0.10682685836E+03  0.95636735594E+03  0.90005125639E+03 0.  0.
         23    2    4    4    0    0  0.19804748952E+03 -0.10922731065E+03  0.33007773512E+03  0.41264898774E+03  0.10086854004E+03 0.  0.
         23    2    4    4    0    0 -0.48675656131E+03  0.10326605009E+02 -0.22325087676E+03  0.54371836820E+03  0.93542082489E+02 0.  0.
          2    1    3    3  502    0  0.16918637228E+02 -0.43377799690E+01  0.45860823764E+02  0.49074145709E+02  0.00000000000E+00 0. -1.
         -1    1    3    3    0  502  0.27179043456E+03  0.10323848561E+03  0.27460917056E+03  0.39992301982E+03  0.00000000000E+00 0.  1.
         13    1    5    5    0    0  0.12798246867E+03 -0.23549885933E+02  0.12965389659E+03  0.18369605961E+03  0.00000000000E+00 0.  1.
        -13    1    5    5    0    0  0.70065020850E+02 -0.85677424717E+02  0.20042383852E+03  0.22895292814E+03  0.00000000000E+00 0. -1.
          3    1    6    6  503    0 -0.24871004132E+03  0.50946864632E+02 -0.12544845449E+03  0.28317765167E+03  0.00000000000E+00 0. -1.
         -3    1    6    6    0  503 -0.23804651999E+03 -0.40620259623E+02 -0.97802422273E+02  0.26054071653E+03  0.00000000000E+00 0.  1.
<mgrwt>
<rscale>  0 0.13388304E+04</rscale>
<asrwt>0</asrwt>
<pdfrwt beam="1">  1        2 0.14097395E+00 0.13388304E+04</pdfrwt>
<pdfrwt beam="2">  1       -1 0.75235975E-01 0.13388304E+04</pdfrwt>
<totfact> 0.56659220E+01</totfact>
</mgrwt>
</event>
<event>
12    7  0.2426980E-007  0.3435944E+04  0.7818608E-02  0.8129140E-01
         -1   -1    0    0    0  501 -0.00000000000E+00  0.00000000000E+00  0.15273672984E+04  0.15273672984E+04  0.00000000000E+00 0.  1.
          2   -1    0    0  501    0  0.00000000000E+00 -0.00000000000E+00 -0.19323633386E+04  0.19323633386E+04  0.00000000000E+00 0. -1.
         24    2    1    2    0    0 -0.11773306171E+04 -0.10700491655E+04 -0.35073865320E+03  0.16311065090E+04  0.79863898909E+02 0.  0.
        254    2    1    2    0    0  0.11773306171E+04  0.10700491655E+04 -0.54257387076E+02  0.18286241280E+04  0.89989429310E+03 0.  0.
         23    2    4    4    0    0  0.84236071789E+03  0.18467027698E+03 -0.11872010510E+03  0.87494279453E+03  0.88066679882E+02 0.  0.
         23    2    4    4    0    0  0.33496989921E+03  0.88537888853E+03  0.64462718025E+02  0.95368133343E+03  0.96187494492E+02 0.  0.
          2    1    3    3  502    0 -0.53364534064E+03 -0.49265270160E+03 -0.11982783423E+03  0.73609968335E+03  0.00000000000E+00 0. -1.
         -1    1    3    3    0  502 -0.64368527646E+03 -0.57739646391E+03 -0.23091081897E+03  0.89500682566E+03  0.00000000000E+00 0.  1.
         13    1    5    5    0    0  0.18388414589E+03  0.76134825199E+02 -0.39389252926E+02  0.20288273452E+03  0.00000000000E+00 0. -1.
        -13    1    5    5    0    0  0.65847657199E+03  0.10853545178E+03 -0.79330852175E+02  0.67206006001E+03  0.00000000000E+00 0.  1.
          4    1    6    6  503    0  0.28732428328E+03  0.80907844680E+03  0.80352746256E+02  0.86233389164E+03  0.00000000000E+00 0. -1.
         -4    1    6    6    0  503  0.47645615929E+02  0.76300441729E+02 -0.15890028231E+02  0.91347441795E+02  0.00000000000E+00 0.  1.
<mgrwt>
<rscale>  0 0.34359445E+04</rscale>
<asrwt>0</asrwt>
<pdfrwt beam="1">  1        2 0.29728667E+00 0.34359445E+04</pdfrwt>
<pdfrwt beam="2">  1       -1 0.23497959E+00 0.34359445E+04</pdfrwt>
<totfact> 0.59899419E-01</totfact>
</mgrwt>
</event>
<event>
12    7  0.2426980E-007  0.1375309E+04  0.7818608E-02  0.8971888E-01
          2   -1    0    0  501    0  0.00000000000E+00  0.00000000000E+00  0.11219817269E+04  0.11219817269E+04  0.00000000000E+00 0. -1.
         -1   -1    0    0    0  501 -0.00000000000E+00 -0.00000000000E+00 -0.42145854430E+03  0.42145854430E+03  0.00000000000E+00 0.  1.
         24    2    1    2    0    0  0.12385771429E+03  0.13382302267E+03  0.59352593743E+03  0.62610701032E+03  0.80545733451E+02 0.  0.
        254    2    1    2    0    0 -0.12385771429E+03 -0.13382302267E+03  0.10699724519E+03  0.91733326090E+03  0.89263798166E+03 0.  0.
         23    2    4    4    0    0  0.19296968424E+03 -0.42066154027E+03  0.23943416741E+02  0.47292674610E+03  0.94302648292E+02 0.  0.
         23    2    4    4    0    0 -0.31682739854E+03  0.28683851760E+03  0.83053828446E+02  0.44440651480E+03  0.89125060078E+02 0.  0.
          4    1    3    3  502    0  0.38828901681E+02  0.20334018093E+02  0.26025886724E+03  0.26392391683E+03  0.00000000000E+00 0. -1.
         -1    1    3    3    0  502  0.85028812612E+02  0.11348900457E+03  0.33326707019E+03  0.36218309349E+03  0.00000000000E+00 0.  1.
         13    1    5    5    0    0  0.41979197416E+02 -0.86493741318E+02 -0.33389059235E+02  0.10177548614E+03  0.00000000000E+00 0. -1.
        -13    1    5    5    0    0  0.15099048683E+03 -0.33416779895E+03  0.57332475976E+02  0.37115125996E+03  0.00000000000E+00 0.  1.
          3    1    6    6  503    0 -0.39449671761E+02  0.10377919481E+02  0.26690580836E+02  0.48747973498E+02  0.00000000000E+00 0. -1.
         -3    1    6    6    0  503 -0.27737772678E+03  0.27646059812E+03  0.56363247611E+02  0.39565854130E+03  0.00000000000E+00 0.  1.
<mgrwt>
<rscale>  0 0.13753091E+04</rscale>
<asrwt>0</asrwt>
<pdfrwt beam="1">  1        2 0.17261257E+00 0.13753091E+04</pdfrwt>
<pdfrwt beam="2">  1       -1 0.64839777E-01 0.13753091E+04</pdfrwt>
<totfact> 0.56634573E+01</totfact>
</mgrwt>
</event>
<event>
12    7  0.2426980E-007  0.1703878E+04  0.7818608E-02  0.8759156E-01
         -1   -1    0    0    0  501 -0.00000000000E+00  0.00000000000E+00  0.33284149781E+03  0.33284149781E+03  0.00000000000E+00 0.  1.
          2   -1    0    0  501    0  0.00000000000E+00 -0.00000000000E+00 -0.21806177820E+04  0.21806177820E+04  0.00000000000E+00 0. -1.
         24    2    1    2    0    0  0.28773723742E+03 -0.85386054268E+02 -0.14507672382E+04  0.14836242821E+04  0.79573455362E+02 0.  0.
        254    2    1    2    0    0 -0.28773723742E+03  0.85386054268E+02 -0.39700904591E+03  0.10298349977E+04  0.90158773496E+03 0.  0.
         23    2    4    4    0    0  0.44487733696E+02  0.29668583399E+03  0.15180946074E+03  0.34837466123E+03  0.91198408296E+02 0.  0.
         23    2    4    4    0    0 -0.33222497112E+03 -0.21129977972E+03 -0.54881850665E+03  0.68146033644E+03  0.90362650256E+02 0.  0.
          2    1    3    3  502    0  0.17575462017E+03 -0.16603046304E+02 -0.92380730655E+03  0.94052394297E+03  0.00000000000E+00 0. -1.
         -1    1    3    3    0  502  0.11198261725E+03 -0.68783007964E+02 -0.52695993169E+03  0.54310033913E+03  0.00000000000E+00 0.  1.
         13    1    5    5    0    0  0.28500891919E+01  0.25050246229E+03  0.11107843501E+03  0.27404018929E+03  0.00000000000E+00 0. -1.
        -13    1    5    5    0    0  0.41637644504E+02  0.46183371702E+02  0.40731025727E+02  0.74334471938E+02  0.00000000000E+00 0.  1.
          3    1    6    6  503    0 -0.22642933669E+02  0.23818726469E+01 -0.11371918627E+02  0.25449878108E+02  0.00000000000E+00 0.  1.
         -3    1    6    6    0  503 -0.30958203745E+03 -0.21368165237E+03 -0.53744658802E+03  0.65601045833E+03  0.00000000000E+00 0. -1.
<mgrwt>
<rscale>  0 0.17038780E+04</rscale>
<asrwt>0</asrwt>
<pdfrwt beam="1">  1        2 0.33547965E+00 0.17038780E+04</pdfrwt>
<pdfrwt beam="2">  1       -1 0.51206386E-01 0.17038780E+04</pdfrwt>
<totfact> 0.22009545E+01</totfact>
</mgrwt>
</event>
<event>
12    7  0.2426980E-007  0.2879715E+04  0.7818608E-02  0.8278939E-01
          2   -1    0    0  501    0  0.00000000000E+00  0.00000000000E+00  0.15785657403E+04  0.15785657403E+04  0.00000000000E+00 0. -1.
         -1   -1    0    0    0  501 -0.00000000000E+00 -0.00000000000E+00 -0.13133372630E+04  0.13133372630E+04  0.00000000000E+00 0.  1.
         24    2    1    2    0    0 -0.35361434515E+02 -0.89335831808E+03  0.10646575791E+04  0.13926124621E+04  0.80834356578E+02 0.  0.
        254    2    1    2    0    0  0.35361434515E+02  0.89335831808E+03 -0.79942910181E+03  0.14992905412E+04  0.89969201535E+03 0.  0.
         23    2    4    4    0    0  0.24291887141E+03  0.44670803688E+02  0.62478001392E+02  0.26836103387E+03  0.84315390373E+02 0.  0.
         23    2    4    4    0    0 -0.20755743689E+03  0.84868751439E+03 -0.86190710321E+03  0.12309295073E+04  0.94620350353E+02 0.  0.
          2    1    3    3  502    0 -0.41541617289E+01 -0.78311808796E+03  0.92750920461E+03  0.12139046591E+04  0.00000000000E+00 0. -1.
         -1    1    3    3    0  502 -0.31207272786E+02 -0.11024023012E+03  0.13714837454E+03  0.17870780299E+03  0.00000000000E+00 0.  1.
         13    1    5    5    0    0  0.64996285662E+02  0.14492397195E+02  0.57254668195E+02  0.87821658811E+02  0.00000000000E+00 0.  1.
        -13    1    5    5    0    0  0.17792258574E+03  0.30178406493E+02  0.52233331976E+01  0.18053937506E+03  0.00000000000E+00 0. -1.
          1    1    6    6  503    0 -0.15534588683E+03  0.73825644348E+03 -0.70977120059E+03  0.10358233817E+04  0.00000000000E+00 0. -1.
         -1    1    6    6    0  503 -0.52211550058E+02  0.11043107091E+03 -0.15213590262E+03  0.19510612560E+03  0.00000000000E+00 0.  1.
<mgrwt>
<rscale>  0 0.28797147E+04</rscale>
<asrwt>0</asrwt>
<pdfrwt beam="1">  1        2 0.24285627E+00 0.28797147E+04</pdfrwt>
<pdfrwt beam="2">  1       -1 0.20205189E+00 0.28797147E+04</pdfrwt>
<totfact> 0.16439860E+00</totfact>
</mgrwt>
</event>
<event>
12    7  0.2426980E-007  0.1714429E+04  0.7818608E-02  0.8753177E-01
         -1   -1    0    0    0  501 -0.00000000000E+00  0.00000000000E+00  0.93882959886E+03  0.93882959886E+03  0.00000000000E+00 0.  1.
          2   -1    0    0  501    0  0.00000000000E+00 -0.00000000000E+00 -0.78269454588E+03  0.78269454588E+03  0.00000000000E+00 0. -1.
         24    2    1    2    0    0 -0.57582642050E+03  0.15434132757E+03  0.21552120291E+03  0.63880057216E+03  0.78863617421E+02 0.  0.
        254    2    1    2    0    0  0.57582642050E+03 -0.15434132757E+03 -0.59386149933E+02  0.10827235726E+04  0.90186823198E+03 0.  0.
         23    2    4    4    0    0  0.59166681840E+02  0.33052072966E+03  0.74417773420E+02  0.35613977313E+03  0.92481803780E+02 0.  0.
         23    2    4    4    0    0  0.51665973866E+03 -0.48486205723E+03 -0.13380392335E+03  0.72658379944E+03  0.89398141037E+02 0.  0.
          4    1    3    3  502    0 -0.37135035461E+03  0.12797760080E+03  0.16812985213E+03  0.42725519231E+03  0.00000000000E+00 0. -1.
         -3    1    3    3    0  502 -0.20447606589E+03  0.26363726774E+02  0.47391350779E+02  0.21154537986E+03  0.00000000000E+00 0.  1.
         13    1    5    5    0    0 -0.40049590249E+01 -0.47741191801E+01  0.49202788894E+01  0.79398397394E+01  0.00000000000E+00 0. -1.
        -13    1    5    5    0    0  0.63171640865E+02  0.33529484884E+03  0.69497494530E+02  0.34819993339E+03  0.00000000000E+00 0.  1.
          1    1    6    6  503    0  0.22726756887E+02 -0.15537978172E+02 -0.23842503731E+02  0.36419764256E+02  0.00000000000E+00 0. -1.
         -1    1    6    6    0  503  0.49393298177E+03 -0.46932407906E+03 -0.10996141962E+03  0.69016403519E+03  0.00000000000E+00 0.  1.
<mgrwt>
<rscale>  0 0.17144291E+04</rscale>
<asrwt>0</asrwt>
<pdfrwt beam="1">  1        2 0.12041455E+00 0.17144291E+04</pdfrwt>
<pdfrwt beam="2">  1       -1 0.14443532E+00 0.17144291E+04</pdfrwt>
<totfact> 0.14856638E+01</totfact>
</mgrwt>
</event>
<event>
12    7  0.2426980E-007  0.1503702E+04  0.7818608E-02  0.8881995E-01
          2   -1    0    0  501    0  0.00000000000E+00  0.00000000000E+00  0.20552508133E+04  0.20552508133E+04  0.00000000000E+00 0. -1.
         -1   -1    0    0    0  501 -0.00000000000E+00 -0.00000000000E+00 -0.27504180831E+03  0.27504180831E+03  0.00000000000E+00 0.  1.
         24    2    1    2    0    0 -0.19083669241E+03  0.34818529348E+03  0.16243296003E+03  0.43682472519E+03  0.82339129608E+02 0.  0.
        254    2    1    2    0    0  0.19083669241E+03 -0.34818529348E+03  0.16177760450E+04  0.18934678964E+04  0.90020536623E+03 0.  0.
         23    2    4    4    0    0 -0.33793166774E+03 -0.26260295330E+03  0.80946084060E+03  0.91999422443E+03  0.89467297767E+02 0.  0.
         23    2    4    4    0    0  0.52876836014E+03 -0.85582340182E+02  0.80831520438E+03  0.97347367202E+03  0.85774150197E+02 0.  0.
          4    1    3    3  502    0  0.41646337207E+01  0.46207292850E+01  0.13087297242E+02  0.14490433474E+02  0.00000000000E+00 0. -1.
         -3    1    3    3    0  502 -0.19500132613E+03  0.34356456420E+03  0.14934566279E+03  0.42233429171E+03  0.00000000000E+00 0.  1.
         13    1    5    5    0    0 -0.11246935389E+03 -0.14207013957E+03  0.35432896636E+03  0.39797273339E+03  0.00000000000E+00 0. -1.
        -13    1    5    5    0    0 -0.22546231385E+03 -0.12053281373E+03  0.45513187425E+03  0.52202149104E+03  0.00000000000E+00 0.  1.
          4    1    6    6  503    0  0.33530470126E+03 -0.57269011834E+02  0.58455107145E+03  0.67632014426E+03  0.00000000000E+00 0.  1.
         -4    1    6    6    0  503  0.19346365889E+03 -0.28313328349E+02  0.22376413293E+03  0.29715352775E+03  0.00000000000E+00 0. -1.
<mgrwt>
<rscale>  0 0.15037020E+04</rscale>
<asrwt>0</asrwt>
<pdfrwt beam="1">  1        2 0.31619242E+00 0.15037020E+04</pdfrwt>
<pdfrwt beam="2">  1       -1 0.42314126E-01 0.15037020E+04</pdfrwt>
<totfact> 0.37624974E+01</totfact>
</mgrwt>
</event>
<event>
12    7  0.2426980E-007  0.1570117E+04  0.7818608E-02  0.8839119E-01
         -1   -1    0    0    0  501 -0.00000000000E+00  0.00000000000E+00  0.56022753145E+03  0.56022753145E+03  0.00000000000E+00 0.  1.
          2   -1    0    0  501    0  0.00000000000E+00 -0.00000000000E+00 -0.11001191472E+04  0.11001191472E+04  0.00000000000E+00 0. -1.
         24    2    1    2    0    0 -0.39612134057E+03 -0.33773078737E+03 -0.22607285908E+03  0.57287062555E+03  0.78087225708E+02 0.  0.
        254    2    1    2    0    0  0.39612134057E+03  0.33773078737E+03 -0.31381875669E+03  0.10874760531E+04  0.90174705593E+03 0.  0.
         23    2    4    4    0    0  0.14037185560E+03  0.10327390885E+03 -0.59816078689E+03  0.62963641829E+03  0.90972161502E+02 0.  0.
         23    2    4    4    0    0  0.25574948497E+03  0.23445687852E+03  0.28434203020E+03  0.45783963484E+03  0.91591015612E+02 0.  0.
          2    1    3    3  502    0 -0.25272189678E+03 -0.26230150833E+03 -0.16182995940E+03  0.39857166751E+03  0.00000000000E+00 0. -1.
         -1    1    3    3    0  502 -0.14339944378E+03 -0.75429279040E+02 -0.64242899682E+02  0.17429895804E+03  0.00000000000E+00 0.  1.
         13    1    5    5    0    0 -0.36511781311E+00 -0.50437319963E+01 -0.11098515923E+03  0.11110030653E+03  0.00000000000E+00 0.  1.
        -13    1    5    5    0    0  0.14073697341E+03  0.10831764084E+03 -0.48717562766E+03  0.51853611175E+03  0.00000000000E+00 0. -1.
          4    1    6    6  503    0  0.15056310184E+03  0.82662692134E+02  0.16350942962E+03  0.23714489639E+03  0.00000000000E+00 0. -1.
         -4    1    6    6    0  503  0.10518638313E+03  0.15179418639E+03  0.12083260058E+03  0.22069473845E+03  0.00000000000E+00 0.  1.
<mgrwt>
<rscale>  0 0.15701172E+04</rscale>
<asrwt>0</asrwt>
<pdfrwt beam="1">  1        2 0.16924910E+00 0.15701172E+04</pdfrwt>
<pdfrwt beam="2">  1       -1 0.86188852E-01 0.15701172E+04</pdfrwt>
<totfact> 0.31724113E+01</totfact>
</mgrwt>
</event>
<event>
12    7  0.2426980E-007  0.2028234E+04  0.7818608E-02  0.8593533E-01
          2   -1    0    0  501    0  0.00000000000E+00  0.00000000000E+00  0.71531477519E+03  0.71531477519E+03  0.00000000000E+00 0. -1.
         -1   -1    0    0    0  501 -0.00000000000E+00 -0.00000000000E+00 -0.14377356730E+04  0.14377356730E+04  0.00000000000E+00 0.  1.
         24    2    1    2    0    0 -0.60447449159E+02 -0.80817549371E+03 -0.34895425044E+03  0.88587826345E+03  0.78801687788E+02 0.  0.
        254    2    1    2    0    0  0.60447449159E+02  0.80817549371E+03 -0.37346664732E+03  0.12671721847E+04  0.89969243981E+03 0.  0.
         23    2    4    4    0    0  0.69765903046E+02  0.89726239883E+03 -0.34556046702E+02  0.90527873247E+03  0.91588042359E+02 0.  0.
         23    2    4    4    0    0 -0.93184538874E+01 -0.89086905120E+02 -0.33891060062E+03  0.36189345223E+03  0.89906425286E+02 0.  0.
          2    1    3    3  502    0  0.74846972433E+01 -0.16349121557E+03 -0.43976720160E+02  0.16946784408E+03  0.00000000000E+00 0. -1.
         -1    1    3    3    0  502 -0.67932146402E+02 -0.64468427815E+03 -0.30497753028E+03  0.71641041937E+03  0.00000000000E+00 0.  1.
         13    1    5    5    0    0  0.82375572933E+02  0.49113007706E+03 -0.74225888334E+01  0.49804576339E+03  0.00000000000E+00 0. -1.
        -13    1    5    5    0    0 -0.12609669887E+02  0.40613232178E+03 -0.27133457869E+02  0.40723296907E+03  0.00000000000E+00 0.  1.
          3    1    6    6  503    0 -0.34773468321E+02 -0.24466651024E+02 -0.54489661216E+02  0.69115369426E+02  0.00000000000E+00 0. -1.
         -3    1    6    6    0  503  0.25455014434E+02 -0.64620254096E+02 -0.28442093940E+03  0.29277808280E+03  0.00000000000E+00 0.  1.
<mgrwt>
<rscale>  0 0.20282343E+04</rscale>
<asrwt>0</asrwt>
<pdfrwt beam="1">  1        2 0.11004843E+00 0.20282343E+04</pdfrwt>
<pdfrwt beam="2">  1       -1 0.22119010E+00 0.20282343E+04</pdfrwt>
<totfact> 0.45563485E+00</totfact>
</mgrwt>
</event>
<event>
12    7  0.2426980E-007  0.1912054E+04  0.7818608E-02  0.8648879E-01
         -1   -1    0    0    0  501 -0.00000000000E+00  0.00000000000E+00  0.37669162762E+03  0.37669162762E+03  0.00000000000E+00 0.  1.
          2   -1    0    0  501    0  0.00000000000E+00 -0.00000000000E+00 -0.24263556886E+04  0.24263556886E+04  0.00000000000E+00 0. -1.
         24    2    1    2    0    0 -0.12428155396E+03 -0.73065255739E+03 -0.77818503500E+03  0.10775828307E+04  0.79459071134E+02 0.  0.
        254    2    1    2    0    0  0.12428155396E+03  0.73065255739E+03 -0.12714790260E+04  0.17254644855E+04  0.90070511994E+03 0.  0.
         23    2    4    4    0    0  0.96321431216E+02  0.57010479702E+03 -0.17199459154E+03  0.61021515608E+03  0.92103743138E+02 0.  0.
         23    2    4    4    0    0  0.27960122746E+02  0.16054776037E+03 -0.10994844344E+04  0.11152493295E+04  0.91420421523E+02 0.  0.
          4    1    3    3  502    0 -0.71234776974E+02 -0.49075279668E+03 -0.57023879254E+03  0.75570164841E+03  0.00000000000E+00 0. -1.
         -3    1    3    3    0  502 -0.53046776988E+02 -0.23989976071E+03 -0.20794624246E+03  0.32188118226E+03  0.00000000000E+00 0.  1.
         13    1    5    5    0    0  0.37263416800E+02  0.32444705756E+03 -0.14080247702E+03  0.35563997655E+03  0.00000000000E+00 0. -1.
        -13    1    5    5    0    0  0.59058014416E+02  0.24565773946E+03 -0.31192114524E+02  0.25457517953E+03  0.00000000000E+00 0.  1.
          1    1    6    6  503    0 -0.18310979217E+02 -0.14474460910E+01 -0.10413727770E+03  0.10574478553E+03  0.00000000000E+00 0. -1.
         -1    1    6    6    0  503  0.46271101964E+02  0.16199520646E+03 -0.99534715672E+03  0.10095045439E+04  0.00000000000E+00 0.  1.
<mgrwt>
<rscale>  0 0.19120543E+04</rscale>
<asrwt>0</asrwt>
<pdfrwt beam="1">  1        2 0.37328548E+00 0.19120543E+04</pdfrwt>
<pdfrwt beam="2">  1       -1 0.57952560E-01 0.19120543E+04</pdfrwt>
<totfact> 0.12343733E+01</totfact>
</mgrwt>
</event>
<event>
12    7  0.2426980E-007  0.2648147E+04  0.7818608E-02  0.8352028E-01
         -1   -1    0    0    0  501 -0.00000000000E+00  0.00000000000E+00  0.96064482126E+03  0.96064482126E+03  0.00000000000E+00 0.  1.
          2   -1    0    0  501    0  0.00000000000E+00 -0.00000000000E+00 -0.18249935223E+04  0.18249935223E+04  0.00000000000E+00 0. -1.
         24    2    1    2    0    0 -0.50731559384E+03  0.10524541536E+04 -0.32347720653E+03  0.12149591561E+04  0.80370334122E+02 0.  0.
        254    2    1    2    0    0  0.50731559384E+03 -0.10524541536E+04 -0.54087149449E+03  0.15706791875E+04  0.89970121665E+03 0.  0.
         23    2    4    4    0    0  0.58587991546E+03 -0.30872717736E+03 -0.49035817841E+02  0.67097804955E+03  0.96121205610E+02 0.  0.
         23    2    4    4    0    0 -0.78564321617E+02 -0.74372697622E+03 -0.49183567665E+03  0.89970113791E+03  0.90871540941E+02 0.  0.
          4    1    3    3  502    0 -0.12572500632E+03  0.25759056656E+03 -0.11562416199E+03  0.30907705194E+03  0.00000000000E+00 0. -1.
         -3    1    3    3    0  502 -0.38159058752E+03  0.79486358701E+03 -0.20785304454E+03  0.90588210412E+03  0.00000000000E+00 0.  1.
         13    1    5    5    0    0  0.11213163996E+03 -0.38472532688E+02 -0.41218366749E+02  0.12550933913E+03  0.00000000000E+00 0.  1.
        -13    1    5    5    0    0  0.47374827550E+03 -0.27025464468E+03 -0.78174510918E+01  0.54546871042E+03  0.00000000000E+00 0. -1.
          4    1    6    6  503    0  0.14148236794E+02 -0.25687483087E+03 -0.15262187747E+03  0.29912921760E+03  0.00000000000E+00 0.  1.
         -4    1    6    6    0  503 -0.92712558410E+02 -0.48685214534E+03 -0.33921379918E+03  0.60057192031E+03  0.00000000000E+00 0. -1.
<mgrwt>
<rscale>  0 0.26481470E+04</rscale>
<asrwt>0</asrwt>
<pdfrwt beam="1">  1        2 0.28076823E+00 0.26481470E+04</pdfrwt>
<pdfrwt beam="2">  1       -1 0.14779151E+00 0.26481470E+04</pdfrwt>
<totfact> 0.30430089E+00</totfact>
</mgrwt>
</event>
<event>
12    7  0.2426980E-007  0.1962217E+04  0.7818608E-02  0.8624492E-01
         -1   -1    0    0    0  501 -0.00000000000E+00  0.00000000000E+00  0.59292727250E+03  0.59292727250E+03  0.00000000000E+00 0.  1.
          2   -1    0    0  501    0  0.00000000000E+00 -0.00000000000E+00 -0.16234268286E+04  0.16234268286E+04  0.00000000000E+00 0. -1.
         24    2    1    2    0    0  0.51162761822E+03  0.51921390334E+03 -0.69918042773E+03  0.10125135095E+04  0.70600561733E+02 0.  0.
        254    2    1    2    0    0 -0.51162761822E+03 -0.51921390334E+03 -0.33131912838E+03  0.12038405916E+04  0.89895156041E+03 0.  0.
         23    2    4    4    0    0 -0.61180448558E+02  0.24147926670E+03 -0.11562039211E+03  0.28905108440E+03  0.90150822471E+02 0.  0.
         23    2    4    4    0    0 -0.45044716966E+03 -0.76069317004E+03 -0.21569873627E+03  0.91478950718E+03  0.93579623986E+02 0.  0.
          4    1    3    3  502    0  0.29870403693E+03  0.35161530319E+03 -0.43802553372E+03  0.63617905601E+03  0.00000000000E+00 0. -1.
         -3    1    3    3    0  502  0.21292358129E+03  0.16759860015E+03 -0.26115489401E+03  0.37633445352E+03  0.00000000000E+00 0.  1.
         13    1    5    5    0    0 -0.62380561263E+02  0.14290246095E+03 -0.30663937505E+02  0.15891105950E+03  0.00000000000E+00 0. -1.
        -13    1    5    5    0    0  0.12001127052E+01  0.98576805748E+02 -0.84956454604E+02  0.13014002490E+03  0.00000000000E+00 0.  1.
          4    1    6    6  503    0 -0.29989024117E+03 -0.41576284768E+03 -0.12605197137E+03  0.52790340191E+03  0.00000000000E+00 0.  1.
         -4    1    6    6    0  503 -0.15055692850E+03 -0.34493032235E+03 -0.89646764896E+02  0.38688610528E+03  0.00000000000E+00 0. -1.
<mgrwt>
<rscale>  0 0.19622172E+04</rscale>
<asrwt>0</asrwt>
<pdfrwt beam="1">  1        2 0.24975796E+00 0.19622172E+04</pdfrwt>
<pdfrwt beam="2">  1       -1 0.91219584E-01 0.19622172E+04</pdfrwt>
<totfact> 0.13467030E+01</totfact>
</mgrwt>
</event>
<event>
12    7  0.2426980E-007  0.1899269E+04  0.7818608E-02  0.8655220E-01
          2   -1    0    0  501    0  0.00000000000E+00  0.00000000000E+00  0.16358120350E+04  0.16358120350E+04  0.00000000000E+00 0. -1.
         -1   -1    0    0    0  501 -0.00000000000E+00 -0.00000000000E+00 -0.55128932016E+03  0.55128932016E+03  0.00000000000E+00 0.  1.
         24    2    1    2    0    0 -0.17366929921E+02  0.66963856484E+03  0.76483462983E+03  0.10197817033E+04  0.79153607236E+02 0.  0.
        254    2    1    2    0    0  0.17366929921E+02 -0.66963856484E+03  0.31968808501E+03  0.11673196519E+04  0.90095353946E+03 0.  0.
         23    2    4    4    0    0  0.24900152731E+03  0.12102543557E+03  0.55489823396E+02  0.29733194728E+03  0.93157123815E+02 0.  0.
         23    2    4    4    0    0 -0.23163459739E+03 -0.79066400041E+03  0.26419826162E+03  0.86998770463E+03  0.90960082038E+02 0.  0.
          2    1    3    3  502    0 -0.12266863072E+02  0.55939068531E+03  0.67982565040E+03  0.88047221971E+03  0.00000000000E+00 0. -1.
         -1    1    3    3    0  502 -0.51000668486E+01  0.11024787953E+03  0.85008979435E+02  0.13930948355E+03  0.00000000000E+00 0.  1.
         13    1    5    5    0    0  0.59535542622E+02  0.82051367175E+01 -0.21405851427E+02  0.63796673731E+02  0.00000000000E+00 0. -1.
        -13    1    5    5    0    0  0.18946598469E+03  0.11282029885E+03  0.76895674823E+02  0.23353527355E+03  0.00000000000E+00 0.  1.
          4    1    6    6  503    0 -0.51958001094E+02 -0.14924003827E+03  0.14807234034E+02  0.15871823172E+03  0.00000000000E+00 0.  1.
         -4    1    6    6    0  503 -0.17967659629E+03 -0.64142396214E+03  0.24939102758E+03  0.71126947291E+03  0.00000000000E+00 0. -1.
<mgrwt>
<rscale>  0 0.18992690E+04</rscale>
<asrwt>0</asrwt>
<pdfrwt beam="1">  1        2 0.25166339E+00 0.18992690E+04</pdfrwt>
<pdfrwt beam="2">  1       -1 0.84813742E-01 0.18992690E+04</pdfrwt>
<totfact> 0.15629693E+01</totfact>
</mgrwt>
</event>
<event>
12    7  0.2426980E-007  0.1250602E+04  0.7818608E-02  0.9069682E-01
         -1   -1    0    0    0  501 -0.00000000000E+00  0.00000000000E+00  0.11685660954E+04  0.11685660954E+04  0.00000000000E+00 0.  1.
          2   -1    0    0  501    0  0.00000000000E+00 -0.00000000000E+00 -0.33459919464E+03  0.33459919464E+03  0.00000000000E+00 0. -1.
         24    2    1    2    0    0  0.27682183814E+03  0.84988951524E+01  0.83516537342E+02  0.29996251200E+03  0.79372131823E+02 0.  0.
        254    2    1    2    0    0 -0.27682183814E+03 -0.84988951524E+01  0.75045036341E+03  0.12032027780E+04  0.89878730287E+03 0.  0.
         23    2    4    4    0    0 -0.22588492394E+03 -0.31344969844E+03  0.78474714920E+03  0.87925823049E+03  0.89399303105E+02 0.  0.
         23    2    4    4    0    0 -0.50936914196E+02  0.30495080329E+03 -0.34296785787E+02  0.32394454753E+03  0.90411496532E+02 0.  0.
          2    1    3    3  502    0  0.22847116188E+03 -0.19262572974E+02  0.49222199332E+02  0.23450574286E+03  0.00000000000E+00 0. -1.
         -1    1    3    3    0  502  0.48350676258E+02  0.27761468126E+02  0.34294338010E+02  0.65456769143E+02  0.00000000000E+00 0.  1.
         13    1    5    5    0    0 -0.55986508967E+02 -0.14290984242E+03  0.35325712503E+03  0.38516010779E+03  0.00000000000E+00 0. -1.
        -13    1    5    5    0    0 -0.16989841497E+03 -0.17053985602E+03  0.43149002416E+03  0.49409812270E+03  0.00000000000E+00 0.  1.
          3    1    6    6  503    0 -0.58298822091E+02  0.25135556906E+03 -0.58662260321E+02  0.26461223619E+03  0.00000000000E+00 0. -1.
         -3    1    6    6    0  503  0.73619078949E+01  0.53595234231E+02  0.24365474535E+02  0.59332311344E+02  0.00000000000E+00 0.  1.
<mgrwt>
<rscale>  0 0.12506019E+04</rscale>
<asrwt>0</asrwt>
<pdfrwt beam="1">  1        2 0.51476800E-01 0.12506019E+04</pdfrwt>
<pdfrwt beam="2">  1       -1 0.17977940E+00 0.12506019E+04</pdfrwt>
<totfact> 0.22862271E+01</totfact>
</mgrwt>
</event>
<event>
12    7  0.2426980E-007  0.3433415E+04  0.7818608E-02  0.8129754E-01
          2   -1    0    0  501    0  0.00000000000E+00  0.00000000000E+00  0.34097489341E+04  0.34097489341E+04  0.00000000000E+00 0. -1.
         -1   -1    0    0    0  501 -0.00000000000E+00 -0.00000000000E+00 -0.86431123355E+03  0.86431123355E+03  0.00000000000E+00 0.  1.
         24    2    1    2    0    0  0.15965738981E+04  0.68936412744E+02  0.11599789650E+04  0.19762559638E+04  0.78968310417E+02 0.  0.
        254    2    1    2    0    0 -0.15965738981E+04 -0.68936412744E+02  0.13854587355E+04  0.22978042039E+04  0.89811347297E+03 0.  0.
         23    2    4    4    0    0 -0.11962079015E+04  0.24774008457E+03  0.61889412268E+03  0.13724204658E+04  0.90661496258E+02 0.  0.
         23    2    4    4    0    0 -0.40036599663E+03 -0.31667649732E+03  0.76656461287E+03  0.92538373804E+03  0.90204333164E+02 0.  0.
          2    1    3    3  502    0  0.47484207707E+03  0.54262399136E+02  0.33059264324E+03  0.58112898902E+03  0.00000000000E+00 0. -1.
         -1    1    3    3    0  502  0.11217318210E+04  0.14674013607E+02  0.82938632173E+03  0.13951269747E+04  0.00000000000E+00 0.  1.
         13    1    5    5    0    0 -0.84060186201E+03  0.18795595852E+03  0.39185918331E+03  0.94630468260E+03  0.00000000000E+00 0.  1.
        -13    1    5    5    0    0 -0.35560603945E+03  0.59784126052E+02  0.22703493937E+03  0.42611578323E+03  0.00000000000E+00 0. -1.
          1    1    6    6  503    0 -0.67832458300E+02 -0.85042005353E+02  0.11690665095E+03  0.15968891668E+03  0.00000000000E+00 0. -1.
         -1    1    6    6    0  503 -0.33253353833E+03 -0.23163449196E+03  0.64965796191E+03  0.76569482136E+03  0.00000000000E+00 0.  1.
<mgrwt>
<rscale>  0 0.34334148E+04</rscale>
<asrwt>0</asrwt>
<pdfrwt beam="1">  1        2 0.52457675E+00 0.34334148E+04</pdfrwt>
<pdfrwt beam="2">  1       -1 0.13297096E+00 0.34334148E+04</pdfrwt>
<totfact> 0.42109925E-01</totfact>
</mgrwt>
</event>
<event>
12    7  0.2426980E-007  0.1951632E+04  0.7818608E-02  0.8629574E-01
          2   -1    0    0  501    0  0.00000000000E+00  0.00000000000E+00  0.80769501589E+03  0.80769501589E+03  0.00000000000E+00 0. -1.
         -1   -1    0    0    0  501 -0.00000000000E+00 -0.00000000000E+00 -0.11789306693E+04  0.11789306693E+04  0.00000000000E+00 0.  1.
         24    2    1    2    0    0  0.19871258311E+02  0.64907932294E+03  0.26643507375E+03  0.70673138402E+03  0.82357551316E+02 0.  0.
        254    2    1    2    0    0 -0.19871258311E+02 -0.64907932294E+03 -0.63767072720E+03  0.12798943012E+04  0.89989256669E+03 0.  0.
         23    2    4    4    0    0 -0.38064845885E+03 -0.46907721603E+03 -0.61293268305E+03  0.86542962695E+03  0.91407228513E+02 0.  0.
         23    2    4    4    0    0  0.36077720054E+03 -0.18000210691E+03 -0.24738044150E+02  0.41446467426E+03  0.92779569203E+02 0.  0.
          4    1    3    3  502    0 -0.31016090514E+01  0.56270451143E+03  0.25046905014E+03  0.61593890301E+03  0.00000000000E+00 0. -1.
         -3    1    3    3    0  502  0.22972867362E+02  0.86374811505E+02  0.15966023614E+02  0.90792481007E+02  0.00000000000E+00 0.  1.
         13    1    5    5    0    0 -0.23705128511E+03 -0.22221907645E+03 -0.30942914774E+03  0.44868811794E+03  0.00000000000E+00 0. -1.
        -13    1    5    5    0    0 -0.14359717374E+03 -0.24685813958E+03 -0.30350353531E+03  0.41674150901E+03  0.00000000000E+00 0.  1.
          1    1    6    6  503    0  0.20184088273E+03 -0.15070247081E+03 -0.85241396629E+01  0.25203896049E+03  0.00000000000E+00 0. -1.
         -1    1    6    6    0  503  0.15893631781E+03 -0.29299636100E+02 -0.16213904487E+02  0.16242571377E+03  0.00000000000E+00 0.  1.
<mgrwt>
<rscale>  0 0.19516315E+04</rscale>
<asrwt>0</asrwt>
<pdfrwt beam="1">  1        2 0.12426077E+00 0.19516315E+04</pdfrwt>
<pdfrwt beam="2">  1       -1 0.18137395E+00 0.19516315E+04</pdfrwt>
<totfact> 0.73642568E+00</totfact>
</mgrwt>
</event>
<event>
12    7  0.2426980E-007  0.3591193E+04  0.7818608E-02  0.8092512E-01
         -1   -1    0    0    0  501 -0.00000000000E+00  0.00000000000E+00  0.15397436077E+04  0.15397436077E+04  0.00000000000E+00 0.  1.
          2   -1    0    0  501    0  0.00000000000E+00 -0.00000000000E+00 -0.20939638113E+04  0.20939638113E+04  0.00000000000E+00 0. -1.
         24    2    1    2    0    0  0.46131594599E+03  0.15980900921E+04 -0.51382214970E+03  0.17424718877E+04  0.74099482150E+02 0.  0.
        254    2    1    2    0    0 -0.46131594599E+03 -0.15980900921E+04 -0.40398053878E+02  0.18912355313E+04  0.89913040633E+03 0.  0.
         23    2    4    4    0    0 -0.18074123761E+03 -0.53367301771E+03 -0.43596688026E+03  0.71796766119E+03  0.89085111166E+02 0.  0.
         23    2    4    4    0    0 -0.28057470838E+03 -0.10644170744E+04  0.39556882638E+03  0.11732678701E+04  0.91525533993E+02 0.  0.
          2    1    3    3  502    0  0.13251321994E+03  0.49997708630E+03 -0.19381165277E+03  0.55235839545E+03  0.00000000000E+00 0. -1.
         -1    1    3    3    0  502  0.32880272605E+03  0.10981130058E+04 -0.32001049693E+03  0.11901134922E+04  0.00000000000E+00 0.  1.
         13    1    5    5    0    0 -0.83680703590E+02 -0.36989080485E+03 -0.30828107552E+03  0.48873191955E+03  0.00000000000E+00 0.  1.
        -13    1    5    5    0    0 -0.97060534018E+02 -0.16378221286E+03 -0.12768580474E+03  0.22923574164E+03  0.00000000000E+00 0. -1.
          4    1    6    6  503    0 -0.18409380723E+03 -0.81824159080E+03  0.27462157943E+03  0.88251166715E+03  0.00000000000E+00 0. -1.
         -4    1    6    6    0  503 -0.96480901153E+02 -0.24617548361E+03  0.12094724695E+03  0.29075620296E+03  0.00000000000E+00 0.  1.
<mgrwt>
<rscale>  0 0.35911933E+04</rscale>
<asrwt>0</asrwt>
<pdfrwt beam="1">  1        2 0.32214828E+00 0.35911933E+04</pdfrwt>
<pdfrwt beam="2">  1       -1 0.23688363E+00 0.35911933E+04</pdfrwt>
<totfact> 0.46689328E-01</totfact>
</mgrwt>
</event>
<event>
12    7  0.2426980E-007  0.3428915E+04  0.7818608E-02  0.8130846E-01
         -1   -1    0    0    0  501 -0.00000000000E+00  0.00000000000E+00  0.12885556822E+04  0.12885556822E+04  0.00000000000E+00 0.  1.
          2   -1    0    0  501    0  0.00000000000E+00 -0.00000000000E+00 -0.22811309191E+04  0.22811309191E+04  0.00000000000E+00 0. -1.
         24    2    1    2    0    0 -0.10601229702E+04 -0.79496800439E+03  0.46211049533E+03  0.14057199320E+04  0.81655234459E+02 0.  0.
        254    2    1    2    0    0  0.10601229702E+04  0.79496800439E+03 -0.14546857322E+04  0.21639666693E+04  0.90044784773E+03 0.  0.
         23    2    4    4    0    0  0.85540668480E+02  0.36932443515E+03 -0.40144444009E+02  0.39182380854E+03  0.90534944557E+02 0.  0.
         23    2    4    4    0    0  0.97458230173E+03  0.42564356924E+03 -0.14145412882E+04  0.17721428608E+04  0.92629110700E+02 0.  0.
          4    1    3    3  502    0 -0.71564135978E+02 -0.81182943372E+02  0.41083230463E+02  0.11575805664E+03  0.00000000000E+00 0. -1.
         -3    1    3    3    0  502 -0.98855883423E+03 -0.71378506102E+03  0.42102726487E+03  0.12899618753E+04  0.00000000000E+00 0.  1.
         13    1    5    5    0    0  0.42608758416E+02  0.31400711278E+03 -0.14377232306E+02  0.31721077848E+03  0.00000000000E+00 0. -1.
        -13    1    5    5    0    0  0.42931910064E+02  0.55317322371E+02 -0.25767211703E+02  0.74613030062E+02  0.00000000000E+00 0.  1.
          2    1    6    6  503    0  0.96831697745E+03  0.41169259710E+03 -0.13934373895E+04  0.17460802736E+04  0.00000000000E+00 0. -1.
         -2    1    6    6    0  503  0.62653242801E+01  0.13950972132E+02 -0.21103898666E+02  0.26062587183E+02  0.00000000000E+00 0.  1.
<mgrwt>
<rscale>  0 0.34289148E+04</rscale>
<asrwt>0</asrwt>
<pdfrwt beam="1">  1        2 0.35094321E+00 0.34289148E+04</pdfrwt>
<pdfrwt beam="2">  1       -1 0.19823934E+00 0.34289148E+04</pdfrwt>
<totfact> 0.67576563E-01</totfact>
</mgrwt>
</event>
<event>
12    7  0.2426980E-007  0.3731878E+04  0.7818608E-02  0.8060934E-01
          2   -1    0    0  501    0  0.00000000000E+00  0.00000000000E+00  0.37846455812E+04  0.37846455812E+04  0.00000000000E+00 0. -1.
         -1   -1    0    0    0  501 -0.00000000000E+00 -0.00000000000E+00 -0.91996166890E+03  0.91996166890E+03  0.00000000000E+00 0.  1.
         24    2    1    2    0    0 -0.67517052569E+03 -0.15582487403E+04  0.19116008120E+04  0.25582192866E+04  0.79207820632E+02 0.  0.
        254    2    1    2    0    0  0.67517052569E+03  0.15582487403E+04  0.95308310028E+03  0.21463879634E+04  0.90256275034E+03 0.  0.
         23    2    4    4    0    0  0.80543288359E+03  0.96413126455E+03  0.40591410261E+03  0.13234667529E+04  0.92340468289E+02 0.  0.
         23    2    4    4    0    0 -0.13026235790E+03  0.59411747570E+03  0.54716899767E+03  0.82292121054E+03  0.88665381730E+02 0.  0.
          2    1    3    3  502    0 -0.30902706353E+03 -0.73715715935E+03  0.95753748236E+03  0.12473076740E+04  0.00000000000E+00 0. -1.
         -1    1    3    3    0  502 -0.36614346216E+03 -0.82109158090E+03  0.95406332962E+03  0.13109116126E+04  0.00000000000E+00 0.  1.
         13    1    5    5    0    0  0.46173879901E+03  0.50069097391E+03  0.18641233809E+03  0.70614710200E+03  0.00000000000E+00 0. -1.
        -13    1    5    5    0    0  0.34369408458E+03  0.46344029065E+03  0.21950176452E+03  0.61731965091E+03  0.00000000000E+00 0.  1.
          2    1    6    6  503    0  0.11475260211E+02  0.19081746560E+02  0.16589709592E+02  0.27767122880E+02  0.00000000000E+00 0. -1.
         -2    1    6    6    0  503 -0.14173761811E+03  0.57503572914E+03  0.53057928808E+03  0.79515408766E+03  0.00000000000E+00 0.  1.
<mgrwt>
<rscale>  0 0.37318783E+04</rscale>
<asrwt>0</asrwt>
<pdfrwt beam="1">  1        2 0.58225316E+00 0.37318783E+04</pdfrwt>
<pdfrwt beam="2">  1       -1 0.14153257E+00 0.37318783E+04</pdfrwt>
<totfact> 0.18754251E-01</totfact>
</mgrwt>
</event>
<event>
12    7  0.2426980E-007  0.2269332E+04  0.7818608E-02  0.8490112E-01
         -1   -1    0    0    0  501 -0.00000000000E+00  0.00000000000E+00  0.39642878504E+03  0.39642878504E+03  0.00000000000E+00 0.  1.
          2   -1    0    0  501    0  0.00000000000E+00 -0.00000000000E+00 -0.32476623397E+04  0.32476623397E+04  0.00000000000E+00 0. -1.
         24    2    1    2    0    0 -0.58159538058E+03  0.66296127030E+03 -0.61781332750E+03  0.10795835347E+04  0.77694710610E+02 0.  0.
        254    2    1    2    0    0  0.58159538058E+03 -0.66296127030E+03 -0.22334202271E+04  0.25645075901E+04  0.90042347581E+03 0.  0.
         23    2    4    4    0    0  0.70927487765E+03 -0.76268988731E+03 -0.16494835787E+04  0.19528217362E+04  0.89162441415E+02 0.  0.
         23    2    4    4    0    0 -0.12767949707E+03  0.99728617008E+02 -0.58393664848E+03  0.61168585382E+03  0.83244959620E+02 0.  0.
          4    1    3    3  502    0 -0.48589985595E+03  0.54057809402E+03 -0.54216531543E+03  0.90678915687E+03  0.00000000000E+00 0. -1.
         -3    1    3    3    0  502 -0.95695524625E+02  0.12238317628E+03 -0.75648012063E+02  0.17279437780E+03  0.00000000000E+00 0.  1.
         13    1    5    5    0    0  0.18732728812E+03 -0.15040735569E+03 -0.35350484865E+03  0.42741029882E+03  0.00000000000E+00 0.  1.
        -13    1    5    5    0    0  0.52194758953E+03 -0.61228253162E+03 -0.12959787300E+04  0.15254114374E+04  0.00000000000E+00 0. -1.
          1    1    6    6  503    0 -0.11368196747E+03  0.73843832061E+02 -0.34074264617E+03  0.36671794636E+03  0.00000000000E+00 0. -1.
         -1    1    6    6    0  503 -0.13997529598E+02  0.25884784947E+02 -0.24319400231E+03  0.24496790746E+03  0.00000000000E+00 0.  1.
<mgrwt>
<rscale>  0 0.22693319E+04</rscale>
<asrwt>0</asrwt>
<pdfrwt beam="1">  1        2 0.49964036E+00 0.22693319E+04</pdfrwt>
<pdfrwt beam="2">  1       -1 0.60989044E-01 0.22693319E+04</pdfrwt>
<totfact> 0.34079431E+00</totfact>
</mgrwt>
</event>
<event>
12    7  0.2426980E-007  0.1454253E+04  0.7818608E-02  0.8915457E-01
         -1   -1    0    0    0  501 -0.00000000000E+00  0.00000000000E+00  0.20392710202E+03  0.20392710202E+03  0.00000000000E+00 0.  1.
          2   -1    0    0  501    0  0.00000000000E+00 -0.00000000000E+00 -0.25926582832E+04  0.25926582832E+04  0.00000000000E+00 0. -1.
         24    2    1    2    0    0 -0.85337328710E+02  0.39482089023E+03 -0.10901013272E+04  0.11651996520E+04  0.78761223247E+02 0.  0.
        254    2    1    2    0    0  0.85337328710E+02 -0.39482089023E+03 -0.12986298539E+04  0.16313857332E+04  0.90100716869E+03 0.  0.
         23    2    4    4    0    0  0.16364868525E+03 -0.66433941998E+03 -0.86067977983E+03  0.11030802774E+04  0.88818117315E+02 0.  0.
         23    2    4    4    0    0 -0.78311356545E+02  0.26951852975E+03 -0.43795007409E+03  0.52830545577E+03  0.92376841019E+02 0.  0.
          4    1    3    3  502    0 -0.46215969213E+02  0.11385331516E+03 -0.41793480200E+03  0.43562368153E+03  0.00000000000E+00 0. -1.
         -1    1    3    3    0  502 -0.39121359496E+02  0.28096757507E+03 -0.67216652524E+03  0.72957597046E+03  0.00000000000E+00 0.  1.
         13    1    5    5    0    0  0.13550261099E+03 -0.37918938474E+03 -0.52771641137E+03  0.66379978752E+03  0.00000000000E+00 0.  1.
        -13    1    5    5    0    0  0.28146074265E+02 -0.28515003525E+03 -0.33296336846E+03  0.43928048993E+03  0.00000000000E+00 0. -1.
          3    1    6    6  503    0 -0.52653456006E+02  0.23601410740E+03 -0.41488511230E+03  0.48021318363E+03  0.00000000000E+00 0. -1.
         -3    1    6    6    0  503 -0.25657900539E+02  0.33504422351E+02 -0.23064961783E+02  0.48092272136E+02  0.00000000000E+00 0.  1.
<mgrwt>
<rscale>  0 0.14542535E+04</rscale>
<asrwt>0</asrwt>
<pdfrwt beam="1">  1        2 0.39887047E+00 0.14542535E+04</pdfrwt>
<pdfrwt beam="2">  1       -1 0.31373403E-01 0.14542535E+04</pdfrwt>
<totfact> 0.32125254E+01</totfact>
</mgrwt>
</event>
<event>
12    7  0.2426980E-007  0.1895771E+04  0.7818608E-02  0.8656964E-01
         -1   -1    0    0    0  501 -0.00000000000E+00  0.00000000000E+00  0.69303433215E+03  0.69303433215E+03  0.00000000000E+00 0.  1.
          2   -1    0    0  501    0  0.00000000000E+00 -0.00000000000E+00 -0.12964532036E+04  0.12964532036E+04  0.00000000000E+00 0. -1.
         24    2    1    2    0    0 -0.34582756008E+03 -0.53147615521E+03 -0.61734545641E+03  0.88879493432E+03  0.82325074343E+02 0.  0.
        254    2    1    2    0    0  0.34582756008E+03  0.53147615521E+03  0.13926584960E+02  0.11006926014E+04  0.89959249006E+03 0.  0.
         23    2    4    4    0    0  0.26174708939E+03 -0.11063906477E+03  0.26749400120E+03  0.40076312513E+03  0.91134517742E+02 0.  0.
         23    2    4    4    0    0  0.84080470689E+02  0.64211521998E+03 -0.25356741624E+03  0.69992947629E+03  0.78888249568E+02 0.  0.
          2    1    3    3  502    0 -0.74236253016E+02 -0.66948488786E+02 -0.11859121678E+03  0.15510318537E+03  0.00000000000E+00 0. -1.
         -1    1    3    3    0  502 -0.27159130707E+03 -0.46452766642E+03 -0.49875423962E+03  0.73369174896E+03  0.00000000000E+00 0.  1.
         13    1    5    5    0    0  0.14887645819E+03 -0.46656822892E+02  0.87488114867E+02  0.17887210283E+03  0.00000000000E+00 0.  1.
        -13    1    5    5    0    0  0.11287063120E+03 -0.63982241882E+02  0.18000588633E+03  0.22189102230E+03  0.00000000000E+00 0. -1.
          4    1    6    6  503    0  0.13144087629E+02  0.16696958017E+03 -0.10233843569E+03  0.19627726094E+03  0.00000000000E+00 0. -1.
         -4    1    6    6    0  503  0.70936383060E+02  0.47514563981E+03 -0.15122898055E+03  0.50365221535E+03  0.00000000000E+00 0.  1.
<mgrwt>
<rscale>  0 0.18957706E+04</rscale>
<asrwt>0</asrwt>
<pdfrwt beam="1">  1        2 0.19945434E+00 0.18957706E+04</pdfrwt>
<pdfrwt beam="2">  1       -1 0.10662067E+00 0.18957706E+04</pdfrwt>
<totfact> 0.14572693E+01</totfact>
</mgrwt>
</event>
<event>
12    7  0.2426980E-007  0.1378469E+04  0.7818608E-02  0.8969553E-01
          4   -1    0    0  501    0  0.00000000000E+00  0.00000000000E+00  0.26660290181E+03  0.26660290181E+03  0.00000000000E+00 0. -1.
         -1   -1    0    0    0  501 -0.00000000000E+00 -0.00000000000E+00 -0.17818428675E+04  0.17818428675E+04  0.00000000000E+00 0.  1.
         24    2    1    2    0    0 -0.20328191842E+03 -0.29555064462E+03 -0.66117999211E+03  0.75648542308E+03  0.80233979509E+02 0.  0.
        254    2    1    2    0    0  0.20328191842E+03  0.29555064462E+03 -0.85405997358E+03  0.12919603462E+04  0.90059390175E+03 0.  0.
         23    2    4    4    0    0  0.32124285803E+03 -0.11459399198E+02 -0.88751582319E+03  0.94826273042E+03  0.90496286251E+02 0.  0.
         23    2    4    4    0    0 -0.11796093960E+03  0.30701004382E+03  0.33455849611E+02  0.34369761581E+03  0.94014929469E+02 0.  0.
          2    1    3    3  502    0 -0.77191797338E+02 -0.57201889750E+02 -0.14183669932E+03  0.17131339423E+03  0.00000000000E+00 0. -1.
         -1    1    3    3    0  502 -0.12609012108E+03 -0.23834875487E+03 -0.51934329279E+03  0.58517202885E+03  0.00000000000E+00 0.  1.
         13    1    5    5    0    0  0.81181135045E+02  0.29024623971E+02 -0.30422691545E+03  0.31620692840E+03  0.00000000000E+00 0. -1.
        -13    1    5    5    0    0  0.24006172298E+03 -0.40484023169E+02 -0.58328890773E+03  0.63205580201E+03  0.00000000000E+00 0.  1.
          2    1    6    6  503    0 -0.70540492316E+02  0.17435789988E+03  0.65609342746E+02  0.19920146626E+03  0.00000000000E+00 0. -1.
         -2    1    6    6    0  503 -0.47420447288E+02  0.13265214394E+03 -0.32153493135E+02  0.14449614955E+03  0.00000000000E+00 0.  1.
<mgrwt>
<rscale>  0 0.13784694E+04</rscale>
<asrwt>0</asrwt>
<pdfrwt beam="1">  1        4 0.41015829E-01 0.13784694E+04</pdfrwt>
<pdfrwt beam="2">  1       -1 0.27412969E+00 0.13784694E+04</pdfrwt>
<totfact> 0.11648154E+00</totfact>
</mgrwt>
</event>
<event>
12    7  0.2426980E-007  0.2457428E+04  0.7818608E-02  0.8418311E-01
          2   -1    0    0  501    0  0.00000000000E+00  0.00000000000E+00  0.42555499809E+04  0.42555499809E+04  0.00000000000E+00 0. -1.
         -1   -1    0    0    0  501 -0.00000000000E+00 -0.00000000000E+00 -0.35476922284E+03  0.35476922284E+03  0.00000000000E+00 0.  1.
         24    2    1    2    0    0  0.15543320948E+03  0.79310794688E+03  0.39617007626E+03  0.90346654557E+03  0.78239194955E+02 0.  0.
        254    2    1    2    0    0 -0.15543320948E+03 -0.79310794688E+03  0.35046106818E+04  0.37068526581E+04  0.89737444828E+03 0.  0.
         23    2    4    4    0    0 -0.91520174318E+02 -0.69203498831E+03  0.11563571861E+04  0.13537665293E+04  0.90738673283E+02 0.  0.
         23    2    4    4    0    0 -0.63913035160E+02 -0.10107295857E+03  0.23482534957E+04  0.23530861288E+04  0.91756364879E+02 0.  0.
          4    1    3    3  502    0  0.21338861405E+02  0.14359046670E+03  0.10494236084E+03  0.17912696121E+03  0.00000000000E+00 0. -1.
         -3    1    3    3    0  502  0.13409434807E+03  0.64951748018E+03  0.29122771542E+03  0.72433958436E+03  0.00000000000E+00 0.  1.
         13    1    5    5    0    0 -0.45454436570E+02 -0.34553376825E+03  0.49008155770E+03  0.60136480110E+03  0.00000000000E+00 0. -1.
        -13    1    5    5    0    0 -0.46065737748E+02 -0.34650122006E+03  0.66627562835E+03  0.75240172822E+03  0.00000000000E+00 0.  1.
          1    1    6    6  503    0 -0.72845121836E+02 -0.11250136813E+03  0.19695161851E+04  0.19740711671E+04  0.00000000000E+00 0. -1.
         -1    1    6    6    0  503  0.89320866758E+01  0.11428409567E+02  0.37873731065E+03  0.37901496170E+03  0.00000000000E+00 0.  1.
<mgrwt>
<rscale>  0 0.24574281E+04</rscale>
<asrwt>0</asrwt>
<pdfrwt beam="1">  1        2 0.65469996E+00 0.24574281E+04</pdfrwt>
<pdfrwt beam="2">  1       -1 0.54579884E-01 0.24574281E+04</pdfrwt>
<totfact> 0.72133533E-01</totfact>
</mgrwt>
</event>
<event>
12    7  0.2426980E-007  0.2532224E+04  0.7818608E-02  0.8391595E-01
         -1   -1    0    0    0  501 -0.00000000000E+00  0.00000000000E+00  0.16940533025E+04  0.16940533025E+04  0.00000000000E+00 0.  1.
          2   -1    0    0  501    0  0.00000000000E+00 -0.00000000000E+00 -0.94627488870E+03  0.94627488870E+03  0.00000000000E+00 0. -1.
         24    2    1    2    0    0 -0.72210762446E+03  0.86869794469E+01  0.11979192481E+04  0.14009740408E+04  0.78758193903E+02 0.  0.
        254    2    1    2    0    0  0.72210762446E+03 -0.86869794469E+01 -0.45014083432E+03  0.12393541504E+04  0.90103110626E+03 0.  0.
         23    2    4    4    0    0  0.84704734039E+03  0.97090302873E+02 -0.55761040316E+03  0.10230304315E+04  0.93521004475E+02 0.  0.
         23    2    4    4    0    0 -0.12493971593E+03 -0.10577728232E+03  0.10746956884E+03  0.21632371889E+03  0.91910157528E+02 0.  0.
          4    1    3    3  502    0 -0.36135424244E+03 -0.25189640960E+02  0.64910149391E+03  0.74333313927E+03  0.00000000000E+00 0. -1.
         -3    1    3    3    0  502 -0.36075338202E+03  0.33876620407E+02  0.54881775421E+03  0.65764090155E+03  0.00000000000E+00 0.  1.
         13    1    5    5    0    0  0.36142902265E+03 -0.28568291751E+01 -0.25187999254E+03  0.44054810240E+03  0.00000000000E+00 0. -1.
        -13    1    5    5    0    0  0.48561831773E+03  0.99947132048E+02 -0.30573041062E+03  0.58248232909E+03  0.00000000000E+00 0.  1.
          1    1    6    6  503    0 -0.56148169115E+00  0.88363743902E+01 -0.76732989193E+01  0.11716496505E+02  0.00000000000E+00 0. -1.
         -1    1    6    6    0  503 -0.12437823424E+03 -0.11461365671E+03  0.11514286776E+03  0.20460722239E+03  0.00000000000E+00 0.  1.
<mgrwt>
<rscale>  0 0.25322244E+04</rscale>
<asrwt>0</asrwt>
<pdfrwt beam="1">  1        2 0.14558075E+00 0.25322244E+04</pdfrwt>
<pdfrwt beam="2">  1       -1 0.26062358E+00 0.25322244E+04</pdfrwt>
<totfact> 0.16460775E+00</totfact>
</mgrwt>
</event>
<event>
12    7  0.2426980E-007  0.2198582E+04  0.7818608E-02  0.8519019E-01
          2   -1    0    0  501    0  0.00000000000E+00  0.00000000000E+00  0.13499411137E+04  0.13499411137E+04  0.00000000000E+00 0. -1.
         -1   -1    0    0    0  501 -0.00000000000E+00 -0.00000000000E+00 -0.89518039072E+03  0.89518039072E+03  0.00000000000E+00 0.  1.
         24    2    1    2    0    0 -0.81479403097E+03 -0.41392761661E+03  0.20558093953E+03  0.94010168331E+03  0.79386822361E+02 0.  0.
        254    2    1    2    0    0  0.81479403097E+03  0.41392761661E+03  0.24917978341E+03  0.13050198211E+04  0.89764179058E+03 0.  0.
         23    2    4    4    0    0  0.79190707813E+03  0.29006474223E+03  0.51823543196E+03  0.99400210946E+03  0.90652388831E+02 0.  0.
         23    2    4    4    0    0  0.22886952840E+02  0.12386287439E+03 -0.26905564855E+03  0.31101771160E+03  0.92061124542E+02 0.  0.
          4    1    3    3  502    0 -0.60800190746E+03 -0.34468604548E+03  0.16789077059E+03  0.71879211199E+03  0.00000000000E+00 0. -1.
         -3    1    3    3    0  502 -0.20679212352E+03 -0.69241571136E+02  0.37690168943E+02  0.22130957132E+03  0.00000000000E+00 0.  1.
         13    1    5    5    0    0  0.40248695682E+03  0.11033711493E+03  0.22160602975E+03  0.47252435044E+03  0.00000000000E+00 0. -1.
        -13    1    5    5    0    0  0.38942012131E+03  0.17972762730E+03  0.29662940221E+03  0.52147775902E+03  0.00000000000E+00 0.  1.
          1    1    6    6  503    0  0.18360206683E+02  0.11655018448E+02 -0.26470214343E+01  0.21907609795E+02  0.00000000000E+00 0. -1.
         -1    1    6    6    0  503  0.45267461569E+01  0.11220785594E+03 -0.26640862711E+03  0.28911010181E+03  0.00000000000E+00 0.  1.
<mgrwt>
<rscale>  0 0.21985821E+04</rscale>
<asrwt>0</asrwt>
<pdfrwt beam="1">  1        2 0.20768325E+00 0.21985821E+04</pdfrwt>
<pdfrwt beam="2">  1       -1 0.13772006E+00 0.21985821E+04</pdfrwt>
<totfact> 0.70483157E+00</totfact>
</mgrwt>
</event>
<event>
12    7  0.2426980E-007  0.1471893E+04  0.7818608E-02  0.8903362E-01
         -3   -1    0    0    0  501 -0.00000000000E+00  0.00000000000E+00  0.73656042253E+03  0.73656042253E+03  0.00000000000E+00 0.  1.
          2   -1    0    0  501    0  0.00000000000E+00 -0.00000000000E+00 -0.73533309575E+03  0.73533309575E+03  0.00000000000E+00 0. -1.
         24    2    1    2    0    0  0.43425268497E+01 -0.34410132054E+03  0.29697441914E+03  0.46212702096E+03  0.83324675494E+02 0.  0.
        254    2    1    2    0    0 -0.43425268497E+01  0.34410132054E+03 -0.29574709236E+03  0.10097664973E+04  0.90207397709E+03 0.  0.
         23    2    4    4    0    0  0.27212742014E+03  0.32735050794E+03  0.16453258668E+03  0.46496907557E+03  0.88958312236E+02 0.  0.
         23    2    4    4    0    0 -0.27646994699E+03  0.16750812599E+02 -0.46027967904E+03  0.54479742176E+03  0.90722800332E+02 0.  0.
          2    1    3    3  502    0  0.33056196309E+02 -0.68152856149E+02  0.77558123152E+02  0.10841026881E+03  0.00000000000E+00 0. -1.
         -1    1    3    3    0  502 -0.28713669459E+02 -0.27594846439E+03  0.21941629599E+03  0.35371675216E+03  0.00000000000E+00 0.  1.
         13    1    5    5    0    0  0.98136736933E+02  0.93372384516E+02  0.12232867870E+02  0.13601053041E+03  0.00000000000E+00 0. -1.
        -13    1    5    5    0    0  0.17399068320E+03  0.23397812342E+03  0.15229971881E+03  0.32895854516E+03  0.00000000000E+00 0.  1.
          2    1    6    6  503    0 -0.24000990478E+01 -0.13946591100E+02 -0.36876237347E+02  0.39498414647E+02  0.00000000000E+00 0. -1.
         -2    1    6    6    0  503 -0.27406984794E+03  0.30697403699E+02 -0.42340344170E+03  0.50529900711E+03  0.00000000000E+00 0.  1.
<mgrwt>
<rscale>  0 0.14718930E+04</rscale>
<asrwt>0</asrwt>
<pdfrwt beam="1">  1        2 0.11312817E+00 0.14718930E+04</pdfrwt>
<pdfrwt beam="2">  1       -3 0.11331699E+00 0.14718930E+04</pdfrwt>
<totfact> 0.15272508E+01</totfact>
</mgrwt>
</event>
<event>
12    7  0.2426980E-007  0.2595625E+04  0.7818608E-02  0.8369689E-01
         -1   -1    0    0    0  501 -0.00000000000E+00  0.00000000000E+00  0.79798496617E+03  0.79798496617E+03  0.00000000000E+00 0.  1.
          2   -1    0    0  501    0  0.00000000000E+00 -0.00000000000E+00 -0.21107133168E+04  0.21107133168E+04  0.00000000000E+00 0. -1.
         24    2    1    2    0    0  0.10926971717E+04  0.31239365222E+03 -0.47884856903E+03  0.12357273742E+04  0.78417397692E+02 0.  0.
        254    2    1    2    0    0 -0.10926971717E+04 -0.31239365222E+03 -0.83387978155E+03  0.16729709087E+04  0.90105453131E+03 0.  0.
         23    2    4    4    0    0 -0.76953995487E+03 -0.44170281013E+03 -0.15810816385E+03  0.90603244620E+03  0.92754986275E+02 0.  0.
         23    2    4    4    0    0 -0.32315721684E+03  0.12930915792E+03 -0.67577161771E+03  0.76693846253E+03  0.10186206801E+03 0.  0.
          2    1    3    3  502    0  0.99569949870E+03  0.27570947691E+03 -0.45710733546E+03  0.11297700312E+04  0.00000000000E+00 0. -1.
         -1    1    3    3    0  502  0.96997673007E+02  0.36684175311E+02 -0.21741233568E+02  0.10595734295E+03  0.00000000000E+00 0.  1.
         13    1    5    5    0    0 -0.58244668548E+03 -0.37859443088E+03 -0.12390516904E+03  0.70564181809E+03  0.00000000000E+00 0.  1.
        -13    1    5    5    0    0 -0.18709326939E+03 -0.63108379252E+02 -0.34202994805E+02  0.20039062811E+03  0.00000000000E+00 0. -1.
          2    1    6    6  503    0 -0.53244993557E+01  0.20494608807E+02 -0.15923316761E+02  0.26493986114E+02  0.00000000000E+00 0. -1.
         -2    1    6    6    0  503 -0.31783271748E+03  0.10881454911E+03 -0.65984830094E+03  0.74044447642E+03  0.00000000000E+00 0.  1.
<mgrwt>
<rscale>  0 0.25956252E+04</rscale>
<asrwt>0</asrwt>
<pdfrwt beam="1">  1        2 0.32472512E+00 0.25956252E+04</pdfrwt>
<pdfrwt beam="2">  1       -1 0.12276692E+00 0.25956252E+04</pdfrwt>
<totfact> 0.34139776E+00</totfact>
</mgrwt>
</event>
<event>
12    7  0.2426980E-007  0.1087530E+04  0.7818608E-02  0.9217432E-01
          2   -1    0    0  501    0  0.00000000000E+00  0.00000000000E+00  0.23275424237E+04  0.23275424237E+04  0.00000000000E+00 0. -1.
         -1   -1    0    0    0  501 -0.00000000000E+00 -0.00000000000E+00 -0.12703537665E+03  0.12703537665E+03  0.00000000000E+00 0.  1.
         24    2    1    2    0    0  0.14537222223E+03  0.41581128330E+02  0.42634970738E+03  0.45947992184E+03  0.80533548055E+02 0.  0.
        254    2    1    2    0    0 -0.14537222223E+03 -0.41581128330E+02  0.17741573397E+04  0.19950978785E+04  0.89995511314E+03 0.  0.
         23    2    4    4    0    0  0.29870600047E+03  0.14493172926E+03  0.11565150873E+04  0.12065557609E+04  0.89549852531E+02 0.  0.
         23    2    4    4    0    0 -0.44407822271E+03 -0.18651285759E+03  0.61764225232E+03  0.78854211758E+03  0.91237083544E+02 0.  0.
          4    1    3    3  502    0  0.20708720652E+02  0.37879494109E+02  0.15391174996E+03  0.15985159980E+03  0.00000000000E+00 0. -1.
         -3    1    3    3    0  502  0.12466350158E+03  0.37016342210E+01  0.27243795743E+03  0.29962832204E+03  0.00000000000E+00 0.  1.
         13    1    5    5    0    0  0.20164042411E+03  0.52141729920E+02  0.65064435752E+03  0.68316593929E+03  0.00000000000E+00 0.  1.
        -13    1    5    5    0    0  0.97065576368E+02  0.92789999341E+02  0.50587072983E+03  0.52338982163E+03  0.00000000000E+00 0. -1.
          2    1    6    6  503    0 -0.98249932209E+02 -0.84635292934E+02  0.16013214509E+03  0.20605457015E+03  0.00000000000E+00 0. -1.
         -2    1    6    6    0  503 -0.34582829050E+03 -0.10187756466E+03  0.45751010723E+03  0.58248754743E+03  0.00000000000E+00 0.  1.
<mgrwt>
<rscale>  0 0.10875297E+04</rscale>
<asrwt>0</asrwt>
<pdfrwt beam="1">  1        2 0.35808342E+00 0.10875297E+04</pdfrwt>
<pdfrwt beam="2">  1       -1 0.19543906E-01 0.10875297E+04</pdfrwt>
<totfact> 0.10590129E+02</totfact>
</mgrwt>
</event>
<event>
12    7  0.3268512E-007  0.3779331E+04  0.7818608E-02  0.8050605E-01
          2   -1    0    0  501    0  0.00000000000E+00  0.00000000000E+00  0.23783330162E+04  0.23783330162E+04  0.00000000000E+00 0. -1.
         -1   -1    0    0    0  501 -0.00000000000E+00 -0.00000000000E+00 -0.15014026041E+04  0.15014026041E+04  0.00000000000E+00 0.  1.
         24    2    1    2    0    0 -0.16029944224E+04 -0.54019330242E+03 -0.16040421716E+03  0.17009341303E+04  0.77765549122E+02 0.  0.
        254    2    1    2    0    0  0.16029944224E+04  0.54019330242E+03  0.10373346293E+04  0.21788014899E+04  0.89984047313E+03 0.  0.
         23    2    4    4    0    0  0.38632488895E+03  0.52599148983E+03  0.16670586721E+03  0.67975630374E+03  0.91453918022E+02 0.  0.
         23    2    4    4    0    0  0.12166695335E+04  0.14201812586E+02  0.87062876209E+03  0.14990451862E+04  0.93035389448E+02 0.  0.
          4    1    3    3  502    0 -0.67994956926E+03 -0.19407842557E+03 -0.86252290347E+02  0.71234634104E+03  0.00000000000E+00 0. -1.
         -3    1    3    3    0  502 -0.92304485315E+03 -0.34611487685E+03 -0.74151926810E+02  0.98858778930E+03  0.00000000000E+00 0.  1.
         13    1    5    5    0    0  0.27067249221E+03  0.33271535796E+03  0.14807931089E+03  0.45375168294E+03  0.00000000000E+00 0. -1.
        -13    1    5    5    0    0  0.11565239673E+03  0.19327613188E+03  0.18626556325E+02  0.22600462080E+03  0.00000000000E+00 0.  1.
          1    1    6    6  503    0  0.50015332567E+03 -0.17605457612E+02  0.30985649766E+03  0.58862071867E+03  0.00000000000E+00 0. -1.
         -1    1    6    6    0  503  0.71651620780E+03  0.31807270198E+02  0.56077226444E+03  0.91042446751E+03  0.00000000000E+00 0.  1.
<mgrwt>
<rscale>  0 0.37793308E+04</rscale>
<asrwt>0</asrwt>
<pdfrwt beam="1">  1        2 0.36589739E+00 0.37793308E+04</pdfrwt>
<pdfrwt beam="2">  1       -1 0.23098502E+00 0.37793308E+04</pdfrwt>
<totfact> 0.34727820E-01</totfact>
</mgrwt>
</event>
<event>
12    7  0.2426980E-007  0.1540325E+04  0.7818608E-02  0.8858071E-01
         -1   -1    0    0    0  501 -0.00000000000E+00  0.00000000000E+00  0.36384072242E+03  0.36384072242E+03  0.00000000000E+00 0.  1.
          2   -1    0    0  501    0  0.00000000000E+00 -0.00000000000E+00 -0.16302477511E+04  0.16302477511E+04  0.00000000000E+00 0. -1.
         24    2    1    2    0    0  0.30323220771E+03 -0.11442937071E+03 -0.91624671489E+03  0.97516367327E+03  0.79951825714E+02 0.  0.
        254    2    1    2    0    0 -0.30323220771E+03  0.11442937071E+03 -0.35016031375E+03  0.10189248002E+04  0.90030642033E+03 0.  0.
         23    2    4    4    0    0  0.22401591834E+03  0.82041961134E+02  0.14258954837E+03  0.29116301291E+03  0.86776181775E+02 0.  0.
         23    2    4    4    0    0 -0.52724812605E+03  0.32387409580E+02 -0.49274986212E+03  0.72776178731E+03  0.88290779393E+02 0.  0.
          4    1    3    3  502    0  0.23745605364E+03 -0.82981595716E+02 -0.79331837132E+03  0.83224116752E+03  0.00000000000E+00 0. -1.
         -1    1    3    3    0  502  0.65776154063E+02 -0.31447774998E+02 -0.12292834357E+03  0.14292250575E+03  0.00000000000E+00 0.  1.
         13    1    5    5    0    0  0.18398984126E+03  0.33623898093E+02  0.83177732996E+02  0.20469822538E+03  0.00000000000E+00 0. -1.
        -13    1    5    5    0    0  0.40026077084E+02  0.48418063041E+02  0.59411815373E+02  0.86464787522E+02  0.00000000000E+00 0.  1.
          3    1    6    6  503    0 -0.29456757830E+03  0.61671451947E+02 -0.28388586369E+03  0.41372044883E+03  0.00000000000E+00 0. -1.
         -3    1    6    6    0  503 -0.23268054774E+03 -0.29284042367E+02 -0.20886399843E+03  0.31404133848E+03  0.00000000000E+00 0.  1.
<mgrwt>
<rscale>  0 0.15403253E+04</rscale>
<asrwt>0</asrwt>
<pdfrwt beam="1">  1        2 0.25080734E+00 0.15403253E+04</pdfrwt>
<pdfrwt beam="2">  1       -1 0.55975496E-01 0.15403253E+04</pdfrwt>
<totfact> 0.38002867E+01</totfact>
</mgrwt>
</event>
<event>
12    7  0.2426980E-007  0.3094434E+04  0.7818608E-02  0.8217267E-01
          2   -1    0    0  501    0  0.00000000000E+00  0.00000000000E+00  0.26124107877E+04  0.26124107877E+04  0.00000000000E+00 0. -1.
         -1   -1    0    0    0  501 -0.00000000000E+00 -0.00000000000E+00 -0.91634893593E+03  0.91634893593E+03  0.00000000000E+00 0.  1.
         24    2    1    2    0    0  0.85191567830E+03  0.30399293886E+03 -0.46328920211E+03  0.10191688142E+04  0.76786439577E+02 0.  0.
        254    2    1    2    0    0 -0.85191567830E+03 -0.30399293886E+03  0.21593510539E+04  0.25095909094E+04  0.90392340873E+03 0.  0.
         23    2    4    4    0    0 -0.93139492856E+03 -0.93035244787E+02  0.20217986939E+04  0.22298313899E+04  0.91246911202E+02 0.  0.
         23    2    4    4    0    0  0.79479250266E+02 -0.21095769407E+03  0.13755235997E+03  0.27975951954E+03  0.92328961482E+02 0.  0.
          2    1    3    3  502    0  0.22349161868E+03  0.65816434349E+02 -0.15467040595E+03  0.27964842415E+03  0.00000000000E+00 0. -1.
         -1    1    3    3    0  502  0.62842405962E+03  0.23817650451E+03 -0.30861879616E+03  0.73952039008E+03  0.00000000000E+00 0.  1.
         13    1    5    5    0    0 -0.39554282660E+03  0.54885328746E+01  0.86202384514E+03  0.94845630435E+03  0.00000000000E+00 0.  1.
        -13    1    5    5    0    0 -0.53585210196E+03 -0.98523777661E+02  0.11597748488E+04  0.12813750855E+04  0.00000000000E+00 0. -1.
          1    1    6    6  503    0  0.56010187376E+02 -0.13610954911E+03  0.36148621122E+02  0.15155749159E+03  0.00000000000E+00 0. -1.
         -1    1    6    6    0  503  0.23469062890E+02 -0.74848144962E+02  0.10140373885E+03  0.12820202795E+03  0.00000000000E+00 0.  1.
<mgrwt>
<rscale>  0 0.30944336E+04</rscale>
<asrwt>0</asrwt>
<pdfrwt beam="1">  1        2 0.40190935E+00 0.30944336E+04</pdfrwt>
<pdfrwt beam="2">  1       -1 0.14097676E+00 0.30944336E+04</pdfrwt>
<totfact> 0.11885103E+00</totfact>
</mgrwt>
</event>
<event>
12    7  0.2426980E-007  0.2417796E+04  0.7818608E-02  0.8432871E-01
         -1   -1    0    0    0  501 -0.00000000000E+00  0.00000000000E+00  0.69521802715E+03  0.69521802715E+03  0.00000000000E+00 0.  1.
          2   -1    0    0  501    0  0.00000000000E+00 -0.00000000000E+00 -0.21021237474E+04  0.21021237474E+04  0.00000000000E+00 0. -1.
         24    2    1    2    0    0 -0.66453669978E+03 -0.63175073342E+03 -0.40223523378E+02  0.92124498506E+03  0.79726884664E+02 0.  0.
        254    2    1    2    0    0  0.66453669978E+03  0.63175073342E+03 -0.13666821969E+04  0.18760967895E+04  0.90066693165E+03 0.  0.
         23    2    4    4    0    0  0.13306433808E+02 -0.16320709683E+03 -0.33696027444E+02  0.19046361926E+03  0.91254316933E+02 0.  0.
         23    2    4    4    0    0  0.65123026597E+03  0.79495783025E+03 -0.13329861694E+04  0.16856331703E+04  0.91914337911E+02 0.  0.
          4    1    3    3  502    0 -0.10006507037E+03 -0.77172968639E+02  0.18665911262E+02  0.12773841098E+03  0.00000000000E+00 0. -1.
         -3    1    3    3    0  502 -0.56447162942E+03 -0.55457776478E+03 -0.58889434640E+02  0.79350657409E+03  0.00000000000E+00 0.  1.
         13    1    5    5    0    0  0.52693974341E+01 -0.15848067416E+03 -0.54494449383E+02  0.16767091472E+03  0.00000000000E+00 0. -1.
        -13    1    5    5    0    0  0.80370363738E+01 -0.47264226754E+01  0.20798421939E+02  0.22792704537E+02  0.00000000000E+00 0.  1.
          2    1    6    6  503    0  0.23542396052E+03  0.30813230896E+03 -0.43444671204E+03  0.58233487498E+03  0.00000000000E+00 0. -1.
         -2    1    6    6    0  503  0.41580630545E+03  0.48682552129E+03 -0.89853945741E+03  0.11032982953E+04  0.00000000000E+00 0.  1.
<mgrwt>
<rscale>  0 0.24177960E+04</rscale>
<asrwt>0</asrwt>
<pdfrwt beam="1">  1        2 0.32340365E+00 0.24177960E+04</pdfrwt>
<pdfrwt beam="2">  1       -1 0.10695662E+00 0.24177960E+04</pdfrwt>
<totfact> 0.48809767E+00</totfact>
</mgrwt>
</event>
<event>
12    7  0.2426980E-007  0.4365636E+04  0.7818608E-02  0.7934592E-01
         -1   -1    0    0    0  501 -0.00000000000E+00  0.00000000000E+00  0.22245859263E+04  0.22245859263E+04  0.00000000000E+00 0.  1.
          2   -1    0    0  501    0  0.00000000000E+00 -0.00000000000E+00 -0.21418338091E+04  0.21418338091E+04  0.00000000000E+00 0. -1.
         24    2    1    2    0    0 -0.19840161795E+04 -0.33833577416E+03  0.59972148745E+03  0.21016740929E+04  0.81097679430E+02 0.  0.
        254    2    1    2    0    0  0.19840161795E+04  0.33833577416E+03 -0.51696937023E+03  0.22647456425E+04  0.90056881970E+03 0.  0.
         23    2    4    4    0    0  0.76245411639E+03  0.21904871752E+03  0.22237424021E+03  0.82900098166E+03  0.92052727552E+02 0.  0.
         23    2    4    4    0    0  0.12215620631E+04  0.11928705664E+03 -0.73934361044E+03  0.14357446609E+04  0.91052078475E+02 0.  0.
          2    1    3    3  502    0 -0.13378517925E+04 -0.23054119766E+03  0.36477654279E+03  0.14057235108E+04  0.00000000000E+00 0. -1.
         -1    1    3    3    0  502 -0.64616438696E+03 -0.10779457649E+03  0.23494494466E+03  0.69595058210E+03  0.00000000000E+00 0.  1.
         13    1    5    5    0    0  0.20206010020E+03  0.16869588466E+02  0.62363002807E+02  0.21213677481E+03  0.00000000000E+00 0.  1.
        -13    1    5    5    0    0  0.56039401619E+03  0.20217912905E+03  0.16001123740E+03  0.61686420685E+03  0.00000000000E+00 0. -1.
          4    1    6    6  503    0  0.84517853267E+03  0.91578653273E+02 -0.46339358700E+03  0.96821847653E+03  0.00000000000E+00 0.  1.
         -4    1    6    6    0  503  0.37638353045E+03  0.27708403366E+02 -0.27595002344E+03  0.46752618435E+03  0.00000000000E+00 0. -1.
<mgrwt>
<rscale>  0 0.43656355E+04</rscale>
<asrwt>0</asrwt>
<pdfrwt beam="1">  1        2 0.32951289E+00 0.43656355E+04</pdfrwt>
<pdfrwt beam="2">  1       -1 0.34224399E+00 0.43656355E+04</pdfrwt>
<totfact> 0.84837498E-02</totfact>
</mgrwt>
</event>
<event>
12    7  0.2426980E-007  0.2967964E+04  0.7818608E-02  0.8252939E-01
          2   -1    0    0  501    0  0.00000000000E+00  0.00000000000E+00  0.18836971947E+04  0.18836971947E+04  0.00000000000E+00 0. -1.
         -1   -1    0    0    0  501 -0.00000000000E+00 -0.00000000000E+00 -0.11690852142E+04  0.11690852142E+04  0.00000000000E+00 0.  1.
         24    2    1    2    0    0 -0.86954456379E+03  0.91947345769E+03  0.79799647257E+03  0.14977297796E+04  0.69691711613E+02 0.  0.
        254    2    1    2    0    0  0.86954456379E+03 -0.91947345769E+03 -0.83384492057E+02  0.15550526292E+04  0.89983138330E+03 0.  0.
         23    2    4    4    0    0 -0.11061584934E+03  0.30114378717E+02 -0.11503990479E+03  0.18689826334E+03  0.92488049044E+02 0.  0.
         23    2    4    4    0    0  0.98016041312E+03 -0.94958783641E+03  0.31655412736E+02  0.13681543659E+04  0.91721367433E+02 0.  0.
          2    1    3    3  502    0 -0.35677125162E+03  0.41736921503E+03  0.37054523609E+03  0.66240966149E+03  0.00000000000E+00 0. -1.
         -1    1    3    3    0  502 -0.51277331216E+03  0.50210424266E+03  0.42745123648E+03  0.83532011812E+03  0.00000000000E+00 0.  1.
         13    1    5    5    0    0 -0.31434853015E+01  0.39176975639E+02 -0.34402421388E+02  0.52232590567E+02  0.00000000000E+00 0.  1.
        -13    1    5    5    0    0 -0.10747236404E+03 -0.90625969211E+01 -0.80637483405E+02  0.13466567278E+03  0.00000000000E+00 0. -1.
          1    1    6    6  503    0  0.48300668587E+03 -0.52432391637E+03 -0.49343796634E+01  0.71290628836E+03  0.00000000000E+00 0.  1.
         -1    1    6    6    0  503  0.49715372725E+03 -0.42526392004E+03  0.36589792399E+02  0.65524807753E+03  0.00000000000E+00 0. -1.
<mgrwt>
<rscale>  0 0.29679640E+04</rscale>
<asrwt>0</asrwt>
<pdfrwt beam="1">  1        2 0.28979957E+00 0.29679640E+04</pdfrwt>
<pdfrwt beam="2">  1       -1 0.17985926E+00 0.29679640E+04</pdfrwt>
<totfact> 0.15794228E+00</totfact>
</mgrwt>
</event>
<event>
12    7  0.2426980E-007  0.1465227E+04  0.7818608E-02  0.8907912E-01
         -1   -1    0    0    0  501 -0.00000000000E+00  0.00000000000E+00  0.80493249046E+03  0.80493249046E+03  0.00000000000E+00 0.  1.
          2   -1    0    0  501    0  0.00000000000E+00 -0.00000000000E+00 -0.66679156334E+03  0.66679156334E+03  0.00000000000E+00 0. -1.
         24    2    1    2    0    0 -0.14973603976E+03  0.42562282763E+03  0.54303776085E+02  0.46130379861E+03  0.79225131853E+02 0.  0.
        254    2    1    2    0    0  0.14973603976E+03 -0.42562282763E+03  0.83837151037E+02  0.10104202552E+04  0.90019150807E+03 0.  0.
         23    2    4    4    0    0 -0.25508699550E+03 -0.12141487503E+03 -0.25748396329E+03  0.39285757430E+03  0.90709068882E+02 0.  0.
         23    2    4    4    0    0  0.40482303526E+03 -0.30420795260E+03  0.34132111433E+03  0.61756268089E+03  0.91974960938E+02 0.  0.
          4    1    3    3  502    0 -0.93177642601E+02  0.17684880113E+03  0.50408254254E+02  0.20615179756E+03  0.00000000000E+00 0. -1.
         -3    1    3    3    0  502 -0.56558397161E+02  0.24877402650E+03  0.38955218303E+01  0.25515200105E+03  0.00000000000E+00 0.  1.
         13    1    5    5    0    0 -0.37383407185E+02 -0.40341509793E+02 -0.14907846316E+02  0.56984212084E+02  0.00000000000E+00 0. -1.
        -13    1    5    5    0    0 -0.21770358832E+03 -0.81073365239E+02 -0.24257611698E+03  0.33587336221E+03  0.00000000000E+00 0.  1.
          1    1    6    6  503    0  0.67445836922E+02 -0.43308240203E+02  0.17426442213E+02  0.82025761050E+02  0.00000000000E+00 0. -1.
         -1    1    6    6    0  503  0.33737719834E+03 -0.26089971239E+03  0.32389467212E+03  0.53553691984E+03  0.00000000000E+00 0.  1.
<mgrwt>
<rscale>  0 0.14652265E+04</rscale>
<asrwt>0</asrwt>
<pdfrwt beam="1">  1        2 0.10258332E+00 0.14652265E+04</pdfrwt>
<pdfrwt beam="2">  1       -1 0.12383577E+00 0.14652265E+04</pdfrwt>
<totfact> 0.27618123E+01</totfact>
</mgrwt>
</event>
<event>
12    7  0.2426980E-007  0.1496866E+04  0.7818608E-02  0.8886540E-01
          2   -1    0    0  501    0  0.00000000000E+00  0.00000000000E+00  0.93837362291E+03  0.93837362291E+03  0.00000000000E+00 0. -1.
         -1   -1    0    0    0  501 -0.00000000000E+00 -0.00000000000E+00 -0.59693923783E+03  0.59693923783E+03  0.00000000000E+00 0.  1.
         24    2    1    2    0    0  0.12201454344E+03  0.41853290335E+03  0.29957549653E+03  0.53501244771E+03  0.80221574938E+02 0.  0.
        254    2    1    2    0    0 -0.12201454344E+03 -0.41853290335E+03  0.41858888551E+02  0.10003004130E+04  0.89932831032E+03 0.  0.
         23    2    4    4    0    0 -0.48770895656E+03 -0.36218523862E+03  0.72013370542E+02  0.61837390787E+03  0.90344844976E+02 0.  0.
         23    2    4    4    0    0  0.36569441312E+03 -0.56347664735E+02 -0.30154481991E+02  0.38192650515E+03  0.89727919008E+02 0.  0.
          2    1    3    3  502    0  0.48222509804E+02  0.19754383198E+03  0.18699730218E+03  0.27625525701E+03  0.00000000000E+00 0. -1.
         -1    1    3    3    0  502  0.73792033640E+02  0.22098907137E+03  0.11257819435E+03  0.25875719070E+03  0.00000000000E+00 0.  1.
         13    1    5    5    0    0 -0.17658844359E+03 -0.10060061895E+03  0.59263945872E+02  0.21169831889E+03  0.00000000000E+00 0. -1.
        -13    1    5    5    0    0 -0.31112051297E+03 -0.26158461967E+03  0.12749424670E+02  0.40667558897E+03  0.00000000000E+00 0.  1.
          1    1    6    6  503    0  0.14218002787E+03 -0.65093586669E+02 -0.12177857706E+01  0.15637716698E+03  0.00000000000E+00 0. -1.
         -1    1    6    6    0  503  0.22351438525E+03  0.87459219332E+01 -0.28936696221E+02  0.22554933818E+03  0.00000000000E+00 0.  1.
<mgrwt>
<rscale>  0 0.14968661E+04</rscale>
<asrwt>0</asrwt>
<pdfrwt beam="1">  1        2 0.14436517E+00 0.14968661E+04</pdfrwt>
<pdfrwt beam="2">  1       -1 0.91836805E-01 0.14968661E+04</pdfrwt>
<totfact> 0.35211342E+01</totfact>
</mgrwt>
</event>
<event>
12    7  0.2426980E-007  0.2454577E+04  0.7818608E-02  0.8419349E-01
          2   -1    0    0  501    0  0.00000000000E+00  0.00000000000E+00  0.19542099591E+04  0.19542099591E+04  0.00000000000E+00 0. -1.
         -1   -1    0    0    0  501 -0.00000000000E+00 -0.00000000000E+00 -0.77076498271E+03  0.77076498271E+03  0.00000000000E+00 0.  1.
         24    2    1    2    0    0 -0.90622384972E+03 -0.12710421242E+03 -0.83927754225E+02  0.92224393709E+03  0.78056805936E+02 0.  0.
        254    2    1    2    0    0  0.90622384972E+03  0.12710421242E+03  0.12673727306E+04  0.18027310047E+04  0.89789102372E+03 0.  0.
         23    2    4    4    0    0  0.35616999460E+03  0.31197006336E+03  0.10860702588E+04  0.11882456283E+04  0.90535520828E+02 0.  0.
         23    2    4    4    0    0  0.55005385511E+03 -0.18486585094E+03  0.18130247178E+03  0.61448537644E+03  0.89370382233E+02 0.  0.
          2    1    3    3  502    0 -0.13152225238E+03  0.18221765184E+01  0.65203184671E+01  0.13169638473E+03  0.00000000000E+00 0. -1.
         -1    1    3    3    0  502 -0.77470159734E+03 -0.12892638894E+03 -0.90448072693E+02  0.79054755236E+03  0.00000000000E+00 0.  1.
         13    1    5    5    0    0  0.60434913454E+02  0.48312797728E+02  0.27343785940E+03  0.28417383437E+03  0.00000000000E+00 0. -1.
        -13    1    5    5    0    0  0.29573508115E+03  0.26365726563E+03  0.81263239941E+03  0.90407179389E+03  0.00000000000E+00 0.  1.
          1    1    6    6  503    0  0.18212322137E+03 -0.18371445156E+02  0.48530011810E+02  0.18937143345E+03  0.00000000000E+00 0. -1.
         -1    1    6    6    0  503  0.36793063374E+03 -0.16649440578E+03  0.13277245998E+03  0.42511394300E+03  0.00000000000E+00 0.  1.
<mgrwt>
<rscale>  0 0.24545766E+04</rscale>
<asrwt>0</asrwt>
<pdfrwt beam="1">  1        2 0.30064768E+00 0.24545766E+04</pdfrwt>
<pdfrwt beam="2">  1       -1 0.11857923E+00 0.24545766E+04</pdfrwt>
<totfact> 0.46003999E+00</totfact>
</mgrwt>
</event>
<event>
12    7  0.2426980E-007  0.2011964E+04  0.7818608E-02  0.8601048E-01
          2   -1    0    0  501    0  0.00000000000E+00  0.00000000000E+00  0.31780099796E+04  0.31780099796E+04  0.00000000000E+00 0. -1.
         -1   -1    0    0    0  501 -0.00000000000E+00 -0.00000000000E+00 -0.31843804539E+03  0.31843804539E+03  0.00000000000E+00 0.  1.
         24    2    1    2    0    0 -0.72859265242E+03 -0.25061456361E+03  0.75318969664E+03  0.10801614870E+04  0.76152519456E+02 0.  0.
        254    2    1    2    0    0  0.72859265242E+03  0.25061456361E+03  0.21063822376E+04  0.24162865380E+04  0.89885459908E+03 0.  0.
         23    2    4    4    0    0  0.77505640561E+03  0.41579977477E+03  0.20174138760E+04  0.22026503573E+04  0.90044237614E+02 0.  0.
         23    2    4    4    0    0 -0.46463753195E+02 -0.16518521116E+03  0.88968361636E+02  0.21363618078E+03  0.90994582374E+02 0.  0.
          4    1    3    3  502    0 -0.30648366421E+03 -0.87116441490E+02  0.35805474393E+03  0.47929605721E+03  0.00000000000E+00 0. -1.
         -3    1    3    3    0  502 -0.42210898821E+03 -0.16349812212E+03  0.39513495271E+03  0.60086542979E+03  0.00000000000E+00 0.  1.
         13    1    5    5    0    0  0.71959780663E+03  0.35702815637E+03  0.18271363070E+04  0.19959251469E+04  0.00000000000E+00 0.  1.
        -13    1    5    5    0    0  0.55458598984E+02  0.58771618395E+02  0.19027756901E+03  0.20672521036E+03  0.00000000000E+00 0. -1.
          3    1    6    6  503    0 -0.19092289884E+02 -0.18361421173E+02 -0.16127433565E+02  0.31012117533E+02  0.00000000000E+00 0. -1.
         -3    1    6    6    0  503 -0.27371463312E+02 -0.14682378998E+03  0.10509579520E+03  0.18262406325E+03  0.00000000000E+00 0.  1.
<mgrwt>
<rscale>  0 0.20119635E+04</rscale>
<asrwt>0</asrwt>
<pdfrwt beam="1">  1        2 0.48892459E+00 0.20119635E+04</pdfrwt>
<pdfrwt beam="2">  1       -1 0.48990471E-01 0.20119635E+04</pdfrwt>
<totfact> 0.59275511E+00</totfact>
</mgrwt>
</event>
<event>
12    7  0.2426980E-007  0.1263562E+04  0.7818608E-02  0.9058971E-01
         -1   -1    0    0    0  501 -0.00000000000E+00  0.00000000000E+00  0.62399776101E+03  0.62399776101E+03  0.00000000000E+00 0.  1.
          2   -1    0    0  501    0  0.00000000000E+00 -0.00000000000E+00 -0.63966101236E+03  0.63966101236E+03  0.00000000000E+00 0. -1.
         24    2    1    2    0    0  0.27325650651E+03  0.10066857980E+03 -0.93360435955E+02  0.31507353529E+03  0.75841151956E+02 0.  0.
        254    2    1    2    0    0 -0.27325650651E+03 -0.10066857980E+03  0.77697184597E+02  0.94858523808E+03  0.89942971938E+03 0.  0.
         23    2    4    4    0    0 -0.35432381329E+01 -0.46390196267E+03 -0.36384585220E+02  0.47336653540E+03  0.86801228608E+02 0.  0.
         23    2    4    4    0    0 -0.26971326838E+03  0.36323338288E+03  0.11408176982E+03  0.47521870268E+03  0.90191061614E+02 0.  0.
          2    1    3    3  502    0  0.16042791016E+03  0.63669711728E+02 -0.93572441627E+02  0.19633325847E+03  0.00000000000E+00 0. -1.
         -1    1    3    3    0  502  0.11282859635E+03  0.36998868071E+02  0.21200567208E+00  0.11874027682E+03  0.00000000000E+00 0.  1.
         13    1    5    5    0    0 -0.14949781340E+02 -0.24286728426E+03  0.22424031652E+02  0.24435803838E+03  0.00000000000E+00 0.  1.
        -13    1    5    5    0    0  0.11406543207E+02 -0.22103467842E+03 -0.58808616872E+02  0.22900849703E+03  0.00000000000E+00 0. -1.
          4    1    6    6  503    0 -0.16882208206E+03  0.25882445058E+03  0.38122563509E+02  0.31135883071E+03  0.00000000000E+00 0.  1.
         -4    1    6    6    0  503 -0.10089118631E+03  0.10440893229E+03  0.75959206308E+02  0.16385987197E+03  0.00000000000E+00 0. -1.
<mgrwt>
<rscale>  0 0.12635617E+04</rscale>
<asrwt>0</asrwt>
<pdfrwt beam="1">  1        2 0.98409387E-01 0.12635617E+04</pdfrwt>
<pdfrwt beam="2">  1       -1 0.95999655E-01 0.12635617E+04</pdfrwt>
<totfact> 0.53877076E+01</totfact>
</mgrwt>
</event>
<event>
12    7  0.2426980E-007  0.1665932E+04  0.7818608E-02  0.8781037E-01
          2   -1    0    0  501    0  0.00000000000E+00  0.00000000000E+00  0.30873621586E+04  0.30873621586E+04  0.00000000000E+00 0. -1.
         -1   -1    0    0    0  501 -0.00000000000E+00 -0.00000000000E+00 -0.22473299781E+03  0.22473299781E+03  0.00000000000E+00 0.  1.
         24    2    1    2    0    0 -0.34206882963E+03  0.47497923913E+03  0.10838205787E+04  0.12344054162E+04  0.80456962737E+02 0.  0.
        254    2    1    2    0    0  0.34206882963E+03 -0.47497923913E+03  0.17788085821E+04  0.20776897402E+04  0.90001017946E+03 0.  0.
         23    2    4    4    0    0  0.33015949454E+02 -0.65359020143E+03  0.83627140437E+03  0.10657670155E+04  0.90770398838E+02 0.  0.
         23    2    4    4    0    0  0.30905288018E+03  0.17861096230E+03  0.94253717771E+03  0.10119227247E+04  0.90530165041E+02 0.  0.
          4    1    3    3  502    0 -0.20586343135E+03  0.29485093117E+03  0.74461138715E+03  0.82689959599E+03  0.00000000000E+00 0. -1.
         -3    1    3    3    0  502 -0.13620539828E+03  0.18012830797E+03  0.33920919158E+03  0.40750582021E+03  0.00000000000E+00 0.  1.
         13    1    5    5    0    0  0.44024928479E+02 -0.61399263028E+03  0.80848488518E+03  0.10161559693E+04  0.00000000000E+00 0. -1.
        -13    1    5    5    0    0 -0.11008979025E+02 -0.39597571153E+02  0.27786519191E+02  0.49611046241E+02  0.00000000000E+00 0.  1.
          4    1    6    6  503    0  0.31082357504E+03  0.16145953341E+03  0.88275297343E+03  0.94970168360E+03  0.00000000000E+00 0. -1.
         -4    1    6    6    0  503 -0.17706948657E+01  0.17151428887E+02  0.59784204284E+02  0.62221041095E+02  0.00000000000E+00 0.  1.
<mgrwt>
<rscale>  0 0.16659318E+04</rscale>
<asrwt>0</asrwt>
<pdfrwt beam="1">  1        2 0.47497876E+00 0.16659318E+04</pdfrwt>
<pdfrwt beam="2">  1       -1 0.34574310E-01 0.16659318E+04</pdfrwt>
<totfact> 0.13289782E+01</totfact>
</mgrwt>
</event>
<event>
12    7  0.2426980E-007  0.2080509E+04  0.7818608E-02  0.8569878E-01
          2   -1    0    0  501    0  0.00000000000E+00  0.00000000000E+00  0.93132799173E+03  0.93132799173E+03  0.00000000000E+00 0. -1.
         -1   -1    0    0    0  501 -0.00000000000E+00 -0.00000000000E+00 -0.11619203306E+04  0.11619203306E+04  0.00000000000E+00 0.  1.
         24    2    1    2    0    0 -0.10671975419E+03 -0.83767473545E+03 -0.31784146096E+02  0.84901011895E+03  0.81974885123E+02 0.  0.
        254    2    1    2    0    0  0.10671975419E+03  0.83767473545E+03 -0.19880819277E+03  0.12442382034E+04  0.89191700338E+03 0.  0.
         23    2    4    4    0    0  0.34156381229E+03  0.81479820540E+03  0.49710748440E+02  0.88976973543E+03  0.93043377987E+02 0.  0.
         23    2    4    4    0    0 -0.23484405810E+03  0.22876530051E+02 -0.24851894121E+03  0.35446846796E+03  0.90615469909E+02 0.  0.
          4    1    3    3  502    0 -0.11424581793E+03 -0.78139113079E+03 -0.15168231181E+02  0.78984446660E+03  0.00000000000E+00 0. -1.
         -3    1    3    3    0  502  0.75260637335E+01 -0.56283604659E+02 -0.16615914916E+02  0.59165652343E+02  0.00000000000E+00 0.  1.
         13    1    5    5    0    0  0.17140504439E+03  0.29464527648E+03  0.28873497402E+02  0.34209531866E+03  0.00000000000E+00 0. -1.
        -13    1    5    5    0    0  0.17015876790E+03  0.52015292892E+03  0.20837251038E+02  0.54767441677E+03  0.00000000000E+00 0.  1.
          3    1    6    6  503    0 -0.21458136388E+03  0.44154687138E+02 -0.19442365551E+03  0.29290844294E+03  0.00000000000E+00 0. -1.
         -3    1    6    6    0  503 -0.20262694218E+02 -0.21278157087E+02 -0.54095285705E+02  0.61560025029E+02  0.00000000000E+00 0.  1.
<mgrwt>
<rscale>  0 0.20805085E+04</rscale>
<asrwt>0</asrwt>
<pdfrwt beam="1">  1        2 0.14328123E+00 0.20805085E+04</pdfrwt>
<pdfrwt beam="2">  1       -1 0.17875697E+00 0.20805085E+04</pdfrwt>
<totfact> 0.62487355E+00</totfact>
</mgrwt>
</event>
<event>
12    7  0.2426980E-007  0.1787024E+04  0.7818608E-02  0.8713230E-01
         -1   -1    0    0    0  501 -0.00000000000E+00  0.00000000000E+00  0.10019919947E+04  0.10019919947E+04  0.00000000000E+00 0.  1.
          2   -1    0    0  501    0  0.00000000000E+00 -0.00000000000E+00 -0.79677678050E+03  0.79677678050E+03  0.00000000000E+00 0. -1.
         24    2    1    2    0    0  0.41539571349E+03 -0.50653719752E+03 -0.44015857892E+02  0.65919245731E+03  0.58853791475E+02 0.  0.
        254    2    1    2    0    0 -0.41539571349E+03  0.50653719752E+03  0.24923107210E+03  0.11395763179E+04  0.89854578390E+03 0.  0.
         23    2    4    4    0    0 -0.63416143205E+03  0.50395347194E+03  0.34181672207E+03  0.88413779363E+03  0.93440584686E+02 0.  0.
         23    2    4    4    0    0  0.21876571856E+03  0.25837255799E+01 -0.92585649965E+02  0.25543852427E+03  0.93870239428E+02 0.  0.
          2    1    3    3  502    0  0.21017315117E+03 -0.24666256219E+03 -0.50621804815E+02  0.32799045746E+03  0.00000000000E+00 0. -1.
         -1    1    3    3    0  502  0.20522256232E+03 -0.25987463533E+03  0.66059469232E+01  0.33120199985E+03  0.00000000000E+00 0.  1.
         13    1    5    5    0    0 -0.25554899466E+03  0.25452357763E+03  0.12649389038E+03  0.38221491931E+03  0.00000000000E+00 0.  1.
        -13    1    5    5    0    0 -0.37861243738E+03  0.24942989431E+03  0.21532283169E+03  0.50192287432E+03  0.00000000000E+00 0. -1.
          2    1    6    6  503    0  0.16323388104E+03  0.15230157327E+02 -0.10814339175E+03  0.19639819447E+03  0.00000000000E+00 0. -1.
         -2    1    6    6    0  503  0.55531837515E+02 -0.12646431747E+02  0.15557741786E+02  0.59040329802E+02  0.00000000000E+00 0.  1.
<mgrwt>
<rscale>  0 0.17870243E+04</rscale>
<asrwt>0</asrwt>
<pdfrwt beam="1">  1        2 0.12258104E+00 0.17870243E+04</pdfrwt>
<pdfrwt beam="2">  1       -1 0.15415261E+00 0.17870243E+04</pdfrwt>
<totfact> 0.12103487E+01</totfact>
</mgrwt>
</event>
<event>
12    7  0.2426980E-007  0.1799912E+04  0.7818608E-02  0.8706346E-01
         -1   -1    0    0    0  501 -0.00000000000E+00  0.00000000000E+00  0.55385769936E+03  0.55385769936E+03  0.00000000000E+00 0.  1.
          2   -1    0    0  501    0  0.00000000000E+00 -0.00000000000E+00 -0.14623263340E+04  0.14623263340E+04  0.00000000000E+00 0. -1.
         24    2    1    2    0    0 -0.22499816817E+03  0.60751178395E+03 -0.54217166268E+03  0.84857572429E+03  0.80224090584E+02 0.  0.
        254    2    1    2    0    0  0.22499816817E+03 -0.60751178395E+03 -0.36629697192E+03  0.11676083090E+04  0.89968936215E+03 0.  0.
         23    2    4    4    0    0  0.14770579726E+02  0.19831541541E+03 -0.23076889460E+03  0.31896977836E+03  0.94552962803E+02 0.  0.
         23    2    4    4    0    0  0.21022758845E+03 -0.80582719936E+03 -0.13552807732E+03  0.84863853067E+03  0.90919644855E+02 0.  0.
          2    1    3    3  502    0 -0.80669157201E+02  0.21006092060E+03 -0.23911998943E+03  0.32834657396E+03  0.00000000000E+00 0. -1.
         -1    1    3    3    0  502 -0.14432901097E+03  0.39745086335E+03 -0.30305167325E+03  0.52022915032E+03  0.00000000000E+00 0.  1.
         13    1    5    5    0    0 -0.60334059536E+01  0.37205734264E+02 -0.11077037496E+03  0.11700745540E+03  0.00000000000E+00 0. -1.
        -13    1    5    5    0    0  0.20803985679E+02  0.16110968115E+03 -0.11999851964E+03  0.20196232296E+03  0.00000000000E+00 0.  1.
          1    1    6    6  503    0  0.94990591054E+02 -0.20561359404E+03 -0.41708507268E+02  0.23030363007E+03  0.00000000000E+00 0. -1.
         -1    1    6    6    0  503  0.11523699739E+03 -0.60021360532E+03 -0.93819570053E+02  0.61833490060E+03  0.00000000000E+00 0.  1.
<mgrwt>
<rscale>  0 0.17999119E+04</rscale>
<asrwt>0</asrwt>
<pdfrwt beam="1">  1        2 0.22497328E+00 0.17999119E+04</pdfrwt>
<pdfrwt beam="2">  1       -1 0.85208876E-01 0.17999119E+04</pdfrwt>
<totfact> 0.19534369E+01</totfact>
</mgrwt>
</event>
<event>
12    7  0.2426980E-007  0.1634943E+04  0.7818608E-02  0.8799364E-01
          2   -1    0    0  501    0  0.00000000000E+00  0.00000000000E+00  0.42030431794E+04  0.42030431794E+04  0.00000000000E+00 0. -1.
         -1   -1    0    0    0  501 -0.00000000000E+00 -0.00000000000E+00 -0.15899430657E+03  0.15899430657E+03  0.00000000000E+00 0.  1.
         24    2    1    2    0    0  0.38436216439E+03 -0.31327605142E+02  0.30983482668E+03  0.50132722048E+03  0.81336768558E+02 0.  0.
        254    2    1    2    0    0 -0.38436216439E+03  0.31327605142E+02  0.37342140462E+04  0.38607102655E+04  0.90111792749E+03 0.  0.
         23    2    4    4    0    0 -0.32375609549E+03  0.44266483093E+03  0.21563057127E+04  0.22268420514E+04  0.91657152914E+02 0.  0.
         23    2    4    4    0    0 -0.60606068904E+02 -0.41133722578E+03  0.15779083335E+04  0.16338682141E+04  0.82820426630E+02 0.  0.
          4    1    3    3  502    0  0.14416359019E+03 -0.29710058150E+02  0.16378309037E+03  0.22020610569E+03  0.00000000000E+00 0. -1.
         -3    1    3    3    0  502  0.24019857420E+03 -0.16175469920E+01  0.14605173631E+03  0.28112111480E+03  0.00000000000E+00 0.  1.
         13    1    5    5    0    0 -0.10449519955E+03  0.13898383662E+03  0.86526091081E+03  0.88256002478E+03  0.00000000000E+00 0. -1.
        -13    1    5    5    0    0 -0.21926089594E+03  0.30368099431E+03  0.12910448018E+04  0.13442820266E+04  0.00000000000E+00 0.  1.
          1    1    6    6  503    0 -0.67501299746E+02 -0.35865407806E+03  0.12694837458E+04  0.13209005087E+04  0.00000000000E+00 0. -1.
         -1    1    6    6    0  503  0.68952308422E+01 -0.52683147722E+02  0.30842458776E+03  0.31296770536E+03  0.00000000000E+00 0.  1.
<mgrwt>
<rscale>  0 0.16349433E+04</rscale>
<asrwt>0</asrwt>
<pdfrwt beam="1">  1        2 0.64662194E+00 0.16349433E+04</pdfrwt>
<pdfrwt beam="2">  1       -1 0.24460666E-01 0.16349433E+04</pdfrwt>
<totfact> 0.37445630E+00</totfact>
</mgrwt>
</event>
<event>
12    7  0.2426980E-007  0.4252814E+04  0.7818608E-02  0.7955401E-01
          2   -1    0    0  501    0  0.00000000000E+00  0.00000000000E+00  0.31207360264E+04  0.31207360264E+04  0.00000000000E+00 0. -1.
         -1   -1    0    0    0  501 -0.00000000000E+00 -0.00000000000E+00 -0.14488911086E+04  0.14488911086E+04  0.00000000000E+00 0.  1.
         24    2    1    2    0    0  0.59432445678E+02  0.19869999949E+04  0.35421582133E+03  0.20206852892E+04  0.77453175346E+02 0.  0.
        254    2    1    2    0    0 -0.59432445678E+02 -0.19869999949E+04  0.13176290964E+04  0.25489418458E+04  0.89958707317E+03 0.  0.
         23    2    4    4    0    0 -0.97841625664E+02 -0.18536898049E+04  0.14371547698E+04  0.23493941987E+04  0.92197569081E+02 0.  0.
         23    2    4    4    0    0  0.38409179986E+02 -0.13331018998E+03 -0.11952567343E+03  0.19954764712E+03  0.79284330124E+02 0.  0.
          4    1    3    3  502    0  0.24478115392E+02  0.12728120212E+04  0.26189606039E+03  0.12997073386E+04  0.00000000000E+00 0. -1.
         -3    1    3    3    0  502  0.34954330286E+02  0.71418797372E+03  0.92319760941E+02  0.72097795061E+03  0.00000000000E+00 0.  1.
         13    1    5    5    0    0 -0.70207715281E+02 -0.55632207279E+03  0.44790850616E+03  0.71766663698E+03  0.00000000000E+00 0. -1.
        -13    1    5    5    0    0 -0.27633910383E+02 -0.12973677322E+04  0.98924626367E+03  0.16317275617E+04  0.00000000000E+00 0.  1.
          4    1    6    6  503    0  0.53261420382E+02 -0.46407343355E+02 -0.64241326408E+02  0.95484912091E+02  0.00000000000E+00 0. -1.
         -4    1    6    6    0  503 -0.14852240396E+02 -0.86902846627E+02 -0.55284347018E+02  0.10406273503E+03  0.00000000000E+00 0.  1.
<mgrwt>
<rscale>  0 0.42528140E+04</rscale>
<asrwt>0</asrwt>
<pdfrwt beam="1">  1        2 0.48011323E+00 0.42528140E+04</pdfrwt>
<pdfrwt beam="2">  1       -1 0.22290632E+00 0.42528140E+04</pdfrwt>
<totfact> 0.13470423E-01</totfact>
</mgrwt>
</event>
<event>
12    7  0.2426980E-007  0.2314714E+04  0.7818608E-02  0.8472142E-01
         -1   -1    0    0    0  501 -0.00000000000E+00  0.00000000000E+00  0.47438733415E+03  0.47438733415E+03  0.00000000000E+00 0.  1.
          2   -1    0    0  501    0  0.00000000000E+00 -0.00000000000E+00 -0.28235897759E+04  0.28235897759E+04  0.00000000000E+00 0. -1.
         24    2    1    2    0    0 -0.78028946464E+03 -0.50033887706E+03 -0.54178609528E+03  0.10764661037E+04  0.77823253321E+02 0.  0.
        254    2    1    2    0    0  0.78028946464E+03  0.50033887706E+03 -0.18074163464E+04  0.22215110064E+04  0.89953691505E+03 0.  0.
         23    2    4    4    0    0  0.81568191672E+03  0.53291858102E+02 -0.10159040536E+04  0.13071968163E+04  0.92333413402E+02 0.  0.
         23    2    4    4    0    0 -0.35392452081E+02  0.44704701896E+03 -0.79151229287E+03  0.91431419002E+03  0.91515383812E+02 0.  0.
          2    1    3    3  502    0 -0.28186642634E+03 -0.22480163852E+03 -0.20097752905E+03  0.41276679392E+03  0.00000000000E+00 0. -1.
         -1    1    3    3    0  502 -0.49842303830E+03 -0.27553723854E+03 -0.34080856623E+03  0.66369930974E+03  0.00000000000E+00 0.  1.
         13    1    5    5    0    0  0.19033864380E+03  0.50091262208E+02 -0.26190141019E+03  0.32761300727E+03  0.00000000000E+00 0. -1.
        -13    1    5    5    0    0  0.62534327292E+03  0.32005958935E+01 -0.75400264336E+03  0.97958380907E+03  0.00000000000E+00 0.  1.
          3    1    6    6  503    0 -0.46838662158E+02  0.17767757880E+03 -0.26060290536E+03  0.31886840007E+03  0.00000000000E+00 0. -1.
         -3    1    6    6    0  503  0.11446210077E+02  0.26936944016E+03 -0.53090938751E+03  0.59544578995E+03  0.00000000000E+00 0.  1.
<mgrwt>
<rscale>  0 0.23147140E+04</rscale>
<asrwt>0</asrwt>
<pdfrwt beam="1">  1        2 0.43439842E+00 0.23147140E+04</pdfrwt>
<pdfrwt beam="2">  1       -1 0.72982667E-01 0.23147140E+04</pdfrwt>
<totfact> 0.43640446E+00</totfact>
</mgrwt>
</event>
<event>
12    7  0.2426980E-007  0.4485538E+04  0.7818608E-02  0.7913174E-01
         -1   -1    0    0    0  501 -0.00000000000E+00  0.00000000000E+00  0.19580376743E+04  0.19580376743E+04  0.00000000000E+00 0.  1.
          2   -1    0    0  501    0  0.00000000000E+00 -0.00000000000E+00 -0.25689046916E+04  0.25689046916E+04  0.00000000000E+00 0. -1.
         24    2    1    2    0    0  0.20424159834E+04 -0.60091477714E+03  0.20176238929E+02  0.21307535028E+04  0.84509112353E+02 0.  0.
        254    2    1    2    0    0 -0.20424159834E+04  0.60091477714E+03 -0.63104325624E+03  0.23961888632E+04  0.90052421281E+03 0.  0.
         23    2    4    4    0    0 -0.58051998092E+03  0.27471276439E+03  0.20310635295E+03  0.67959802023E+03  0.90170545782E+02 0.  0.
         23    2    4    4    0    0 -0.14618960025E+04  0.32620201275E+03 -0.83414960919E+03  0.17165908429E+04  0.85620536110E+02 0.  0.
          4    1    3    3  502    0  0.87005099008E+03 -0.22076910921E+03  0.32999047395E+02  0.89822973790E+03  0.00000000000E+00 0. -1.
         -3    1    3    3    0  502  0.11723649934E+04 -0.38014566793E+03 -0.12822808466E+02  0.12325237648E+04  0.00000000000E+00 0.  1.
         13    1    5    5    0    0 -0.31277748788E+03  0.14999891809E+03  0.15660022768E+03  0.38059566953E+03  0.00000000000E+00 0.  1.
        -13    1    5    5    0    0 -0.26774249304E+03  0.12471384629E+03  0.46506125261E+02  0.29900235070E+03  0.00000000000E+00 0. -1.
          1    1    6    6  503    0 -0.10334956848E+04  0.19067027446E+03 -0.57952723994E+03  0.12001334534E+04  0.00000000000E+00 0. -1.
         -1    1    6    6    0  503 -0.42840031772E+03  0.13553173830E+03 -0.25462236924E+03  0.51645738956E+03  0.00000000000E+00 0.  1.
<mgrwt>
<rscale>  0 0.44855377E+04</rscale>
<asrwt>0</asrwt>
<pdfrwt beam="1">  1        2 0.39521611E+00 0.44855377E+04</pdfrwt>
<pdfrwt beam="2">  1       -1 0.30123657E+00 0.44855377E+04</pdfrwt>
<totfact> 0.88741766E-02</totfact>
</mgrwt>
</event>
<event>
12    7  0.2426980E-007  0.2888851E+04  0.7818608E-02  0.8276202E-01
          2   -1    0    0  501    0  0.00000000000E+00  0.00000000000E+00  0.32106533797E+04  0.32106533797E+04  0.00000000000E+00 0. -1.
         -1   -1    0    0    0  501 -0.00000000000E+00 -0.00000000000E+00 -0.64982569620E+03  0.64982569620E+03  0.00000000000E+00 0.  1.
         24    2    1    2    0    0  0.26074426449E+03  0.80129031322E+03 -0.17118996504E+03  0.86363905847E+03  0.80701187552E+02 0.  0.
        254    2    1    2    0    0 -0.26074426449E+03 -0.80129031322E+03  0.27320176485E+04  0.29968400174E+04  0.89837404268E+03 0.  0.
         23    2    4    4    0    0 -0.54903304841E+03 -0.71728978803E+03  0.18635014666E+04  0.20728543032E+04  0.90251415974E+02 0.  0.
         23    2    4    4    0    0  0.28828878392E+03 -0.84000525193E+02  0.86851618192E+03  0.92398571419E+03  0.96243080803E+02 0.  0.
          4    1    3    3  502    0  0.15973284833E+03  0.46068325718E+03 -0.59388741778E+02  0.49119310758E+03  0.00000000000E+00 0. -1.
         -3    1    3    3    0  502  0.10101141615E+03  0.34060705604E+03 -0.11180122326E+03  0.37244595090E+03  0.00000000000E+00 0.  1.
         13    1    5    5    0    0 -0.26126097615E+03 -0.41417696064E+03  0.10234706109E+04  0.11345888876E+04  0.00000000000E+00 0.  1.
        -13    1    5    5    0    0 -0.28777207226E+03 -0.30311282738E+03  0.84003085570E+03  0.93826541566E+03  0.00000000000E+00 0. -1.
          3    1    6    6  503    0  0.23480602319E+03 -0.95772548247E+02  0.62701896413E+03  0.67635717702E+03  0.00000000000E+00 0. -1.
         -3    1    6    6    0  503  0.53482760735E+02  0.11772023054E+02  0.24149721779E+03  0.24762853717E+03  0.00000000000E+00 0.  1.
<mgrwt>
<rscale>  0 0.28888510E+04</rscale>
<asrwt>0</asrwt>
<pdfrwt beam="1">  1        2 0.49394667E+00 0.28888510E+04</pdfrwt>
<pdfrwt beam="2">  1       -1 0.99973186E-01 0.28888510E+04</pdfrwt>
<totfact> 0.11940429E+00</totfact>
</mgrwt>
</event>
<event>
12    7  0.2426980E-007  0.1431938E+04  0.7818608E-02  0.8931019E-01
          2   -1    0    0  501    0  0.00000000000E+00  0.00000000000E+00  0.10702724592E+04  0.10702724592E+04  0.00000000000E+00 0. -1.
         -1   -1    0    0    0  501 -0.00000000000E+00 -0.00000000000E+00 -0.47895462448E+03  0.47895462448E+03  0.00000000000E+00 0.  1.
         24    2    1    2    0    0  0.13385192151E+03  0.20847477528E+03  0.55758454302E+03  0.61551747060E+03  0.81136706739E+02 0.  0.
        254    2    1    2    0    0 -0.13385192151E+03 -0.20847477528E+03  0.33733291716E+02  0.93370961310E+03  0.89960971416E+03 0.  0.
         23    2    4    4    0    0  0.26752335327E+03  0.17418812506E+03 -0.11650451838E+03  0.35207026210E+03  0.92032163923E+02 0.  0.
         23    2    4    4    0    0 -0.40137527478E+03 -0.38266290034E+03  0.15023781010E+03  0.58163935100E+03  0.90553456865E+02 0.  0.
          2    1    3    3  502    0  0.85278109527E+02  0.15750584121E+03  0.47108306530E+03  0.50398382949E+03  0.00000000000E+00 0. -1.
         -1    1    3    3    0  502  0.48573811985E+02  0.50968934067E+02  0.86501477724E+02  0.11153364111E+03  0.00000000000E+00 0.  1.
         13    1    5    5    0    0  0.11132491846E+03  0.46104993103E+02 -0.85405351024E+02  0.14769218613E+03  0.00000000000E+00 0.  1.
        -13    1    5    5    0    0  0.15619843480E+03  0.12808313196E+03 -0.31099167356E+02  0.20437807597E+03  0.00000000000E+00 0. -1.
          3    1    6    6  503    0 -0.35261974863E+03 -0.35337131052E+03  0.10791346279E+03  0.51074189732E+03  0.00000000000E+00 0. -1.
         -3    1    6    6    0  503 -0.48755526153E+02 -0.29291589817E+02  0.42324347303E+02  0.70897453685E+02  0.00000000000E+00 0.  1.
<mgrwt>
<rscale>  0 0.14319385E+04</rscale>
<asrwt>0</asrwt>
<pdfrwt beam="1">  1        2 0.16465730E+00 0.14319385E+04</pdfrwt>
<pdfrwt beam="2">  1       -1 0.73685327E-01 0.14319385E+04</pdfrwt>
<totfact> 0.46721649E+01</totfact>
</mgrwt>
</event>
<event>
12    7  0.2426980E-007  0.2625350E+04  0.7818608E-02  0.8359641E-01
         -1   -1    0    0    0  501 -0.00000000000E+00  0.00000000000E+00  0.92643286650E+03  0.92643286650E+03  0.00000000000E+00 0.  1.
          2   -1    0    0  501    0  0.00000000000E+00 -0.00000000000E+00 -0.18599472254E+04  0.18599472254E+04  0.00000000000E+00 0. -1.
         24    2    1    2    0    0 -0.10896139092E+04 -0.19716936977E+03 -0.76417799281E+03  0.13475730135E+04  0.76490460967E+02 0.  0.
        254    2    1    2    0    0  0.10896139092E+04  0.19716936977E+03 -0.16933636609E+03  0.14388070784E+04  0.90297108058E+03 0.  0.
         23    2    4    4    0    0  0.53154686889E+03  0.22735340421E+03 -0.51130936498E+03  0.77695835152E+03  0.89416827491E+02 0.  0.
         23    2    4    4    0    0  0.55806704032E+03 -0.30184034444E+02  0.34197299889E+03  0.66184872685E+03  0.93532389250E+02 0.  0.
          4    1    3    3  502    0 -0.49851953031E+03 -0.80401103141E+02 -0.30383642260E+03  0.58932387631E+03  0.00000000000E+00 0. -1.
         -3    1    3    3    0  502 -0.59109437890E+03 -0.11676826663E+03 -0.46034157021E+03  0.75824913724E+03  0.00000000000E+00 0.  1.
         13    1    5    5    0    0  0.44788624242E+03  0.21757250223E+03 -0.40856277874E+03  0.64409892411E+03  0.00000000000E+00 0. -1.
        -13    1    5    5    0    0  0.83660626472E+02  0.97809019878E+01 -0.10274658625E+03  0.13285942740E+03  0.00000000000E+00 0.  1.
          3    1    6    6  503    0  0.47955612411E+03 -0.54298330803E+02  0.31060345762E+03  0.57393108715E+03  0.00000000000E+00 0. -1.
         -3    1    6    6    0  503  0.78510916203E+02  0.24114296359E+02  0.31369541263E+02  0.87917639703E+02  0.00000000000E+00 0.  1.
<mgrwt>
<rscale>  0 0.26253504E+04</rscale>
<asrwt>0</asrwt>
<pdfrwt beam="1">  1        2 0.28614572E+00 0.26253504E+04</pdfrwt>
<pdfrwt beam="2">  1       -1 0.14252814E+00 0.26253504E+04</pdfrwt>
<totfact> 0.32106817E+00</totfact>
</mgrwt>
</event>
<event>
12    7  0.2426980E-007  0.2968754E+04  0.7818608E-02  0.8252710E-01
          2   -1    0    0  501    0  0.00000000000E+00  0.00000000000E+00  0.14936420393E+04  0.14936420393E+04  0.00000000000E+00 0. -1.
         -1   -1    0    0    0  501 -0.00000000000E+00 -0.00000000000E+00 -0.14751695239E+04  0.14751695239E+04  0.00000000000E+00 0.  1.
         24    2    1    2    0    0  0.12679381888E+04  0.15182208834E+03  0.43693826463E+03  0.13519774071E+04  0.78807772812E+02 0.  0.
        254    2    1    2    0    0 -0.12679381888E+04 -0.15182208834E+03 -0.41846574929E+03  0.16168341561E+04  0.89906724316E+03 0.  0.
         23    2    4    4    0    0 -0.11467197036E+04  0.19894161120E+03 -0.22685791250E+03  0.11892594441E+04  0.91267024575E+02 0.  0.
         23    2    4    4    0    0 -0.12121848525E+03 -0.35076369954E+03 -0.19160783679E+03  0.42757471194E+03  0.91528558849E+02 0.  0.
          4    1    3    3  502    0  0.33739768194E+03  0.54819773413E+01  0.11351186020E+03  0.35602273840E+03  0.00000000000E+00 0. -1.
         -3    1    3    3    0  502  0.93054050689E+03  0.14634011100E+03  0.32342640443E+03  0.99595466872E+03  0.00000000000E+00 0.  1.
         13    1    5    5    0    0 -0.16929225305E+03  0.47609344032E+02 -0.67392265336E+01  0.17598844779E+03  0.00000000000E+00 0. -1.
        -13    1    5    5    0    0 -0.97742745053E+03  0.15133226717E+03 -0.22011868597E+03  0.10132709964E+04  0.00000000000E+00 0.  1.
          3    1    6    6  503    0 -0.88195149995E+02 -0.15612435554E+03 -0.55219285003E+02  0.18762294186E+03  0.00000000000E+00 0. -1.
         -3    1    6    6    0  503 -0.33023335258E+02 -0.19463934400E+03 -0.13638855179E+03  0.23995177007E+03  0.00000000000E+00 0.  1.
<mgrwt>
<rscale>  0 0.29687541E+04</rscale>
<asrwt>0</asrwt>
<pdfrwt beam="1">  1        2 0.22979108E+00 0.29687541E+04</pdfrwt>
<pdfrwt beam="2">  1       -1 0.22694916E+00 0.29687541E+04</pdfrwt>
<totfact> 0.12370588E+00</totfact>
</mgrwt>
</event>
<event>
12    7  0.2426980E-007  0.1529738E+04  0.7818608E-02  0.8864915E-01
          2   -1    0    0  501    0  0.00000000000E+00  0.00000000000E+00  0.12800393749E+04  0.12800393749E+04  0.00000000000E+00 0. -1.
         -1   -1    0    0    0  501 -0.00000000000E+00 -0.00000000000E+00 -0.45703625146E+03  0.45703625146E+03  0.00000000000E+00 0.  1.
         24    2    1    2    0    0 -0.41830665661E+03 -0.17785161960E+03  0.42570928839E+02  0.46323302625E+03  0.78491369413E+02 0.  0.
        254    2    1    2    0    0  0.41830665661E+03  0.17785161960E+03  0.78043219458E+03  0.12738426001E+04  0.89832561019E+03 0.  0.
         23    2    4    4    0    0  0.44818265429E+03 -0.10920962113E+03  0.84342709530E+03  0.96565892647E+03  0.91287809803E+02 0.  0.
         23    2    4    4    0    0 -0.29875997685E+02  0.28706124073E+03 -0.62994900719E+02  0.30818367363E+03  0.87818494683E+02 0.  0.
          4    1    3    3  502    0 -0.27622793210E+03 -0.88199765343E+02  0.17807928145E+00  0.28996741332E+03  0.00000000000E+00 0. -1.
         -3    1    3    3    0  502 -0.14207872451E+03 -0.89651854255E+02  0.42392849557E+02  0.17326561293E+03  0.00000000000E+00 0.  1.
         13    1    5    5    0    0  0.16909384261E+02  0.73650165758E+01  0.70856218418E+02  0.73217309659E+02  0.00000000000E+00 0.  1.
        -13    1    5    5    0    0  0.43127327003E+03 -0.11657463771E+03  0.77257087688E+03  0.89244161681E+03  0.00000000000E+00 0. -1.
          4    1    6    6  503    0 -0.26774144075E+02  0.12533955863E+03  0.14208154208E+02  0.12895243849E+03  0.00000000000E+00 0.  1.
         -4    1    6    6    0  503 -0.31018536098E+01  0.16172168210E+03 -0.77203054927E+02  0.17923123514E+03  0.00000000000E+00 0. -1.
<mgrwt>
<rscale>  0 0.15297378E+04</rscale>
<asrwt>0</asrwt>
<pdfrwt beam="1">  1        2 0.19692913E+00 0.15297378E+04</pdfrwt>
<pdfrwt beam="2">  1       -1 0.70313270E-01 0.15297378E+04</pdfrwt>
<totfact> 0.38157029E+01</totfact>
</mgrwt>
</event>
<event>
12    7  0.2426980E-007  0.2242012E+04  0.7818608E-02  0.8501143E-01
          2   -1    0    0  501    0  0.00000000000E+00  0.00000000000E+00  0.78195765259E+03  0.78195765259E+03  0.00000000000E+00 0. -1.
         -1   -1    0    0    0  501 -0.00000000000E+00 -0.00000000000E+00 -0.16070618500E+04  0.16070618500E+04  0.00000000000E+00 0.  1.
         24    2    1    2    0    0  0.30627182541E+03  0.41869500949E+02  0.59323496552E+03  0.67380614504E+03  0.80817761849E+02 0.  0.
        254    2    1    2    0    0 -0.30627182541E+03 -0.41869500949E+02 -0.14183391630E+04  0.17152133576E+04  0.91362760176E+03 0.  0.
         23    2    4    4    0    0 -0.26548175634E+03  0.85606006704E+02 -0.15004908755E+04  0.15289500957E+04  0.91687383636E+02 0.  0.
         23    2    4    4    0    0 -0.40790069072E+02 -0.12747550765E+03  0.82151712579E+02  0.18626326185E+03  0.10015619826E+03 0.  0.
          2    1    3    3  502    0  0.17450631511E+03  0.63990006032E+02  0.34986607894E+03  0.39617350754E+03  0.00000000000E+00 0. -1.
         -1    1    3    3    0  502  0.13176551030E+03 -0.22120505082E+02  0.24336888659E+03  0.27763263751E+03  0.00000000000E+00 0.  1.
         13    1    5    5    0    0 -0.48173612410E+02  0.54290853589E+02 -0.31004429732E+03  0.31842685191E+03  0.00000000000E+00 0. -1.
        -13    1    5    5    0    0 -0.21730814393E+03  0.31315153115E+02 -0.11904465782E+04  0.12105232438E+04  0.00000000000E+00 0.  1.
          3    1    6    6  503    0 -0.57729845715E+02 -0.24341556487E+02  0.30644622488E+02  0.69744815908E+02  0.00000000000E+00 0.  1.
         -3    1    6    6    0  503  0.16939776643E+02 -0.10313395117E+03  0.51507090091E+02  0.11651844595E+03  0.00000000000E+00 0. -1.
<mgrwt>
<rscale>  0 0.22420119E+04</rscale>
<asrwt>0</asrwt>
<pdfrwt beam="1">  1        2 0.12030118E+00 0.22420119E+04</pdfrwt>
<pdfrwt beam="2">  1       -1 0.24724028E+00 0.22420119E+04</pdfrwt>
<totfact> 0.26817274E+00</totfact>
</mgrwt>
</event>
<event>
12    7  0.2426980E-007  0.1599580E+04  0.7818608E-02  0.8820806E-01
          2   -1    0    0  501    0  0.00000000000E+00  0.00000000000E+00  0.24042893621E+04  0.24042893621E+04  0.00000000000E+00 0. -1.
         -1   -1    0    0    0  501 -0.00000000000E+00 -0.00000000000E+00 -0.26605118775E+03  0.26605118775E+03  0.00000000000E+00 0.  1.
         24    2    1    2    0    0 -0.21237062536E+03  0.46004668596E+03  0.41270417761E+03  0.65883290133E+03  0.83617090778E+02 0.  0.
        254    2    1    2    0    0  0.21237062536E+03 -0.46004668596E+03  0.17255339968E+04  0.20115076486E+04  0.90108335374E+03 0.  0.
         23    2    4    4    0    0  0.23114944429E+03  0.22754492321E+03  0.62592792482E+03  0.71073058161E+03  0.90252063069E+02 0.  0.
         23    2    4    4    0    0 -0.18778818929E+02 -0.68759160917E+03  0.10996060720E+04  0.13007770669E+04  0.98755249838E+02 0.  0.
          4    1    3    3  502    0 -0.33400829738E+02  0.15620191237E+03  0.14973682870E+03  0.21894239134E+03  0.00000000000E+00 0. -1.
         -3    1    3    3    0  502 -0.17896979562E+03  0.30384477359E+03  0.26296734891E+03  0.43989050999E+03  0.00000000000E+00 0.  1.
         13    1    5    5    0    0  0.16558542737E+03  0.18944050260E+03  0.40136092165E+03  0.47370542240E+03  0.00000000000E+00 0. -1.
        -13    1    5    5    0    0  0.65564016915E+02  0.38104420608E+02  0.22456700317E+03  0.23702515920E+03  0.00000000000E+00 0.  1.
          2    1    6    6  503    0  0.23004157211E+02 -0.43839508305E+03  0.63621576264E+03  0.77297473227E+03  0.00000000000E+00 0.  1.
         -2    1    6    6    0  503 -0.41782976140E+02 -0.24919652612E+03  0.46339030931E+03  0.52780233468E+03  0.00000000000E+00 0. -1.
<mgrwt>
<rscale>  0 0.15995800E+04</rscale>
<asrwt>0</asrwt>
<pdfrwt beam="1">  1        2 0.36989066E+00 0.15995800E+04</pdfrwt>
<pdfrwt beam="2">  1       -1 0.40930954E-01 0.15995800E+04</pdfrwt>
<totfact> 0.25248226E+01</totfact>
</mgrwt>
</event>
<event>
12    7  0.2426980E-007  0.2867603E+04  0.7818608E-02  0.8282582E-01
          2   -1    0    0  501    0  0.00000000000E+00  0.00000000000E+00  0.24336779489E+04  0.24336779489E+04  0.00000000000E+00 0. -1.
         -1   -1    0    0    0  501 -0.00000000000E+00 -0.00000000000E+00 -0.84472435728E+03  0.84472435728E+03  0.00000000000E+00 0.  1.
         24    2    1    2    0    0 -0.65550938957E+03 -0.95838813572E+03  0.13623495300E+04  0.17918425639E+04  0.80642132713E+02 0.  0.
        254    2    1    2    0    0  0.65550938957E+03  0.95838813572E+03  0.22660406162E+03  0.14865597422E+04  0.90017225461E+03 0.  0.
         23    2    4    4    0    0  0.75215255225E+03  0.70671177910E+03  0.44296911829E+03  0.11276204705E+04  0.10065428518E+03 0.  0.
         23    2    4    4    0    0 -0.96643162672E+02  0.25167635662E+03 -0.21636505667E+03  0.35893927175E+03  0.96657507110E+02 0.  0.
          4    1    3    3  502    0 -0.36323964038E+03 -0.46783727311E+03  0.72245123104E+03  0.93421118152E+03  0.00000000000E+00 0. -1.
         -3    1    3    3    0  502 -0.29226974920E+03 -0.49055086261E+03  0.63989829893E+03  0.85763138240E+03  0.00000000000E+00 0.  1.
         13    1    5    5    0    0  0.43362423607E+03  0.46574687001E+03  0.24555110082E+03  0.68208904708E+03  0.00000000000E+00 0. -1.
        -13    1    5    5    0    0  0.31852831618E+03  0.24096490909E+03  0.19741801747E+03  0.44553142340E+03  0.00000000000E+00 0.  1.
          3    1    6    6  503    0 -0.67738024071E+00  0.47645314424E+02 -0.86460239779E+02  0.98721364927E+02  0.00000000000E+00 0. -1.
         -3    1    6    6    0  503 -0.95965782432E+02  0.20403104220E+03 -0.12990481689E+03  0.26021790682E+03  0.00000000000E+00 0.  1.
<mgrwt>
<rscale>  0 0.28676032E+04</rscale>
<asrwt>0</asrwt>
<pdfrwt beam="1">  1        2 0.37441199E+00 0.28676032E+04</pdfrwt>
<pdfrwt beam="2">  1       -1 0.12995759E+00 0.28676032E+04</pdfrwt>
<totfact> 0.18981877E+00</totfact>
</mgrwt>
</event>
<event>
12    7  0.2426980E-007  0.1941416E+04  0.7818608E-02  0.8634511E-01
         -1   -1    0    0    0  501 -0.00000000000E+00  0.00000000000E+00  0.78862755031E+03  0.78862755031E+03  0.00000000000E+00 0.  1.
          2   -1    0    0  501    0  0.00000000000E+00 -0.00000000000E+00 -0.11948271600E+04  0.11948271600E+04  0.00000000000E+00 0. -1.
         24    2    1    2    0    0  0.62636443216E+02  0.18959944344E+03  0.59021705971E+03  0.62602270858E+03  0.60638116007E+02 0.  0.
        254    2    1    2    0    0 -0.62636443216E+02 -0.18959944344E+03 -0.99641666940E+03  0.13574320017E+04  0.89994676912E+03 0.  0.
         23    2    4    4    0    0 -0.31120893560E+03 -0.41753912867E+03 -0.79181163035E+03  0.95212331228E+03  0.91559916208E+02 0.  0.
         23    2    4    4    0    0  0.24857249238E+03  0.22793968523E+03 -0.20460503905E+03  0.40530868944E+03  0.93097409517E+02 0.  0.
          4    1    3    3  502    0 -0.75158334612E+01  0.17691265753E+02  0.28182113030E+02  0.34113049283E+02  0.00000000000E+00 0. -1.
         -3    1    3    3    0  502  0.70152276677E+02  0.17190817769E+03  0.56203494668E+03  0.59190965930E+03  0.00000000000E+00 0.  1.
         13    1    5    5    0    0 -0.11380991603E+03 -0.17137006120E+03 -0.39293152910E+03  0.44352630297E+03  0.00000000000E+00 0. -1.
        -13    1    5    5    0    0 -0.19739901956E+03 -0.24616906747E+03 -0.39888010125E+03  0.50859700931E+03  0.00000000000E+00 0.  1.
          1    1    6    6  503    0  0.11666854379E+03  0.14612571439E+03 -0.69361654545E+02  0.19943749055E+03  0.00000000000E+00 0. -1.
         -1    1    6    6    0  503  0.13190394859E+03  0.81813970838E+02 -0.13524338451E+03  0.20587119889E+03  0.00000000000E+00 0.  1.
<mgrwt>
<rscale>  0 0.19414156E+04</rscale>
<asrwt>0</asrwt>
<pdfrwt beam="1">  1        2 0.18381956E+00 0.19414156E+04</pdfrwt>
<pdfrwt beam="2">  1       -1 0.12132732E+00 0.19414156E+04</pdfrwt>
<totfact> 0.12235377E+01</totfact>
</mgrwt>
</event>
<event>
12    7  0.2426980E-007  0.1534221E+04  0.7818608E-02  0.8862010E-01
         -1   -1    0    0    0  501 -0.00000000000E+00  0.00000000000E+00  0.22318093715E+03  0.22318093715E+03  0.00000000000E+00 0.  1.
          2   -1    0    0  501    0  0.00000000000E+00 -0.00000000000E+00 -0.26366896568E+04  0.26366896568E+04  0.00000000000E+00 0. -1.
         24    2    1    2    0    0  0.43810254800E+03 -0.81711370694E+02 -0.37674254344E+03  0.58894351707E+03  0.79428783174E+02 0.  0.
        254    2    1    2    0    0 -0.43810254800E+03  0.81711370694E+02 -0.20367661762E+04  0.22709270769E+04  0.90004596619E+03 0.  0.
         23    2    4    4    0    0  0.28280546783E+01  0.23382964335E+03 -0.88124466739E+02  0.26530584323E+03  0.89089667258E+02 0.  0.
         23    2    4    4    0    0 -0.44093060268E+03 -0.15211827266E+03 -0.19486417095E+04  0.20056212337E+04  0.88046894812E+02 0.  0.
          4    1    3    3  502    0  0.27296872837E+03 -0.59720267206E+02 -0.28338367898E+03  0.39797581145E+03  0.00000000000E+00 0. -1.
         -3    1    3    3    0  502  0.16513381963E+03 -0.21991103488E+02 -0.93358864455E+02  0.19096770562E+03  0.00000000000E+00 0.  1.
         13    1    5    5    0    0  0.19083931133E+02  0.14093218070E+03 -0.94547209125E+02  0.17077836730E+03  0.00000000000E+00 0.  1.
        -13    1    5    5    0    0 -0.16255876455E+02  0.92897462651E+02  0.64227423863E+01  0.94527475932E+02  0.00000000000E+00 0. -1.
          2    1    6    6  503    0 -0.19068872224E+02  0.61001415416E+01 -0.42874900699E+02  0.47319031316E+02  0.00000000000E+00 0.  1.
         -2    1    6    6    0  503 -0.42186173045E+03 -0.15821841420E+03 -0.19057668088E+04  0.19583022023E+04  0.00000000000E+00 0. -1.
<mgrwt>
<rscale>  0 0.15342215E+04</rscale>
<asrwt>0</asrwt>
<pdfrwt beam="1">  1        2 0.40564454E+00 0.15342215E+04</pdfrwt>
<pdfrwt beam="2">  1       -1 0.34335531E-01 0.15342215E+04</pdfrwt>
<totfact> 0.25609987E+01</totfact>
</mgrwt>
</event>
<event>
12    7  0.2426980E-007  0.1441683E+04  0.7818608E-02  0.8924187E-01
          2   -1    0    0  501    0  0.00000000000E+00  0.00000000000E+00  0.12566159651E+04  0.12566159651E+04  0.00000000000E+00 0. -1.
         -1   -1    0    0    0  501 -0.00000000000E+00 -0.00000000000E+00 -0.41350148733E+03  0.41350148733E+03  0.00000000000E+00 0.  1.
         24    2    1    2    0    0  0.18717906152E+02  0.42808151070E+03  0.17556960884E+03  0.47003469268E+03  0.80646047446E+02 0.  0.
        254    2    1    2    0    0 -0.18717906152E+02 -0.42808151070E+03  0.66754486888E+03  0.12000827597E+04  0.90054335728E+03 0.  0.
         23    2    4    4    0    0  0.24813313588E+03 -0.49638495064E+03  0.71009723130E+03  0.90599103669E+03  0.92809527125E+02 0.  0.
         23    2    4    4    0    0 -0.26685104203E+03  0.68303439945E+02 -0.42552362415E+02  0.29409172301E+03  0.93831761420E+02 0.  0.
          2    1    3    3  502    0  0.18705580977E+02  0.16829678898E+03  0.11058869664E+03  0.20224630470E+03  0.00000000000E+00 0. -1.
         -1    1    3    3    0  502  0.12325174207E-01  0.25978472171E+03  0.64980912199E+02  0.26778838798E+03  0.00000000000E+00 0.  1.
         13    1    5    5    0    0  0.25050258379E+03 -0.47891128114E+03  0.66105078606E+03  0.85387100984E+03  0.00000000000E+00 0. -1.
        -13    1    5    5    0    0 -0.23694479045E+01 -0.17473669500E+02  0.49046445233E+02  0.52120026853E+02  0.00000000000E+00 0.  1.
          1    1    6    6  503    0 -0.19345801556E+03  0.35592816217E+02  0.11839259116E+02  0.19706095607E+03  0.00000000000E+00 0. -1.
         -1    1    6    6    0  503 -0.73393026472E+02  0.32710623728E+02 -0.54391621530E+02  0.97030766936E+02  0.00000000000E+00 0.  1.
<mgrwt>
<rscale>  0 0.14416831E+04</rscale>
<asrwt>0</asrwt>
<pdfrwt beam="1">  1        2 0.19332553E+00 0.14416831E+04</pdfrwt>
<pdfrwt beam="2">  1       -1 0.63615614E-01 0.14416831E+04</pdfrwt>
<totfact> 0.48598763E+01</totfact>
</mgrwt>
</event>
<event>
12    7  0.2426980E-007  0.3969393E+04  0.7818608E-02  0.8010749E-01
          2   -1    0    0  501    0  0.00000000000E+00  0.00000000000E+00  0.20940881854E+04  0.20940881854E+04  0.00000000000E+00 0. -1.
         -1   -1    0    0    0  501 -0.00000000000E+00 -0.00000000000E+00 -0.18810196748E+04  0.18810196748E+04  0.00000000000E+00 0.  1.
         24    2    1    2    0    0 -0.14779770415E+04  0.78263771605E+03 -0.76705219589E+03  0.18417816728E+04  0.82781213015E+02 0.  0.
        254    2    1    2    0    0  0.14779770415E+04 -0.78263771605E+03  0.98012070642E+03  0.21333261874E+04  0.89078958947E+03 0.  0.
         23    2    4    4    0    0  0.67874985232E+03 -0.38791446312E+03  0.95390540552E+03  0.12366366320E+04  0.90308605026E+02 0.  0.
         23    2    4    4    0    0  0.79922718921E+03 -0.39472325293E+03  0.26215300902E+02  0.89668955540E+03  0.93778304430E+02 0.  0.
          2    1    3    3  502    0 -0.47553502318E+03  0.26822818233E+03 -0.21104032784E+03  0.58533574642E+03  0.00000000000E+00 0. -1.
         -1    1    3    3    0  502 -0.10024420184E+04  0.51440953372E+03 -0.55601186805E+03  0.12564459264E+04  0.00000000000E+00 0.  1.
         13    1    5    5    0    0  0.11429784578E+03 -0.66549212272E+02  0.21897886287E+03  0.25582130011E+03  0.00000000000E+00 0. -1.
        -13    1    5    5    0    0  0.56445200654E+03 -0.32136525085E+03  0.73492654265E+03  0.98081533187E+03  0.00000000000E+00 0.  1.
          1    1    6    6  503    0  0.47989800470E+03 -0.26196225449E+03  0.55892856684E+02  0.54959105626E+03  0.00000000000E+00 0. -1.
         -1    1    6    6    0  503  0.31932918451E+03 -0.13276099844E+03 -0.29677555782E+02  0.34709849914E+03  0.00000000000E+00 0.  1.
<mgrwt>
<rscale>  0 0.39693934E+04</rscale>
<asrwt>0</asrwt>
<pdfrwt beam="1">  1        2 0.32216741E+00 0.39693934E+04</pdfrwt>
<pdfrwt beam="2">  1       -1 0.28938764E+00 0.39693934E+04</pdfrwt>
<totfact> 0.20608181E-01</totfact>
</mgrwt>
</event>
<event>
12    7  0.2426980E-007  0.1443126E+04  0.7818608E-02  0.8923180E-01
         -1   -1    0    0    0  501 -0.00000000000E+00  0.00000000000E+00  0.23704833275E+03  0.23704833275E+03  0.00000000000E+00 0.  1.
          2   -1    0    0  501    0  0.00000000000E+00 -0.00000000000E+00 -0.21964010540E+04  0.21964010540E+04  0.00000000000E+00 0. -1.
         24    2    1    2    0    0  0.96244277970E+02 -0.41816429855E+03 -0.47253400514E+03  0.64328298098E+03  0.80001662370E+02 0.  0.
        254    2    1    2    0    0 -0.96244277970E+02  0.41816429855E+03 -0.14868187161E+04  0.17901664058E+04  0.89996751282E+03 0.  0.
         23    2    4    4    0    0 -0.56629608637E+02  0.56113036175E+03 -0.42123225374E+03  0.71079417572E+03  0.98577650587E+02 0.  0.
         23    2    4    4    0    0 -0.39614669333E+02 -0.14296606319E+03 -0.10655864624E+04  0.10793722300E+04  0.86955649414E+02 0.  0.
          4    1    3    3  502    0  0.28508028263E+02 -0.11162452944E+03 -0.18283964062E+03  0.21610894806E+03  0.00000000000E+00 0. -1.
         -3    1    3    3    0  502  0.67736249707E+02 -0.30653976911E+03 -0.28969436452E+03  0.42717403292E+03  0.00000000000E+00 0.  1.
         13    1    5    5    0    0  0.79021448915E+01  0.27210654943E+03 -0.24465647198E+03  0.36600711389E+03  0.00000000000E+00 0.  1.
        -13    1    5    5    0    0 -0.64531753528E+02  0.28902381231E+03 -0.17657578176E+03  0.34478706183E+03  0.00000000000E+00 0. -1.
          1    1    6    6  503    0 -0.30442959709E+02 -0.14613197774E+02 -0.40257504804E+03  0.40398884718E+03  0.00000000000E+00 0. -1.
         -1    1    6    6    0  503 -0.91717096240E+01 -0.12835286542E+03 -0.66301141432E+03  0.67538338286E+03  0.00000000000E+00 0.  1.
<mgrwt>
<rscale>  0 0.14431261E+04</rscale>
<asrwt>0</asrwt>
<pdfrwt beam="1">  1        2 0.33790787E+00 0.14431261E+04</pdfrwt>
<pdfrwt beam="2">  1       -1 0.36468972E-01 0.14431261E+04</pdfrwt>
<totfact> 0.41369668E+01</totfact>
</mgrwt>
</event>
<event>
12    7  0.2426980E-007  0.3494606E+04  0.7818608E-02  0.8115069E-01
          2   -1    0    0  501    0  0.00000000000E+00  0.00000000000E+00  0.25830993467E+04  0.25830993467E+04  0.00000000000E+00 0. -1.
         -1   -1    0    0    0  501 -0.00000000000E+00 -0.00000000000E+00 -0.11819397048E+04  0.11819397048E+04  0.00000000000E+00 0.  1.
         24    2    1    2    0    0  0.89485521594E+03 -0.34070868837E+03  0.20748888456E+04  0.22865326957E+04  0.78865575990E+02 0.  0.
        254    2    1    2    0    0 -0.89485521594E+03  0.34070868837E+03 -0.67372920370E+03  0.14785063559E+04  0.90289630449E+03 0.  0.
         23    2    4    4    0    0 -0.62803181978E+03  0.38487099196E+03 -0.86121526812E+03  0.11368550245E+04  0.90542595950E+02 0.  0.
         23    2    4    4    0    0 -0.26682339615E+03 -0.44162303584E+02  0.18748606442E+03  0.34165133134E+03  0.91812711893E+02 0.  0.
          2    1    3    3  502    0  0.80710963025E+03 -0.32547849476E+03  0.18432988263E+04  0.20384093723E+04  0.00000000000E+00 0. -1.
         -1    1    3    3    0  502  0.87745585683E+02 -0.15230193616E+02  0.23159001928E+03  0.24812332344E+03  0.00000000000E+00 0.  1.
         13    1    5    5    0    0 -0.54882222357E+03  0.30991904271E+03 -0.76696890965E+03  0.99272199254E+03  0.00000000000E+00 0.  1.
        -13    1    5    5    0    0 -0.79209596216E+02  0.74951949244E+02 -0.94246358471E+02  0.14413303200E+03  0.00000000000E+00 0. -1.
          3    1    6    6  503    0 -0.47197358138E+02 -0.20884258301E+02 -0.51440287521E+00  0.51614023969E+02  0.00000000000E+00 0. -1.
         -3    1    6    6    0  503 -0.21962603802E+03 -0.23278045283E+02  0.18800046729E+03  0.29003730737E+03  0.00000000000E+00 0.  1.
<mgrwt>
<rscale>  0 0.34946059E+04</rscale>
<asrwt>0</asrwt>
<pdfrwt beam="1">  1        2 0.39739990E+00 0.34946059E+04</pdfrwt>
<pdfrwt beam="2">  1       -1 0.18183688E+00 0.34946059E+04</pdfrwt>
<totfact> 0.58705022E-01</totfact>
</mgrwt>
</event>
<event>
12    7  0.2426980E-007  0.1801441E+04  0.7818608E-02  0.8705533E-01
          2   -1    0    0  501    0  0.00000000000E+00  0.00000000000E+00  0.24669683973E+04  0.24669683973E+04  0.00000000000E+00 0. -1.
         -1   -1    0    0    0  501 -0.00000000000E+00 -0.00000000000E+00 -0.32886428410E+03  0.32886428410E+03  0.00000000000E+00 0.  1.
         24    2    1    2    0    0  0.43377063672E+03  0.46322525637E+03  0.11562362223E+04  0.13213472719E+04  0.79635467496E+02 0.  0.
        254    2    1    2    0    0 -0.43377063672E+03 -0.46322525637E+03  0.98186789087E+03  0.14744854095E+04  0.89850323556E+03 0.  0.
         23    2    4    4    0    0  0.94666891633E+01 -0.57450788732E+03  0.76379443973E+03  0.96002428794E+03  0.90087493414E+02 0.  0.
         23    2    4    4    0    0 -0.44323732588E+03  0.11128263096E+03  0.21807345114E+03  0.51446112157E+03  0.90945392982E+02 0.  0.
          2    1    3    3  502    0  0.30918983488E+03  0.36832548974E+03  0.82434119158E+03  0.95435864355E+03  0.00000000000E+00 0. -1.
         -1    1    3    3    0  502  0.12458080184E+03  0.94899766622E+02  0.33189503071E+03  0.36698862830E+03  0.00000000000E+00 0.  1.
         13    1    5    5    0    0  0.13436595779E+01 -0.99097405731E+02  0.81061164622E+02  0.12803520474E+03  0.00000000000E+00 0.  1.
        -13    1    5    5    0    0  0.81230295854E+01 -0.47541048159E+03  0.68273327511E+03  0.83198908320E+03  0.00000000000E+00 0. -1.
          4    1    6    6  503    0 -0.44023549916E+03  0.10236686102E+03  0.20034856165E+03  0.49439439227E+03  0.00000000000E+00 0. -1.
         -4    1    6    6    0  503 -0.30018267232E+01  0.89157699342E+01  0.17724889488E+02  0.20066729294E+02  0.00000000000E+00 0.  1.
<mgrwt>
<rscale>  0 0.18014414E+04</rscale>
<asrwt>0</asrwt>
<pdfrwt beam="1">  1        2 0.37953359E+00 0.18014414E+04</pdfrwt>
<pdfrwt beam="2">  1       -1 0.50594507E-01 0.18014414E+04</pdfrwt>
<totfact> 0.15360043E+01</totfact>
</mgrwt>
</event>
<event>
12    7  0.2426980E-007  0.1545958E+04  0.7818608E-02  0.8854454E-01
         -3   -1    0    0    0  501 -0.00000000000E+00  0.00000000000E+00  0.45375767490E+03  0.45375767490E+03  0.00000000000E+00 0.  1.
          2   -1    0    0  501    0  0.00000000000E+00 -0.00000000000E+00 -0.13167742473E+04  0.13167742473E+04  0.00000000000E+00 0. -1.
         24    2    1    2    0    0 -0.40329803012E+02  0.17327931168E+03 -0.82843448242E+03  0.85111496540E+03  0.80254468989E+02 0.  0.
        254    2    1    2    0    0  0.40329803012E+02 -0.17327931168E+03 -0.34582089933E+02  0.91941695676E+03  0.90137639561E+03 0.  0.
         23    2    4    4    0    0  0.21455655899E+03 -0.21733043126E+03 -0.39442615650E+03  0.50697382285E+03  0.90462316827E+02 0.  0.
         23    2    4    4    0    0 -0.17422675598E+03  0.44051119572E+02  0.35984406656E+03  0.41244313391E+03  0.91247590838E+02 0.  0.
          2    1    3    3  502    0 -0.50714405648E+01  0.15565839994E+03 -0.66557027729E+03  0.68354886511E+03  0.00000000000E+00 0. -1.
         -1    1    3    3    0  502 -0.35258362447E+02  0.17620911748E+02 -0.16286420514E+03  0.16756610029E+03  0.00000000000E+00 0.  1.
         13    1    5    5    0    0  0.14934182781E+02 -0.16846839935E+02 -0.11979296543E+01  0.22545085198E+02  0.00000000000E+00 0. -1.
        -13    1    5    5    0    0  0.19962237621E+03 -0.20048359132E+03 -0.39322822684E+03  0.48442873765E+03  0.00000000000E+00 0.  1.
          3    1    6    6  503    0 -0.31978236285E+02  0.37276953663E+02  0.15771089226E+03  0.16518142876E+03  0.00000000000E+00 0. -1.
         -3    1    6    6    0  503 -0.14224851969E+03  0.67741659088E+01  0.20213317430E+03  0.24726170515E+03  0.00000000000E+00 0.  1.
<mgrwt>
<rscale>  0 0.15459579E+04</rscale>
<asrwt>0</asrwt>
<pdfrwt beam="1">  1        2 0.20258065E+00 0.15459579E+04</pdfrwt>
<pdfrwt beam="2">  1       -3 0.69808874E-01 0.15459579E+04</pdfrwt>
<totfact> 0.19476371E+01</totfact>
</mgrwt>
</event>
<event>
12    7  0.2426980E-007  0.2687182E+04  0.7818608E-02  0.8339176E-01
          2   -1    0    0  501    0  0.00000000000E+00  0.00000000000E+00  0.34912427650E+04  0.34912427650E+04  0.00000000000E+00 0. -1.
         -1   -1    0    0    0  501 -0.00000000000E+00 -0.00000000000E+00 -0.51707582387E+03  0.51707582387E+03  0.00000000000E+00 0.  1.
         24    2    1    2    0    0  0.37778946200E+03  0.11177617302E+04  0.15649371780E+04  0.19618129528E+04  0.86980042033E+02 0.  0.
        254    2    1    2    0    0 -0.37778946200E+03 -0.11177617302E+04  0.14092297631E+04  0.20465056360E+04  0.90007812445E+03 0.  0.
         23    2    4    4    0    0 -0.27535166529E+03 -0.12452521046E+04  0.13227861229E+04  0.18397173344E+04  0.91243629852E+02 0.  0.
         23    2    4    4    0    0 -0.10243779671E+03  0.12749037446E+03  0.86443640164E+02  0.20678830159E+03  0.92420782158E+02 0.  0.
          2    1    3    3  502    0  0.48599908017E+02  0.24090198166E+03  0.29822892592E+03  0.38644043277E+03  0.00000000000E+00 0. -1.
         -1    1    3    3    0  502  0.32918955398E+03  0.87685974849E+03  0.12667082521E+04  0.15753725201E+04  0.00000000000E+00 0.  1.
         13    1    5    5    0    0 -0.21987259532E+03 -0.96850088595E+03  0.10821722296E+04  0.14688208396E+04  0.00000000000E+00 0.  1.
        -13    1    5    5    0    0 -0.55479069971E+02 -0.27675121866E+03  0.24061389334E+03  0.37089649487E+03  0.00000000000E+00 0. -1.
          2    1    6    6  503    0 -0.17071861318E+02 -0.90965105982E+01  0.30814606536E+02  0.36383168223E+02  0.00000000000E+00 0. -1.
         -2    1    6    6    0  503 -0.85365935387E+02  0.13658688506E+03  0.55629033628E+02  0.17040513337E+03  0.00000000000E+00 0.  1.
<mgrwt>
<rscale>  0 0.26871823E+04</rscale>
<asrwt>0</asrwt>
<pdfrwt beam="1">  1        2 0.53711426E+00 0.26871823E+04</pdfrwt>
<pdfrwt beam="2">  1       -1 0.79550129E-01 0.26871823E+04</pdfrwt>
<totfact> 0.12998924E+00</totfact>
</mgrwt>
</event>
<event>
12    7  0.2426980E-007  0.2041000E+04  0.7818608E-02  0.8587688E-01
         -1   -1    0    0    0  501 -0.00000000000E+00  0.00000000000E+00  0.15343281162E+04  0.15343281162E+04  0.00000000000E+00 0.  1.
          2   -1    0    0  501    0  0.00000000000E+00 -0.00000000000E+00 -0.67874699861E+03  0.67874699861E+03  0.00000000000E+00 0. -1.
         24    2    1    2    0    0  0.52094733617E+03 -0.40143837797E+01 -0.34318745536E+03  0.62668860669E+03  0.59655158114E+02 0.  0.
        254    2    1    2    0    0 -0.52094733617E+03  0.40143837797E+01  0.11987685729E+04  0.15863865081E+04  0.89898488271E+03 0.  0.
         23    2    4    4    0    0 -0.38422346928E+03 -0.39885326922E+03  0.89380807461E+03  0.10554841419E+04  0.91881961277E+02 0.  0.
         23    2    4    4    0    0 -0.13672386689E+03  0.40286765300E+03  0.30496049834E+03  0.53090236625E+03  0.88660336835E+02 0.  0.
          4    1    3    3  502    0  0.17241164843E+03  0.13260729583E+02 -0.14294694579E+03  0.22435563906E+03  0.00000000000E+00 0. -1.
         -3    1    3    3    0  502  0.34853568774E+03 -0.17275113363E+02 -0.20024050957E+03  0.40233296763E+03  0.00000000000E+00 0.  1.
         13    1    5    5    0    0 -0.32391998447E+03 -0.28110360161E+03  0.67078182559E+03  0.79617312735E+03  0.00000000000E+00 0. -1.
        -13    1    5    5    0    0 -0.60303484807E+02 -0.11774966761E+03  0.22302624902E+03  0.25931101452E+03  0.00000000000E+00 0.  1.
          2    1    6    6  503    0 -0.13882480347E+03  0.38398530398E+03  0.26531180718E+03  0.48693674616E+03  0.00000000000E+00 0. -1.
         -2    1    6    6    0  503  0.21009365765E+01  0.18882349017E+02  0.39648691158E+02  0.43965620085E+02  0.00000000000E+00 0.  1.
<mgrwt>
<rscale>  0 0.20410003E+04</rscale>
<asrwt>0</asrwt>
<pdfrwt beam="1">  1        2 0.10442262E+00 0.20410003E+04</pdfrwt>
<pdfrwt beam="2">  1       -1 0.23605048E+00 0.20410003E+04</pdfrwt>
<totfact> 0.38758789E+00</totfact>
</mgrwt>
</event>
<event>
12    7  0.2426980E-007  0.2006610E+04  0.7818608E-02  0.8603536E-01
         -1   -1    0    0    0  501 -0.00000000000E+00  0.00000000000E+00  0.66163332870E+03  0.66163332870E+03  0.00000000000E+00 0.  1.
          2   -1    0    0  501    0  0.00000000000E+00 -0.00000000000E+00 -0.15214183302E+04  0.15214183302E+04  0.00000000000E+00 0. -1.
         24    2    1    2    0    0 -0.23258502196E+03  0.72076366109E+03 -0.62102642576E+03  0.98267668701E+03  0.79897447485E+02 0.  0.
        254    2    1    2    0    0  0.23258502196E+03 -0.72076366109E+03 -0.23875857579E+03  0.12003749719E+04  0.90016574482E+03 0.  0.
         23    2    4    4    0    0 -0.32916240026E+02  0.15460304726E+03  0.11542486321E+03  0.21505072434E+03  0.89097328320E+02 0.  0.
         23    2    4    4    0    0  0.26550126198E+03 -0.87536670835E+03 -0.35418343899E+03  0.98532424759E+03  0.93060035592E+02 0.  0.
          4    1    3    3  502    0 -0.77373396691E+02  0.13515562170E+03 -0.12677315058E+03  0.20081114586E+03  0.00000000000E+00 0. -1.
         -3    1    3    3    0  502 -0.15521162527E+03  0.58560803939E+03 -0.49425327518E+03  0.78186554116E+03  0.00000000000E+00 0.  1.
         13    1    5    5    0    0 -0.86119107888E+01  0.10910457431E+03  0.27072490791E+02  0.11274259577E+03  0.00000000000E+00 0.  1.
        -13    1    5    5    0    0 -0.24304329237E+02  0.45498472949E+02  0.88352372417E+02  0.10230812857E+03  0.00000000000E+00 0. -1.
          3    1    6    6  503    0  0.16543339723E+03 -0.46169990451E+03 -0.23190800243E+03  0.54250929240E+03  0.00000000000E+00 0. -1.
         -3    1    6    6    0  503  0.10006786476E+03 -0.41366680384E+03 -0.12227543656E+03  0.44281495519E+03  0.00000000000E+00 0.  1.
<mgrwt>
<rscale>  0 0.20066102E+04</rscale>
<asrwt>0</asrwt>
<pdfrwt beam="1">  1        2 0.23406436E+00 0.20066102E+04</pdfrwt>
<pdfrwt beam="2">  1       -1 0.10178974E+00 0.20066102E+04</pdfrwt>
<totfact> 0.11950229E+01</totfact>
</mgrwt>
</event>
<event>
12    7  0.2426980E-007  0.2122550E+04  0.7818608E-02  0.8551374E-01
          2   -1    0    0  501    0  0.00000000000E+00  0.00000000000E+00  0.30049972840E+04  0.30049972840E+04  0.00000000000E+00 0. -1.
         -1   -1    0    0    0  501 -0.00000000000E+00 -0.00000000000E+00 -0.37481053233E+03  0.37481053233E+03  0.00000000000E+00 0.  1.
         24    2    1    2    0    0 -0.16854450239E+03 -0.72541187645E+03  0.37601764929E+03  0.83957069781E+03  0.94127808105E+02 0.  0.
        254    2    1    2    0    0  0.16854450239E+03  0.72541187645E+03  0.22541691024E+04  0.25402371185E+04  0.90382334356E+03 0.  0.
         23    2    4    4    0    0  0.11016173095E+03  0.60028249955E+03  0.22889696428E+04  0.23708259951E+04  0.94652983162E+02 0.  0.
         23    2    4    4    0    0  0.58382771441E+02  0.12512937690E+03 -0.34800540395E+02  0.16941112342E+03  0.91777677907E+02 0.  0.
          2    1    3    3  502    0 -0.15460152562E+03 -0.58745553201E+03  0.34072475496E+03  0.69649048267E+03  0.00000000000E+00 0. -1.
         -1    1    3    3    0  502 -0.13942976774E+02 -0.13795634444E+03  0.35292894331E+02  0.14308021514E+03  0.00000000000E+00 0.  1.
         13    1    5    5    0    0  0.79263720839E+02  0.46963013629E+03  0.19199915127E+04  0.19781816427E+04  0.00000000000E+00 0. -1.
        -13    1    5    5    0    0  0.30898010115E+02  0.13065236326E+03  0.36897813005E+03  0.39264435245E+03  0.00000000000E+00 0.  1.
          3    1    6    6  503    0  0.65384419957E+02  0.12909464678E+03 -0.11968402425E+02  0.14520259246E+03  0.00000000000E+00 0. -1.
         -3    1    6    6    0  503 -0.70016485159E+01 -0.39652698755E+01 -0.22832137971E+02  0.24208530964E+02  0.00000000000E+00 0.  1.
<mgrwt>
<rscale>  0 0.21225500E+04</rscale>
<asrwt>0</asrwt>
<pdfrwt beam="1">  1        2 0.46230726E+00 0.21225500E+04</pdfrwt>
<pdfrwt beam="2">  1       -1 0.57663161E-01 0.21225500E+04</pdfrwt>
<totfact> 0.55215737E+00</totfact>
</mgrwt>
</event>
<event>
12    7  0.2426980E-007  0.1353409E+04  0.7818608E-02  0.8988251E-01
         -1   -1    0    0    0  501 -0.00000000000E+00  0.00000000000E+00  0.59329694400E+03  0.59329694400E+03  0.00000000000E+00 0.  1.
          2   -1    0    0  501    0  0.00000000000E+00 -0.00000000000E+00 -0.77183828370E+03  0.77183828370E+03  0.00000000000E+00 0. -1.
         24    2    1    2    0    0  0.27093140218E+03  0.27458687704E+02 -0.30485459617E+03  0.41636623722E+03  0.79162582487E+02 0.  0.
        254    2    1    2    0    0 -0.27093140218E+03 -0.27458687704E+02  0.12631325647E+03  0.94876899049E+03  0.90002764087E+03 0.  0.
         23    2    4    4    0    0 -0.37329555843E+03 -0.20111382104E+03  0.40454560922E+03  0.59325708208E+03  0.92198007302E+02 0.  0.
         23    2    4    4    0    0  0.10236415624E+03  0.17365513333E+03 -0.27823235275E+03  0.35551190841E+03  0.91328796606E+02 0.  0.
          2    1    3    3  502    0  0.11880993232E+03  0.47681947220E+02 -0.16411005172E+03  0.20813812045E+03  0.00000000000E+00 0. -1.
         -1    1    3    3    0  502  0.15212146986E+03 -0.20223259516E+02 -0.14074454445E+03  0.20822811676E+03  0.00000000000E+00 0.  1.
         13    1    5    5    0    0 -0.59595108439E+02 -0.45011375602E+02  0.12241215781E+03  0.14339573656E+03  0.00000000000E+00 0.  1.
        -13    1    5    5    0    0 -0.31370044999E+03 -0.15610244543E+03  0.28213345141E+03  0.44986134552E+03  0.00000000000E+00 0. -1.
          1    1    6    6  503    0  0.80732185607E+02  0.53138842381E+02 -0.98173679485E+02  0.13776608329E+03  0.00000000000E+00 0. -1.
         -1    1    6    6    0  503  0.21631970635E+02  0.12051629095E+03 -0.18005867326E+03  0.21774582511E+03  0.00000000000E+00 0.  1.
<mgrwt>
<rscale>  0 0.13534095E+04</rscale>
<asrwt>0</asrwt>
<pdfrwt beam="1">  1        2 0.11874435E+00 0.13534095E+04</pdfrwt>
<pdfrwt beam="2">  1       -1 0.91276454E-01 0.13534095E+04</pdfrwt>
<totfact> 0.47177366E+01</totfact>
</mgrwt>
</event>
<event>
12    7  0.2426980E-007  0.2027728E+04  0.7818608E-02  0.8593765E-01
          2   -1    0    0  501    0  0.00000000000E+00  0.00000000000E+00  0.29380837653E+04  0.29380837653E+04  0.00000000000E+00 0. -1.
         -1   -1    0    0    0  501 -0.00000000000E+00 -0.00000000000E+00 -0.34986088696E+03  0.34986088696E+03  0.00000000000E+00 0.  1.
         24    2    1    2    0    0 -0.39713118835E+03  0.41337966812E+03  0.19750356717E+04  0.20578580123E+04  0.73605456745E+02 0.  0.
        254    2    1    2    0    0  0.39713118835E+03 -0.41337966812E+03  0.61318720657E+03  0.12300866400E+04  0.89917665712E+03 0.  0.
         23    2    4    4    0    0 -0.77619004056E+02  0.17868381651E+03 -0.48148875605E+02  0.21919523658E+03  0.88179484276E+02 0.  0.
         23    2    4    4    0    0  0.47475019241E+03 -0.59206348463E+03  0.66133608217E+03  0.10108914034E+04  0.92785240221E+02 0.  0.
          2    1    3    3  502    0 -0.38544855430E+03  0.41256622129E+03  0.19520186923E+04  0.20320330829E+04  0.00000000000E+00 0. -1.
         -1    1    3    3    0  502 -0.11682634053E+02  0.81344683010E+00  0.23016979468E+02  0.25824929390E+02  0.00000000000E+00 0.  1.
         13    1    5    5    0    0 -0.21775544214E+02  0.40728636475E+02  0.25912207114E+02  0.52956950747E+02  0.00000000000E+00 0.  1.
        -13    1    5    5    0    0 -0.55843459843E+02  0.13795518003E+03 -0.74061082719E+02  0.16623828584E+03  0.00000000000E+00 0. -1.
          4    1    6    6  503    0  0.12397315441E+03 -0.17514136130E+03  0.24141876929E+03  0.32299668980E+03  0.00000000000E+00 0. -1.
         -4    1    6    6    0  503  0.35077703800E+03 -0.41692212333E+03  0.41991731288E+03  0.68789471358E+03  0.00000000000E+00 0.  1.
<mgrwt>
<rscale>  0 0.20277284E+04</rscale>
<asrwt>0</asrwt>
<pdfrwt beam="1">  1        2 0.45201287E+00 0.20277284E+04</pdfrwt>
<pdfrwt beam="2">  1       -1 0.53824754E-01 0.20277284E+04</pdfrwt>
<totfact> 0.70090012E+00</totfact>
</mgrwt>
</event>
<event>
12    7  0.2426980E-007  0.2363503E+04  0.7818608E-02  0.8453295E-01
         -1   -1    0    0    0  501 -0.00000000000E+00  0.00000000000E+00  0.37888568173E+03  0.37888568173E+03  0.00000000000E+00 0.  1.
          2   -1    0    0  501    0  0.00000000000E+00 -0.00000000000E+00 -0.36859034332E+04  0.36859034332E+04  0.00000000000E+00 0. -1.
         24    2    1    2    0    0 -0.34761453694E+03 -0.87363058551E+03 -0.20446793163E+04  0.22519452284E+04  0.80483159184E+02 0.  0.
        254    2    1    2    0    0  0.34761453694E+03  0.87363058551E+03 -0.12623384352E+04  0.18128438866E+04  0.89935441615E+03 0.  0.
         23    2    4    4    0    0  0.13007220297E+03  0.64359859466E+03 -0.13212275764E+04  0.14782528666E+04  0.91930951565E+02 0.  0.
         23    2    4    4    0    0  0.21754233396E+03  0.23003199085E+03  0.58889141190E+02  0.33459102000E+03  0.90795571670E+02 0.  0.
          2    1    3    3  502    0 -0.11916055967E+03 -0.30663277043E+03 -0.80901248750E+03  0.87334076958E+03  0.00000000000E+00 0. -1.
         -1    1    3    3    0  502 -0.22845397727E+03 -0.56699781508E+03 -0.12356668288E+04  0.13786044588E+04  0.00000000000E+00 0.  1.
         13    1    5    5    0    0  0.53438516491E+02  0.45276481161E+03 -0.86399347825E+03  0.97690141782E+03  0.00000000000E+00 0.  1.
        -13    1    5    5    0    0  0.76633686480E+02  0.19083378304E+03 -0.45723409813E+03  0.50135144873E+03  0.00000000000E+00 0. -1.
          1    1    6    6  503    0  0.10436159124E+03  0.16859149532E+03  0.54935706682E+02  0.20574830714E+03  0.00000000000E+00 0. -1.
         -1    1    6    6    0  503  0.11318074272E+03  0.61440495531E+02  0.39534345070E+01  0.12884271287E+03  0.00000000000E+00 0.  1.
<mgrwt>
<rscale>  0 0.23635025E+04</rscale>
<asrwt>0</asrwt>
<pdfrwt beam="1">  1        2 0.56706206E+00 0.23635025E+04</pdfrwt>
<pdfrwt beam="2">  1       -1 0.58290106E-01 0.23635025E+04</pdfrwt>
<totfact> 0.18348880E+00</totfact>
</mgrwt>
</event>
<event>
12    7  0.2426980E-007  0.1334127E+04  0.7818608E-02  0.9002931E-01
          2   -1    0    0  501    0  0.00000000000E+00  0.00000000000E+00  0.47194333880E+03  0.47194333880E+03  0.00000000000E+00 0. -1.
         -1   -1    0    0    0  501 -0.00000000000E+00 -0.00000000000E+00 -0.94285474276E+03  0.94285474276E+03  0.00000000000E+00 0.  1.
         24    2    1    2    0    0 -0.17726161601E+03 -0.30109715199E+03 -0.63041656165E+02  0.36473632886E+03  0.83529418356E+02 0.  0.
        254    2    1    2    0    0  0.17726161601E+03  0.30109715199E+03 -0.40786974779E+03  0.10500617527E+04  0.90232520627E+03 0.  0.
         23    2    4    4    0    0 -0.16795240974E+03 -0.15928982839E+03  0.10844390360E+03  0.27167045796E+03  0.91997261576E+02 0.  0.
         23    2    4    4    0    0  0.34521402574E+03  0.46038698039E+03 -0.51631365139E+03  0.77839129474E+03  0.90467263874E+02 0.  0.
          4    1    3    3  502    0 -0.57705488780E+02 -0.64164770481E+02  0.16130285351E+02  0.87790815646E+02  0.00000000000E+00 0. -1.
         -3    1    3    3    0  502 -0.11955612723E+03 -0.23693238151E+03 -0.79171941516E+02  0.27694551322E+03  0.00000000000E+00 0.  1.
         13    1    5    5    0    0 -0.14407946745E+03 -0.16084725672E+03  0.11779936780E+03  0.24598256847E+03  0.00000000000E+00 0.  1.
        -13    1    5    5    0    0 -0.23872942285E+02  0.15574283233E+01 -0.93554642071E+01  0.25687889498E+02  0.00000000000E+00 0. -1.
          4    1    6    6  503    0  0.46764453804E+02  0.30288817544E+02 -0.27413459968E+02  0.62095284807E+02  0.00000000000E+00 0. -1.
         -4    1    6    6    0  503  0.29844957194E+03  0.43009816284E+03 -0.48890019142E+03  0.71629600993E+03  0.00000000000E+00 0.  1.
<mgrwt>
<rscale>  0 0.13341275E+04</rscale>
<asrwt>0</asrwt>
<pdfrwt beam="1">  1        2 0.72606668E-01 0.13341275E+04</pdfrwt>
<pdfrwt beam="2">  1       -1 0.14505458E+00 0.13341275E+04</pdfrwt>
<totfact> 0.28111652E+01</totfact>
</mgrwt>
</event>
<event>
12    7  0.3199580E-007  0.2224312E+04  0.7818608E-02  0.8508376E-01
         -1   -1    0    0    0  501 -0.00000000000E+00  0.00000000000E+00  0.11850057216E+04  0.11850057216E+04  0.00000000000E+00 0.  1.
          2   -1    0    0  501    0  0.00000000000E+00 -0.00000000000E+00 -0.10437851683E+04  0.10437851683E+04  0.00000000000E+00 0. -1.
         24    2    1    2    0    0 -0.82735795755E+03 -0.10545347899E+03 -0.34812311462E+03  0.90724729386E+03  0.79160110639E+02 0.  0.
        254    2    1    2    0    0  0.82735795755E+03  0.10545347899E+03  0.48934366796E+03  0.13215435960E+04  0.90076557697E+03 0.  0.
         23    2    4    4    0    0  0.79090136899E+03  0.41658632326E+03  0.40161209093E+03  0.98412528371E+03  0.90228389491E+02 0.  0.
         23    2    4    4    0    0  0.36456588564E+02 -0.31113284427E+03  0.87731577035E+02  0.33741831231E+03  0.89563152261E+02 0.  0.
          4    1    3    3  502    0 -0.74211061274E+03 -0.11411243921E+03 -0.32728634067E+03  0.81906419718E+03  0.00000000000E+00 0. -1.
         -3    1    3    3    0  502 -0.85247344813E+02  0.86589602142E+01 -0.20836773958E+02  0.88183096672E+02  0.00000000000E+00 0.  1.
         13    1    5    5    0    0  0.38338924221E+03  0.22096963577E+03  0.15284430559E+03  0.46816265627E+03  0.00000000000E+00 0. -1.
        -13    1    5    5    0    0  0.40751212678E+03  0.19561668749E+03  0.24876778534E+03  0.51596262745E+03  0.00000000000E+00 0.  1.
          1    1    6    6  503    0  0.53078562755E+02 -0.28454412787E+03  0.96057473454E+02  0.30497497067E+03  0.00000000000E+00 0. -1.
         -1    1    6    6    0  503 -0.16621974191E+02 -0.26588716398E+02 -0.83258964187E+01  0.32443341642E+02  0.00000000000E+00 0.  1.
<mgrwt>
<rscale>  0 0.22243124E+04</rscale>
<asrwt>0</asrwt>
<pdfrwt beam="1">  1        2 0.16058233E+00 0.22243124E+04</pdfrwt>
<pdfrwt beam="2">  1       -1 0.18230857E+00 0.22243124E+04</pdfrwt>
<totfact> 0.49222300E+00</totfact>
</mgrwt>
</event>
<event>
12    7  0.2426980E-007  0.1593365E+04  0.7818608E-02  0.8824634E-01
         -1   -1    0    0    0  501 -0.00000000000E+00  0.00000000000E+00  0.24446497187E+03  0.24446497187E+03  0.00000000000E+00 0.  1.
          2   -1    0    0  501    0  0.00000000000E+00 -0.00000000000E+00 -0.25962955051E+04  0.25962955051E+04  0.00000000000E+00 0. -1.
         24    2    1    2    0    0  0.78415210455E+02  0.52874814704E+03 -0.92526687749E+03  0.10716801412E+04  0.81584203448E+02 0.  0.
        254    2    1    2    0    0 -0.78415210455E+02 -0.52874814704E+03 -0.14265636558E+04  0.17690803358E+04  0.89935411395E+03 0.  0.
         23    2    4    4    0    0 -0.23751428201E+03 -0.69127683649E+03 -0.12977782065E+04  0.14922301988E+04  0.90807456203E+02 0.  0.
         23    2    4    4    0    0  0.15909907155E+03  0.16252868945E+03 -0.12878544930E+03  0.27685013702E+03  0.91280978053E+02 0.  0.
          2    1    3    3  502    0 -0.95570549577E+01  0.19953912921E+03 -0.32822618243E+03  0.38423902486E+03  0.00000000000E+00 0. -1.
         -1    1    3    3    0  502  0.87972265413E+02  0.32920901783E+03 -0.59704069506E+03  0.68744111635E+03  0.00000000000E+00 0.  1.
         13    1    5    5    0    0 -0.89269894011E+01 -0.11292961992E+03 -0.23490188007E+03  0.26079049725E+03  0.00000000000E+00 0.  1.
        -13    1    5    5    0    0 -0.22858729261E+03 -0.57834721656E+03 -0.10628763264E+04  0.12314397015E+04  0.00000000000E+00 0. -1.
          1    1    6    6  503    0  0.14464275636E+03  0.11047202871E+03 -0.12854753323E+03  0.22282294405E+03  0.00000000000E+00 0. -1.
         -1    1    6    6    0  503  0.14456315194E+02  0.52056660742E+02 -0.23791606780E+00  0.54027192974E+02  0.00000000000E+00 0.  1.
<mgrwt>
<rscale>  0 0.15933654E+04</rscale>
<asrwt>0</asrwt>
<pdfrwt beam="1">  1        2 0.39943007E+00 0.15933654E+04</pdfrwt>
<pdfrwt beam="2">  1       -1 0.37609996E-01 0.15933654E+04</pdfrwt>
<totfact> 0.22837045E+01</totfact>
</mgrwt>
</event>
<event>
12    7  0.2426980E-007  0.1585644E+04  0.7818608E-02  0.8829417E-01
          2   -1    0    0  501    0  0.00000000000E+00  0.00000000000E+00  0.10076734428E+04  0.10076734428E+04  0.00000000000E+00 0. -1.
         -1   -1    0    0    0  501 -0.00000000000E+00 -0.00000000000E+00 -0.62377991399E+03  0.62377991399E+03  0.00000000000E+00 0.  1.
         24    2    1    2    0    0 -0.96268313554E+02  0.44955672455E+03  0.40883877174E+03  0.62064201586E+03  0.81722296780E+02 0.  0.
        254    2    1    2    0    0  0.96268313554E+02 -0.44955672455E+03 -0.24945242893E+02  0.10108113410E+04  0.89986024753E+03 0.  0.
         23    2    4    4    0    0 -0.28911891062E+03  0.75001183766E+02 -0.14273274606E+03  0.34272123643E+03  0.88714638345E+02 0.  0.
         23    2    4    4    0    0  0.38538722417E+03 -0.52455790831E+03  0.11778750317E+03  0.66809010453E+03  0.93734626158E+02 0.  0.
          4    1    3    3  502    0 -0.11003383006E+03  0.37562106135E+03  0.35149474008E+03  0.52606765515E+03  0.00000000000E+00 0. -1.
         -1    1    3    3    0  502  0.13765516505E+02  0.73935663194E+02  0.57344031653E+02  0.94574360706E+02  0.00000000000E+00 0.  1.
         13    1    5    5    0    0 -0.12658675464E+03  0.78607010722E+02 -0.69251783691E+02  0.16431396207E+03  0.00000000000E+00 0. -1.
        -13    1    5    5    0    0 -0.16253215598E+03 -0.36058269556E+01 -0.73480962370E+02  0.17840727436E+03  0.00000000000E+00 0.  1.
          4    1    6    6  503    0  0.89728757413E+02 -0.17084422601E+03  0.29553336431E+01  0.19299671879E+03  0.00000000000E+00 0. -1.
         -4    1    6    6    0  503  0.29565846676E+03 -0.35371368231E+03  0.11483216952E+03  0.47509338574E+03  0.00000000000E+00 0.  1.
<mgrwt>
<rscale>  0 0.15856437E+04</rscale>
<asrwt>0</asrwt>
<pdfrwt beam="1">  1        2 0.15502668E+00 0.15856437E+04</pdfrwt>
<pdfrwt beam="2">  1       -1 0.95966141E-01 0.15856437E+04</pdfrwt>
<totfact> 0.28554230E+01</totfact>
</mgrwt>
</event>
<event>
12    7  0.2426980E-007  0.1617728E+04  0.7818608E-02  0.8809731E-01
          4   -1    0    0  501    0  0.00000000000E+00  0.00000000000E+00  0.84958074780E+03  0.84958074780E+03  0.00000000000E+00 0. -1.
         -3   -1    0    0    0  501 -0.00000000000E+00 -0.00000000000E+00 -0.77009852033E+03  0.77009852033E+03  0.00000000000E+00 0.  1.
         24    2    1    2    0    0  0.32555172139E+03 -0.44413354905E+03  0.84511939757E+02  0.56308317537E+03  0.81742655504E+02 0.  0.
        254    2    1    2    0    0 -0.32555172139E+03  0.44413354905E+03 -0.50297122880E+01  0.10565960928E+04  0.90173802878E+03 0.  0.
         23    2    4    4    0    0 -0.51863330064E+03 -0.87364033112E+01 -0.12565335110E+03  0.54157552651E+03  0.91969891799E+02 0.  0.
         23    2    4    4    0    0  0.19308157925E+03  0.45286995236E+03  0.12062363881E+03  0.51502056625E+03  0.91238322151E+02 0.  0.
          2    1    3    3  502    0  0.26662697850E+03 -0.34455445984E+03  0.34508797308E+02  0.43703384143E+03  0.00000000000E+00 0. -1.
         -1    1    3    3    0  502  0.58924742895E+02 -0.99579089207E+02  0.50003142449E+02  0.12604933394E+03  0.00000000000E+00 0.  1.
         13    1    5    5    0    0 -0.40046258614E+03 -0.45497283406E+02 -0.95526223289E+02  0.41420471391E+03  0.00000000000E+00 0. -1.
        -13    1    5    5    0    0 -0.11817071450E+03  0.36760880094E+02 -0.30127127810E+02  0.12737081260E+03  0.00000000000E+00 0.  1.
          2    1    6    6  503    0  0.10686779164E+03  0.33714778437E+03  0.10969608942E+03  0.37030066895E+03  0.00000000000E+00 0. -1.
         -2    1    6    6    0  503  0.86213787609E+02  0.11572216799E+03  0.10927549392E+02  0.14471989730E+03  0.00000000000E+00 0.  1.
<mgrwt>
<rscale>  0 0.16177279E+04</rscale>
<asrwt>0</asrwt>
<pdfrwt beam="1">  1        4 0.13070473E+00 0.16177279E+04</pdfrwt>
<pdfrwt beam="2">  1       -3 0.11847670E+00 0.16177279E+04</pdfrwt>
<totfact> 0.54513221E-01</totfact>
</mgrwt>
</event>
<event>
12    7  0.2426980E-007  0.1289682E+04  0.7818608E-02  0.9037787E-01
         -1   -1    0    0    0  501 -0.00000000000E+00  0.00000000000E+00  0.26126787354E+03  0.26126787354E+03  0.00000000000E+00 0.  1.
          2   -1    0    0  501    0  0.00000000000E+00 -0.00000000000E+00 -0.15915474640E+04  0.15915474640E+04  0.00000000000E+00 0. -1.
         24    2    1    2    0    0 -0.12409246711E+03  0.29822315706E+03 -0.36466118775E+03  0.49363674840E+03  0.79771333937E+02 0.  0.
        254    2    1    2    0    0  0.12409246711E+03 -0.29822315706E+03 -0.96561840266E+03  0.13591785891E+04  0.90033968350E+03 0.  0.
         23    2    4    4    0    0  0.33716233966E+03  0.14563821213E+03 -0.16097436497E+03  0.41142725497E+03  0.92036448455E+02 0.  0.
         23    2    4    4    0    0 -0.21306987254E+03 -0.44386136919E+03 -0.80464403769E+03  0.94775133412E+03  0.91481573469E+02 0.  0.
          4    1    3    3  502    0 -0.71376509399E+02  0.12345823521E+03 -0.21290317701E+03  0.25625047262E+03  0.00000000000E+00 0. -1.
         -3    1    3    3    0  502 -0.52715957715E+02  0.17476492185E+03 -0.15175801074E+03  0.23738627579E+03  0.00000000000E+00 0.  1.
         13    1    5    5    0    0  0.55794068904E+01  0.22518765746E+02 -0.20123885307E+02  0.30711485666E+02  0.00000000000E+00 0. -1.
        -13    1    5    5    0    0  0.33158293277E+03  0.12311944638E+03 -0.14085047966E+03  0.38071576931E+03  0.00000000000E+00 0.  1.
          3    1    6    6  503    0  0.29968311149E+01 -0.35498169648E+02 -0.34081694023E+02  0.49301753646E+02  0.00000000000E+00 0. -1.
         -3    1    6    6    0  503 -0.21606670366E+03 -0.40836319954E+03 -0.77056234367E+03  0.89844958047E+03  0.00000000000E+00 0.  1.
<mgrwt>
<rscale>  0 0.12896825E+04</rscale>
<asrwt>0</asrwt>
<pdfrwt beam="1">  1        2 0.24485346E+00 0.12896825E+04</pdfrwt>
<pdfrwt beam="2">  1       -1 0.40195057E-01 0.12896825E+04</pdfrwt>
<totfact> 0.76041762E+01</totfact>
</mgrwt>
</event>
<event>
12    7  0.2426980E-007  0.2357329E+04  0.7818608E-02  0.8455654E-01
         -1   -1    0    0    0  501 -0.00000000000E+00  0.00000000000E+00  0.48726459770E+03  0.48726459770E+03  0.00000000000E+00 0.  1.
          2   -1    0    0  501    0  0.00000000000E+00 -0.00000000000E+00 -0.28511202407E+04  0.28511202407E+04  0.00000000000E+00 0. -1.
         24    2    1    2    0    0  0.52167175128E+03 -0.72901698268E+03 -0.36820076417E+03  0.97215537345E+03  0.76857597434E+02 0.  0.
        254    2    1    2    0    0 -0.52167175128E+03  0.72901698268E+03 -0.19956548788E+04  0.23662294649E+04  0.90155216613E+03 0.  0.
         23    2    4    4    0    0 -0.63426810672E+03  0.84460066973E+03 -0.14949261639E+04  0.18326459889E+04  0.90226173988E+02 0.  0.
         23    2    4    4    0    0  0.11259635543E+03 -0.11558368705E+03 -0.50072871486E+03  0.53358347602E+03  0.89132216573E+02 0.  0.
          4    1    3    3  502    0  0.37762474307E+02 -0.60860401485E+02 -0.52597526598E+02  0.88862212098E+02  0.00000000000E+00 0. -1.
         -3    1    3    3    0  502  0.48390927698E+03 -0.66815658119E+03 -0.31560323757E+03  0.88329316136E+03  0.00000000000E+00 0.  1.
         13    1    5    5    0    0 -0.30502559832E+03  0.45958298887E+03 -0.83388559799E+03  0.99981114708E+03  0.00000000000E+00 0. -1.
        -13    1    5    5    0    0 -0.32924250840E+03  0.38501768086E+03 -0.66104056596E+03  0.83283484182E+03  0.00000000000E+00 0.  1.
          1    1    6    6  503    0  0.30233065145E+02 -0.41934174805E+02 -0.59920772201E+02  0.79139195003E+02  0.00000000000E+00 0. -1.
         -1    1    6    6    0  503  0.82363290289E+02 -0.73649512248E+02 -0.44080794266E+03  0.45444428102E+03  0.00000000000E+00 0.  1.
<mgrwt>
<rscale>  0 0.23573290E+04</rscale>
<asrwt>0</asrwt>
<pdfrwt beam="1">  1        2 0.43863389E+00 0.23573290E+04</pdfrwt>
<pdfrwt beam="2">  1       -1 0.74963783E-01 0.23573290E+04</pdfrwt>
<totfact> 0.39560352E+00</totfact>
</mgrwt>
</event>
<event>
12    7  0.2426980E-007  0.3148479E+04  0.7818608E-02  0.8202558E-01
          2   -1    0    0  501    0  0.00000000000E+00  0.00000000000E+00  0.26030527271E+04  0.26030527271E+04  0.00000000000E+00 0. -1.
         -1   -1    0    0    0  501 -0.00000000000E+00 -0.00000000000E+00 -0.95204771792E+03  0.95204771792E+03  0.00000000000E+00 0.  1.
         24    2    1    2    0    0 -0.13098186845E+04  0.23374905638E+01  0.71105548932E+02  0.13141451851E+04  0.79316570394E+02 0.  0.
        254    2    1    2    0    0  0.13098186845E+04 -0.23374905638E+01  0.15798994603E+04  0.22409552600E+04  0.90009317441E+03 0.  0.
         23    2    4    4    0    0  0.10133389588E+04  0.30823154021E+03  0.14180339596E+04  0.17722081496E+04  0.89659840241E+02 0.  0.
         23    2    4    4    0    0  0.29647972562E+03 -0.31056903078E+03  0.16186550069E+03  0.46874711041E+03  0.95760443969E+02 0.  0.
          4    1    3    3  502    0 -0.55052731494E+03 -0.76855635113E+01  0.68143595847E+02  0.55478188691E+03  0.00000000000E+00 0. -1.
         -3    1    3    3    0  502 -0.75929136951E+03  0.10023054075E+02  0.29619530854E+01  0.75936329816E+03  0.00000000000E+00 0.  1.
         13    1    5    5    0    0  0.92073816933E+03  0.30627344915E+03  0.12960661937E+04  0.16190583006E+04  0.00000000000E+00 0.  1.
        -13    1    5    5    0    0  0.92600789513E+02  0.19580910630E+01  0.12196776586E+03  0.15314984900E+03  0.00000000000E+00 0. -1.
          4    1    6    6  503    0  0.13766490097E+02  0.23231811876E+01  0.18853358202E+02  0.23459806818E+02  0.00000000000E+00 0. -1.
         -4    1    6    6    0  503  0.28271323552E+03 -0.31289221196E+03  0.14301214249E+03  0.44528730360E+03  0.00000000000E+00 0.  1.
<mgrwt>
<rscale>  0 0.31484793E+04</rscale>
<asrwt>0</asrwt>
<pdfrwt beam="1">  1        2 0.40046965E+00 0.31484793E+04</pdfrwt>
<pdfrwt beam="2">  1       -1 0.14646888E+00 0.31484793E+04</pdfrwt>
<totfact> 0.10829204E+00</totfact>
</mgrwt>
</event>
<event>
12    7  0.2426980E-007  0.4203516E+04  0.7818608E-02  0.7964704E-01
          2   -1    0    0  501    0  0.00000000000E+00  0.00000000000E+00  0.25295620375E+04  0.25295620375E+04  0.00000000000E+00 0. -1.
         -3   -1    0    0    0  501 -0.00000000000E+00 -0.00000000000E+00 -0.17463050731E+04  0.17463050731E+04  0.00000000000E+00 0.  1.
         24    2    1    2    0    0 -0.10819068065E+04 -0.14547903954E+04 -0.49685078552E+03  0.18815466934E+04  0.80123803378E+02 0.  0.
        254    2    1    2    0    0  0.10819068065E+04  0.14547903954E+04  0.12801077499E+04  0.23943204172E+04  0.89841915406E+03 0.  0.
         23    2    4    4    0    0  0.33968744180E+02  0.38747293574E+03 -0.33679589310E+02  0.40143034820E+03  0.93396243009E+02 0.  0.
         23    2    4    4    0    0  0.10479380623E+04  0.10673174597E+04  0.13137873392E+04  0.19928900690E+04  0.90735397184E+02 0.  0.
          4    1    3    3  502    0 -0.83754394670E+03 -0.11780455034E+04 -0.40515979761E+03  0.15011414098E+04  0.00000000000E+00 0. -1.
         -3    1    3    3    0  502 -0.24436285978E+03 -0.27674489203E+03 -0.91690987911E+02  0.38040528357E+03  0.00000000000E+00 0.  1.
         13    1    5    5    0    0 -0.22083972906E+02  0.25442281807E+03 -0.14555753157E+02  0.25579394474E+03  0.00000000000E+00 0. -1.
        -13    1    5    5    0    0  0.56052717086E+02  0.13305011767E+03 -0.19123836153E+02  0.14563640346E+03  0.00000000000E+00 0.  1.
          2    1    6    6  503    0  0.57427383885E+03  0.52157552763E+03  0.69264865436E+03  0.10399969382E+04  0.00000000000E+00 0. -1.
         -2    1    6    6    0  503  0.47366422345E+03  0.54574193206E+03  0.62113868489E+03  0.95289313086E+03  0.00000000000E+00 0.  1.
<mgrwt>
<rscale>  0 0.42035162E+04</rscale>
<asrwt>0</asrwt>
<pdfrwt beam="1">  1        2 0.38916339E+00 0.42035162E+04</pdfrwt>
<pdfrwt beam="2">  1       -3 0.26866232E+00 0.42035162E+04</pdfrwt>
<totfact> 0.93524141E-02</totfact>
</mgrwt>
</event>
<event>
12    7  0.2426980E-007  0.1156012E+04  0.7818608E-02  0.9152255E-01
         -1   -1    0    0    0  501 -0.00000000000E+00  0.00000000000E+00  0.39764044484E+03  0.39764044484E+03  0.00000000000E+00 0.  1.
          2   -1    0    0  501    0  0.00000000000E+00 -0.00000000000E+00 -0.84018332482E+03  0.84018332482E+03  0.00000000000E+00 0. -1.
         24    2    1    2    0    0  0.12533458497E+03  0.11275213108E+03  0.55555230670E+02  0.19581865502E+03  0.82684706835E+02 0.  0.
        254    2    1    2    0    0 -0.12533458497E+03 -0.11275213108E+03 -0.49809811065E+03  0.10420051146E+04  0.89958386483E+03 0.  0.
         23    2    4    4    0    0 -0.12757607714E+03 -0.35157496751E+03 -0.64348499219E+03  0.75002819357E+03  0.92675470020E+02 0.  0.
         23    2    4    4    0    0  0.22414921692E+01  0.23882283643E+03  0.14538688154E+03  0.29197692107E+03  0.84094028468E+02 0.  0.
          2    1    3    3  502    0  0.84235330902E+02  0.11918662544E+03  0.39221258720E+02  0.15112693271E+03  0.00000000000E+00 0. -1.
         -1    1    3    3    0  502  0.41099254071E+02 -0.64344943585E+01  0.16333971950E+02  0.44691722304E+02  0.00000000000E+00 0.  1.
         13    1    5    5    0    0  0.76445441993E+01 -0.92066326275E+02 -0.16750483014E+03  0.19129170293E+03  0.00000000000E+00 0. -1.
        -13    1    5    5    0    0 -0.13522062134E+03 -0.25950864124E+03 -0.47598016205E+03  0.55873649065E+03  0.00000000000E+00 0.  1.
          3    1    6    6  503    0 -0.33548448694E+02  0.45719403474E+02  0.36131043134E+02  0.67239977258E+02  0.00000000000E+00 0. -1.
         -3    1    6    6    0  503  0.35789940863E+02  0.19310343296E+03  0.10925583841E+03  0.22473694381E+03  0.00000000000E+00 0.  1.
<mgrwt>
<rscale>  0 0.11560119E+04</rscale>
<asrwt>0</asrwt>
<pdfrwt beam="1">  1        2 0.12925897E+00 0.11560119E+04</pdfrwt>
<pdfrwt beam="2">  1       -1 0.61175454E-01 0.11560119E+04</pdfrwt>
<totfact> 0.98702318E+01</totfact>
</mgrwt>
</event>
<event>
12    7  0.2426980E-007  0.2522856E+04  0.7818608E-02  0.8394888E-01
          4   -1    0    0  501    0  0.00000000000E+00  0.00000000000E+00  0.83418374781E+03  0.83418374781E+03  0.00000000000E+00 0. -1.
         -1   -1    0    0    0  501 -0.00000000000E+00 -0.00000000000E+00 -0.19074943999E+04  0.19074943999E+04  0.00000000000E+00 0.  1.
         24    2    1    2    0    0 -0.80769055461E+03 -0.73031788038E+03 -0.30650322995E+03  0.11340238170E+04  0.79608725746E+02 0.  0.
        254    2    1    2    0    0  0.80769055461E+03  0.73031788038E+03 -0.76680742218E+03  0.16076543307E+04  0.90046131843E+03 0.  0.
         23    2    4    4    0    0  0.15944438170E+03  0.38538556753E+03 -0.75557450411E+03  0.86775056649E+03  0.90297662536E+02 0.  0.
         23    2    4    4    0    0  0.64824617291E+03  0.34493231285E+03 -0.11232918069E+02  0.73990376424E+03  0.90166516780E+02 0.  0.
          4    1    3    3  502    0 -0.19297432204E+03 -0.16652747651E+03 -0.37656847952E+02  0.25765971280E+03  0.00000000000E+00 0. -1.
         -3    1    3    3    0  502 -0.61471623257E+03 -0.56379040387E+03 -0.26884638200E+03  0.87636410423E+03  0.00000000000E+00 0.  1.
         13    1    5    5    0    0  0.66124696246E+02  0.21776397385E+03 -0.32925409619E+03  0.40025227497E+03  0.00000000000E+00 0. -1.
        -13    1    5    5    0    0  0.93319685451E+02  0.16762159368E+03 -0.42632040793E+03  0.46749829152E+03  0.00000000000E+00 0.  1.
          1    1    6    6  503    0  0.28121404691E+03  0.10051641944E+03  0.41809948027E+01  0.29866766057E+03  0.00000000000E+00 0. -1.
         -1    1    6    6    0  503  0.36703212601E+03  0.24441589341E+03 -0.15413912872E+02  0.44123610367E+03  0.00000000000E+00 0.  1.
<mgrwt>
<rscale>  0 0.25228562E+04</rscale>
<asrwt>0</asrwt>
<pdfrwt beam="1">  1        4 0.12833596E+00 0.25228562E+04</pdfrwt>
<pdfrwt beam="2">  1       -1 0.29346068E+00 0.25228562E+04</pdfrwt>
<totfact> 0.60305451E-02</totfact>
</mgrwt>
</event>
<event>
12    7  0.2426980E-007  0.3405396E+04  0.7818608E-02  0.8136583E-01
         -1   -1    0    0    0  501 -0.00000000000E+00  0.00000000000E+00  0.64491939292E+03  0.64491939292E+03  0.00000000000E+00 0.  1.
          2   -1    0    0  501    0  0.00000000000E+00 -0.00000000000E+00 -0.44954148374E+04  0.44954148374E+04  0.00000000000E+00 0. -1.
         24    2    1    2    0    0  0.25193585377E+03 -0.15372740974E+04 -0.13673353629E+04  0.20738362106E+04  0.67136495021E+02 0.  0.
        254    2    1    2    0    0 -0.25193585377E+03  0.15372740974E+04 -0.24831600816E+04  0.30664980197E+04  0.90035703431E+03 0.  0.
         23    2    4    4    0    0 -0.36430579349E+03  0.15952836439E+04 -0.23157533715E+04  0.28371541211E+04  0.95295402824E+02 0.  0.
         23    2    4    4    0    0  0.11236993972E+03 -0.58009546512E+02 -0.16740671009E+03  0.22934389859E+03  0.92636420466E+02 0.  0.
          2    1    3    3  502    0  0.65632299255E+02 -0.34880519069E+03 -0.34791625828E+03  0.49700943908E+03  0.00000000000E+00 0. -1.
         -1    1    3    3    0  502  0.18630355452E+03 -0.11884689067E+04 -0.10194191046E+04  0.15768267715E+04  0.00000000000E+00 0.  1.
         13    1    5    5    0    0 -0.14486761307E+03  0.84780849127E+03 -0.12196440547E+04  0.14924133085E+04  0.00000000000E+00 0. -1.
        -13    1    5    5    0    0 -0.21943818042E+03  0.74747515262E+03 -0.10961093168E+04  0.13447408126E+04  0.00000000000E+00 0.  1.
          4    1    6    6  503    0  0.21692925302E+02 -0.82348291519E+01 -0.10714867946E+03  0.10963227139E+03  0.00000000000E+00 0. -1.
         -4    1    6    6    0  503  0.90677014415E+02 -0.49774717360E+02 -0.60258030634E+02  0.11971162720E+03  0.00000000000E+00 0.  1.
<mgrwt>
<rscale>  0 0.34053958E+04</rscale>
<asrwt>0</asrwt>
<pdfrwt beam="1">  1        2 0.69160229E+00 0.34053958E+04</pdfrwt>
<pdfrwt beam="2">  1       -1 0.99218367E-01 0.34053958E+04</pdfrwt>
<totfact> 0.11295061E-01</totfact>
</mgrwt>
</event>
<event>
12    7  0.2426980E-007  0.1706961E+04  0.7818608E-02  0.8757404E-01
          2   -1    0    0  501    0  0.00000000000E+00  0.00000000000E+00  0.12780988644E+04  0.12780988644E+04  0.00000000000E+00 0. -1.
         -1   -1    0    0    0  501 -0.00000000000E+00 -0.00000000000E+00 -0.56993173364E+03  0.56993173364E+03  0.00000000000E+00 0.  1.
         24    2    1    2    0    0 -0.49119880089E+03  0.18580630319E+03  0.60152076871E+03  0.80248099791E+03  0.79676047314E+02 0.  0.
        254    2    1    2    0    0  0.49119880089E+03 -0.18580630319E+03  0.10664636204E+03  0.10455496001E+04  0.89777518094E+03 0.  0.
         23    2    4    4    0    0  0.52025783552E+03 -0.42119358687E+03 -0.14073382727E+03  0.68992234596E+03  0.90080965130E+02 0.  0.
         23    2    4    4    0    0 -0.29059034634E+02  0.23538728369E+03  0.24738018932E+03  0.35562725417E+03  0.94985183204E+02 0.  0.
          2    1    3    3  502    0 -0.79964936326E+02  0.63542048687E+02  0.11328662145E+03  0.15253144460E+03  0.00000000000E+00 0. -1.
         -1    1    3    3    0  502 -0.41123386456E+03  0.12226425450E+03  0.48823414726E+03  0.64994955331E+03  0.00000000000E+00 0.  1.
         13    1    5    5    0    0  0.14052720775E+03 -0.16724788345E+03 -0.52302633297E+02  0.22462260814E+03  0.00000000000E+00 0. -1.
        -13    1    5    5    0    0  0.37973062777E+03 -0.25394570342E+03 -0.88431193974E+02  0.46529973782E+03  0.00000000000E+00 0.  1.
          1    1    6    6  503    0  0.15482597569E+02  0.17423395152E+03  0.20279688881E+03  0.26781291754E+03  0.00000000000E+00 0. -1.
         -1    1    6    6    0  503 -0.44541632203E+02  0.61153332163E+02  0.44583300511E+02  0.87814336634E+02  0.00000000000E+00 0.  1.
<mgrwt>
<rscale>  0 0.17069612E+04</rscale>
<asrwt>0</asrwt>
<pdfrwt beam="1">  1        2 0.19663059E+00 0.17069612E+04</pdfrwt>
<pdfrwt beam="2">  1       -1 0.87681806E-01 0.17069612E+04</pdfrwt>
<totfact> 0.23619962E+01</totfact>
</mgrwt>
</event>
<event>
12    7  0.2426980E-007  0.1393846E+04  0.7818608E-02  0.8958285E-01
          2   -1    0    0  501    0  0.00000000000E+00  0.00000000000E+00  0.20922127670E+04  0.20922127670E+04  0.00000000000E+00 0. -1.
         -1   -1    0    0    0  501 -0.00000000000E+00 -0.00000000000E+00 -0.23214726553E+03  0.23214726553E+03  0.00000000000E+00 0.  1.
         24    2    1    2    0    0  0.26870910689E+03 -0.19954642598E+03  0.91549597786E+03  0.97806338944E+03  0.80322774057E+02 0.  0.
        254    2    1    2    0    0 -0.26870910689E+03  0.19954642598E+03  0.94456952364E+03  0.13462966431E+04  0.89904377315E+03 0.  0.
         23    2    4    4    0    0 -0.13405716233E+02  0.38022348520E+03  0.51133140594E+02  0.39432567629E+03  0.90158355056E+02 0.  0.
         23    2    4    4    0    0 -0.25530339066E+03 -0.18067705922E+03  0.89343638305E+03  0.95197096683E+03  0.10097588882E+03 0.  0.
          2    1    3    3  502    0  0.14715865672E+03 -0.11160924771E+03  0.61600057148E+03  0.64309330465E+03  0.00000000000E+00 0. -1.
         -1    1    3    3    0  502  0.12155045017E+03 -0.87937178279E+02  0.29949540638E+03  0.33497008479E+03  0.00000000000E+00 0.  1.
         13    1    5    5    0    0 -0.16058090576E+02  0.16828052396E+03 -0.21188032509E+02  0.17036763113E+03  0.00000000000E+00 0. -1.
        -13    1    5    5    0    0  0.26523743432E+01  0.21194296125E+03  0.72321173102E+02  0.22395804516E+03  0.00000000000E+00 0.  1.
          1    1    6    6  503    0 -0.23924402866E+03 -0.14954305085E+03  0.85311153867E+03  0.89855446508E+03  0.00000000000E+00 0. -1.
         -1    1    6    6    0  503 -0.16059361996E+02 -0.31134008372E+02  0.40324844384E+02  0.53416501754E+02  0.00000000000E+00 0.  1.
<mgrwt>
<rscale>  0 0.13938457E+04</rscale>
<asrwt>0</asrwt>
<pdfrwt beam="1">  1        2 0.32187888E+00 0.13938457E+04</pdfrwt>
<pdfrwt beam="2">  1       -1 0.35714965E-01 0.13938457E+04</pdfrwt>
<totfact> 0.49308236E+01</totfact>
</mgrwt>
</event>
<event>
12    7  0.2426980E-007  0.1910093E+04  0.7818608E-02  0.8649849E-01
         -1   -1    0    0    0  501 -0.00000000000E+00  0.00000000000E+00  0.12210354976E+04  0.12210354976E+04  0.00000000000E+00 0.  1.
          2   -1    0    0  501    0  0.00000000000E+00 -0.00000000000E+00 -0.74700009039E+03  0.74700009039E+03  0.00000000000E+00 0. -1.
         24    2    1    2    0    0 -0.57451050677E+03  0.98196917525E+02 -0.28602711809E+03  0.65414486981E+03  0.79931479528E+02 0.  0.
        254    2    1    2    0    0  0.57451050677E+03 -0.98196917525E+02  0.76006252530E+03  0.13138907182E+04  0.89939358455E+03 0.  0.
         23    2    4    4    0    0 -0.19692231731E+02 -0.32374619891E+03  0.27254462708E+02  0.33970246240E+03  0.97239765138E+02 0.  0.
         23    2    4    4    0    0  0.59420273850E+03  0.22554928139E+03  0.73280806259E+03  0.97418825577E+03  0.89920677876E+02 0.  0.
          2    1    3    3  502    0 -0.22013050437E+03  0.15542369166E+02 -0.14407459012E+03  0.26354599544E+03  0.00000000000E+00 0. -1.
         -1    1    3    3    0  502 -0.35438000240E+03  0.82654548359E+02 -0.14195252797E+03  0.39059887437E+03  0.00000000000E+00 0.  1.
         13    1    5    5    0    0 -0.57938532900E+02 -0.19764368374E+03  0.47222256180E+01  0.20601504492E+03  0.00000000000E+00 0.  1.
        -13    1    5    5    0    0  0.38246301169E+02 -0.12610251517E+03  0.22532237091E+02  0.13368741748E+03  0.00000000000E+00 0. -1.
          3    1    6    6  503    0  0.24377884369E+03  0.11723099220E+03  0.25419751169E+03  0.37119752843E+03  0.00000000000E+00 0. -1.
         -3    1    6    6    0  503  0.35042389481E+03  0.10831828918E+03  0.47861055090E+03  0.60299072734E+03  0.00000000000E+00 0.  1.
<mgrwt>
<rscale>  0 0.19100928E+04</rscale>
<asrwt>0</asrwt>
<pdfrwt beam="1">  1        2 0.11492309E+00 0.19100928E+04</pdfrwt>
<pdfrwt beam="2">  1       -1 0.18785162E+00 0.19100928E+04</pdfrwt>
<totfact> 0.73669844E+00</totfact>
</mgrwt>
</event>
<event>
12    7  0.2426980E-007  0.2169306E+04  0.7818608E-02  0.8531313E-01
         -1   -1    0    0    0  501 -0.00000000000E+00  0.00000000000E+00  0.92817876134E+03  0.92817876134E+03  0.00000000000E+00 0.  1.
          2   -1    0    0  501    0  0.00000000000E+00 -0.00000000000E+00 -0.12675061132E+04  0.12675061132E+04  0.00000000000E+00 0. -1.
         24    2    1    2    0    0 -0.69990117365E+03 -0.11725993063E+03 -0.69455770656E+03  0.99615847206E+03  0.79433931713E+02 0.  0.
        254    2    1    2    0    0  0.69990117365E+03  0.11725993063E+03  0.35523035471E+03  0.11995264025E+04  0.89947953900E+03 0.  0.
         23    2    4    4    0    0  0.43409923282E+03  0.46711733175E+03  0.38424960357E+03  0.75010165290E+03  0.91454831971E+02 0.  0.
         23    2    4    4    0    0  0.26580194084E+03 -0.34985740112E+03 -0.29019248858E+02  0.44942474956E+03  0.89942291714E+02 0.  0.
          2    1    3    3  502    0 -0.43612024176E+03 -0.91358176818E+02 -0.38732875807E+03  0.59039880469E+03  0.00000000000E+00 0. -1.
         -1    1    3    3    0  502 -0.26378093189E+03 -0.25901753813E+02 -0.30722894848E+03  0.40575966737E+03  0.00000000000E+00 0.  1.
         13    1    5    5    0    0  0.11281397106E+02  0.31260816121E+02  0.40221046147E+02  0.52175100368E+02  0.00000000000E+00 0. -1.
        -13    1    5    5    0    0  0.42281783571E+03  0.43585651563E+03  0.34402855742E+03  0.69792655253E+03  0.00000000000E+00 0.  1.
          2    1    6    6  503    0  0.10008892079E+03 -0.98624856310E+02 -0.46351711964E+02  0.14796329122E+03  0.00000000000E+00 0. -1.
         -2    1    6    6    0  503  0.16571302005E+03 -0.25123254481E+03  0.17332463106E+02  0.30146145834E+03  0.00000000000E+00 0.  1.
<mgrwt>
<rscale>  0 0.21693061E+04</rscale>
<asrwt>0</asrwt>
<pdfrwt beam="1">  1        2 0.19500094E+00 0.21693061E+04</pdfrwt>
<pdfrwt beam="2">  1       -1 0.14279673E+00 0.21693061E+04</pdfrwt>
<totfact> 0.71790523E+00</totfact>
</mgrwt>
</event>
<event>
12    7  0.2426980E-007  0.1196171E+04  0.7818608E-02  0.9116215E-01
          4   -1    0    0  501    0  0.00000000000E+00  0.00000000000E+00  0.40325884505E+03  0.40325884505E+03  0.00000000000E+00 0. -1.
         -3   -1    0    0    0  501 -0.00000000000E+00 -0.00000000000E+00 -0.88703874102E+03  0.88703874102E+03  0.00000000000E+00 0.  1.
         24    2    1    2    0    0 -0.78109620768E+02  0.22455545403E+03 -0.18117934129E+03  0.31079912884E+03  0.85110986302E+02 0.  0.
        254    2    1    2    0    0  0.78109620768E+02 -0.22455545403E+03 -0.30260055469E+03  0.97949845723E+03  0.90073518152E+03 0.  0.
         23    2    4    4    0    0 -0.99002385190E+02  0.23684474734E+03 -0.38307514675E+03  0.47006373115E+03  0.91194499149E+02 0.  0.
         23    2    4    4    0    0  0.17711200596E+03 -0.46140020137E+03  0.80474592061E+02  0.50943472607E+03  0.93748448964E+02 0.  0.
          2    1    3    3  502    0 -0.46534783689E+02  0.54569934592E+02 -0.20059946043E+02  0.74469895190E+02  0.00000000000E+00 0. -1.
         -1    1    3    3    0  502 -0.31574837078E+02  0.16998551944E+03 -0.16111939524E+03  0.23632923365E+03  0.00000000000E+00 0.  1.
         13    1    5    5    0    0 -0.11166150287E+03  0.17854086411E+03 -0.32148330951E+03  0.38431321818E+03  0.00000000000E+00 0.  1.
        -13    1    5    5    0    0  0.12659117675E+02  0.58303883230E+02 -0.61591837241E+02  0.85750512970E+02  0.00000000000E+00 0. -1.
          3    1    6    6  503    0  0.29405047776E+02 -0.20249034826E+03  0.42022402228E+02  0.20888484928E+03  0.00000000000E+00 0. -1.
         -3    1    6    6    0  503  0.14770695818E+03 -0.25890985312E+03  0.38452189833E+02  0.30054987679E+03  0.00000000000E+00 0.  1.
<mgrwt>
<rscale>  0 0.11961709E+04</rscale>
<asrwt>0</asrwt>
<pdfrwt beam="1">  1        4 0.62039822E-01 0.11961709E+04</pdfrwt>
<pdfrwt beam="2">  1       -3 0.13646750E+00 0.11961709E+04</pdfrwt>
<totfact> 0.22621790E+00</totfact>
</mgrwt>
</event>
<event>
12    7  0.2426980E-007  0.1695212E+04  0.7818608E-02  0.8764100E-01
          2   -1    0    0  501    0  0.00000000000E+00  0.00000000000E+00  0.22031834158E+04  0.22031834158E+04  0.00000000000E+00 0. -1.
         -1   -1    0    0    0  501 -0.00000000000E+00 -0.00000000000E+00 -0.32609000238E+03  0.32609000238E+03  0.00000000000E+00 0.  1.
         24    2    1    2    0    0 -0.15764488970E+03  0.50850794792E+03  0.11001349201E+04  0.12247808104E+04  0.79743005268E+02 0.  0.
        254    2    1    2    0    0  0.15764488970E+03 -0.50850794792E+03  0.77695849332E+03  0.13044926077E+04  0.90255427479E+03 0.  0.
         23    2    4    4    0    0  0.68629528994E+02  0.14865296074E+03  0.57669568682E+03  0.60620737230E+03  0.90009710806E+02 0.  0.
         23    2    4    4    0    0  0.89015360704E+02 -0.65716090866E+03  0.20026280650E+03  0.69828523544E+03  0.87823026904E+02 0.  0.
          4    1    3    3  502    0 -0.88317825561E+02  0.18080448655E+03  0.46685068685E+03  0.50836981075E+03  0.00000000000E+00 0. -1.
         -3    1    3    3    0  502 -0.69327064137E+02  0.32770346137E+03  0.63328423321E+03  0.71641099967E+03  0.00000000000E+00 0.  1.
         13    1    5    5    0    0  0.66264493666E+02  0.10538881949E+03  0.28083307970E+03  0.30718887520E+03  0.00000000000E+00 0. -1.
        -13    1    5    5    0    0  0.23650353277E+01  0.43264141246E+02  0.29586260712E+03  0.29901849709E+03  0.00000000000E+00 0.  1.
          1    1    6    6  503    0  0.89030694555E+02 -0.64694275014E+03  0.20811329356E+03  0.68539954004E+03  0.00000000000E+00 0. -1.
         -1    1    6    6    0  503 -0.15333850254E-01 -0.10218158518E+02 -0.78504870676E+01  0.12885695395E+02  0.00000000000E+00 0.  1.
<mgrwt>
<rscale>  0 0.16952122E+04</rscale>
<asrwt>0</asrwt>
<pdfrwt beam="1">  1        2 0.33895129E+00 0.16952122E+04</pdfrwt>
<pdfrwt beam="2">  1       -1 0.50167694E-01 0.16952122E+04</pdfrwt>
<totfact> 0.22246302E+01</totfact>
</mgrwt>
</event>
<event>
12    7  0.2426980E-007  0.1984834E+04  0.7818608E-02  0.8613744E-01
         -1   -1    0    0    0  501 -0.00000000000E+00  0.00000000000E+00  0.64108168462E+03  0.64108168462E+03  0.00000000000E+00 0.  1.
          2   -1    0    0  501    0  0.00000000000E+00 -0.00000000000E+00 -0.15362959952E+04  0.15362959952E+04  0.00000000000E+00 0. -1.
         24    2    1    2    0    0 -0.13442409622E+03  0.48601279208E+02 -0.12055433477E+04  0.12165718014E+04  0.79248109459E+02 0.  0.
        254    2    1    2    0    0  0.13442409622E+03 -0.48601279208E+02  0.31032903709E+03  0.96080587843E+03  0.89800440020E+03 0.  0.
         23    2    4    4    0    0 -0.67599593256E+02 -0.29691856705E+03  0.48910854919E+03  0.58331333701E+03  0.91087517131E+02 0.  0.
         23    2    4    4    0    0  0.20202368948E+03  0.24831728784E+03 -0.17877951210E+03  0.37749254142E+03  0.89796761244E+02 0.  0.
          2    1    3    3  502    0 -0.14270172199E+03  0.36410188236E+02 -0.11342750314E+04  0.11437960177E+04  0.00000000000E+00 0. -1.
         -1    1    3    3    0  502  0.82776257671E+01  0.12191090972E+02 -0.71268316290E+02  0.72775783708E+02  0.00000000000E+00 0.  1.
         13    1    5    5    0    0 -0.16500366232E+02 -0.17804748496E+00  0.20710912878E+02  0.26480855329E+02  0.00000000000E+00 0. -1.
        -13    1    5    5    0    0 -0.51099227024E+02 -0.29674051956E+03  0.46839763631E+03  0.55683248168E+03  0.00000000000E+00 0.  1.
          3    1    6    6  503    0  0.22154063433E+02  0.38187566761E+01 -0.35072144936E+02  0.41658621912E+02  0.00000000000E+00 0. -1.
         -3    1    6    6    0  503  0.17986962605E+03  0.24449853116E+03 -0.14370736717E+03  0.33583391951E+03  0.00000000000E+00 0.  1.
<mgrwt>
<rscale>  0 0.19848337E+04</rscale>
<asrwt>0</asrwt>
<pdfrwt beam="1">  1        2 0.23635323E+00 0.19848337E+04</pdfrwt>
<pdfrwt beam="2">  1       -1 0.98627953E-01 0.19848337E+04</pdfrwt>
<totfact> 0.12623619E+01</totfact>
</mgrwt>
</event>
<event>
12    7  0.2426980E-007  0.2166224E+04  0.7818608E-02  0.8532619E-01
         -1   -1    0    0    0  501 -0.00000000000E+00  0.00000000000E+00  0.11816779325E+04  0.11816779325E+04  0.00000000000E+00 0.  1.
          2   -1    0    0  501    0  0.00000000000E+00 -0.00000000000E+00 -0.99276787542E+03  0.99276787542E+03  0.00000000000E+00 0. -1.
         24    2    1    2    0    0 -0.76716626753E+03  0.36031477840E+03  0.36618903036E+03  0.92674530540E+03  0.79947692574E+02 0.  0.
        254    2    1    2    0    0  0.76716626753E+03 -0.36031477840E+03 -0.17727897328E+03  0.12477005025E+04  0.89830834799E+03 0.  0.
         23    2    4    4    0    0 -0.18268175332E+03 -0.20404124558E+02  0.45490999411E+02  0.21046743096E+03  0.91859442463E+02 0.  0.
         23    2    4    4    0    0  0.94984802086E+03 -0.33991065384E+03 -0.22276997269E+03  0.10372330716E+04  0.92062308834E+02 0.  0.
          4    1    3    3  502    0 -0.25452803871E+03  0.79378477506E+02  0.12252817627E+03  0.29342566207E+03  0.00000000000E+00 0. -1.
         -3    1    3    3    0  502 -0.51263822883E+03  0.28093630089E+03  0.24366085409E+03  0.63331964333E+03  0.00000000000E+00 0.  1.
         13    1    5    5    0    0 -0.66184120977E+02 -0.40519852556E+02 -0.12808120478E+02  0.78652681269E+02  0.00000000000E+00 0. -1.
        -13    1    5    5    0    0 -0.11649763235E+03  0.20115727998E+02  0.58299119889E+02  0.13181474969E+03  0.00000000000E+00 0.  1.
          4    1    6    6  503    0  0.75322619392E+03 -0.29130308502E+03 -0.14630504841E+03  0.82073890717E+03  0.00000000000E+00 0. -1.
         -4    1    6    6    0  503  0.19662182693E+03 -0.48607568819E+02 -0.76464924287E+02  0.21649416440E+03  0.00000000000E+00 0.  1.
<mgrwt>
<rscale>  0 0.21662243E+04</rscale>
<asrwt>0</asrwt>
<pdfrwt beam="1">  1        2 0.15273352E+00 0.21662243E+04</pdfrwt>
<pdfrwt beam="2">  1       -1 0.18179661E+00 0.21662243E+04</pdfrwt>
<totfact> 0.53769618E+00</totfact>
</mgrwt>
</event>
<event>
12    7  0.2426980E-007  0.1249915E+04  0.7818608E-02  0.9070254E-01
          2   -1    0    0  501    0  0.00000000000E+00  0.00000000000E+00  0.31276723652E+04  0.31276723652E+04  0.00000000000E+00 0. -1.
         -1   -1    0    0    0  501 -0.00000000000E+00 -0.00000000000E+00 -0.12487620589E+03  0.12487620589E+03  0.00000000000E+00 0.  1.
         24    2    1    2    0    0  0.27129154849E+03 -0.10655307573E+03  0.79060180967E+03  0.84637717110E+03  0.79689598284E+02 0.  0.
        254    2    1    2    0    0 -0.27129154849E+03  0.10655307573E+03  0.22121943497E+04  0.24061714000E+04  0.90050225059E+03 0.  0.
         23    2    4    4    0    0  0.27448685710E+03  0.23246809274E+03  0.10238034926E+04  0.10891526670E+04  0.93249619745E+02 0.  0.
         23    2    4    4    0    0 -0.54577840559E+03 -0.12591501701E+03  0.11883908570E+04  0.13170187330E+04  0.92395100364E+02 0.  0.
          2    1    3    3  502    0  0.21314280864E+03 -0.45861653908E+02  0.57982569740E+03  0.61946023887E+03  0.00000000000E+00 0. -1.
         -1    1    3    3    0  502  0.58148739844E+02 -0.60691421822E+02  0.21077611227E+03  0.22691693223E+03  0.00000000000E+00 0.  1.
         13    1    5    5    0    0  0.16823569663E+03  0.19148486343E+03  0.64274689794E+03  0.69144289523E+03  0.00000000000E+00 0. -1.
        -13    1    5    5    0    0  0.10625116047E+03  0.40983229314E+02  0.38105659471E+03  0.39770977176E+03  0.00000000000E+00 0.  1.
          1    1    6    6  503    0 -0.54768320686E+03 -0.11963412266E+03  0.11797323786E+04  0.13061537825E+04  0.00000000000E+00 0. -1.
         -1    1    6    6    0  503  0.19048012692E+01 -0.62808943501E+01  0.86584784283E+01  0.10864950548E+02  0.00000000000E+00 0.  1.
<mgrwt>
<rscale>  0 0.12499150E+04</rscale>
<asrwt>0</asrwt>
<pdfrwt beam="1">  1        2 0.48118031E+00 0.12499150E+04</pdfrwt>
<pdfrwt beam="2">  1       -1 0.19211726E-01 0.12499150E+04</pdfrwt>
<totfact> 0.35943485E+01</totfact>
</mgrwt>
</event>
<event>
12    7  0.2426980E-007  0.2041206E+04  0.7818608E-02  0.8587594E-01
         -1   -1    0    0    0  501 -0.00000000000E+00  0.00000000000E+00  0.61820242360E+03  0.61820242360E+03  0.00000000000E+00 0.  1.
          2   -1    0    0  501    0  0.00000000000E+00 -0.00000000000E+00 -0.16849336531E+04  0.16849336531E+04  0.00000000000E+00 0. -1.
         24    2    1    2    0    0  0.17533198675E+03  0.77340981880E+03 -0.18998248921E+03  0.81933455213E+03  0.79446263097E+02 0.  0.
        254    2    1    2    0    0 -0.17533198675E+03 -0.77340981880E+03 -0.87674874032E+03  0.14838015246E+04  0.89670204493E+03 0.  0.
         23    2    4    4    0    0 -0.34636589662E+03 -0.11271040974E+03 -0.93854086367E+01  0.37631077506E+03  0.94067756022E+02 0.  0.
         23    2    4    4    0    0  0.17103390988E+03 -0.66069940906E+03 -0.86736333168E+03  0.11074907495E+04  0.91871125648E+02 0.  0.
          2    1    3    3  502    0  0.14844308024E+03  0.62046640514E+03 -0.18378938695E+03  0.66392201857E+03  0.00000000000E+00 0. -1.
         -1    1    3    3    0  502  0.26888906504E+02  0.15294341365E+03 -0.61931022635E+01  0.15541253356E+03  0.00000000000E+00 0.  1.
         13    1    5    5    0    0 -0.14733633325E+02 -0.57022408172E+01 -0.22619437608E+02  0.27590477687E+02  0.00000000000E+00 0. -1.
        -13    1    5    5    0    0 -0.33163226330E+03 -0.10700816892E+03  0.13234028971E+02  0.34872029737E+03  0.00000000000E+00 0.  1.
          4    1    6    6  503    0  0.10338464110E+03 -0.27958024652E+03 -0.43300718490E+03  0.52568880570E+03  0.00000000000E+00 0.  1.
         -4    1    6    6    0  503  0.67649268773E+02 -0.38111916254E+03 -0.43435614678E+03  0.58180194385E+03  0.00000000000E+00 0. -1.
<mgrwt>
<rscale>  0 0.20412056E+04</rscale>
<asrwt>0</asrwt>
<pdfrwt beam="1">  1        2 0.25922056E+00 0.20412056E+04</pdfrwt>
<pdfrwt beam="2">  1       -1 0.95108065E-01 0.20412056E+04</pdfrwt>
<totfact> 0.11261324E+01</totfact>
</mgrwt>
</event>
<event>
12    7  0.2657580E-007  0.1802490E+04  0.7818608E-02  0.8704977E-01
         -1   -1    0    0    0  501 -0.00000000000E+00  0.00000000000E+00  0.32712379175E+03  0.32712379175E+03  0.00000000000E+00 0.  1.
          2   -1    0    0  501    0  0.00000000000E+00 -0.00000000000E+00 -0.24829817629E+04  0.24829817629E+04  0.00000000000E+00 0. -1.
         24    2    1    2    0    0 -0.44301711584E+03 -0.65660530706E+02 -0.26542837973E+02  0.45552340029E+03  0.78876965860E+02 0.  0.
        254    2    1    2    0    0  0.44301711584E+03  0.65660530706E+02 -0.21293151332E+04  0.23545821544E+04  0.89972146524E+03 0.  0.
         23    2    4    4    0    0  0.13621851897E+03  0.45720963991E+03 -0.85810833843E+03  0.98634738861E+03  0.94525715000E+02 0.  0.
         23    2    4    4    0    0  0.30679859686E+03 -0.39154910920E+03 -0.12712067948E+04  0.13682347658E+04  0.93078328478E+02 0.  0.
          2    1    3    3  502    0 -0.85079425816E+02 -0.15215675789E+02 -0.36717740565E+02  0.93905367041E+02  0.00000000000E+00 0. -1.
         -1    1    3    3    0  502 -0.35793769002E+03 -0.50444854917E+02  0.10174902592E+02  0.36161803324E+03  0.00000000000E+00 0.  1.
         13    1    5    5    0    0  0.92519045485E+02  0.41248002115E+03 -0.72400897008E+03  0.83838447647E+03  0.00000000000E+00 0.  1.
        -13    1    5    5    0    0  0.43699473490E+02  0.44729618759E+02 -0.13409936835E+03  0.14796291214E+03  0.00000000000E+00 0. -1.
          1    1    6    6  503    0  0.19640000251E+03 -0.17615685783E+03 -0.68218857708E+03  0.73142699858E+03  0.00000000000E+00 0.  1.
         -1    1    6    6    0  503  0.11039859435E+03 -0.21539225137E+03 -0.58901821768E+03  0.63680776718E+03  0.00000000000E+00 0. -1.
<mgrwt>
<rscale>  0 0.18024898E+04</rscale>
<asrwt>0</asrwt>
<pdfrwt beam="1">  1        2 0.38199720E+00 0.18024898E+04</pdfrwt>
<pdfrwt beam="2">  1       -1 0.50326737E-01 0.18024898E+04</pdfrwt>
<totfact> 0.15188611E+01</totfact>
</mgrwt>
</event>
<event>
12    7  0.2426980E-007  0.2111096E+04  0.7818608E-02  0.8556371E-01
          2   -1    0    0  501    0  0.00000000000E+00  0.00000000000E+00  0.27796668868E+04  0.27796668868E+04  0.00000000000E+00 0. -1.
         -1   -1    0    0    0  501 -0.00000000000E+00 -0.00000000000E+00 -0.40083290977E+03  0.40083290977E+03  0.00000000000E+00 0.  1.
         24    2    1    2    0    0  0.23074653618E+03 -0.55331690561E+03  0.50719319410E+02  0.60713320645E+03  0.81453784573E+02 0.  0.
        254    2    1    2    0    0 -0.23074653618E+03  0.55331690561E+03  0.23281146576E+04  0.25733665901E+04  0.91798376138E+03 0.  0.
         23    2    4    4    0    0 -0.30434491663E+03  0.23062333241E+03  0.21519079762E+04  0.21871299644E+04  0.83765106940E+02 0.  0.
         23    2    4    4    0    0  0.73598380455E+02  0.32269357320E+03  0.17620668137E+03  0.38623662574E+03  0.92639477065E+02 0.  0.
          2    1    3    3  502    0  0.95307248808E+02 -0.15896658878E+03  0.42172813027E+02  0.19008522873E+03  0.00000000000E+00 0. -1.
         -1    1    3    3    0  502  0.13543928737E+03 -0.39435031683E+03  0.85465063831E+01  0.41704797772E+03  0.00000000000E+00 0.  1.
         13    1    5    5    0    0 -0.58456634802E+02  0.90140834136E+02  0.55383013747E+03  0.56415456154E+03  0.00000000000E+00 0. -1.
        -13    1    5    5    0    0 -0.24588828183E+03  0.14048249827E+03  0.15980778387E+04  0.16229754028E+04  0.00000000000E+00 0.  1.
          1    1    6    6  503    0  0.66847259576E+02  0.96422855780E+02  0.59787892286E+02  0.13168339035E+03  0.00000000000E+00 0. -1.
         -1    1    6    6    0  503  0.67511208786E+01  0.22627071742E+03  0.11641878908E+03  0.25455323539E+03  0.00000000000E+00 0.  1.
<mgrwt>
<rscale>  0 0.21110964E+04</rscale>
<asrwt>0</asrwt>
<pdfrwt beam="1">  1        2 0.42764105E+00 0.21110964E+04</pdfrwt>
<pdfrwt beam="2">  1       -1 0.61666603E-01 0.21110964E+04</pdfrwt>
<totfact> 0.66544628E+00</totfact>
</mgrwt>
</event>
<event>
12    7  0.2426980E-007  0.2849476E+04  0.7818608E-02  0.8288071E-01
         -1   -1    0    0    0  501 -0.00000000000E+00  0.00000000000E+00  0.16195306951E+04  0.16195306951E+04  0.00000000000E+00 0.  1.
          2   -1    0    0  501    0  0.00000000000E+00 -0.00000000000E+00 -0.12533742222E+04  0.12533742222E+04  0.00000000000E+00 0. -1.
         24    2    1    2    0    0  0.12743372372E+04  0.10894020880E+03  0.90909003122E+02  0.12847180600E+04  0.80204013294E+02 0.  0.
        254    2    1    2    0    0 -0.12743372372E+04 -0.10894020880E+03  0.27524746985E+03  0.15881868573E+04  0.90042932036E+03 0.  0.
         23    2    4    4    0    0 -0.11639550097E+04  0.15422133743E+02  0.52075932751E+03  0.12783049250E+04  0.88566908090E+02 0.  0.
         23    2    4    4    0    0 -0.11038222747E+03 -0.12436234254E+03 -0.24551185766E+03  0.30988193235E+03  0.90002840866E+02 0.  0.
          4    1    3    3  502    0  0.88666244084E+03  0.10641058374E+03  0.42648568644E+02  0.89404272646E+03  0.00000000000E+00 0. -1.
         -3    1    3    3    0  502  0.38767479632E+03  0.25296250600E+01  0.48260434478E+02  0.39067533355E+03  0.00000000000E+00 0.  1.
         13    1    5    5    0    0 -0.11205825962E+04  0.19893550677E+02  0.48216546734E+03  0.12200756723E+04  0.00000000000E+00 0. -1.
        -13    1    5    5    0    0 -0.43372413444E+02 -0.44714169339E+01  0.38593860162E+02  0.58229252611E+02  0.00000000000E+00 0.  1.
          3    1    6    6  503    0 -0.16397697727E+02  0.22734867202E+01 -0.78317093926E+02  0.80047613541E+02  0.00000000000E+00 0. -1.
         -3    1    6    6    0  503 -0.93984529747E+02 -0.12663582926E+03 -0.16719476373E+03  0.22983431881E+03  0.00000000000E+00 0.  1.
<mgrwt>
<rscale>  0 0.28494758E+04</rscale>
<asrwt>0</asrwt>
<pdfrwt beam="1">  1        2 0.19282680E+00 0.28494758E+04</pdfrwt>
<pdfrwt beam="2">  1       -1 0.24915857E+00 0.28494758E+04</pdfrwt>
<totfact> 0.12273914E+00</totfact>
</mgrwt>
</event>
<event>
12    7  0.2426980E-007  0.1232891E+04  0.7818608E-02  0.9084544E-01
          2   -1    0    0  501    0  0.00000000000E+00  0.00000000000E+00  0.14541595911E+04  0.14541595911E+04  0.00000000000E+00 0. -1.
         -1   -1    0    0    0  501 -0.00000000000E+00 -0.00000000000E+00 -0.26132292917E+03  0.26132292917E+03  0.00000000000E+00 0.  1.
         24    2    1    2    0    0 -0.10428680618E+03  0.10941476663E+03  0.60743245961E+03  0.63105082397E+03  0.80022623998E+02 0.  0.
        254    2    1    2    0    0  0.10428680618E+03 -0.10941476663E+03  0.58540420232E+03  0.10844316963E+04  0.90024812955E+03 0.  0.
         23    2    4    4    0    0  0.33160501148E+02 -0.22392966608E+02  0.81004209273E+03  0.81604965730E+03  0.90375811979E+02 0.  0.
         23    2    4    4    0    0  0.71126305032E+02 -0.87021800020E+02 -0.22463789041E+03  0.26838203900E+03  0.94525087176E+02 0.  0.
          4    1    3    3  502    0 -0.10073953527E+03  0.88395836230E+02  0.58479767542E+03  0.59995883109E+03  0.00000000000E+00 0. -1.
         -3    1    3    3    0  502 -0.35472709145E+01  0.21018930398E+02  0.22634784185E+02  0.31091992878E+02  0.00000000000E+00 0.  1.
         13    1    5    5    0    0  0.53344921769E+02  0.14337351386E+02  0.53311314431E+03  0.53596722377E+03  0.00000000000E+00 0.  1.
        -13    1    5    5    0    0 -0.20184420620E+02 -0.36730317994E+02  0.27692894842E+03  0.28008243353E+03  0.00000000000E+00 0. -1.
          3    1    6    6  503    0  0.94106807245E+02 -0.62514967195E+02 -0.16593072383E+03  0.20074166833E+03  0.00000000000E+00 0. -1.
         -3    1    6    6    0  503 -0.22980502212E+02 -0.24506832825E+02 -0.58707166575E+02  0.67640370669E+02  0.00000000000E+00 0.  1.
<mgrwt>
<rscale>  0 0.12328913E+04</rscale>
<asrwt>0</asrwt>
<pdfrwt beam="1">  1        2 0.22371686E+00 0.12328913E+04</pdfrwt>
<pdfrwt beam="2">  1       -1 0.40203528E-01 0.12328913E+04</pdfrwt>
<totfact> 0.91202694E+01</totfact>
</mgrwt>
</event>
<event>
12    7  0.2426980E-007  0.2585823E+04  0.7818608E-02  0.8373033E-01
         -1   -1    0    0    0  501 -0.00000000000E+00  0.00000000000E+00  0.88370182070E+03  0.88370182070E+03  0.00000000000E+00 0.  1.
          2   -1    0    0  501    0  0.00000000000E+00 -0.00000000000E+00 -0.18916106353E+04  0.18916106353E+04  0.00000000000E+00 0. -1.
         24    2    1    2    0    0 -0.10451457040E+04  0.29773458754E+03 -0.92473020239E+02  0.10932224590E+04  0.74890975853E+02 0.  0.
        254    2    1    2    0    0  0.10451457040E+04 -0.29773458754E+03 -0.91543579435E+03  0.16820899970E+04  0.90023810035E+03 0.  0.
         23    2    4    4    0    0  0.81818155185E+02 -0.91203421562E+02  0.15915682770E+03  0.22132541935E+03  0.92961125333E+02 0.  0.
         23    2    4    4    0    0  0.96332754877E+03 -0.20653116598E+03 -0.10745926220E+04  0.14607645777E+04  0.91808274279E+02 0.  0.
          4    1    3    3  502    0 -0.43743426690E+03  0.88462768116E+02 -0.50092615783E+02  0.44909204998E+03  0.00000000000E+00 0. -1.
         -3    1    3    3    0  502 -0.60771143705E+03  0.20927181942E+03 -0.42380404456E+02  0.64413040901E+03  0.00000000000E+00 0.  1.
         13    1    5    5    0    0  0.47727218923E+02 -0.48639977975E+02  0.18715646595E+02  0.70668311930E+02  0.00000000000E+00 0. -1.
        -13    1    5    5    0    0  0.34090936262E+02 -0.42563443586E+02  0.14044118110E+03  0.15065710742E+03  0.00000000000E+00 0.  1.
          2    1    6    6  503    0  0.21572618018E+03 -0.16904133956E+02 -0.19984815849E+03  0.29455529364E+03  0.00000000000E+00 0. -1.
         -2    1    6    6    0  503  0.74760136859E+03 -0.18962703202E+03 -0.87474446356E+03  0.11662092840E+04  0.00000000000E+00 0.  1.
<mgrwt>
<rscale>  0 0.25858227E+04</rscale>
<asrwt>0</asrwt>
<pdfrwt beam="1">  1        2 0.29101702E+00 0.25858227E+04</pdfrwt>
<pdfrwt beam="2">  1       -1 0.13595413E+00 0.25858227E+04</pdfrwt>
<totfact> 0.34992607E+00</totfact>
</mgrwt>
</event>
<event>
12    7  0.2426980E-007  0.2947874E+04  0.7818608E-02  0.8258774E-01
         -1   -1    0    0    0  501 -0.00000000000E+00  0.00000000000E+00  0.15489869115E+04  0.15489869115E+04  0.00000000000E+00 0.  1.
          2   -1    0    0  501    0  0.00000000000E+00 -0.00000000000E+00 -0.14025232587E+04  0.14025232587E+04  0.00000000000E+00 0. -1.
         24    2    1    2    0    0  0.85104951875E+03  0.97936808670E+03  0.38190938371E+03  0.13548801961E+04  0.79990223459E+02 0.  0.
        254    2    1    2    0    0 -0.85104951875E+03 -0.97936808670E+03 -0.23544573091E+03  0.15966299742E+04  0.90019189598E+03 0.  0.
         23    2    4    4    0    0  0.31786140208E+02 -0.57719967699E+03  0.32506591400E+02  0.58632977181E+03  0.92499172987E+02 0.  0.
         23    2    4    4    0    0 -0.88283565896E+03 -0.40216840971E+03 -0.26795232231E+03  0.10103002024E+04  0.88146590097E+02 0.  0.
          2    1    3    3  502    0  0.10084220665E+03  0.13662298989E+03  0.25982460090E+02  0.17178498258E+03  0.00000000000E+00 0. -1.
         -1    1    3    3    0  502  0.75020731210E+03  0.84274509680E+03  0.35592692363E+03  0.11830952135E+04  0.00000000000E+00 0.  1.
         13    1    5    5    0    0 -0.12623653151E+02 -0.33770922463E+03  0.52238293568E+02  0.34195864711E+03  0.00000000000E+00 0.  1.
        -13    1    5    5    0    0  0.44409793359E+02 -0.23949045236E+03 -0.19731702168E+02  0.24437112470E+03  0.00000000000E+00 0. -1.
          2    1    6    6  503    0 -0.13980018721E+03 -0.90489641444E+02 -0.22866097775E+02  0.16809320623E+03  0.00000000000E+00 0. -1.
         -2    1    6    6    0  503 -0.74303547175E+03 -0.31167876827E+03 -0.24508622454E+03  0.84220699613E+03  0.00000000000E+00 0.  1.
<mgrwt>
<rscale>  0 0.29478739E+04</rscale>
<asrwt>0</asrwt>
<pdfrwt beam="1">  1        2 0.21577281E+00 0.29478739E+04</pdfrwt>
<pdfrwt beam="2">  1       -1 0.23830568E+00 0.29478739E+04</pdfrwt>
<totfact> 0.11745950E+00</totfact>
</mgrwt>
</event>
<event>
12    7  0.2426980E-007  0.3540963E+04  0.7818608E-02  0.8104150E-01
          2   -1    0    0  501    0  0.00000000000E+00  0.00000000000E+00  0.28780180512E+04  0.28780180512E+04  0.00000000000E+00 0. -1.
         -1   -1    0    0    0  501 -0.00000000000E+00 -0.00000000000E+00 -0.10891537863E+04  0.10891537863E+04  0.00000000000E+00 0.  1.
         24    2    1    2    0    0 -0.30582651746E+03  0.15810876087E+04  0.40895854925E+03  0.16636127597E+04  0.83620775747E+02 0.  0.
        254    2    1    2    0    0  0.30582651746E+03 -0.15810876087E+04  0.13799057156E+04  0.23035590778E+04  0.89937575898E+03 0.  0.
         23    2    4    4    0    0  0.35830600609E+03 -0.43295600295E+03  0.95168773640E+02  0.57735455374E+03  0.91908056019E+02 0.  0.
         23    2    4    4    0    0 -0.52479488629E+02 -0.11481316058E+04  0.12847369420E+04  0.17262045241E+04  0.90954758080E+02 0.  0.
          2    1    3    3  502    0 -0.91011213604E+02  0.46529816454E+03  0.15994355194E+03  0.50036722787E+03  0.00000000000E+00 0. -1.
         -1    1    3    3    0  502 -0.21481530385E+03  0.11157894442E+04  0.24901499731E+03  0.11632455319E+04  0.00000000000E+00 0.  1.
         13    1    5    5    0    0  0.84025020498E+02 -0.67962261692E+02  0.48362920451E+02  0.11839782582E+03  0.00000000000E+00 0. -1.
        -13    1    5    5    0    0  0.27428098559E+03 -0.36499374125E+03  0.46805853189E+02  0.45895672792E+03  0.00000000000E+00 0.  1.
          4    1    6    6  503    0 -0.16055272715E+02 -0.12245209078E+03  0.10137569921E+03  0.15977896829E+03  0.00000000000E+00 0. -1.
         -4    1    6    6    0  503 -0.36424215914E+02 -0.10256795150E+04  0.11833612428E+04  0.15664255558E+04  0.00000000000E+00 0.  1.
<mgrwt>
<rscale>  0 0.35409627E+04</rscale>
<asrwt>0</asrwt>
<pdfrwt beam="1">  1        2 0.44277201E+00 0.35409627E+04</pdfrwt>
<pdfrwt beam="2">  1       -1 0.16756212E+00 0.35409627E+04</pdfrwt>
<totfact> 0.49419154E-01</totfact>
</mgrwt>
</event>
<event>
12    7  0.2426980E-007  0.1538199E+04  0.7818608E-02  0.8859441E-01
         -3   -1    0    0    0  501 -0.00000000000E+00  0.00000000000E+00  0.96267940889E+03  0.96267940889E+03  0.00000000000E+00 0.  1.
          2   -1    0    0  501    0  0.00000000000E+00 -0.00000000000E+00 -0.61444511130E+03  0.61444511130E+03  0.00000000000E+00 0. -1.
         24    2    1    2    0    0 -0.25713250803E+03 -0.19637320449E+03 -0.27810141055E+03  0.43388314443E+03  0.78959650100E+02 0.  0.
        254    2    1    2    0    0  0.25713250803E+03  0.19637320449E+03  0.62633570815E+03  0.11432413758E+04  0.90001381202E+03 0.  0.
         23    2    4    4    0    0 -0.32059687986E+03  0.15647877580E+03  0.20031782044E+03  0.41830009365E+03  0.87061888990E+02 0.  0.
         23    2    4    4    0    0  0.57772938788E+03  0.39894428692E+02  0.42601788770E+03  0.72494128211E+03  0.93197697378E+02 0.  0.
          4    1    3    3  502    0 -0.17137931506E+03 -0.17410738815E+03 -0.19852481703E+03  0.31479573570E+03  0.00000000000E+00 0. -1.
         -3    1    3    3    0  502 -0.85753192968E+02 -0.22265816341E+02 -0.79576593520E+02  0.11908740873E+03  0.00000000000E+00 0.  1.
         13    1    5    5    0    0 -0.46576720599E+02 -0.19043991167E+01  0.62332902521E+01  0.47030538431E+02  0.00000000000E+00 0. -1.
        -13    1    5    5    0    0 -0.27402015926E+03  0.15838317492E+03  0.19408453019E+03  0.37126955522E+03  0.00000000000E+00 0.  1.
          2    1    6    6  503    0  0.33711752166E+03  0.41436846720E+02  0.30075015252E+03  0.45366936189E+03  0.00000000000E+00 0. -1.
         -2    1    6    6    0  503  0.24061186623E+03 -0.15424180286E+01  0.12526773518E+03  0.27127192022E+03  0.00000000000E+00 0.  1.
<mgrwt>
<rscale>  0 0.15381985E+04</rscale>
<asrwt>0</asrwt>
<pdfrwt beam="1">  1        2 0.94530017E-01 0.15381985E+04</pdfrwt>
<pdfrwt beam="2">  1       -3 0.14810452E+00 0.15381985E+04</pdfrwt>
<totfact> 0.97275609E+00</totfact>
</mgrwt>
</event>
<event>
12    7  0.2426980E-007  0.1815949E+04  0.7818608E-02  0.8697864E-01
          2   -1    0    0  501    0  0.00000000000E+00  0.00000000000E+00  0.11936625789E+04  0.11936625789E+04  0.00000000000E+00 0. -1.
         -1   -1    0    0    0  501 -0.00000000000E+00 -0.00000000000E+00 -0.69066230075E+03  0.69066230075E+03  0.00000000000E+00 0.  1.
         24    2    1    2    0    0  0.47435512016E+03  0.46373249398E+03  0.22244052921E+02  0.66829883060E+03  0.77896874710E+02 0.  0.
        254    2    1    2    0    0 -0.47435512016E+03 -0.46373249398E+03  0.48075622525E+03  0.12160260491E+04  0.89862795300E+03 0.  0.
         23    2    4    4    0    0 -0.76625854369E+02 -0.64205990919E+03  0.17705998327E+03  0.67704631989E+03  0.94493560858E+02 0.  0.
         23    2    4    4    0    0 -0.39772926579E+03  0.17832741521E+03  0.30369624197E+03  0.53897972918E+03  0.90986291273E+02 0.  0.
          2    1    3    3  502    0  0.38935404056E+03  0.41618672472E+03  0.29109407283E+02  0.57066217355E+03  0.00000000000E+00 0. -1.
         -1    1    3    3    0  502  0.85001079605E+02  0.47545769266E+02 -0.68653543621E+01  0.97636657049E+02  0.00000000000E+00 0.  1.
         13    1    5    5    0    0 -0.23534041300E+02 -0.87396540971E+02 -0.55710633666E+01  0.90680997020E+02  0.00000000000E+00 0. -1.
        -13    1    5    5    0    0 -0.53091813069E+02 -0.55466336822E+03  0.18263104664E+03  0.58636532286E+03  0.00000000000E+00 0.  1.
          3    1    6    6  503    0 -0.18704505553E+02  0.24194724381E+01 -0.49434711296E+01  0.19497442952E+02  0.00000000000E+00 0. -1.
         -3    1    6    6    0  503 -0.37902476024E+03  0.17590794277E+03  0.30863971310E+03  0.51948228623E+03  0.00000000000E+00 0.  1.
<mgrwt>
<rscale>  0 0.18159491E+04</rscale>
<asrwt>0</asrwt>
<pdfrwt beam="1">  1        2 0.18364040E+00 0.18159491E+04</pdfrwt>
<pdfrwt beam="2">  1       -1 0.10625574E+00 0.18159491E+04</pdfrwt>
<totfact> 0.17011652E+01</totfact>
</mgrwt>
</event>
<event>
12    7  0.2426980E-007  0.2766023E+04  0.7818608E-02  0.8313895E-01
          2   -1    0    0  501    0  0.00000000000E+00  0.00000000000E+00  0.18871039601E+04  0.18871039601E+04  0.00000000000E+00 0. -1.
         -1   -1    0    0    0  501 -0.00000000000E+00 -0.00000000000E+00 -0.10135746866E+04  0.10135746866E+04  0.00000000000E+00 0.  1.
         24    2    1    2    0    0  0.10308794381E+04 -0.67117562024E+03  0.27405428749E+03  0.12627570331E+04  0.79122962024E+02 0.  0.
        254    2    1    2    0    0 -0.10308794381E+04  0.67117562024E+03  0.59947498605E+03  0.16379216135E+04  0.90012655998E+03 0.  0.
         23    2    4    4    0    0 -0.10062008834E+04  0.42302376680E+03  0.75349175631E+03  0.13298190805E+04  0.96330861485E+02 0.  0.
         23    2    4    4    0    0 -0.24678554687E+02  0.24815185344E+03 -0.15401677027E+03  0.30810253304E+03  0.94961212688E+02 0.  0.
          2    1    3    3  502    0  0.39864781637E+03 -0.22587884646E+03  0.12847695326E+03  0.47586517239E+03  0.00000000000E+00 0. -1.
         -1    1    3    3    0  502  0.63223162176E+03 -0.44529677378E+03  0.14557733423E+03  0.78689186076E+03  0.00000000000E+00 0.  1.
         13    1    5    5    0    0 -0.20815000985E+03  0.97076597775E+02  0.20663690541E+03  0.30894838260E+03  0.00000000000E+00 0. -1.
        -13    1    5    5    0    0 -0.79805087359E+03  0.32594716903E+03  0.54685485090E+03  0.10208706979E+04  0.00000000000E+00 0.  1.
          3    1    6    6  503    0 -0.38451038635E+02  0.31368867429E+02 -0.28975605133E+02  0.57463674688E+02  0.00000000000E+00 0. -1.
         -3    1    6    6    0  503  0.13772483948E+02  0.21678298601E+03 -0.12504116513E+03  0.25063885835E+03  0.00000000000E+00 0.  1.
<mgrwt>
<rscale>  0 0.27660230E+04</rscale>
<asrwt>0</asrwt>
<pdfrwt beam="1">  1        2 0.29032369E+00 0.27660230E+04</pdfrwt>
<pdfrwt beam="2">  1       -1 0.15593457E+00 0.27660230E+04</pdfrwt>
<totfact> 0.24059476E+00</totfact>
</mgrwt>
</event>
<event>
12    7  0.2426980E-007  0.3973669E+04  0.7818608E-02  0.8009879E-01
          2   -1    0    0  501    0  0.00000000000E+00  0.00000000000E+00  0.37577938144E+04  0.37577938144E+04  0.00000000000E+00 0. -1.
         -1   -1    0    0    0  501 -0.00000000000E+00 -0.00000000000E+00 -0.10504866389E+04  0.10504866389E+04  0.00000000000E+00 0.  1.
         24    2    1    2    0    0 -0.10684058076E+04 -0.14301495179E+04  0.55528874145E+03  0.18710582640E+04  0.75464081473E+02 0.  0.
        254    2    1    2    0    0  0.10684058076E+04  0.14301495179E+04  0.21520184341E+04  0.29372221893E+04  0.89959559549E+03 0.  0.
         23    2    4    4    0    0 -0.12150079435E+03  0.48200110668E+02  0.92464013607E+02  0.18481396596E+03  0.92308799729E+02 0.  0.
         23    2    4    4    0    0  0.11899066019E+04  0.13819494073E+04  0.20595544205E+04  0.27524082233E+04  0.91239966425E+02 0.  0.
          4    1    3    3  502    0 -0.48890073833E+03 -0.69584894763E+03  0.29417495923E+03  0.89987143332E+03  0.00000000000E+00 0. -1.
         -3    1    3    3    0  502 -0.57950506925E+03 -0.73430057029E+03  0.26111378222E+03  0.97118683068E+03  0.00000000000E+00 0.  1.
         13    1    5    5    0    0 -0.10697143444E+03  0.30653036463E+02  0.25611037584E+02  0.11418590840E+03  0.00000000000E+00 0.  1.
        -13    1    5    5    0    0 -0.14529359909E+02  0.17547074205E+02  0.66852976023E+02  0.70628057566E+02  0.00000000000E+00 0. -1.
          3    1    6    6  503    0  0.14026795315E+03  0.15917475481E+03  0.19753987709E+03  0.28988567452E+03  0.00000000000E+00 0. -1.
         -3    1    6    6    0  503  0.10496386488E+04  0.12227746524E+04  0.18620145434E+04  0.24625225488E+04  0.00000000000E+00 0.  1.
<mgrwt>
<rscale>  0 0.39736694E+04</rscale>
<asrwt>0</asrwt>
<pdfrwt beam="1">  1        2 0.57812212E+00 0.39736694E+04</pdfrwt>
<pdfrwt beam="2">  1       -1 0.16161333E+00 0.39736694E+04</pdfrwt>
<totfact> 0.13435653E-01</totfact>
</mgrwt>
</event>
<event>
12    7  0.2426980E-007  0.3232850E+04  0.7818608E-02  0.8180195E-01
          2   -1    0    0  501    0  0.00000000000E+00  0.00000000000E+00  0.37387825665E+04  0.37387825665E+04  0.00000000000E+00 0. -1.
         -1   -1    0    0    0  501 -0.00000000000E+00 -0.00000000000E+00 -0.69884493306E+03  0.69884493306E+03  0.00000000000E+00 0.  1.
         24    2    1    2    0    0  0.53070904354E+03 -0.86915357260E+03  0.28982719153E+04  0.30730288750E+04  0.80289165689E+02 0.  0.
        254    2    1    2    0    0 -0.53070904354E+03  0.86915357260E+03  0.14166571813E+03  0.13645986245E+04  0.89720689291E+03 0.  0.
         23    2    4    4    0    0  0.78542140836E+02  0.32290655275E+03  0.37542986020E+03  0.50838240040E+03  0.84068873035E+02 0.  0.
         23    2    4    4    0    0 -0.60925118438E+03  0.54624701985E+03 -0.23376414207E+03  0.85621622412E+03  0.94274789648E+02 0.  0.
          2    1    3    3  502    0  0.26388019172E+03 -0.37217074934E+03  0.13709876390E+04  0.14449051625E+04  0.00000000000E+00 0. -1.
         -1    1    3    3    0  502  0.26682885182E+03 -0.49698282326E+03  0.15272842763E+04  0.16281237125E+04  0.00000000000E+00 0.  1.
         13    1    5    5    0    0  0.27957894726E+02  0.14336141832E+03  0.22730735919E+03  0.27019025830E+03  0.00000000000E+00 0.  1.
        -13    1    5    5    0    0  0.50584246110E+02  0.17954513443E+03  0.14812250101E+03  0.23819214210E+03  0.00000000000E+00 0. -1.
          3    1    6    6  503    0 -0.13991560880E+03  0.75752523374E+02 -0.47521939257E+02  0.16605166995E+03  0.00000000000E+00 0. -1.
         -3    1    6    6    0  503 -0.46933557558E+03  0.47049449648E+03 -0.18624220281E+03  0.69016455417E+03  0.00000000000E+00 0.  1.
<mgrwt>
<rscale>  0 0.32328497E+04</rscale>
<asrwt>0</asrwt>
<pdfrwt beam="1">  1        2 0.57519731E+00 0.32328497E+04</pdfrwt>
<pdfrwt beam="2">  1       -1 0.10751461E+00 0.32328497E+04</pdfrwt>
<totfact> 0.41885644E-01</totfact>
</mgrwt>
</event>
<event>
12    7  0.2426980E-007  0.1313128E+04  0.7818608E-02  0.9019219E-01
          2   -1    0    0  501    0  0.00000000000E+00  0.00000000000E+00  0.50804284258E+03  0.50804284258E+03  0.00000000000E+00 0. -1.
         -1   -1    0    0    0  501 -0.00000000000E+00 -0.00000000000E+00 -0.84850424408E+03  0.84850424408E+03  0.00000000000E+00 0.  1.
         24    2    1    2    0    0  0.26077218199E+02  0.33331330350E+03 -0.16235167876E+03  0.37996598491E+03  0.78982925352E+02 0.  0.
        254    2    1    2    0    0 -0.26077218199E+02 -0.33331330350E+03 -0.17810972273E+03  0.97658110175E+03  0.90011654543E+03 0.  0.
         23    2    4    4    0    0 -0.39766188666E+03 -0.27420310256E+03 -0.29408018827E+03  0.57261716054E+03  0.89916282456E+02 0.  0.
         23    2    4    4    0    0  0.37158466846E+03 -0.59110200938E+02  0.11597046554E+03  0.40396394121E+03  0.90379949249E+02 0.  0.
          2    1    3    3  502    0  0.19101060014E+02  0.18603810132E+03 -0.47182427457E+02  0.19287614444E+03  0.00000000000E+00 0. -1.
         -1    1    3    3    0  502  0.69761581844E+01  0.14727520218E+03 -0.11516925130E+03  0.18708984047E+03  0.00000000000E+00 0.  1.
         13    1    5    5    0    0 -0.38454094843E+03 -0.27996759579E+03 -0.27745542692E+03  0.55066787599E+03  0.00000000000E+00 0. -1.
        -13    1    5    5    0    0 -0.13120938231E+02  0.57644932346E+01 -0.16624761353E+02  0.21949284552E+02  0.00000000000E+00 0.  1.
          2    1    6    6  503    0  0.34827669883E+03 -0.47114329566E+02  0.81705220966E+02  0.36082151007E+03  0.00000000000E+00 0. -1.
         -2    1    6    6    0  503  0.23307969633E+02 -0.11995871372E+02  0.34265244575E+02  0.43142431135E+02  0.00000000000E+00 0.  1.
<mgrwt>
<rscale>  0 0.13131283E+04</rscale>
<asrwt>0</asrwt>
<pdfrwt beam="1">  1        2 0.78160438E-01 0.13131283E+04</pdfrwt>
<pdfrwt beam="2">  1       -1 0.13053911E+00 0.13131283E+04</pdfrwt>
<totfact> 0.33977200E+01</totfact>
</mgrwt>
</event>
<event>
12    7  0.2426980E-007  0.1124672E+04  0.7818608E-02  0.9181473E-01
         -1   -1    0    0    0  501 -0.00000000000E+00  0.00000000000E+00  0.79370711213E+03  0.79370711213E+03  0.00000000000E+00 0.  1.
          2   -1    0    0  501    0  0.00000000000E+00 -0.00000000000E+00 -0.39841090778E+03  0.39841090778E+03  0.00000000000E+00 0. -1.
         24    2    1    2    0    0 -0.11116652957E+03  0.89477422634E+02  0.20300498846E+03  0.26095584739E+03  0.80763373453E+02 0.  0.
        254    2    1    2    0    0  0.11116652957E+03 -0.89477422634E+02  0.19229121589E+03  0.93116217252E+03  0.89984602758E+03 0.  0.
         23    2    4    4    0    0  0.48267555842E+03 -0.13865200400E+03  0.19124149696E+03  0.54523487294E+03  0.92237105370E+02 0.  0.
         23    2    4    4    0    0 -0.37150902885E+03  0.49174581368E+02  0.10497189353E+01  0.38592729957E+03  0.92204558857E+02 0.  0.
          4    1    3    3  502    0 -0.78002681453E+02  0.69834746538E+02  0.79167570529E+02  0.13125857824E+03  0.00000000000E+00 0. -1.
         -3    1    3    3    0  502 -0.33163848114E+02  0.19642676096E+02  0.12383741793E+03  0.12969726915E+03  0.00000000000E+00 0.  1.
         13    1    5    5    0    0  0.40213101901E+03 -0.94399295887E+02  0.12370966860E+03  0.43118982551E+03  0.00000000000E+00 0. -1.
        -13    1    5    5    0    0  0.80544539404E+02 -0.44252708115E+02  0.67531828353E+02  0.11404504743E+03  0.00000000000E+00 0.  1.
          2    1    6    6  503    0 -0.18513993082E+03 -0.76002404780E+01  0.33844321001E+02  0.18836134344E+03  0.00000000000E+00 0. -1.
         -2    1    6    6    0  503 -0.18636909804E+03  0.56774821846E+02 -0.32794602066E+02  0.19756595613E+03  0.00000000000E+00 0.  1.
<mgrwt>
<rscale>  0 0.11246716E+04</rscale>
<asrwt>0</asrwt>
<pdfrwt beam="1">  1        2 0.61293986E-01 0.11246716E+04</pdfrwt>
<pdfrwt beam="2">  1       -1 0.12210879E+00 0.11246716E+04</pdfrwt>
<totfact> 0.53780157E+01</totfact>
</mgrwt>
</event>
<event>
12    7  0.2426980E-007  0.3347677E+04  0.7818608E-02  0.8150869E-01
          2   -1    0    0  501    0  0.00000000000E+00  0.00000000000E+00  0.19759289602E+04  0.19759289602E+04  0.00000000000E+00 0. -1.
         -1   -1    0    0    0  501 -0.00000000000E+00 -0.00000000000E+00 -0.14179332419E+04  0.14179332419E+04  0.00000000000E+00 0.  1.
         24    2    1    2    0    0 -0.90775015213E+03  0.16996269544E+03 -0.10049962850E+04  0.13671919632E+04  0.79364191027E+02 0.  0.
        254    2    1    2    0    0  0.90775015213E+03 -0.16996269544E+03  0.15629920032E+04  0.20266702389E+04  0.90086103188E+03 0.  0.
         23    2    4    4    0    0  0.82966261632E+03 -0.15044489223E+03  0.55976130662E+03  0.10161168053E+04  0.90481595849E+02 0.  0.
         23    2    4    4    0    0  0.78087535812E+02 -0.19517803211E+02  0.10032306966E+04  0.10105534336E+04  0.90927463865E+02 0.  0.
          2    1    3    3  502    0 -0.14461156395E+03  0.37307023611E+02 -0.12407995199E+03  0.19416527219E+03  0.00000000000E+00 0. -1.
         -1    1    3    3    0  502 -0.76313858818E+03  0.13265567183E+03 -0.88091633297E+03  0.11730266910E+04  0.00000000000E+00 0.  1.
         13    1    5    5    0    0  0.92749413015E+02  0.11683596761E+02  0.63513407273E+02  0.11301731262E+03  0.00000000000E+00 0. -1.
        -13    1    5    5    0    0  0.73691320331E+03 -0.16212848900E+03  0.49624789935E+03  0.90309949273E+03  0.00000000000E+00 0.  1.
          3    1    6    6  503    0 -0.13064172364E+02  0.17824332979E+02  0.14229205406E+03  0.14399794476E+03  0.00000000000E+00 0. -1.
         -3    1    6    6    0  503  0.91151708176E+02 -0.37342136190E+02  0.86093864253E+03  0.86655548884E+03  0.00000000000E+00 0.  1.
<mgrwt>
<rscale>  0 0.33476770E+04</rscale>
<asrwt>0</asrwt>
<pdfrwt beam="1">  1        2 0.30398907E+00 0.33476770E+04</pdfrwt>
<pdfrwt beam="2">  1       -1 0.21814358E+00 0.33476770E+04</pdfrwt>
<totfact> 0.73854598E-01</totfact>
</mgrwt>
</event>
<event>
12    7  0.2426980E-007  0.1561439E+04  0.7818608E-02  0.8844594E-01
          2   -1    0    0  501    0  0.00000000000E+00  0.00000000000E+00  0.14126646096E+04  0.14126646096E+04  0.00000000000E+00 0. -1.
         -1   -1    0    0    0  501 -0.00000000000E+00 -0.00000000000E+00 -0.43147016949E+03  0.43147016949E+03  0.00000000000E+00 0.  1.
         24    2    1    2    0    0 -0.12750020754E+03 -0.42135302479E+03  0.76575325678E+01  0.44742138687E+03  0.79577542107E+02 0.  0.
        254    2    1    2    0    0  0.12750020754E+03  0.42135302479E+03  0.97353690753E+03  0.13967133922E+04  0.89957740924E+03 0.  0.
         23    2    4    4    0    0  0.28692256343E+02 -0.94914990291E+02 -0.11958450800E+03  0.18021199274E+03  0.91344440541E+02 0.  0.
         23    2    4    4    0    0  0.98807951197E+02  0.51626801508E+03  0.10931214155E+04  0.12165013995E+04  0.93088942416E+02 0.  0.
          4    1    3    3  502    0 -0.30750778832E+02 -0.19052586843E+03  0.33244104744E+02  0.19583382608E+03  0.00000000000E+00 0. -1.
         -3    1    3    3    0  502 -0.96749428708E+02 -0.23082715636E+03 -0.25586572176E+02  0.25158756079E+03  0.00000000000E+00 0.  1.
         13    1    5    5    0    0  0.53579983217E+02 -0.94090569445E+02 -0.10733052093E+03  0.15245881603E+03  0.00000000000E+00 0.  1.
        -13    1    5    5    0    0 -0.24887726874E+02 -0.82442084555E+00 -0.12253987064E+02  0.27753176713E+02  0.00000000000E+00 0. -1.
          3    1    6    6  503    0  0.67128852670E+02  0.17779859814E+03  0.46389388654E+03  0.50131443459E+03  0.00000000000E+00 0. -1.
         -3    1    6    6    0  503  0.31679098526E+02  0.33846941694E+03  0.62922752899E+03  0.71518696487E+03  0.00000000000E+00 0.  1.
<mgrwt>
<rscale>  0 0.15614386E+04</rscale>
<asrwt>0</asrwt>
<pdfrwt beam="1">  1        2 0.21733301E+00 0.15614386E+04</pdfrwt>
<pdfrwt beam="2">  1       -1 0.66380027E-01 0.15614386E+04</pdfrwt>
<totfact> 0.35872144E+01</totfact>
</mgrwt>
</event>
<event>
12    7  0.2426980E-007  0.3803358E+04  0.7818608E-02  0.8045435E-01
         -1   -1    0    0    0  501 -0.00000000000E+00  0.00000000000E+00  0.10472208244E+04  0.10472208244E+04  0.00000000000E+00 0.  1.
          2   -1    0    0  501    0  0.00000000000E+00 -0.00000000000E+00 -0.34533141479E+04  0.34533141479E+04  0.00000000000E+00 0. -1.
         24    2    1    2    0    0 -0.16183400887E+04 -0.35650626141E+03 -0.32212676681E+03  0.16902586559E+04  0.84186179645E+02 0.  0.
        254    2    1    2    0    0  0.16183400887E+04  0.35650626141E+03 -0.20839665568E+04  0.28102763164E+04  0.89923023058E+03 0.  0.
         23    2    4    4    0    0  0.11542778054E+04 -0.15526421399E+03 -0.11004707797E+04  0.16050500042E+04  0.93195228806E+02 0.  0.
         23    2    4    4    0    0  0.46406228329E+03  0.51177047540E+03 -0.98349577704E+03  0.12052263122E+04  0.89686665116E+02 0.  0.
          4    1    3    3  502    0 -0.58778181551E+03 -0.12471479827E+03 -0.75952833012E+02  0.60564847593E+03  0.00000000000E+00 0. -1.
         -3    1    3    3    0  502 -0.10305582732E+04 -0.23179146314E+03 -0.24617393379E+03  0.10846101800E+04  0.00000000000E+00 0.  1.
         13    1    5    5    0    0  0.96664996378E+03 -0.16284220749E+03 -0.93766575306E+03  0.13565201073E+04  0.00000000000E+00 0. -1.
        -13    1    5    5    0    0  0.18762784165E+03  0.75779934930E+01 -0.16280502667E+03  0.24852989691E+03  0.00000000000E+00 0.  1.
          1    1    6    6  503    0  0.35562593918E+03  0.38280363153E+03 -0.80552913082E+03  0.96014874344E+03  0.00000000000E+00 0. -1.
         -1    1    6    6    0  503  0.10843634411E+03  0.12896684388E+03 -0.17796664622E+03  0.24507756876E+03  0.00000000000E+00 0.  1.
<mgrwt>
<rscale>  0 0.38033577E+04</rscale>
<asrwt>0</asrwt>
<pdfrwt beam="1">  1        2 0.53127910E+00 0.38033577E+04</pdfrwt>
<pdfrwt beam="2">  1       -1 0.16111090E+00 0.38033577E+04</pdfrwt>
<totfact> 0.22811211E-01</totfact>
</mgrwt>
</event>
<event>
12    7  0.2426980E-007  0.1988015E+04  0.7818608E-02  0.8612245E-01
         -1   -1    0    0    0  501 -0.00000000000E+00  0.00000000000E+00  0.21005333722E+04  0.21005333722E+04  0.00000000000E+00 0.  1.
          2   -1    0    0  501    0  0.00000000000E+00 -0.00000000000E+00 -0.47038097364E+03  0.47038097364E+03  0.00000000000E+00 0. -1.
         24    2    1    2    0    0  0.47609202624E+03  0.45292482306E+03  0.10072885729E+03  0.66919500738E+03  0.76623380448E+02 0.  0.
        254    2    1    2    0    0 -0.47609202624E+03 -0.45292482306E+03  0.15294235413E+04  0.19017193385E+04  0.91956270091E+03 0.  0.
         23    2    4    4    0    0 -0.63011319656E+03 -0.93566860188E+02  0.12684083698E+04  0.14223697185E+04  0.92078366727E+02 0.  0.
         23    2    4    4    0    0  0.15402117033E+03 -0.35935796287E+03  0.26101517144E+03  0.47934961997E+03  0.93736183282E+02 0.  0.
          2    1    3    3  502    0  0.31109920700E+03  0.25600657778E+03  0.37559044233E+02  0.40463905677E+03  0.00000000000E+00 0. -1.
         -1    1    3    3    0  502  0.16499281923E+03  0.19691824528E+03  0.63169813054E+02  0.26455595061E+03  0.00000000000E+00 0.  1.
         13    1    5    5    0    0 -0.42075793154E+03 -0.19300828860E+02  0.80944590699E+03  0.91247599163E+03  0.00000000000E+00 0.  1.
        -13    1    5    5    0    0 -0.20935526502E+03 -0.74266031328E+02  0.45896246285E+03  0.50989372687E+03  0.00000000000E+00 0. -1.
          4    1    6    6  503    0  0.13698015882E+03 -0.22071399511E+03  0.14325905257E+03  0.29665027843E+03  0.00000000000E+00 0. -1.
         -4    1    6    6    0  503  0.17041011510E+02 -0.13864396776E+03  0.11775611887E+03  0.18269934154E+03  0.00000000000E+00 0.  1.
<mgrwt>
<rscale>  0 0.19880150E+04</rscale>
<asrwt>0</asrwt>
<pdfrwt beam="1">  1        2 0.72366304E-01 0.19880150E+04</pdfrwt>
<pdfrwt beam="2">  1       -1 0.32315898E+00 0.19880150E+04</pdfrwt>
<totfact> 0.16409571E+00</totfact>
</mgrwt>
</event>
<event>
12    7  0.2426980E-007  0.2101042E+04  0.7818608E-02  0.8560785E-01
          2   -1    0    0  501    0  0.00000000000E+00  0.00000000000E+00  0.11193680435E+04  0.11193680435E+04  0.00000000000E+00 0. -1.
         -1   -1    0    0    0  501 -0.00000000000E+00 -0.00000000000E+00 -0.98590838073E+03  0.98590838073E+03  0.00000000000E+00 0.  1.
         24    2    1    2    0    0 -0.65444160458E+03 -0.11716271671E+03 -0.48417688741E+03  0.82734049457E+03  0.89689016406E+02 0.  0.
        254    2    1    2    0    0  0.65444160458E+03  0.11716271671E+03  0.61763655016E+03  0.12779359296E+04  0.89979131813E+03 0.  0.
         23    2    4    4    0    0  0.73649868510E+03 -0.27554969415E+02  0.74293578475E+03  0.10503065203E+04  0.89446167418E+02 0.  0.
         23    2    4    4    0    0 -0.82057080523E+02  0.14471768613E+03 -0.12529923459E+03  0.22762940932E+03  0.91862270041E+02 0.  0.
          4    1    3    3  502    0 -0.53218487673E+03 -0.75099525082E+02 -0.35214243516E+03  0.64254569980E+03  0.00000000000E+00 0. -1.
         -3    1    3    3    0  502 -0.12225672785E+03 -0.42063191631E+02 -0.13203445225E+03  0.18479479478E+03  0.00000000000E+00 0.  1.
         13    1    5    5    0    0  0.52869007539E+03 -0.55030338698E+01  0.47702896966E+03  0.71210962435E+03  0.00000000000E+00 0. -1.
        -13    1    5    5    0    0  0.20780860971E+03 -0.22051935545E+02  0.26590681509E+03  0.33819689597E+03  0.00000000000E+00 0.  1.
          4    1    6    6  503    0 -0.80009192931E+02  0.51061693546E+02 -0.49034920370E+02  0.10683253679E+03  0.00000000000E+00 0. -1.
         -4    1    6    6    0  503 -0.20478875922E+01  0.93655992583E+02 -0.76264314219E+02  0.12079687253E+03  0.00000000000E+00 0.  1.
<mgrwt>
<rscale>  0 0.21010420E+04</rscale>
<asrwt>0</asrwt>
<pdfrwt beam="1">  1        2 0.17221047E+00 0.21010420E+04</pdfrwt>
<pdfrwt beam="2">  1       -1 0.15167821E+00 0.21010420E+04</pdfrwt>
<totfact> 0.75404491E+00</totfact>
</mgrwt>
</event>
<event>
12    7  0.2426980E-007  0.2755544E+04  0.7818608E-02  0.8317205E-01
          2   -1    0    0  501    0  0.00000000000E+00  0.00000000000E+00  0.20683869156E+04  0.20683869156E+04  0.00000000000E+00 0. -1.
         -1   -1    0    0    0  501 -0.00000000000E+00 -0.00000000000E+00 -0.91774694893E+03  0.91774694893E+03  0.00000000000E+00 0.  1.
         24    2    1    2    0    0  0.12268967085E+04 -0.24152467994E+02  0.42820489743E+03  0.13021392648E+04  0.79676570187E+02 0.  0.
        254    2    1    2    0    0 -0.12268967085E+04  0.24152467994E+02  0.72243506927E+03  0.16839945997E+04  0.89892519580E+03 0.  0.
         23    2    4    4    0    0 -0.54227680467E+03 -0.32958512193E+03  0.63741695297E+03  0.90359095629E+03  0.86520280143E+02 0.  0.
         23    2    4    4    0    0 -0.68461990381E+03  0.35373758992E+03  0.85018116301E+02  0.78040364345E+03  0.89258452753E+02 0.  0.
          2    1    3    3  502    0  0.27146031515E+03 -0.19237741922E+02  0.12717226808E+03  0.30038904638E+03  0.00000000000E+00 0. -1.
         -1    1    3    3    0  502  0.95543639333E+03 -0.49147260720E+01  0.30103262935E+03  0.10017502184E+04  0.00000000000E+00 0.  1.
         13    1    5    5    0    0 -0.36522295801E+03 -0.19129557493E+03  0.36645826471E+03  0.55160988553E+03  0.00000000000E+00 0. -1.
        -13    1    5    5    0    0 -0.17705384666E+03 -0.13828954700E+03  0.27095868826E+03  0.35198107075E+03  0.00000000000E+00 0.  1.
          4    1    6    6  503    0 -0.36563477207E+03  0.15454815054E+03  0.76368215541E+02  0.40423510700E+03  0.00000000000E+00 0.  1.
         -4    1    6    6    0  503 -0.31898513174E+03  0.19918943938E+03  0.86499007596E+01  0.37616853645E+03  0.00000000000E+00 0. -1.
<mgrwt>
<rscale>  0 0.27555441E+04</rscale>
<asrwt>0</asrwt>
<pdfrwt beam="1">  1        2 0.31821337E+00 0.27555441E+04</pdfrwt>
<pdfrwt beam="2">  1       -1 0.14119184E+00 0.27555441E+04</pdfrwt>
<totfact> 0.24921338E+00</totfact>
</mgrwt>
</event>
<event>
12    7  0.2426980E-007  0.1767915E+04  0.7818608E-02  0.8723550E-01
         -1   -1    0    0    0  501 -0.00000000000E+00  0.00000000000E+00  0.57916432487E+03  0.57916432487E+03  0.00000000000E+00 0.  1.
          2   -1    0    0  501    0  0.00000000000E+00 -0.00000000000E+00 -0.13491526911E+04  0.13491526911E+04  0.00000000000E+00 0. -1.
         24    2    1    2    0    0  0.15927216796E+03  0.61145368768E+03 -0.10738695839E+03  0.64607382198E+03  0.81462807167E+02 0.  0.
        254    2    1    2    0    0 -0.15927216796E+03 -0.61145368768E+03 -0.66260140788E+03  0.12822431940E+04  0.89769914071E+03 0.  0.
         23    2    4    4    0    0  0.31154022568E+03 -0.56329122902E+01 -0.17575047979E+03  0.36914195077E+03  0.91041236555E+02 0.  0.
         23    2    4    4    0    0 -0.47081239364E+03 -0.60582077539E+03 -0.48685092809E+03  0.91310124325E+03  0.89704695265E+02 0.  0.
          4    1    3    3  502    0  0.24004357654E+02  0.14515178738E+03 -0.57621563182E+02  0.15800473129E+03  0.00000000000E+00 0. -1.
         -3    1    3    3    0  502  0.13526781030E+03  0.46630190030E+03 -0.49765395204E+02  0.48806909069E+03  0.00000000000E+00 0.  1.
         13    1    5    5    0    0  0.68644641051E+02  0.35141498745E+02 -0.55826184368E+02  0.95202807417E+02  0.00000000000E+00 0.  1.
        -13    1    5    5    0    0  0.24289558463E+03 -0.40774411036E+02 -0.11992429542E+03  0.27393914335E+03  0.00000000000E+00 0. -1.
          4    1    6    6  503    0 -0.21378857447E+03 -0.25799812591E+03 -0.26403375281E+03  0.42659396406E+03  0.00000000000E+00 0. -1.
         -4    1    6    6    0  503 -0.25702381917E+03 -0.34782264948E+03 -0.22281717528E+03  0.48650727920E+03  0.00000000000E+00 0.  1.
<mgrwt>
<rscale>  0 0.17679153E+04</rscale>
<asrwt>0</asrwt>
<pdfrwt beam="1">  1        2 0.20756195E+00 0.17679153E+04</pdfrwt>
<pdfrwt beam="2">  1       -1 0.89102204E-01 0.17679153E+04</pdfrwt>
<totfact> 0.20624724E+01</totfact>
</mgrwt>
</event>
<event>
12    7  0.2426980E-007  0.1472618E+04  0.7818608E-02  0.8902869E-01
         -1   -1    0    0    0  501 -0.00000000000E+00  0.00000000000E+00  0.60913656127E+03  0.60913656127E+03  0.00000000000E+00 0.  1.
          2   -1    0    0  501    0  0.00000000000E+00 -0.00000000000E+00 -0.89003134409E+03  0.89003134409E+03  0.00000000000E+00 0. -1.
         24    2    1    2    0    0  0.30360738820E+03  0.32453962007E+03 -0.19325126787E+03  0.49198892327E+03  0.84874241804E+02 0.  0.
        254    2    1    2    0    0 -0.30360738820E+03 -0.32453962007E+03 -0.87643514949E+02  0.10071789821E+04  0.89956917748E+03 0.  0.
         23    2    4    4    0    0 -0.38307818373E+03  0.21487604031E+03 -0.62035197301E+02  0.45277846809E+03  0.90770964007E+02 0.  0.
         23    2    4    4    0    0  0.79470795537E+02 -0.53941566038E+03 -0.25608317649E+02  0.55440051400E+03  0.97052985457E+02 0.  0.
          2    1    3    3  502    0  0.16178037632E+03  0.19898998752E+03 -0.15206020913E+03  0.29814797080E+03  0.00000000000E+00 0. -1.
         -1    1    3    3    0  502  0.14182701187E+03  0.12554963256E+03 -0.41191058743E+02  0.19384095247E+03  0.00000000000E+00 0.  1.
         13    1    5    5    0    0 -0.25282458097E+02  0.46514621221E+02 -0.10977912794E+02  0.54067802287E+02  0.00000000000E+00 0.  1.
        -13    1    5    5    0    0 -0.35779572564E+03  0.16836141909E+03 -0.51057284507E+02  0.39871066580E+03  0.00000000000E+00 0. -1.
          2    1    6    6  503    0  0.50627185448E+02 -0.89884825460E+02 -0.10455840665E+02  0.10369049310E+03  0.00000000000E+00 0. -1.
         -2    1    6    6    0  503  0.28843610089E+02 -0.44953083492E+03 -0.15152476984E+02  0.45071002091E+03  0.00000000000E+00 0.  1.
<mgrwt>
<rscale>  0 0.14726176E+04</rscale>
<asrwt>0</asrwt>
<pdfrwt beam="1">  1        2 0.13692790E+00 0.14726176E+04</pdfrwt>
<pdfrwt beam="2">  1       -1 0.93713317E-01 0.14726176E+04</pdfrwt>
<totfact> 0.36345609E+01</totfact>
</mgrwt>
</event>
<event>
12    7  0.2426980E-007  0.1946376E+04  0.7818608E-02  0.8632110E-01
          2   -1    0    0  501    0  0.00000000000E+00  0.00000000000E+00  0.26107989664E+04  0.26107989664E+04  0.00000000000E+00 0. -1.
         -1   -1    0    0    0  501 -0.00000000000E+00 -0.00000000000E+00 -0.36276059904E+03  0.36276059904E+03  0.00000000000E+00 0.  1.
         24    2    1    2    0    0 -0.56321367872E+03  0.30991731795E+03  0.15148102089E+04  0.16475790712E+04  0.81292280694E+02 0.  0.
        254    2    1    2    0    0  0.56321367872E+03 -0.30991731795E+03  0.73322815847E+03  0.13259804943E+04  0.89852231299E+03 0.  0.
         23    2    4    4    0    0 -0.13989745464E+03  0.17476596730E+03  0.19747314678E+03  0.31322791688E+03  0.94876989182E+02 0.  0.
         23    2    4    4    0    0  0.70311113337E+03 -0.48468328525E+03  0.53575501169E+03  0.10127525774E+04  0.96701590367E+02 0.  0.
          2    1    3    3  502    0 -0.10630429683E+03  0.61456603110E+02  0.37801929286E+03  0.39746207790E+03  0.00000000000E+00 0. -1.
         -1    1    3    3    0  502 -0.45690938189E+03  0.24846071484E+03  0.11367909160E+04  0.12501169933E+04  0.00000000000E+00 0.  1.
         13    1    5    5    0    0 -0.21151287923E+01  0.68276504764E+02  0.66504753134E+02  0.95336441417E+02  0.00000000000E+00 0. -1.
        -13    1    5    5    0    0 -0.13778232585E+03  0.10648946253E+03  0.13096839364E+03  0.21789147546E+03  0.00000000000E+00 0.  1.
          2    1    6    6  503    0  0.51580764216E+03 -0.38061190091E+03  0.44329985040E+03  0.77938289703E+03  0.00000000000E+00 0. -1.
         -2    1    6    6    0  503  0.18730349121E+03 -0.10407138434E+03  0.92455161294E+02  0.23336968035E+03  0.00000000000E+00 0.  1.
<mgrwt>
<rscale>  0 0.19463761E+04</rscale>
<asrwt>0</asrwt>
<pdfrwt beam="1">  1        2 0.40166137E+00 0.19463761E+04</pdfrwt>
<pdfrwt beam="2">  1       -1 0.55809325E-01 0.19463761E+04</pdfrwt>
<totfact> 0.10355687E+01</totfact>
</mgrwt>
</event>
<event>
12    7  0.2426980E-007  0.1803503E+04  0.7818608E-02  0.8704439E-01
          2   -1    0    0  501    0  0.00000000000E+00  0.00000000000E+00  0.51754004867E+03  0.51754004867E+03  0.00000000000E+00 0. -1.
         -1   -1    0    0    0  501 -0.00000000000E+00 -0.00000000000E+00 -0.15711940007E+04  0.15711940007E+04  0.00000000000E+00 0.  1.
         24    2    1    2    0    0 -0.53555699208E+03 -0.38328161554E+03 -0.56361717398E+03  0.87074175120E+03  0.82466901912E+02 0.  0.
        254    2    1    2    0    0  0.53555699208E+03  0.38328161554E+03 -0.49003677808E+03  0.12179922982E+04  0.89980170373E+03 0.  0.
         23    2    4    4    0    0 -0.33288396505E+02 -0.80332351609E+02  0.18228637214E+03  0.21920881341E+03  0.85221935858E+02 0.  0.
         23    2    4    4    0    0  0.56884538858E+03  0.46361396715E+03 -0.67232315022E+03  0.99878348479E+03  0.83827468881E+02 0.  0.
          4    1    3    3  502    0 -0.82502976868E+01 -0.73722568756E+01 -0.28849881997E+02  0.30898758463E+02  0.00000000000E+00 0. -1.
         -3    1    3    3    0  502 -0.52730669439E+03 -0.37590935866E+03 -0.53476729199E+03  0.83984299274E+03  0.00000000000E+00 0.  1.
         13    1    5    5    0    0 -0.47418101037E+02 -0.91892140887E+02  0.15176600667E+03  0.18364520861E+03  0.00000000000E+00 0. -1.
        -13    1    5    5    0    0  0.14129704533E+02  0.11559789278E+02  0.30520365462E+02  0.35563604798E+02  0.00000000000E+00 0.  1.
          1    1    6    6  503    0  0.56855457231E+03  0.45130489242E+03 -0.65650792236E+03  0.97874054771E+03  0.00000000000E+00 0. -1.
         -1    1    6    6    0  503  0.29081627174E+00  0.12309074726E+02 -0.15815227856E+02  0.20042937082E+02  0.00000000000E+00 0.  1.
<mgrwt>
<rscale>  0 0.18035031E+04</rscale>
<asrwt>0</asrwt>
<pdfrwt beam="1">  1        2 0.79621548E-01 0.18035031E+04</pdfrwt>
<pdfrwt beam="2">  1       -1 0.24172215E+00 0.18035031E+04</pdfrwt>
<totfact> 0.50385902E+00</totfact>
</mgrwt>
</event>
<event>
12    7  0.2426980E-007  0.1582245E+04  0.7818608E-02  0.8831531E-01
          2   -1    0    0  501    0  0.00000000000E+00  0.00000000000E+00  0.14422053180E+04  0.14422053180E+04  0.00000000000E+00 0. -1.
         -3   -1    0    0    0  501 -0.00000000000E+00 -0.00000000000E+00 -0.43397048350E+03  0.43397048350E+03  0.00000000000E+00 0.  1.
         24    2    1    2    0    0  0.11471925678E+03  0.30370860012E+03 -0.15609865932E+03  0.36882597401E+03  0.79160507850E+02 0.  0.
        254    2    1    2    0    0 -0.11471925678E+03 -0.30370860012E+03  0.11643334938E+04  0.15073498275E+04  0.90057292649E+03 0.  0.
         23    2    4    4    0    0  0.13361318938E+03 -0.58510575080E+02  0.11340808909E+04  0.11473610655E+04  0.94984081575E+02 0.  0.
         23    2    4    4    0    0 -0.24833244616E+03 -0.24519802504E+03  0.30252602889E+02  0.35998876195E+03  0.82979596609E+02 0.  0.
          2    1    3    3  502    0  0.14917986921E+02  0.79859630651E+02 -0.75275330058E+02  0.11075415232E+03  0.00000000000E+00 0. -1.
         -1    1    3    3    0  502  0.99801269859E+02  0.22384896947E+03 -0.80823329258E+02  0.25807182169E+03  0.00000000000E+00 0.  1.
         13    1    5    5    0    0  0.10766564020E+03 -0.46994963159E+01  0.56771479433E+03  0.57785297702E+03  0.00000000000E+00 0.  1.
        -13    1    5    5    0    0  0.25947549177E+02 -0.53811078764E+02  0.56636609660E+03  0.56950808851E+03  0.00000000000E+00 0. -1.
          2    1    6    6  503    0 -0.13910541425E+03 -0.18043710551E+03 -0.60692106964E+01  0.22791380089E+03  0.00000000000E+00 0. -1.
         -2    1    6    6    0  503 -0.10922703190E+03 -0.64760919531E+02  0.36321813585E+02  0.13207496106E+03  0.00000000000E+00 0.  1.
<mgrwt>
<rscale>  0 0.15822447E+04</rscale>
<asrwt>0</asrwt>
<pdfrwt beam="1">  1        2 0.22187774E+00 0.15822447E+04</pdfrwt>
<pdfrwt beam="2">  1       -3 0.66764691E-01 0.15822447E+04</pdfrwt>
<totfact> 0.18139287E+01</totfact>
</mgrwt>
</event>
<event>
12    7  0.2426980E-007  0.1750267E+04  0.7818608E-02  0.8733203E-01
         -1   -1    0    0    0  501 -0.00000000000E+00  0.00000000000E+00  0.55150092452E+03  0.55150092452E+03  0.00000000000E+00 0.  1.
          2   -1    0    0  501    0  0.00000000000E+00 -0.00000000000E+00 -0.13886802172E+04  0.13886802172E+04  0.00000000000E+00 0. -1.
         24    2    1    2    0    0 -0.60321656769E+03  0.49448869283E+02 -0.54461198725E+03  0.81810612390E+03  0.79874871554E+02 0.  0.
        254    2    1    2    0    0  0.60321656769E+03 -0.49448869283E+02 -0.29256730544E+03  0.11220750178E+04  0.89841042914E+03 0.  0.
         23    2    4    4    0    0 -0.88050970684E+02  0.28118595485E+03 -0.42962096037E+02  0.31094236335E+03  0.89559460615E+02 0.  0.
         23    2    4    4    0    0  0.69126753837E+03 -0.33063482414E+03 -0.24960520940E+03  0.81113265446E+03  0.91995793602E+02 0.  0.
          2    1    3    3  502    0 -0.59542640629E+03  0.39886701679E+02 -0.54037640882E+03  0.80506534983E+03  0.00000000000E+00 0. -1.
         -3    1    3    3    0  502 -0.77901613943E+01  0.95621676038E+01 -0.42355784238E+01  0.13040774073E+02  0.00000000000E+00 0.  1.
         13    1    5    5    0    0  0.18509910647E+02  0.47787753469E+02 -0.36805166011E+01  0.51379299102E+02  0.00000000000E+00 0. -1.
        -13    1    5    5    0    0 -0.10656088133E+03  0.23339820138E+03 -0.39281579436E+02  0.25956306425E+03  0.00000000000E+00 0.  1.
          4    1    6    6  503    0  0.49482533898E+03 -0.18968244129E+03 -0.17602640530E+03  0.55840562317E+03  0.00000000000E+00 0.  1.
         -4    1    6    6    0  503  0.19644219939E+03 -0.14095238284E+03 -0.73578804104E+02  0.25272703129E+03  0.00000000000E+00 0. -1.
<mgrwt>
<rscale>  0 0.17502667E+04</rscale>
<asrwt>0</asrwt>
<pdfrwt beam="1">  1        2 0.21364311E+00 0.17502667E+04</pdfrwt>
<pdfrwt beam="2">  1       -1 0.84846296E-01 0.17502667E+04</pdfrwt>
<totfact> 0.21810246E+01</totfact>
</mgrwt>
</event>
<event>
12    7  0.2426980E-007  0.3207744E+04  0.7818608E-02  0.8186775E-01
         -1   -1    0    0    0  501 -0.00000000000E+00  0.00000000000E+00  0.10071665034E+04  0.10071665034E+04  0.00000000000E+00 0.  1.
          2   -1    0    0  501    0  0.00000000000E+00 -0.00000000000E+00 -0.25541007284E+04  0.25541007284E+04  0.00000000000E+00 0. -1.
         24    2    1    2    0    0 -0.24667253176E+03 -0.14044205773E+04 -0.28827097151E+03  0.14571078894E+04  0.82575737632E+02 0.  0.
        254    2    1    2    0    0  0.24667253176E+03  0.14044205773E+04 -0.12586632535E+04  0.21041593424E+04  0.90000492024E+03 0.  0.
         23    2    4    4    0    0 -0.87679326633E+02  0.30189343828E+01  0.68167710591E+02  0.14339829378E+03  0.90661213369E+02 0.  0.
         23    2    4    4    0    0  0.33435185839E+03  0.14014016429E+04 -0.13268309641E+04  0.19607610486E+04  0.91573753496E+02 0.  0.
          2    1    3    3  502    0 -0.40544689907E+02 -0.36132016408E+03 -0.10219273502E+03  0.37767643286E+03  0.00000000000E+00 0. -1.
         -1    1    3    3    0  502 -0.20612784185E+03 -0.10431004133E+04 -0.18607823649E+03  0.10794314566E+04  0.00000000000E+00 0.  1.
         13    1    5    5    0    0 -0.25304450076E+02  0.35132970908E+02  0.58197576806E+02  0.72536878790E+02  0.00000000000E+00 0.  1.
        -13    1    5    5    0    0 -0.62374876557E+02 -0.32114036525E+02  0.99701337851E+01  0.70861414995E+02  0.00000000000E+00 0. -1.
          4    1    6    6  503    0  0.11206144998E+02  0.92297308981E+02 -0.60272895151E+02  0.11080249465E+03  0.00000000000E+00 0.  1.
         -4    1    6    6    0  503  0.32314571339E+03  0.13091043340E+04 -0.12665580690E+04  0.18499585540E+04  0.00000000000E+00 0. -1.
<mgrwt>
<rscale>  0 0.32077436E+04</rscale>
<asrwt>0</asrwt>
<pdfrwt beam="1">  1        2 0.39293857E+00 0.32077436E+04</pdfrwt>
<pdfrwt beam="2">  1       -1 0.15494870E+00 0.32077436E+04</pdfrwt>
<totfact> 0.98870522E-01</totfact>
</mgrwt>
</event>
<event>
12    7  0.2426980E-007  0.2853427E+04  0.7818608E-02  0.8286871E-01
          2   -1    0    0  501    0  0.00000000000E+00  0.00000000000E+00  0.11341861781E+04  0.11341861781E+04  0.00000000000E+00 0. -1.
         -1   -1    0    0    0  501 -0.00000000000E+00 -0.00000000000E+00 -0.17946885487E+04  0.17946885487E+04  0.00000000000E+00 0.  1.
         24    2    1    2    0    0  0.97538389107E+03  0.22415128141E+03 -0.11212609397E+04  0.15057815613E+04  0.92382268624E+02 0.  0.
        254    2    1    2    0    0 -0.97538389107E+03 -0.22415128141E+03  0.46075856902E+03  0.14230931655E+04  0.90070981286E+03 0.  0.
         23    2    4    4    0    0 -0.82061063278E+03 -0.45091524366E+03  0.58442484679E+03  0.11072815760E+04  0.88282044391E+02 0.  0.
         23    2    4    4    0    0 -0.15477325829E+03  0.22676396225E+03 -0.12366627777E+03  0.31581158956E+03  0.95220563884E+02 0.  0.
          4    1    3    3  502    0  0.36511624554E+03  0.94412692590E+02 -0.35822053052E+03  0.52013995979E+03  0.00000000000E+00 0. -1.
         -3    1    3    3    0  502  0.61026764553E+03  0.12973858882E+03 -0.76304040913E+03  0.98564160149E+03  0.00000000000E+00 0.  1.
         13    1    5    5    0    0 -0.26941841532E+03 -0.11101383913E+03  0.15254691395E+03  0.32890867418E+03  0.00000000000E+00 0. -1.
        -13    1    5    5    0    0 -0.55119221746E+03 -0.33990140453E+03  0.43187793283E+03  0.77837290180E+03  0.00000000000E+00 0.  1.
          1    1    6    6  503    0  0.48830033671E+01  0.19123000331E+02 -0.33349407589E+02  0.38751978661E+02  0.00000000000E+00 0. -1.
         -1    1    6    6    0  503 -0.15965626166E+03  0.20764096192E+03 -0.90316870184E+02  0.27705961090E+03  0.00000000000E+00 0.  1.
<mgrwt>
<rscale>  0 0.28534267E+04</rscale>
<asrwt>0</asrwt>
<pdfrwt beam="1">  1        2 0.17449018E+00 0.28534267E+04</pdfrwt>
<pdfrwt beam="2">  1       -1 0.27610593E+00 0.28534267E+04</pdfrwt>
<totfact> 0.96652435E-01</totfact>
</mgrwt>
</event>
<event>
12    7  0.2426980E-007  0.1610088E+04  0.7818608E-02  0.8814375E-01
         -1   -1    0    0    0  501 -0.00000000000E+00  0.00000000000E+00  0.13051078897E+04  0.13051078897E+04  0.00000000000E+00 0.  1.
          2   -1    0    0  501    0  0.00000000000E+00 -0.00000000000E+00 -0.49658384537E+03  0.49658384537E+03  0.00000000000E+00 0. -1.
         24    2    1    2    0    0  0.26971500379E+03 -0.20056295715E+03 -0.20769711942E+03  0.40315753564E+03  0.80163720467E+02 0.  0.
        254    2    1    2    0    0 -0.26971500379E+03  0.20056295715E+03  0.10162211638E+04  0.13985341994E+04  0.90012264179E+03 0.  0.
         23    2    4    4    0    0 -0.49397696269E+03 -0.10822826461E+03  0.79790285730E+03  0.94946162481E+03  0.95403408560E+02 0.  0.
         23    2    4    4    0    0  0.22426195890E+03  0.30879122176E+03  0.21831830648E+03  0.44907257464E+03  0.91421274900E+02 0.  0.
          4    1    3    3  502    0  0.17608438006E+03 -0.93841450564E+02 -0.15124350502E+03  0.25037277120E+03  0.00000000000E+00 0. -1.
         -3    1    3    3    0  502  0.93630623727E+02 -0.10672150658E+03 -0.56453614399E+02  0.15278476444E+03  0.00000000000E+00 0.  1.
         13    1    5    5    0    0 -0.73227142011E+02  0.25927498945E+01  0.17426962554E+03  0.18904718740E+03  0.00000000000E+00 0.  1.
        -13    1    5    5    0    0 -0.42074982068E+03 -0.11082101450E+03  0.62363323176E+03  0.76041443740E+03  0.00000000000E+00 0. -1.
          4    1    6    6  503    0  0.19004431121E+03  0.27332178668E+03  0.22122534424E+03  0.39970275484E+03  0.00000000000E+00 0. -1.
         -4    1    6    6    0  503  0.34217647690E+02  0.35469435079E+02 -0.29070377549E+01  0.49369819797E+02  0.00000000000E+00 0.  1.
<mgrwt>
<rscale>  0 0.16100876E+04</rscale>
<asrwt>0</asrwt>
<pdfrwt beam="1">  1        2 0.76397515E-01 0.16100876E+04</pdfrwt>
<pdfrwt beam="2">  1       -1 0.20078583E+00 0.16100876E+04</pdfrwt>
<totfact> 0.10104206E+01</totfact>
</mgrwt>
</event>
<event>
12    7  0.2426980E-007  0.4030347E+04  0.7818608E-02  0.7998452E-01
          2   -1    0    0  501    0  0.00000000000E+00  0.00000000000E+00  0.25611058958E+04  0.25611058958E+04  0.00000000000E+00 0. -1.
         -1   -1    0    0    0  501 -0.00000000000E+00 -0.00000000000E+00 -0.15856139402E+04  0.15856139402E+04  0.00000000000E+00 0.  1.
         24    2    1    2    0    0  0.24355345189E+03 -0.18238866801E+04 -0.76523464303E+02  0.18435073220E+04  0.82355935291E+02 0.  0.
        254    2    1    2    0    0 -0.24355345189E+03  0.18238866801E+04  0.10520154199E+04  0.23032125140E+04  0.90120504609E+03 0.  0.
         23    2    4    4    0    0  0.77936296788E+02  0.11147543903E+04  0.18947731665E+03  0.11371063275E+04  0.91420618747E+02 0.  0.
         23    2    4    4    0    0 -0.32148974867E+03  0.70913228984E+03  0.86253810322E+03  0.11661061865E+04  0.98017323193E+02 0.  0.
          4    1    3    3  502    0  0.84696007895E+02 -0.39870613118E+03 -0.29264693507E+01  0.40761324441E+03  0.00000000000E+00 0. -1.
         -3    1    3    3    0  502  0.15885744399E+03 -0.14251805489E+04 -0.73596994952E+02  0.14358940776E+04  0.00000000000E+00 0.  1.
         13    1    5    5    0    0  0.87276504286E+02  0.77286638422E+03  0.15781901384E+03  0.79362867715E+03  0.00000000000E+00 0.  1.
        -13    1    5    5    0    0 -0.93402074982E+01  0.34188800603E+03  0.31658302816E+02  0.34347765033E+03  0.00000000000E+00 0. -1.
          2    1    6    6  503    0 -0.10390416717E+03  0.29399145580E+03  0.40475243852E+03  0.51093207819E+03  0.00000000000E+00 0. -1.
         -2    1    6    6    0  503 -0.21758558151E+03  0.41514083404E+03  0.45778566471E+03  0.65517410829E+03  0.00000000000E+00 0.  1.
<mgrwt>
<rscale>  0 0.40303475E+04</rscale>
<asrwt>0</asrwt>
<pdfrwt beam="1">  1        2 0.39401629E+00 0.40303475E+04</pdfrwt>
<pdfrwt beam="2">  1       -1 0.24394061E+00 0.40303475E+04</pdfrwt>
<totfact> 0.21910474E-01</totfact>
</mgrwt>
</event>
<event>
12    7  0.2426980E-007  0.1583886E+04  0.7818608E-02  0.8830509E-01
          2   -1    0    0  501    0  0.00000000000E+00  0.00000000000E+00  0.22961688327E+04  0.22961688327E+04  0.00000000000E+00 0. -1.
         -1   -1    0    0    0  501 -0.00000000000E+00 -0.00000000000E+00 -0.27313928278E+03  0.27313928278E+03  0.00000000000E+00 0.  1.
         24    2    1    2    0    0 -0.11674225743E+03 -0.47735140021E+03  0.10162358665E+04  0.11315696148E+04  0.78875488997E+02 0.  0.
        254    2    1    2    0    0  0.11674225743E+03  0.47735140021E+03  0.10067936833E+04  0.14377385006E+04  0.90109120596E+03 0.  0.
         23    2    4    4    0    0 -0.13626569194E+03  0.65750493142E+03  0.82003898991E+03  0.10641157761E+04  0.94854448604E+02 0.  0.
         23    2    4    4    0    0  0.25300794937E+03 -0.18015353122E+03  0.18675469343E+03  0.37362272449E+03  0.90820193149E+02 0.  0.
          2    1    3    3  502    0 -0.56174733088E+02 -0.31296178954E+03  0.72569026956E+03  0.79229227541E+03  0.00000000000E+00 0. -1.
         -1    1    3    3    0  502 -0.60567524344E+02 -0.16438961067E+03  0.29054559697E+03  0.33927733939E+03  0.00000000000E+00 0.  1.
         13    1    5    5    0    0  0.94697786110E+01  0.79853857328E+02  0.12574483795E+03  0.14925843195E+03  0.00000000000E+00 0. -1.
        -13    1    5    5    0    0 -0.14573547055E+03  0.57765107409E+03  0.69429415197E+03  0.91485734420E+03  0.00000000000E+00 0.  1.
          1    1    6    6  503    0  0.16271301810E+03 -0.82454580296E+02  0.66086797356E+02  0.19401481607E+03  0.00000000000E+00 0. -1.
         -1    1    6    6    0  503  0.90294931276E+02 -0.97698950920E+02  0.12066789607E+03  0.17960790842E+03  0.00000000000E+00 0.  1.
<mgrwt>
<rscale>  0 0.15838862E+04</rscale>
<asrwt>0</asrwt>
<pdfrwt beam="1">  1        2 0.35325673E+00 0.15838862E+04</pdfrwt>
<pdfrwt beam="2">  1       -1 0.42021430E-01 0.15838862E+04</pdfrwt>
<totfact> 0.27746250E+01</totfact>
</mgrwt>
</event>
<event>
12    7  0.2426980E-007  0.1508614E+04  0.7818608E-02  0.8878745E-01
          2   -1    0    0  501    0  0.00000000000E+00  0.00000000000E+00  0.73812542607E+03  0.73812542607E+03  0.00000000000E+00 0. -1.
         -1   -1    0    0    0  501 -0.00000000000E+00 -0.00000000000E+00 -0.77084282720E+03  0.77084282720E+03  0.00000000000E+00 0.  1.
         24    2    1    2    0    0  0.30664245005E+03  0.11827414873E+02 -0.38087891250E+03  0.49559288380E+03  0.79837839209E+02 0.  0.
        254    2    1    2    0    0 -0.30664245005E+03 -0.11827414873E+02  0.34816151137E+03  0.10133753695E+04  0.90085721483E+03 0.  0.
         23    2    4    4    0    0 -0.16819510114E+03  0.28189129074E+03  0.53019857499E+03  0.63005805069E+03  0.90057350980E+02 0.  0.
         23    2    4    4    0    0 -0.13844734891E+03 -0.29371870561E+03 -0.18203706362E+03  0.38331731878E+03  0.91412952566E+02 0.  0.
          4    1    3    3  502    0  0.24139245882E+03  0.40070806173E+01 -0.24140853862E+03  0.34141537515E+03  0.00000000000E+00 0. -1.
         -3    1    3    3    0  502  0.65249991237E+02  0.78203342557E+01 -0.13947037388E+03  0.15417750865E+03  0.00000000000E+00 0.  1.
         13    1    5    5    0    0 -0.55496314876E+02  0.14121769143E+03  0.31276652127E+03  0.34762792490E+03  0.00000000000E+00 0.  1.
        -13    1    5    5    0    0 -0.11269878627E+03  0.14067359931E+03  0.21743205372E+03  0.28243012579E+03  0.00000000000E+00 0. -1.
          1    1    6    6  503    0 -0.13911059838E+02 -0.13036968214E+03 -0.58012697458E+02  0.14337100360E+03  0.00000000000E+00 0. -1.
         -1    1    6    6    0  503 -0.12453628907E+03 -0.16334902347E+03 -0.12402436616E+03  0.23994631518E+03  0.00000000000E+00 0.  1.
<mgrwt>
<rscale>  0 0.15086135E+04</rscale>
<asrwt>0</asrwt>
<pdfrwt beam="1">  1        2 0.11355776E+00 0.15086135E+04</pdfrwt>
<pdfrwt beam="2">  1       -1 0.11859120E+00 0.15086135E+04</pdfrwt>
<totfact> 0.26908746E+01</totfact>
</mgrwt>
</event>
<event>
12    7  0.2426980E-007  0.1360690E+04  0.7818608E-02  0.8982775E-01
         -1   -1    0    0    0  501 -0.00000000000E+00  0.00000000000E+00  0.21694691914E+03  0.21694691914E+03  0.00000000000E+00 0.  1.
          2   -1    0    0  501    0  0.00000000000E+00 -0.00000000000E+00 -0.21335615003E+04  0.21335615003E+04  0.00000000000E+00 0. -1.
         24    2    1    2    0    0  0.15879551055E+02 -0.36708872281E+03 -0.39945902420E+03  0.54859504420E+03  0.79891926685E+02 0.  0.
        254    2    1    2    0    0 -0.15879551055E+02  0.36708872281E+03 -0.15171555569E+04  0.18019133752E+04  0.90006918473E+03 0.  0.
         23    2    4    4    0    0 -0.44360959242E+03  0.25278076785E+03 -0.85842780147E+03  0.10030369851E+04  0.92180887743E+02 0.  0.
         23    2    4    4    0    0  0.42773004137E+03  0.11430795496E+03 -0.65872775548E+03  0.79887639013E+03  0.90895181442E+02 0.  0.
          4    1    3    3  502    0 -0.23665842051E+02 -0.10351102613E+03 -0.82471597351E+02  0.13444764401E+03  0.00000000000E+00 0. -1.
         -1    1    3    3    0  502  0.39545393105E+02 -0.26357769669E+03 -0.31698742685E+03  0.41414740019E+03  0.00000000000E+00 0.  1.
         13    1    5    5    0    0 -0.65339850242E+02  0.67509022895E+02 -0.20663802434E+03  0.22699347414E+03  0.00000000000E+00 0. -1.
        -13    1    5    5    0    0 -0.37826974218E+03  0.18527174496E+03 -0.65178977713E+03  0.77604351096E+03  0.00000000000E+00 0.  1.
          2    1    6    6  503    0  0.40731948421E+03  0.89604425251E+02 -0.63169560154E+03  0.75695273845E+03  0.00000000000E+00 0.  1.
         -2    1    6    6    0  503  0.20410557155E+02  0.24703529707E+02 -0.27032153944E+02  0.41923651680E+02  0.00000000000E+00 0. -1.
<mgrwt>
<rscale>  0 0.13606904E+04</rscale>
<asrwt>0</asrwt>
<pdfrwt beam="1">  1        2 0.32824023E+00 0.13606904E+04</pdfrwt>
<pdfrwt beam="2">  1       -1 0.33376450E-01 0.13606904E+04</pdfrwt>
<totfact> 0.52923445E+01</totfact>
</mgrwt>
</event>
<event>
12    7  0.2426980E-007  0.1893355E+04  0.7818608E-02  0.8658171E-01
          2   -1    0    0  501    0  0.00000000000E+00  0.00000000000E+00  0.39321279625E+04  0.39321279625E+04  0.00000000000E+00 0. -1.
         -1   -1    0    0    0  501 -0.00000000000E+00 -0.00000000000E+00 -0.22791690332E+03  0.22791690332E+03  0.00000000000E+00 0.  1.
         24    2    1    2    0    0  0.33804913593E+03  0.64689067669E+03  0.14046763869E+04  0.15852623890E+04  0.84831150941E+02 0.  0.
        254    2    1    2    0    0 -0.33804913593E+03 -0.64689067669E+03  0.22995346722E+04  0.25747824768E+04  0.89938886363E+03 0.  0.
         23    2    4    4    0    0  0.92373176041E+02 -0.17414059651E+03  0.16320092390E+04  0.16463239311E+04  0.89836401540E+02 0.  0.
         23    2    4    4    0    0 -0.43042231197E+03 -0.47275008018E+03  0.66752543326E+03  0.92845854567E+03  0.87687296847E+02 0.  0.
          2    1    3    3  502    0  0.80629234410E+02  0.10869688991E+03  0.31778761321E+03  0.34540563752E+03  0.00000000000E+00 0. -1.
         -1    1    3    3    0  502  0.25741990152E+03  0.53819378678E+03  0.10868887737E+04  0.12398567515E+04  0.00000000000E+00 0.  1.
         13    1    5    5    0    0  0.94191815769E+02 -0.91738905604E+02  0.11252254497E+04  0.11328814755E+04  0.00000000000E+00 0.  1.
        -13    1    5    5    0    0 -0.18186397276E+01 -0.82401690909E+02  0.50678378932E+03  0.51344245562E+03  0.00000000000E+00 0. -1.
          3    1    6    6  503    0 -0.74643952072E+02 -0.13355990013E+03  0.17811397655E+03  0.23480748529E+03  0.00000000000E+00 0. -1.
         -3    1    6    6    0  503 -0.35577835990E+03 -0.33919018004E+03  0.48941145671E+03  0.69365106038E+03  0.00000000000E+00 0.  1.
<mgrwt>
<rscale>  0 0.18933551E+04</rscale>
<asrwt>0</asrwt>
<pdfrwt beam="1">  1        2 0.60494272E+00 0.18933551E+04</pdfrwt>
<pdfrwt beam="2">  1       -1 0.35064142E-01 0.18933551E+04</pdfrwt>
<totfact> 0.32368079E+00</totfact>
</mgrwt>
</event>
<event>
12    7  0.2426980E-007  0.1695627E+04  0.7818608E-02  0.8763862E-01
          2   -1    0    0  501    0  0.00000000000E+00  0.00000000000E+00  0.98709143873E+03  0.98709143873E+03  0.00000000000E+00 0. -1.
         -1   -1    0    0    0  501 -0.00000000000E+00 -0.00000000000E+00 -0.72818793284E+03  0.72818793284E+03  0.00000000000E+00 0.  1.
         24    2    1    2    0    0 -0.19186134862E+03 -0.57413587891E+03  0.93531642353E+02  0.61748708806E+03  0.78098343471E+02 0.  0.
        254    2    1    2    0    0  0.19186134862E+03  0.57413587891E+03  0.16537186354E+03  0.10977922835E+04  0.90075371769E+03 0.  0.
         23    2    4    4    0    0 -0.21240749861E+03 -0.12316226814E+03  0.12148337545E+03  0.28559136896E+03  0.80736173776E+02 0.  0.
         23    2    4    4    0    0  0.40426884723E+03  0.69729814705E+03  0.43888488084E+02  0.81220091454E+03  0.89922852964E+02 0.  0.
          2    1    3    3  502    0 -0.65055437797E+02 -0.23106630782E+03  0.74059908498E+02  0.25121448733E+03  0.00000000000E+00 0. -1.
         -1    1    3    3    0  502 -0.12680591082E+03 -0.34306957109E+03  0.19471733855E+02  0.36627260074E+03  0.00000000000E+00 0.  1.
         13    1    5    5    0    0 -0.18394575882E+03 -0.72118896364E+02  0.76618738969E+02  0.21191415375E+03  0.00000000000E+00 0. -1.
        -13    1    5    5    0    0 -0.28461739789E+02 -0.51043371772E+02  0.44864636486E+02  0.73677215207E+02  0.00000000000E+00 0.  1.
          4    1    6    6  503    0  0.11649292832E+03  0.12786891795E+03  0.11757899275E+02  0.17337621153E+03  0.00000000000E+00 0. -1.
         -4    1    6    6    0  503  0.28777591890E+03  0.56942922909E+03  0.32130588809E+02  0.63882470302E+03  0.00000000000E+00 0.  1.
<mgrwt>
<rscale>  0 0.16956274E+04</rscale>
<asrwt>0</asrwt>
<pdfrwt beam="1">  1        2 0.15186022E+00 0.16956274E+04</pdfrwt>
<pdfrwt beam="2">  1       -1 0.11202891E+00 0.16956274E+04</pdfrwt>
<totfact> 0.20381600E+01</totfact>
</mgrwt>
</event>
<event>
12    7  0.2426980E-007  0.1328788E+04  0.7818608E-02  0.9007043E-01
          2   -1    0    0  501    0  0.00000000000E+00  0.00000000000E+00  0.20463152359E+04  0.20463152359E+04  0.00000000000E+00 0. -1.
         -1   -1    0    0    0  501 -0.00000000000E+00 -0.00000000000E+00 -0.21571417030E+03  0.21571417030E+03  0.00000000000E+00 0.  1.
         24    2    1    2    0    0  0.29208700441E+03  0.18462793417E+03  0.37302229407E+03  0.51409598705E+03  0.75807386200E+02 0.  0.
        254    2    1    2    0    0 -0.29208700441E+03 -0.18462793417E+03  0.14575787715E+04  0.17479334191E+04  0.90074029017E+03 0.  0.
         23    2    4    4    0    0 -0.28272608153E+03  0.31008437132E+03  0.44984028029E+03  0.62164996389E+03  0.89476507076E+02 0.  0.
         23    2    4    4    0    0 -0.93609228776E+01 -0.49471230550E+03  0.10077384912E+04  0.11262834553E+04  0.90275482593E+02 0.  0.
          4    1    3    3  502    0  0.15166266978E+03  0.12346401708E+03  0.25144486415E+03  0.31854269514E+03  0.00000000000E+00 0. -1.
         -3    1    3    3    0  502  0.14042433463E+03  0.61163917097E+02  0.12157742992E+03  0.19555329191E+03  0.00000000000E+00 0.  1.
         13    1    5    5    0    0 -0.88673512313E+02  0.16283371407E+03  0.18967183611E+03  0.26524180598E+03  0.00000000000E+00 0. -1.
        -13    1    5    5    0    0 -0.19405256922E+03  0.14725065725E+03  0.26016844418E+03  0.35640815791E+03  0.00000000000E+00 0.  1.
          1    1    6    6  503    0 -0.25848959166E+02 -0.46016315414E+02  0.84027636146E+02  0.99228592707E+02  0.00000000000E+00 0. -1.
         -1    1    6    6    0  503  0.16488036288E+02 -0.44869599008E+03  0.92371085510E+03  0.10270548625E+04  0.00000000000E+00 0.  1.
<mgrwt>
<rscale>  0 0.13287877E+04</rscale>
<asrwt>0</asrwt>
<pdfrwt beam="1">  1        2 0.31481772E+00 0.13287877E+04</pdfrwt>
<pdfrwt beam="2">  1       -1 0.33186797E-01 0.13287877E+04</pdfrwt>
<totfact> 0.59933906E+01</totfact>
</mgrwt>
</event>
<event>
12    7  0.2426980E-007  0.1224682E+04  0.7818608E-02  0.9091522E-01
         -1   -1    0    0    0  501 -0.00000000000E+00  0.00000000000E+00  0.38532450457E+03  0.38532450457E+03  0.00000000000E+00 0.  1.
          2   -1    0    0  501    0  0.00000000000E+00 -0.00000000000E+00 -0.97310642057E+03  0.97310642057E+03  0.00000000000E+00 0. -1.
         24    2    1    2    0    0 -0.16272226227E+03  0.20309174198E+03 -0.23038338998E+03  0.35607578508E+03  0.77386484889E+02 0.  0.
        254    2    1    2    0    0  0.16272226227E+03 -0.20309174198E+03 -0.35739852602E+03  0.10023551401E+04  0.89958731099E+03 0.  0.
         23    2    4    4    0    0  0.22337134530E+03 -0.51371551244E+03 -0.82375329167E+02  0.57345713054E+03  0.90934042498E+02 0.  0.
         23    2    4    4    0    0 -0.60649083029E+02  0.31062377046E+03 -0.27502319686E+03  0.42889800952E+03  0.90279043617E+02 0.  0.
          4    1    3    3  502    0 -0.66690869042E+02  0.85312343124E+02 -0.14748292173E+03  0.18296742909E+03  0.00000000000E+00 0. -1.
         -3    1    3    3    0  502 -0.96031393225E+02  0.11777939886E+03 -0.82900468247E+02  0.17310835599E+03  0.00000000000E+00 0.  1.
         13    1    5    5    0    0  0.10908719466E+02 -0.15519954876E+02 -0.21131757679E+02  0.28397541132E+02  0.00000000000E+00 0. -1.
        -13    1    5    5    0    0  0.21246262583E+03 -0.49819555756E+03 -0.61243571488E+02  0.54505958940E+03  0.00000000000E+00 0.  1.
          3    1    6    6  503    0 -0.33840038318E+02  0.40113827592E+02 -0.19998760057E+02  0.56162423035E+02  0.00000000000E+00 0. -1.
         -3    1    6    6    0  503 -0.26809044711E+02  0.27050994287E+03 -0.25502443680E+03  0.37273558649E+03  0.00000000000E+00 0.  1.
<mgrwt>
<rscale>  0 0.12246824E+04</rscale>
<asrwt>0</asrwt>
<pdfrwt beam="1">  1        2 0.14970868E+00 0.12246824E+04</pdfrwt>
<pdfrwt beam="2">  1       -1 0.59280694E-01 0.12246824E+04</pdfrwt>
<totfact> 0.85002707E+01</totfact>
</mgrwt>
</event>
<event>
12    7  0.2426980E-007  0.1525318E+04  0.7818608E-02  0.8867789E-01
         -3   -1    0    0    0  501 -0.00000000000E+00  0.00000000000E+00  0.50554043957E+03  0.50554043957E+03  0.00000000000E+00 0.  1.
          2   -1    0    0  501    0  0.00000000000E+00 -0.00000000000E+00 -0.11505485553E+04  0.11505485553E+04  0.00000000000E+00 0. -1.
         24    2    1    2    0    0 -0.43268608651E+03 -0.23017272164E+02 -0.46601795107E+03  0.64137124225E+03  0.80232757588E+02 0.  0.
        254    2    1    2    0    0  0.43268608651E+03  0.23017272164E+02 -0.17899016462E+03  0.10147177526E+04  0.89992643815E+03 0.  0.
         23    2    4    4    0    0  0.39145794007E+02 -0.39984989906E+03 -0.10717678110E+03  0.42579045935E+03  0.91642336827E+02 0.  0.
         23    2    4    4    0    0  0.39354029250E+03  0.42286717123E+03 -0.71813383514E+02  0.58892729322E+03  0.89373308782E+02 0.  0.
          2    1    3    3  502    0 -0.13993600932E+03 -0.15594986378E+02 -0.20739494273E+03  0.25067499392E+03  0.00000000000E+00 0. -1.
         -1    1    3    3    0  502 -0.29275007718E+03 -0.74222857866E+01 -0.25862300833E+03  0.39069624833E+03  0.00000000000E+00 0.  1.
         13    1    5    5    0    0  0.31568327412E+02 -0.12869165423E+03 -0.75962431849E+02  0.15273634871E+03  0.00000000000E+00 0.  1.
        -13    1    5    5    0    0  0.75774665951E+01 -0.27115824483E+03 -0.31214349254E+02  0.27305411065E+03  0.00000000000E+00 0. -1.
          1    1    6    6  503    0  0.30360378403E+03  0.26820320037E+03 -0.61213911163E+02  0.40970154660E+03  0.00000000000E+00 0. -1.
         -1    1    6    6    0  503  0.89936508469E+02  0.15466397085E+03 -0.10599472351E+02  0.17922574661E+03  0.00000000000E+00 0.  1.
<mgrwt>
<rscale>  0 0.15253181E+04</rscale>
<asrwt>0</asrwt>
<pdfrwt beam="1">  1        2 0.17700747E+00 0.15253181E+04</pdfrwt>
<pdfrwt beam="2">  1       -3 0.77775452E-01 0.15253181E+04</pdfrwt>
<totfact> 0.19269381E+01</totfact>
</mgrwt>
</event>
<event>
12    7  0.2426980E-007  0.3559656E+04  0.7818608E-02  0.8099796E-01
          2   -1    0    0  501    0  0.00000000000E+00  0.00000000000E+00  0.37231779076E+04  0.37231779076E+04  0.00000000000E+00 0. -1.
         -1   -1    0    0    0  501 -0.00000000000E+00 -0.00000000000E+00 -0.85082907160E+03  0.85082907160E+03  0.00000000000E+00 0.  1.
         24    2    1    2    0    0  0.38998861059E+03  0.15539430274E+04  0.19277036506E+04  0.25079237572E+04  0.82523685504E+02 0.  0.
        254    2    1    2    0    0 -0.38998861059E+03 -0.15539430274E+04  0.94464518540E+03  0.20660832220E+04  0.89973068471E+03 0.  0.
         23    2    4    4    0    0  0.13140303894E+03  0.30647044523E+02  0.52024754344E+02  0.17191773916E+03  0.92968456972E+02 0.  0.
         23    2    4    4    0    0 -0.52139164953E+03 -0.15845900719E+04  0.89262043106E+03  0.18941654828E+04  0.91195910583E+02 0.  0.
          2    1    3    3  502    0  0.12547129961E+03  0.51313112266E+03  0.69690215018E+03  0.87448224853E+03  0.00000000000E+00 0. -1.
         -1    1    3    3    0  502  0.26451731098E+03  0.10408119048E+04  0.12308015004E+04  0.16334415087E+04  0.00000000000E+00 0.  1.
         13    1    5    5    0    0  0.95777552656E+02  0.63668190478E+02  0.32006843958E+02  0.11937929524E+03  0.00000000000E+00 0.  1.
        -13    1    5    5    0    0  0.35625486280E+02 -0.33021145955E+02  0.20017910386E+02  0.52538443916E+02  0.00000000000E+00 0. -1.
          4    1    6    6  503    0 -0.46035980273E+03 -0.13195454018E+04  0.77254044694E+03  0.15968562733E+04  0.00000000000E+00 0.  1.
         -4    1    6    6    0  503 -0.61031846806E+02 -0.26504467010E+03  0.12007998411E+03  0.29730920951E+03  0.00000000000E+00 0. -1.
<mgrwt>
<rscale>  0 0.35596562E+04</rscale>
<asrwt>0</asrwt>
<pdfrwt beam="1">  1        2 0.57279659E+00 0.35596562E+04</pdfrwt>
<pdfrwt beam="2">  1       -1 0.13089678E+00 0.35596562E+04</pdfrwt>
<totfact> 0.25895200E-01</totfact>
</mgrwt>
</event>
<event>
12    7  0.2426980E-007  0.1852241E+04  0.7818608E-02  0.8679001E-01
          2   -1    0    0  501    0  0.00000000000E+00  0.00000000000E+00  0.11436221058E+04  0.11436221058E+04  0.00000000000E+00 0. -1.
         -1   -1    0    0    0  501 -0.00000000000E+00 -0.00000000000E+00 -0.74998444899E+03  0.74998444899E+03  0.00000000000E+00 0.  1.
         24    2    1    2    0    0  0.11877246935E+03  0.67060264690E+03  0.33576313518E+03  0.76371907020E+03  0.81945870864E+02 0.  0.
        254    2    1    2    0    0 -0.11877246935E+03 -0.67060264690E+03  0.57874521615E+02  0.11298874846E+04  0.89971187501E+03 0.  0.
         23    2    4    4    0    0 -0.10988113950E+03  0.91747632346E+02  0.28224999171E+03  0.33036196328E+03  0.94775925764E+02 0.  0.
         23    2    4    4    0    0 -0.88913298568E+01 -0.76235027924E+03 -0.22437547010E+03  0.79952552129E+03  0.87405398007E+02 0.  0.
          2    1    3    3  502    0  0.86752605973E+02  0.38275298290E+03  0.23293239433E+03  0.45638071924E+03  0.00000000000E+00 0. -1.
         -1    1    3    3    0  502  0.32019863381E+02  0.28784966399E+03  0.10283074084E+03  0.30733835096E+03  0.00000000000E+00 0.  1.
         13    1    5    5    0    0 -0.95403602666E+02  0.23666014342E+02  0.13020030857E+03  0.16313812549E+03  0.00000000000E+00 0.  1.
        -13    1    5    5    0    0 -0.14477536832E+02  0.68081618004E+02  0.15204968314E+03  0.16722383779E+03  0.00000000000E+00 0. -1.
          1    1    6    6  503    0 -0.39646868047E+02 -0.26670536108E+03 -0.58052793505E+02  0.27581470339E+03  0.00000000000E+00 0. -1.
         -1    1    6    6    0  503  0.30755538190E+02 -0.49564491817E+03 -0.16632267659E+03  0.52371081790E+03  0.00000000000E+00 0.  1.
<mgrwt>
<rscale>  0 0.18522406E+04</rscale>
<asrwt>0</asrwt>
<pdfrwt beam="1">  1        2 0.17594186E+00 0.18522406E+04</pdfrwt>
<pdfrwt beam="2">  1       -1 0.11538222E+00 0.18522406E+04</pdfrwt>
<totfact> 0.14956819E+01</totfact>
</mgrwt>
</event>
<event>
12    7  0.2426980E-007  0.2834523E+04  0.7818608E-02  0.8292630E-01
         -1   -1    0    0    0  501 -0.00000000000E+00  0.00000000000E+00  0.86368768976E+03  0.86368768976E+03  0.00000000000E+00 0.  1.
          2   -1    0    0  501    0  0.00000000000E+00 -0.00000000000E+00 -0.23256438120E+04  0.23256438120E+04  0.00000000000E+00 0. -1.
         24    2    1    2    0    0  0.65707426981E+03  0.10859368251E+04 -0.77254848261E+03  0.14882903217E+04  0.84684944129E+02 0.  0.
        254    2    1    2    0    0 -0.65707426981E+03 -0.10859368251E+04 -0.68940763963E+03  0.17010411800E+04  0.89847249178E+03 0.  0.
         23    2    4    4    0    0 -0.35929298313E+03 -0.21466495131E+03 -0.64555314690E+03  0.77464289027E+03  0.90334118265E+02 0.  0.
         23    2    4    4    0    0 -0.29778128668E+03 -0.87127187374E+03 -0.43854492731E+02  0.92639828975E+03  0.92207386125E+02 0.  0.
          2    1    3    3  502    0  0.37894124544E+03  0.60658380766E+03 -0.48273946359E+03  0.86288920084E+03  0.00000000000E+00 0. -1.
         -1    1    3    3    0  502  0.27813302437E+03  0.47935301739E+03 -0.28980901902E+03  0.62540112090E+03  0.00000000000E+00 0.  1.
         13    1    5    5    0    0 -0.26144387943E+02 -0.50277734815E+02 -0.84036768051E+02  0.10135856167E+03  0.00000000000E+00 0.  1.
        -13    1    5    5    0    0 -0.33314859519E+03 -0.16438721650E+03 -0.56151637885E+03  0.67328432860E+03  0.00000000000E+00 0. -1.
          1    1    6    6  503    0 -0.28848870979E+03 -0.86920079593E+03 -0.42889231383E+02  0.91682890743E+03  0.00000000000E+00 0. -1.
         -1    1    6    6    0  503 -0.92925768936E+01 -0.20710778058E+01 -0.96526134735E+00  0.95693823243E+01  0.00000000000E+00 0.  1.
<mgrwt>
<rscale>  0 0.28345228E+04</rscale>
<asrwt>0</asrwt>
<pdfrwt beam="1">  1        2 0.35779134E+00 0.28345228E+04</pdfrwt>
<pdfrwt beam="2">  1       -1 0.13287503E+00 0.28345228E+04</pdfrwt>
<totfact> 0.20746260E+00</totfact>
</mgrwt>
</event>
<event>
12    7  0.2426980E-007  0.2476698E+04  0.7818608E-02  0.8411334E-01
          2   -1    0    0  501    0  0.00000000000E+00  0.00000000000E+00  0.22205234700E+04  0.22205234700E+04  0.00000000000E+00 0. -1.
         -1   -1    0    0    0  501 -0.00000000000E+00 -0.00000000000E+00 -0.69060657211E+03  0.69060657211E+03  0.00000000000E+00 0.  1.
         24    2    1    2    0    0  0.77116484719E+03  0.54240741596E+03  0.63864277210E+02  0.94816664121E+03  0.77719413110E+02 0.  0.
        254    2    1    2    0    0 -0.77116484719E+03 -0.54240741596E+03  0.14660526207E+04  0.19629634009E+04  0.90278125824E+03 0.  0.
         23    2    4    4    0    0 -0.14865512087E+03 -0.61316852552E+03  0.95338702675E+03  0.11470299881E+04  0.93042921716E+02 0.  0.
         23    2    4    4    0    0 -0.62250972632E+03  0.70761109565E+02  0.51266559394E+03  0.81593341276E+03  0.10195993751E+03 0.  0.
          2    1    3    3  502    0  0.55051440620E+03  0.42624319520E+03  0.34659862023E+02  0.69710162739E+03  0.00000000000E+00 0. -1.
         -1    1    3    3    0  502  0.22065044100E+03  0.11616422076E+03  0.29204415187E+02  0.25106501382E+03  0.00000000000E+00 0.  1.
         13    1    5    5    0    0 -0.42972011336E+02 -0.36188684556E+03  0.51821411788E+03  0.63352549650E+03  0.00000000000E+00 0.  1.
        -13    1    5    5    0    0 -0.10568310954E+03 -0.25128167996E+03  0.43517290887E+03  0.51350449164E+03  0.00000000000E+00 0. -1.
          4    1    6    6  503    0 -0.55635862733E+03  0.80083995140E+02  0.48909565075E+03  0.74509256074E+03  0.00000000000E+00 0.  1.
         -4    1    6    6    0  503 -0.66151098989E+02 -0.93228855750E+01  0.23569943182E+02  0.70840852017E+02  0.00000000000E+00 0. -1.
<mgrwt>
<rscale>  0 0.24766979E+04</rscale>
<asrwt>0</asrwt>
<pdfrwt beam="1">  1        2 0.34161899E+00 0.24766979E+04</pdfrwt>
<pdfrwt beam="2">  1       -1 0.10624717E+00 0.24766979E+04</pdfrwt>
<totfact> 0.42325896E+00</totfact>
</mgrwt>
</event>
<event>
12    7  0.2426980E-007  0.2403121E+04  0.7818608E-02  0.8438336E-01
          2   -1    0    0  501    0  0.00000000000E+00  0.00000000000E+00  0.45807064965E+04  0.45807064965E+04  0.00000000000E+00 0. -1.
         -1   -1    0    0    0  501 -0.00000000000E+00 -0.00000000000E+00 -0.31518000346E+03  0.31518000346E+03  0.00000000000E+00 0.  1.
         24    2    1    2    0    0  0.11169800839E+03 -0.87354958912E+03  0.74512117382E+03  0.11571390421E+04  0.90553130446E+02 0.  0.
        254    2    1    2    0    0 -0.11169800839E+03  0.87354958912E+03  0.35204053192E+04  0.37387474578E+04  0.89967416992E+03 0.  0.
         23    2    4    4    0    0  0.13360405454E+03  0.53843974603E+03  0.30623246252E+04  0.31135322976E+04  0.92107842286E+02 0.  0.
         23    2    4    4    0    0 -0.24530206294E+03  0.33510984309E+03  0.45808069403E+03  0.62521516023E+03  0.92651850055E+02 0.  0.
          4    1    3    3  502    0  0.70843851081E+02 -0.73884308015E+03  0.59437888116E+03  0.95089126755E+03  0.00000000000E+00 0. -1.
         -3    1    3    3    0  502  0.40854157313E+02 -0.13470650897E+03  0.15074229266E+03  0.20624777459E+03  0.00000000000E+00 0.  1.
         13    1    5    5    0    0 -0.14144294535E+02  0.58090073937E+02  0.33291206245E+03  0.33823802135E+03  0.00000000000E+00 0.  1.
        -13    1    5    5    0    0  0.14774834908E+03  0.48034967209E+03  0.27294125627E+04  0.27752942762E+04  0.00000000000E+00 0. -1.
          4    1    6    6  503    0 -0.13252601079E+03  0.15377198805E+03  0.15968514066E+03  0.25827952299E+03  0.00000000000E+00 0. -1.
         -4    1    6    6    0  503 -0.11277605214E+03  0.18133785504E+03  0.29839555337E+03  0.36693563724E+03  0.00000000000E+00 0.  1.
<mgrwt>
<rscale>  0 0.24031205E+04</rscale>
<asrwt>0</asrwt>
<pdfrwt beam="1">  1        2 0.70472403E+00 0.24031205E+04</pdfrwt>
<pdfrwt beam="2">  1       -1 0.48489235E-01 0.24031205E+04</pdfrwt>
<totfact> 0.44864358E-01</totfact>
</mgrwt>
</event>
<event>
12    7  0.2426980E-007  0.2650347E+04  0.7818608E-02  0.8351298E-01
          2   -1    0    0  501    0  0.00000000000E+00  0.00000000000E+00  0.30891852429E+04  0.30891852429E+04  0.00000000000E+00 0. -1.
         -1   -1    0    0    0  501 -0.00000000000E+00 -0.00000000000E+00 -0.56846199968E+03  0.56846199968E+03  0.00000000000E+00 0.  1.
         24    2    1    2    0    0 -0.59228332841E+03  0.94478187182E+03  0.62300860817E+03  0.12798979341E+04  0.81158298648E+02 0.  0.
        254    2    1    2    0    0  0.59228332841E+03 -0.94478187182E+03  0.18977146350E+04  0.23777493084E+04  0.89942126470E+03 0.  0.
         23    2    4    4    0    0  0.60979322536E+03 -0.69893805404E+03  0.73815459038E+03  0.11890659543E+04  0.92970227930E+02 0.  0.
         23    2    4    4    0    0 -0.17509896951E+02 -0.24584381778E+03  0.11595600446E+04  0.11886833541E+04  0.87423338260E+02 0.  0.
          4    1    3    3  502    0 -0.21374916331E+03  0.40779817287E+03  0.23580453004E+03  0.51729279040E+03  0.00000000000E+00 0. -1.
         -3    1    3    3    0  502 -0.37853416510E+03  0.53698369895E+03  0.38720407813E+03  0.76260514371E+03  0.00000000000E+00 0.  1.
         13    1    5    5    0    0  0.51388005912E+03 -0.54422707826E+03  0.56467969549E+03  0.93761345253E+03  0.00000000000E+00 0. -1.
        -13    1    5    5    0    0  0.95913166245E+02 -0.15471097578E+03  0.17347489489E+03  0.25145250176E+03  0.00000000000E+00 0.  1.
          4    1    6    6  503    0 -0.44664070509E+02 -0.21711081971E+03  0.10041788894E+04  0.10283517050E+04  0.00000000000E+00 0. -1.
         -4    1    6    6    0  503  0.27154173558E+02 -0.28732998076E+02  0.15538115521E+03  0.16033164914E+03  0.00000000000E+00 0.  1.
<mgrwt>
<rscale>  0 0.26503467E+04</rscale>
<asrwt>0</asrwt>
<pdfrwt beam="1">  1        2 0.47525926E+00 0.26503467E+04</pdfrwt>
<pdfrwt beam="2">  1       -1 0.87455694E-01 0.26503467E+04</pdfrwt>
<totfact> 0.19698502E+00</totfact>
</mgrwt>
</event>
<event>
12    7  0.2426980E-007  0.4155475E+04  0.7818608E-02  0.7973896E-01
          2   -1    0    0  501    0  0.00000000000E+00  0.00000000000E+00  0.24033671212E+04  0.24033671212E+04  0.00000000000E+00 0. -1.
         -1   -1    0    0    0  501 -0.00000000000E+00 -0.00000000000E+00 -0.17962266689E+04  0.17962266689E+04  0.00000000000E+00 0.  1.
         24    2    1    2    0    0  0.73217517182E+03  0.15519185417E+04 -0.70825489586E+03  0.18580870445E+04  0.79566483236E+02 0.  0.
        254    2    1    2    0    0 -0.73217517182E+03 -0.15519185417E+04  0.13153953482E+04  0.23415067456E+04  0.89880880915E+03 0.  0.
         23    2    4    4    0    0 -0.78483251986E+03 -0.10637138280E+04  0.56595506587E+03  0.14409649358E+04  0.92874203197E+02 0.  0.
         23    2    4    4    0    0  0.52657348046E+02 -0.48820471365E+03  0.74944028236E+03  0.90054180976E+03  0.90543777109E+02 0.  0.
          4    1    3    3  502    0  0.39582997074E+03  0.84130811953E+03 -0.42656391602E+03  0.10229552738E+04  0.00000000000E+00 0. -1.
         -3    1    3    3    0  502  0.33634520108E+03  0.71061042212E+03 -0.28169097985E+03  0.83513177071E+03  0.00000000000E+00 0.  1.
         13    1    5    5    0    0 -0.68525089295E+03 -0.90895212238E+03  0.51893044161E+03  0.12510202038E+04  0.00000000000E+00 0.  1.
        -13    1    5    5    0    0 -0.99581626915E+02 -0.15476170562E+03  0.47024624259E+02  0.18994473205E+03  0.00000000000E+00 0. -1.
          3    1    6    6  503    0 -0.38483452940E+01 -0.33039968680E+03  0.46618079554E+03  0.57140467003E+03  0.00000000000E+00 0. -1.
         -3    1    6    6    0  503  0.56505693340E+02 -0.15780502684E+03  0.28325948682E+03  0.32913713973E+03  0.00000000000E+00 0.  1.
<mgrwt>
<rscale>  0 0.41554745E+04</rscale>
<asrwt>0</asrwt>
<pdfrwt beam="1">  1        2 0.36974879E+00 0.41554745E+04</pdfrwt>
<pdfrwt beam="2">  1       -1 0.27634256E+00 0.41554745E+04</pdfrwt>
<totfact> 0.16477753E-01</totfact>
</mgrwt>
</event>
<event>
12    7  0.2426980E-007  0.1116153E+04  0.7818608E-02  0.9189590E-01
          2   -1    0    0  501    0  0.00000000000E+00  0.00000000000E+00  0.19904736250E+04  0.19904736250E+04  0.00000000000E+00 0. -1.
         -1   -1    0    0    0  501 -0.00000000000E+00 -0.00000000000E+00 -0.15646988551E+03  0.15646988551E+03  0.00000000000E+00 0.  1.
         24    2    1    2    0    0 -0.10691772601E+03  0.10441847933E+02  0.45351358853E+02  0.14168729464E+03  0.80486715604E+02 0.  0.
        254    2    1    2    0    0  0.10691772601E+03 -0.10441847933E+02  0.17886523806E+04  0.20052562159E+04  0.90013039066E+03 0.  0.
         23    2    4    4    0    0  0.91757234850E+02  0.43205361079E+03  0.80785732371E+03  0.92519711354E+03  0.90920463500E+02 0.  0.
         23    2    4    4    0    0  0.15160491160E+02 -0.44249545872E+03  0.98079505691E+03  0.10800591023E+04  0.92393989830E+02 0.  0.
          2    1    3    3  502    0 -0.59578577379E+01  0.94548784379E+01  0.38948173572E+02  0.40519760854E+02  0.00000000000E+00 0. -1.
         -1    1    3    3    0  502 -0.10095986827E+03  0.98696949502E+00  0.64031852819E+01  0.10116753379E+03  0.00000000000E+00 0.  1.
         13    1    5    5    0    0  0.92117994369E+02  0.22557073243E+03  0.40951191008E+03  0.47651640550E+03  0.00000000000E+00 0.  1.
        -13    1    5    5    0    0 -0.36075951833E+00  0.20648287836E+03  0.39834541363E+03  0.44868070804E+03  0.00000000000E+00 0. -1.
          1    1    6    6  503    0  0.45997694111E+02 -0.36274960569E+03  0.76333436802E+03  0.84639377461E+03  0.00000000000E+00 0. -1.
         -1    1    6    6    0  503 -0.30837202951E+02 -0.79745853033E+02  0.21746068889E+03  0.23366532771E+03  0.00000000000E+00 0.  1.
<mgrwt>
<rscale>  0 0.11161526E+04</rscale>
<asrwt>0</asrwt>
<pdfrwt beam="1">  1        2 0.30622669E+00 0.11161526E+04</pdfrwt>
<pdfrwt beam="2">  1       -1 0.24072291E-01 0.11161526E+04</pdfrwt>
<totfact> 0.11443581E+02</totfact>
</mgrwt>
</event>
<event>
12    7  0.2426980E-007  0.5200189E+04  0.7818608E-02  0.7798347E-01
         -1   -1    0    0    0  501 -0.00000000000E+00  0.00000000000E+00  0.24817024276E+04  0.24817024276E+04  0.00000000000E+00 0.  1.
          2   -1    0    0  501    0  0.00000000000E+00 -0.00000000000E+00 -0.27241350538E+04  0.27241350538E+04  0.00000000000E+00 0. -1.
         24    2    1    2    0    0  0.15441237360E+04 -0.90466172705E+03 -0.18939164374E+04  0.26069027410E+04  0.79318828927E+02 0.  0.
        254    2    1    2    0    0 -0.15441237360E+04  0.90466172705E+03  0.16514838112E+04  0.25989347404E+04  0.90792733927E+03 0.  0.
         23    2    4    4    0    0 -0.11548508958E+04  0.10509978280E+04  0.14295030458E+04  0.21190369844E+04  0.92529765697E+02 0.  0.
         23    2    4    4    0    0 -0.38927284027E+03 -0.14633610093E+03  0.22198076544E+03  0.47989775596E+03  0.89882130255E+02 0.  0.
          2    1    3    3  502    0  0.50501948912E+03 -0.25982386364E+03 -0.57190729247E+03  0.80599694521E+03  0.00000000000E+00 0. -1.
         -1    1    3    3    0  502  0.10391042469E+04 -0.64483786341E+03 -0.13220091449E+04  0.18009057958E+04  0.00000000000E+00 0.  1.
         13    1    5    5    0    0 -0.98293372164E+03  0.88792301613E+03  0.11663282619E+04  0.17649044162E+04  0.00000000000E+00 0.  1.
        -13    1    5    5    0    0 -0.17191717413E+03  0.16307481185E+03  0.26317478388E+03  0.35413256824E+03  0.00000000000E+00 0. -1.
          3    1    6    6  503    0 -0.63291214623E+02 -0.32048652272E+02  0.32139232219E+01  0.71015655059E+02  0.00000000000E+00 0. -1.
         -3    1    6    6    0  503 -0.32598162565E+03 -0.11428744866E+03  0.21876684222E+03  0.40888210090E+03  0.00000000000E+00 0.  1.
<mgrwt>
<rscale>  0 0.52001894E+04</rscale>
<asrwt>0</asrwt>
<pdfrwt beam="1">  1        2 0.41909770E+00 0.52001894E+04</pdfrwt>
<pdfrwt beam="2">  1       -1 0.38180038E+00 0.52001894E+04</pdfrwt>
<totfact> 0.19925166E-02</totfact>
</mgrwt>
</event>
<event>
12    7  0.2426980E-007  0.2487414E+04  0.7818608E-02  0.8407483E-01
         -1   -1    0    0    0  501 -0.00000000000E+00  0.00000000000E+00  0.12167548079E+04  0.12167548079E+04  0.00000000000E+00 0.  1.
          2   -1    0    0  501    0  0.00000000000E+00 -0.00000000000E+00 -0.12712566401E+04  0.12712566401E+04  0.00000000000E+00 0. -1.
         24    2    1    2    0    0 -0.88466354947E+03  0.34246218811E+03  0.49087897738E+03  0.10711067093E+04  0.79984162861E+02 0.  0.
        254    2    1    2    0    0  0.88466354947E+03 -0.34246218811E+03 -0.54538080965E+03  0.14169047387E+04  0.90014935696E+03 0.  0.
         23    2    4    4    0    0  0.10165087050E+04 -0.37188443018E+03 -0.60540757076E+03  0.12433224925E+04  0.88002935991E+02 0.  0.
         23    2    4    4    0    0 -0.13184515555E+03  0.29422242068E+02  0.60026761109E+02  0.17358224619E+03  0.90987750690E+02 0.  0.
          4    1    3    3  502    0 -0.35609274690E+03  0.96355694582E+02  0.18511207226E+03  0.41273834759E+03  0.00000000000E+00 0. -1.
         -3    1    3    3    0  502 -0.52857080257E+03  0.24610649353E+03  0.30576690512E+03  0.65836836175E+03  0.00000000000E+00 0.  1.
         13    1    5    5    0    0  0.57061585848E+03 -0.17428843474E+03 -0.36676596410E+03  0.70035433093E+03  0.00000000000E+00 0. -1.
        -13    1    5    5    0    0  0.44589284654E+03 -0.19759599544E+03 -0.23864160666E+03  0.54296816153E+03  0.00000000000E+00 0.  1.
          2    1    6    6  503    0 -0.13964584046E+03  0.81995893817E+01  0.55662683206E+02  0.15055407110E+03  0.00000000000E+00 0. -1.
         -2    1    6    6    0  503  0.78006849138E+01  0.21222652686E+02  0.43640779031E+01  0.23028175093E+02  0.00000000000E+00 0.  1.
<mgrwt>
<rscale>  0 0.24874144E+04</rscale>
<asrwt>0</asrwt>
<pdfrwt beam="1">  1        2 0.19557794E+00 0.24874144E+04</pdfrwt>
<pdfrwt beam="2">  1       -1 0.18719305E+00 0.24874144E+04</pdfrwt>
<totfact> 0.32334179E+00</totfact>
</mgrwt>
</event>
<event>
12    7  0.2426980E-007  0.2183163E+04  0.7818608E-02  0.8525469E-01
         -1   -1    0    0    0  501 -0.00000000000E+00  0.00000000000E+00  0.56542225276E+03  0.56542225276E+03  0.00000000000E+00 0.  1.
          2   -1    0    0  501    0  0.00000000000E+00 -0.00000000000E+00 -0.21073636292E+04  0.21073636292E+04  0.00000000000E+00 0. -1.
         24    2    1    2    0    0 -0.77110718436E+03  0.19333824845E+03 -0.11679935026E+04  0.14151610319E+04  0.80535433353E+02 0.  0.
        254    2    1    2    0    0  0.77110718436E+03 -0.19333824845E+03 -0.37394787382E+03  0.12576248500E+04  0.89988737242E+03 0.  0.
         23    2    4    4    0    0  0.71071016506E+03 -0.13905358002E+03  0.12739049417E+03  0.74154232797E+03  0.95978379501E+02 0.  0.
         23    2    4    4    0    0  0.60397019299E+02 -0.54284668427E+02 -0.50133836798E+03  0.51608252207E+03  0.91686341463E+02 0.  0.
          4    1    3    3  502    0 -0.35233757581E+03  0.90855982857E+02 -0.60601740380E+03  0.70686184694E+03  0.00000000000E+00 0. -1.
         -3    1    3    3    0  502 -0.41876960855E+03  0.10248226559E+03 -0.56197609885E+03  0.70829918500E+03  0.00000000000E+00 0.  1.
         13    1    5    5    0    0  0.24637510132E+03 -0.26553975251E+01  0.50652699759E+02  0.25154211909E+03  0.00000000000E+00 0. -1.
        -13    1    5    5    0    0  0.46433506374E+03 -0.13639818250E+03  0.76737794408E+02  0.49000020888E+03  0.00000000000E+00 0.  1.
          2    1    6    6  503    0  0.10233022578E+01 -0.62227169731E+02 -0.23620835894E+03  0.24426963920E+03  0.00000000000E+00 0. -1.
         -2    1    6    6    0  503  0.59373717041E+02  0.79425013042E+01 -0.26513000904E+03  0.27181288287E+03  0.00000000000E+00 0.  1.
<mgrwt>
<rscale>  0 0.21831631E+04</rscale>
<asrwt>0</asrwt>
<pdfrwt beam="1">  1        2 0.32420978E+00 0.21831631E+04</pdfrwt>
<pdfrwt beam="2">  1       -1 0.86988041E-01 0.21831631E+04</pdfrwt>
<totfact> 0.78929503E+00</totfact>
</mgrwt>
</event>
<event>
12    7  0.2426980E-007  0.1217681E+04  0.7818608E-02  0.9097520E-01
          2   -1    0    0  501    0  0.00000000000E+00  0.00000000000E+00  0.19070966172E+04  0.19070966172E+04  0.00000000000E+00 0. -1.
         -1   -1    0    0    0  501 -0.00000000000E+00 -0.00000000000E+00 -0.19437229180E+03  0.19437229180E+03  0.00000000000E+00 0.  1.
         24    2    1    2    0    0 -0.93193957055E+02  0.24978898900E+03  0.33328625243E+03  0.43429350933E+03  0.80321065305E+02 0.  0.
        254    2    1    2    0    0  0.93193957055E+02 -0.24978898900E+03  0.13794380729E+04  0.16671753996E+04  0.89752145568E+03 0.  0.
         23    2    4    4    0    0 -0.20815377644E+03  0.18877351845E+03  0.16589498728E+03  0.33897214827E+03  0.91747123028E+02 0.  0.
         23    2    4    4    0    0  0.30134773349E+03 -0.43856250745E+03  0.12135430857E+04  0.13282032514E+04  0.91046838221E+02 0.  0.
          4    1    3    3  502    0 -0.24607804759E+02  0.61917242606E+01  0.30082746897E+02  0.39355471859E+02  0.00000000000E+00 0. -1.
         -3    1    3    3    0  502 -0.68586152296E+02  0.24359726474E+03  0.30320350553E+03  0.39493803747E+03  0.00000000000E+00 0.  1.
         13    1    5    5    0    0 -0.12512609234E+03  0.16622732395E+03  0.13259851429E+03  0.24671933082E+03  0.00000000000E+00 0. -1.
        -13    1    5    5    0    0 -0.83027684095E+02  0.22546194507E+02  0.33296472995E+02  0.92252817447E+02  0.00000000000E+00 0.  1.
          2    1    6    6  503    0  0.17470169474E+03 -0.27369132110E+03  0.63034785868E+03  0.70905997231E+03  0.00000000000E+00 0. -1.
         -2    1    6    6    0  503  0.12664603875E+03 -0.16487118635E+03  0.58319522699E+03  0.61914327905E+03  0.00000000000E+00 0.  1.
<mgrwt>
<rscale>  0 0.12176810E+04</rscale>
<asrwt>0</asrwt>
<pdfrwt beam="1">  1        2 0.29339947E+00 0.12176810E+04</pdfrwt>
<pdfrwt beam="2">  1       -1 0.29903431E-01 0.12176810E+04</pdfrwt>
<totfact> 0.86762083E+01</totfact>
</mgrwt>
</event>
<event>
12    7  0.2426980E-007  0.2501600E+04  0.7818608E-02  0.8402416E-01
          2   -1    0    0  501    0  0.00000000000E+00  0.00000000000E+00  0.16848242030E+04  0.16848242030E+04  0.00000000000E+00 0. -1.
         -1   -1    0    0    0  501 -0.00000000000E+00 -0.00000000000E+00 -0.92858366074E+03  0.92858366074E+03  0.00000000000E+00 0.  1.
         24    2    1    2    0    0 -0.73529246188E+03  0.60385329101E+03 -0.21986005107E+03  0.97963747658E+03  0.77828927195E+02 0.  0.
        254    2    1    2    0    0  0.73529246188E+03 -0.60385329101E+03  0.97610059328E+03  0.16337703871E+04  0.90063283752E+03 0.  0.
         23    2    4    4    0    0  0.37093740320E+03 -0.53909297402E+01  0.82628503082E+03  0.91046449525E+03  0.92601434831E+02 0.  0.
         23    2    4    4    0    0  0.36435505869E+03 -0.59846236127E+03  0.14981556246E+03  0.72330589186E+03  0.99070196336E+02 0.  0.
          2    1    3    3  502    0 -0.33633521489E+03  0.30969506518E+03 -0.13529057536E+03  0.47679759852E+03  0.00000000000E+00 0. -1.
         -1    1    3    3    0  502 -0.39895724700E+03  0.29415822583E+03 -0.84569475705E+02  0.50283987807E+03  0.00000000000E+00 0.  1.
         13    1    5    5    0    0  0.17296114604E+03 -0.44024239264E+02  0.33980762221E+03  0.38382666894E+03  0.00000000000E+00 0. -1.
        -13    1    5    5    0    0  0.19797625716E+03  0.38633309523E+02  0.48647740861E+03  0.52663782630E+03  0.00000000000E+00 0.  1.
          2    1    6    6  503    0  0.27950402123E+03 -0.49002704640E+03  0.82815173675E+02  0.57018186316E+03  0.00000000000E+00 0. -1.
         -2    1    6    6    0  503  0.84851037451E+02 -0.10843531487E+03  0.67000388789E+02  0.15312402870E+03  0.00000000000E+00 0.  1.
<mgrwt>
<rscale>  0 0.25015997E+04</rscale>
<asrwt>0</asrwt>
<pdfrwt beam="1">  1        2 0.25920372E+00 0.25015997E+04</pdfrwt>
<pdfrwt beam="2">  1       -1 0.14285903E+00 0.25015997E+04</pdfrwt>
<totfact> 0.40352997E+00</totfact>
</mgrwt>
</event>
<event>
12    7  0.2426980E-007  0.1587875E+04  0.7818608E-02  0.8828032E-01
         -1   -1    0    0    0  501 -0.00000000000E+00  0.00000000000E+00  0.57023439118E+03  0.57023439118E+03  0.00000000000E+00 0.  1.
          2   -1    0    0  501    0  0.00000000000E+00 -0.00000000000E+00 -0.11053993639E+04  0.11053993639E+04  0.00000000000E+00 0. -1.
         24    2    1    2    0    0  0.21643634915E+03  0.43062172345E+03 -0.42105520983E+03  0.64550973496E+03  0.84353815909E+02 0.  0.
        254    2    1    2    0    0 -0.21643634915E+03 -0.43062172345E+03 -0.11410976285E+03  0.10301240201E+04  0.90324675302E+03 0.  0.
         23    2    4    4    0    0  0.95057591696E+02  0.88159491796E+00 -0.39871323562E+03  0.41985855072E+03  0.90951830146E+02 0.  0.
         23    2    4    4    0    0 -0.31149394085E+03 -0.43150331837E+03  0.28460347277E+03  0.61026546937E+03  0.90560573336E+02 0.  0.
          2    1    3    3  502    0  0.15095657211E+03  0.33762814057E+03 -0.36132276911E+03  0.51704428383E+03  0.00000000000E+00 0. -1.
         -1    1    3    3    0  502  0.65479777040E+02  0.92993582878E+02 -0.59732440724E+02  0.12846545112E+03  0.00000000000E+00 0.  1.
         13    1    5    5    0    0  0.52422973069E+02  0.28124078120E+02 -0.95944124022E+02  0.11289112813E+03  0.00000000000E+00 0.  1.
        -13    1    5    5    0    0  0.42634618626E+02 -0.27242483202E+02 -0.30276911159E+03  0.30696742259E+03  0.00000000000E+00 0. -1.
          4    1    6    6  503    0 -0.22804780197E+03 -0.28302103335E+03  0.23517868913E+03  0.43291537409E+03  0.00000000000E+00 0. -1.
         -4    1    6    6    0  503 -0.83446138875E+02 -0.14848228502E+03  0.49424783643E+02  0.17735009528E+03  0.00000000000E+00 0.  1.
<mgrwt>
<rscale>  0 0.15878750E+04</rscale>
<asrwt>0</asrwt>
<pdfrwt beam="1">  1        2 0.17006144E+00 0.15878750E+04</pdfrwt>
<pdfrwt beam="2">  1       -1 0.87728369E-01 0.15878750E+04</pdfrwt>
<totfact> 0.30249790E+01</totfact>
</mgrwt>
</event>
<event>
12    7  0.2426980E-007  0.1262248E+04  0.7818608E-02  0.9060050E-01
         -1   -1    0    0    0  501 -0.00000000000E+00  0.00000000000E+00  0.23694719475E+03  0.23694719475E+03  0.00000000000E+00 0.  1.
          2   -1    0    0  501    0  0.00000000000E+00 -0.00000000000E+00 -0.16810398745E+04  0.16810398745E+04  0.00000000000E+00 0. -1.
         24    2    1    2    0    0  0.20181054763E+03  0.80066973686E+02 -0.39045013068E+02  0.23540327482E+03  0.82170379951E+02 0.  0.
        254    2    1    2    0    0 -0.20181054763E+03 -0.80066973686E+02 -0.14050476666E+04  0.16825837944E+04  0.89988391595E+03 0.  0.
         23    2    4    4    0    0  0.77990805335E+02 -0.41636412511E+03 -0.43121435480E+03  0.61078539875E+03  0.87586146956E+02 0.  0.
         23    2    4    4    0    0 -0.27980135296E+03  0.33629715142E+03 -0.97383331184E+03  0.10717983956E+04  0.94952148377E+02 0.  0.
          4    1    3    3  502    0  0.82657007997E+02  0.30174452044E+02 -0.57208983218E+02  0.10495497267E+03  0.00000000000E+00 0. -1.
         -3    1    3    3    0  502  0.11915353963E+03  0.49892521642E+02  0.18163970150E+02  0.13044830215E+03  0.00000000000E+00 0.  1.
         13    1    5    5    0    0  0.92268122697E+02 -0.26936257916E+03 -0.27638558665E+03  0.39681053165E+03  0.00000000000E+00 0.  1.
        -13    1    5    5    0    0 -0.14277317362E+02 -0.14700154595E+03 -0.15482876815E+03  0.21397486710E+03  0.00000000000E+00 0. -1.
          3    1    6    6  503    0 -0.47492201613E+02  0.81796028714E+02 -0.13397041853E+03  0.16399442846E+03  0.00000000000E+00 0. -1.
         -3    1    6    6    0  503 -0.23230915135E+03  0.25450112271E+03 -0.83986289332E+03  0.90780396718E+03  0.00000000000E+00 0.  1.
<mgrwt>
<rscale>  0 0.12622483E+04</rscale>
<asrwt>0</asrwt>
<pdfrwt beam="1">  1        2 0.25862151E+00 0.12622483E+04</pdfrwt>
<pdfrwt beam="2">  1       -1 0.36453415E-01 0.12622483E+04</pdfrwt>
<totfact> 0.81115790E+01</totfact>
</mgrwt>
</event>
<event>
12    7  0.2426980E-007  0.2329009E+04  0.7818608E-02  0.8466570E-01
          2   -1    0    0  501    0  0.00000000000E+00  0.00000000000E+00  0.19000904278E+04  0.19000904278E+04  0.00000000000E+00 0. -1.
         -1   -1    0    0    0  501 -0.00000000000E+00 -0.00000000000E+00 -0.71368775246E+03  0.71368775246E+03  0.00000000000E+00 0.  1.
         24    2    1    2    0    0 -0.77752746428E+03  0.28018604686E+03 -0.10477784754E+03  0.83669353062E+03  0.77617577133E+02 0.  0.
        254    2    1    2    0    0  0.77752746428E+03 -0.28018604686E+03  0.12911805229E+04  0.17770846496E+04  0.89879337488E+03 0.  0.
         23    2    4    4    0    0  0.94498457861E+03 -0.11339293719E+03  0.91477268691E+03  0.13233254827E+04  0.92344206600E+02 0.  0.
         23    2    4    4    0    0 -0.16745711433E+03 -0.16679310967E+03  0.37640783596E+03  0.45375916690E+03  0.91393085096E+02 0.  0.
          4    1    3    3  502    0 -0.40874951146E+03  0.11313605958E+03 -0.31691969929E+02  0.42530026106E+03  0.00000000000E+00 0. -1.
         -3    1    3    3    0  502 -0.36877795282E+03  0.16704998728E+03 -0.73085877609E+02  0.41139326956E+03  0.00000000000E+00 0.  1.
         13    1    5    5    0    0  0.53862232116E+03 -0.19451827244E+02  0.50294647595E+03  0.73718894193E+03  0.00000000000E+00 0. -1.
        -13    1    5    5    0    0  0.40636225745E+03 -0.93941109948E+02  0.41182621096E+03  0.58613654079E+03  0.00000000000E+00 0.  1.
          2    1    6    6  503    0 -0.14313240897E+03 -0.16716971556E+03  0.29035184880E+03  0.36433061414E+03  0.00000000000E+00 0. -1.
         -2    1    6    6    0  503 -0.24324705362E+02  0.37660589628E+00  0.86055987158E+02  0.89428552760E+02  0.00000000000E+00 0.  1.
<mgrwt>
<rscale>  0 0.23290095E+04</rscale>
<asrwt>0</asrwt>
<pdfrwt beam="1">  1        2 0.29232160E+00 0.23290095E+04</pdfrwt>
<pdfrwt beam="2">  1       -1 0.10979812E+00 0.23290095E+04</pdfrwt>
<totfact> 0.59911649E+00</totfact>
</mgrwt>
</event>
<event>
12    7  0.2426980E-007  0.2268525E+04  0.7818608E-02  0.8490436E-01
         -1   -1    0    0    0  501 -0.00000000000E+00  0.00000000000E+00  0.46379230357E+03  0.46379230357E+03  0.00000000000E+00 0.  1.
          2   -1    0    0  501    0  0.00000000000E+00 -0.00000000000E+00 -0.27739810636E+04  0.27739810636E+04  0.00000000000E+00 0. -1.
         24    2    1    2    0    0 -0.85835954513E+03  0.18353110619E+03 -0.44922368513E+03  0.99189456818E+03  0.10764822079E+03 0.  0.
        254    2    1    2    0    0  0.85835954513E+03 -0.18353110619E+03 -0.18609650749E+04  0.22458787990E+04  0.90017542409E+03 0.  0.
         23    2    4    4    0    0  0.90367939951E+03 -0.41640053601E+03 -0.14088702308E+04  0.17272156141E+04  0.91283004079E+02 0.  0.
         23    2    4    4    0    0 -0.45319854380E+02  0.23286942982E+03 -0.45209484417E+03  0.51866318497E+03  0.91321907370E+02 0.  0.
          2    1    3    3  502    0 -0.54078343960E+03  0.74911831113E+02 -0.23988511160E+03  0.59632489278E+03  0.00000000000E+00 0. -1.
         -1    1    3    3    0  502 -0.31757610554E+03  0.10861927508E+03 -0.20933857353E+03  0.39556967540E+03  0.00000000000E+00 0.  1.
         13    1    5    5    0    0  0.83306695917E+03 -0.40587175196E+03 -0.13277718350E+04  0.16191696894E+04  0.00000000000E+00 0. -1.
        -13    1    5    5    0    0  0.70612440342E+02 -0.10528784053E+02 -0.81098395800E+02  0.10804592462E+03  0.00000000000E+00 0.  1.
          1    1    6    6  503    0 -0.17015325467E+02  0.17103519888E+03 -0.39154142294E+03  0.42760641533E+03  0.00000000000E+00 0. -1.
         -1    1    6    6    0  503 -0.28304528913E+02  0.61834230939E+02 -0.60553421232E+02  0.91056769632E+02  0.00000000000E+00 0.  1.
<mgrwt>
<rscale>  0 0.22685247E+04</rscale>
<asrwt>0</asrwt>
<pdfrwt beam="1">  1        2 0.42676632E+00 0.22685247E+04</pdfrwt>
<pdfrwt beam="2">  1       -1 0.71352662E-01 0.22685247E+04</pdfrwt>
<totfact> 0.49198762E+00</totfact>
</mgrwt>
</event>
<event>
12    7  0.2426980E-007  0.2371049E+04  0.7818608E-02  0.8450423E-01
         -3   -1    0    0    0  501 -0.00000000000E+00  0.00000000000E+00  0.13530745036E+04  0.13530745036E+04  0.00000000000E+00 0.  1.
          4   -1    0    0  501    0  0.00000000000E+00 -0.00000000000E+00 -0.10387217591E+04  0.10387217591E+04  0.00000000000E+00 0. -1.
         24    2    1    2    0    0 -0.67839040857E+03 -0.75234879867E+03  0.11597764882E+03  0.10228322061E+04  0.80576954213E+02 0.  0.
        254    2    1    2    0    0  0.67839040857E+03  0.75234879867E+03  0.19837509565E+03  0.13689640565E+04  0.89914829046E+03 0.  0.
         23    2    4    4    0    0  0.26945014998E+03  0.62753388151E+03  0.48800293842E+03  0.84449658615E+03  0.92873356453E+02 0.  0.
         23    2    4    4    0    0  0.40894025858E+03  0.12481491716E+03 -0.28962784277E+03  0.52446747040E+03  0.91492849782E+02 0.  0.
          2    1    3    3  502    0 -0.24468340109E+03 -0.21523130102E+03  0.36639132697E+02  0.32792820214E+03  0.00000000000E+00 0. -1.
         -1    1    3    3    0  502 -0.43370700747E+03 -0.53711749765E+03  0.79338516123E+02  0.69490400399E+03  0.00000000000E+00 0.  1.
         13    1    5    5    0    0  0.21342728164E+03  0.54840603200E+03  0.38602497208E+03  0.70378665770E+03  0.00000000000E+00 0.  1.
        -13    1    5    5    0    0  0.56022868346E+02  0.79127849506E+02  0.10197796634E+03  0.14070992845E+03  0.00000000000E+00 0. -1.
          2    1    6    6  503    0  0.25973675654E+03  0.35995679732E+02 -0.19448316170E+03  0.32646986360E+03  0.00000000000E+00 0.  1.
         -2    1    6    6    0  503  0.14920350204E+03  0.88819237432E+02 -0.95144681071E+02  0.19799760679E+03  0.00000000000E+00 0. -1.
<mgrwt>
<rscale>  0 0.23710487E+04</rscale>
<asrwt>0</asrwt>
<pdfrwt beam="1">  1        4 0.15980335E+00 0.23710487E+04</pdfrwt>
<pdfrwt beam="2">  1       -3 0.20816531E+00 0.23710487E+04</pdfrwt>
<totfact> 0.67187233E-02</totfact>
</mgrwt>
</event>
<event>
12    7  0.2426980E-007  0.1747975E+04  0.7818608E-02  0.8734465E-01
          2   -1    0    0  501    0  0.00000000000E+00  0.00000000000E+00  0.33322293690E+04  0.33322293690E+04  0.00000000000E+00 0. -1.
         -1   -1    0    0    0  501 -0.00000000000E+00 -0.00000000000E+00 -0.22923227960E+03  0.22923227960E+03  0.00000000000E+00 0.  1.
         24    2    1    2    0    0 -0.42180752229E+03  0.18044728342E+03  0.20495424950E+04  0.21017575841E+04  0.79231909204E+02 0.  0.
        254    2    1    2    0    0  0.42180752229E+03 -0.18044728342E+03  0.10534545943E+04  0.14597040645E+04  0.90027027361E+03 0.  0.
         23    2    4    4    0    0  0.48687257233E+03  0.40335580328E+02  0.11010609287E+04  0.12079470064E+04  0.90160638292E+02 0.  0.
         23    2    4    4    0    0 -0.65065050034E+02 -0.22078286375E+03 -0.47606334399E+02  0.25175705810E+03  0.90203766906E+02 0.  0.
          4    1    3    3  502    0 -0.29175182131E+03  0.99622620783E+02  0.14953978809E+04  0.15268459693E+04  0.00000000000E+00 0. -1.
         -3    1    3    3    0  502 -0.13005570098E+03  0.80824662640E+02  0.55414461415E+03  0.57491161481E+03  0.00000000000E+00 0.  1.
         13    1    5    5    0    0  0.47957089877E+03  0.27932128599E+02  0.10836672076E+04  0.11853704347E+04  0.00000000000E+00 0.  1.
        -13    1    5    5    0    0  0.73016735569E+01  0.12403451728E+02  0.17393721164E+02  0.22576571650E+02  0.00000000000E+00 0. -1.
          3    1    6    6  503    0  0.11404904899E+02 -0.28168392121E+02  0.16820936854E+02  0.34734335852E+02  0.00000000000E+00 0. -1.
         -3    1    6    6    0  503 -0.76469954933E+02 -0.19261447163E+03 -0.64427271253E+02  0.21702272224E+03  0.00000000000E+00 0.  1.
<mgrwt>
<rscale>  0 0.17479754E+04</rscale>
<asrwt>0</asrwt>
<pdfrwt beam="1">  1        2 0.51265064E+00 0.17479754E+04</pdfrwt>
<pdfrwt beam="2">  1       -1 0.35266507E-01 0.17479754E+04</pdfrwt>
<totfact> 0.88198672E+00</totfact>
</mgrwt>
</event>
<event>
12    7  0.2426980E-007  0.2243482E+04  0.7818608E-02  0.8500545E-01
         -1   -1    0    0    0  501 -0.00000000000E+00  0.00000000000E+00  0.12498727435E+04  0.12498727435E+04  0.00000000000E+00 0.  1.
          2   -1    0    0  501    0  0.00000000000E+00 -0.00000000000E+00 -0.10067446440E+04  0.10067446440E+04  0.00000000000E+00 0. -1.
         24    2    1    2    0    0 -0.28754247832E+03  0.64547248458E+03 -0.51992468576E+03  0.88073139397E+03  0.77786273090E+02 0.  0.
        254    2    1    2    0    0  0.28754247832E+03 -0.64547248458E+03  0.76305278529E+03  0.13758859935E+04  0.90083145421E+03 0.  0.
         23    2    4    4    0    0 -0.90073190278E+02 -0.44692491877E+03 -0.34574868960E+02  0.46681762662E+03  0.94171186315E+02 0.  0.
         23    2    4    4    0    0  0.37761566860E+03 -0.19854756580E+03  0.79762765425E+03  0.90906836692E+03  0.90447177149E+02 0.  0.
          2    1    3    3  502    0 -0.16649962633E+03  0.35624101878E+03 -0.33599542513E+03  0.51722598034E+03  0.00000000000E+00 0. -1.
         -1    1    3    3    0  502 -0.12104285199E+03  0.28923146579E+03 -0.18392926063E+03  0.36350541363E+03  0.00000000000E+00 0.  1.
         13    1    5    5    0    0 -0.64994031084E+02 -0.31092538169E+03 -0.67320219878E+02  0.32470113807E+03  0.00000000000E+00 0. -1.
        -13    1    5    5    0    0 -0.25079159194E+02 -0.13599953708E+03  0.32745350918E+02  0.14211648855E+03  0.00000000000E+00 0.  1.
          4    1    6    6  503    0  0.27996646259E+03 -0.18334225828E+03  0.57124250152E+03  0.66205256543E+03  0.00000000000E+00 0. -1.
         -4    1    6    6    0  503  0.97649206007E+02 -0.15205307525E+02  0.22638515273E+03  0.24701580149E+03  0.00000000000E+00 0.  1.
<mgrwt>
<rscale>  0 0.22434818E+04</rscale>
<asrwt>0</asrwt>
<pdfrwt beam="1">  1        2 0.15488379E+00 0.22434818E+04</pdfrwt>
<pdfrwt beam="2">  1       -1 0.19228812E+00 0.22434818E+04</pdfrwt>
<totfact> 0.44108539E+00</totfact>
</mgrwt>
</event>
<event>
12    7  0.2426980E-007  0.1358757E+04  0.7818608E-02  0.8984225E-01
          2   -1    0    0  501    0  0.00000000000E+00  0.00000000000E+00  0.69512107896E+03  0.69512107896E+03  0.00000000000E+00 0. -1.
         -1   -1    0    0    0  501 -0.00000000000E+00 -0.00000000000E+00 -0.66399266524E+03  0.66399266524E+03  0.00000000000E+00 0.  1.
         24    2    1    2    0    0 -0.32143910522E+02 -0.15433736219E+03 -0.33223276966E+03  0.37597773829E+03  0.78277673103E+02 0.  0.
        254    2    1    2    0    0  0.32143910522E+02  0.15433736219E+03  0.36336118337E+03  0.98313600590E+03  0.89981765051E+03 0.  0.
         23    2    4    4    0    0 -0.21230617398E+03  0.27071771497E+03  0.53843560887E+03  0.64541456836E+03  0.91022345797E+02 0.  0.
         23    2    4    4    0    0  0.24445008450E+03 -0.11638035278E+03 -0.17507442550E+03  0.33772143755E+03  0.10052106540E+03 0.  0.
          2    1    3    3  502    0  0.24542821955E+02 -0.32506638898E+02 -0.62040277277E+02  0.74216087788E+02  0.00000000000E+00 0. -1.
         -1    1    3    3    0  502 -0.56686732477E+02 -0.12183072330E+03 -0.27019249238E+03  0.30176165051E+03  0.00000000000E+00 0.  1.
         13    1    5    5    0    0 -0.17746405397E+03  0.15764066593E+03  0.34948421108E+03  0.42247282019E+03  0.00000000000E+00 0. -1.
        -13    1    5    5    0    0 -0.34842120010E+02  0.11307704904E+03  0.18895139780E+03  0.22294174817E+03  0.00000000000E+00 0.  1.
          1    1    6    6  503    0  0.24480102536E+03 -0.11027145784E+03 -0.18500392969E+03  0.32605795564E+03  0.00000000000E+00 0. -1.
         -1    1    6    6    0  503 -0.35094085641E+00 -0.61088949342E+01  0.99295041918E+01  0.11663481911E+02  0.00000000000E+00 0.  1.
<mgrwt>
<rscale>  0 0.13587572E+04</rscale>
<asrwt>0</asrwt>
<pdfrwt beam="1">  1        2 0.10694170E+00 0.13587572E+04</pdfrwt>
<pdfrwt beam="2">  1       -1 0.10215272E+00 0.13587572E+04</pdfrwt>
<totfact> 0.41848400E+01</totfact>
</mgrwt>
</event>
<event>
12    7  0.2426980E-007  0.2639144E+04  0.7818608E-02  0.8355025E-01
          2   -1    0    0  501    0  0.00000000000E+00  0.00000000000E+00  0.12242716132E+04  0.12242716132E+04  0.00000000000E+00 0. -1.
         -1   -1    0    0    0  501 -0.00000000000E+00 -0.00000000000E+00 -0.14222908722E+04  0.14222908722E+04  0.00000000000E+00 0.  1.
         24    2    1    2    0    0  0.10349048535E+04 -0.99259792112E+02 -0.61406325238E+03  0.12101411982E+04  0.80544891381E+02 0.  0.
        254    2    1    2    0    0 -0.10349048535E+04  0.99259792112E+02  0.41604399339E+03  0.14364212873E+04  0.89962933930E+03 0.  0.
         23    2    4    4    0    0 -0.10239329109E+04  0.17638591899E+03  0.60907686945E+03  0.12080874661E+04  0.94604939260E+02 0.  0.
         23    2    4    4    0    0 -0.10971942602E+02 -0.77126126881E+02 -0.19303287606E+03  0.22833382118E+03  0.93839329088E+02 0.  0.
          4    1    3    3  502    0  0.92838969228E+03 -0.11245716558E+03 -0.54244403565E+03  0.10811103397E+04  0.00000000000E+00 0. -1.
         -3    1    3    3    0  502  0.10651516117E+03  0.13197373471E+02 -0.71619216731E+02  0.12903085845E+03  0.00000000000E+00 0.  1.
         13    1    5    5    0    0 -0.22909290346E+02 -0.41798872318E+01  0.16567294901E+01  0.23346344339E+02  0.00000000000E+00 0.  1.
        -13    1    5    5    0    0 -0.10010236205E+04  0.18056580623E+03  0.60742013996E+03  0.11847411218E+04  0.00000000000E+00 0. -1.
          3    1    6    6  503    0  0.15262953821E+02 -0.89361624575E+02 -0.16367676028E+03  0.18710569088E+03  0.00000000000E+00 0. -1.
         -3    1    6    6    0  503 -0.26234896422E+02  0.12235497693E+02 -0.29356115780E+02  0.41228130297E+02  0.00000000000E+00 0.  1.
<mgrwt>
<rscale>  0 0.26391441E+04</rscale>
<asrwt>0</asrwt>
<pdfrwt beam="1">  1        2 0.18834948E+00 0.26391441E+04</pdfrwt>
<pdfrwt beam="2">  1       -1 0.21881398E+00 0.26391441E+04</pdfrwt>
<totfact> 0.20630303E+00</totfact>
</mgrwt>
</event>
<event>
12    7  0.2426980E-007  0.1919463E+04  0.7818608E-02  0.8645229E-01
          2   -1    0    0  501    0  0.00000000000E+00  0.00000000000E+00  0.24181536728E+04  0.24181536728E+04  0.00000000000E+00 0. -1.
         -1   -1    0    0    0  501 -0.00000000000E+00 -0.00000000000E+00 -0.38090400267E+03  0.38090400267E+03  0.00000000000E+00 0.  1.
         24    2    1    2    0    0 -0.71868365577E+03  0.70555106138E+02  0.52298977762E+03  0.89502787256E+03  0.77925381525E+02 0.  0.
        254    2    1    2    0    0  0.71868365577E+03 -0.70555106138E+02  0.15142598925E+04  0.19040298029E+04  0.90047889941E+03 0.  0.
         23    2    4    4    0    0  0.36563012795E+03  0.37933468059E+03  0.48259401618E+03  0.72083063423E+03  0.95496745624E+02 0.  0.
         23    2    4    4    0    0  0.35305352781E+03 -0.44988978673E+03  0.10316658763E+04  0.11831991687E+04  0.92618457662E+02 0.  0.
          4    1    3    3  502    0 -0.65763517096E+03  0.45304991644E+02  0.48875256106E+03  0.82061905065E+03  0.00000000000E+00 0. -1.
         -3    1    3    3    0  502 -0.61048484806E+02  0.25250114494E+02  0.34237216568E+02  0.74408821905E+02  0.00000000000E+00 0.  1.
         13    1    5    5    0    0  0.19605268460E+03  0.14062088286E+03  0.24366964572E+03  0.34290783614E+03  0.00000000000E+00 0. -1.
        -13    1    5    5    0    0  0.16957744335E+03  0.23871379773E+03  0.23892437045E+03  0.37792279809E+03  0.00000000000E+00 0.  1.
          2    1    6    6  503    0  0.27667778338E+03 -0.39510086689E+03  0.90439910757E+03  0.10249844080E+04  0.00000000000E+00 0. -1.
         -2    1    6    6    0  503  0.76375744432E+02 -0.54788919843E+02  0.12726676874E+03  0.15821476069E+03  0.00000000000E+00 0.  1.
<mgrwt>
<rscale>  0 0.19194629E+04</rscale>
<asrwt>0</asrwt>
<pdfrwt beam="1">  1        2 0.37202363E+00 0.19194629E+04</pdfrwt>
<pdfrwt beam="2">  1       -1 0.58600618E-01 0.19194629E+04</pdfrwt>
<totfact> 0.12200322E+01</totfact>
</mgrwt>
</event>
<event>
12    7  0.2426980E-007  0.1717225E+04  0.7818608E-02  0.8751601E-01
          2   -1    0    0  501    0  0.00000000000E+00  0.00000000000E+00  0.16738285560E+04  0.16738285560E+04  0.00000000000E+00 0. -1.
         -3   -1    0    0    0  501 -0.00000000000E+00 -0.00000000000E+00 -0.44043657620E+03  0.44043657620E+03  0.00000000000E+00 0.  1.
         24    2    1    2    0    0 -0.67776686414E+02  0.53468488046E+03  0.78558123767E+02  0.55080531905E+03  0.82058028661E+02 0.  0.
        254    2    1    2    0    0  0.67776686414E+02 -0.53468488046E+03  0.11548338561E+04  0.15634598132E+04  0.90569517593E+03 0.  0.
         23    2    4    4    0    0 -0.17926315619E+03  0.16738809972E+03  0.51493393942E+03  0.57754998769E+03  0.90845865137E+02 0.  0.
         23    2    4    4    0    0  0.24703984260E+03 -0.70207298018E+03  0.63989991664E+03  0.98590982549E+03  0.92796160214E+02 0.  0.
          4    1    3    3  502    0  0.45831349060E+00  0.21906184258E+03  0.61078447310E+02  0.22741784813E+03  0.00000000000E+00 0. -1.
         -3    1    3    3    0  502 -0.68234999905E+02  0.31562303789E+03  0.17479676457E+02  0.32338747092E+03  0.00000000000E+00 0.  1.
         13    1    5    5    0    0 -0.86330601258E+02  0.13746157291E+03  0.28993150369E+03  0.33227839769E+03  0.00000000000E+00 0. -1.
        -13    1    5    5    0    0 -0.92932554930E+02  0.29926526810E+02  0.22500243574E+03  0.24527159000E+03  0.00000000000E+00 0.  1.
          1    1    6    6  503    0  0.10154412421E+01 -0.85343152680E+02  0.86798340393E+02  0.12173100150E+03  0.00000000000E+00 0. -1.
         -1    1    6    6    0  503  0.24602440136E+03 -0.61672982750E+03  0.55310157624E+03  0.86417882400E+03  0.00000000000E+00 0.  1.
<mgrwt>
<rscale>  0 0.17172249E+04</rscale>
<asrwt>0</asrwt>
<pdfrwt beam="1">  1        2 0.25751208E+00 0.17172249E+04</pdfrwt>
<pdfrwt beam="2">  1       -3 0.67759474E-01 0.17172249E+04</pdfrwt>
<totfact> 0.12898936E+01</totfact>
</mgrwt>
</event>
<event>
12    7  0.2426980E-007  0.1895218E+04  0.7818608E-02  0.8657240E-01
         -1   -1    0    0    0  501 -0.00000000000E+00  0.00000000000E+00  0.77053675506E+03  0.77053675506E+03  0.00000000000E+00 0.  1.
          2   -1    0    0  501    0  0.00000000000E+00 -0.00000000000E+00 -0.11653736490E+04  0.11653736490E+04  0.00000000000E+00 0. -1.
         24    2    1    2    0    0 -0.50989557451E+03  0.49686108135E+03 -0.32352654766E+03  0.78593977778E+03  0.78533280814E+02 0.  0.
        254    2    1    2    0    0  0.50989557451E+03 -0.49686108135E+03 -0.71310346294E+02  0.11499706263E+04  0.90026820715E+03 0.  0.
         23    2    4    4    0    0  0.29233024908E+03 -0.46030516458E+03  0.35751952670E+03  0.65869909754E+03  0.93415577194E+02 0.  0.
         23    2    4    4    0    0  0.21756532542E+03 -0.36555916770E+02 -0.42882987300E+03  0.49127152876E+03  0.93710453613E+02 0.  0.
          2    1    3    3  502    0 -0.48168288629E+03  0.48022912487E+03 -0.32350589707E+03  0.75318953840E+03  0.00000000000E+00 0. -1.
         -1    1    3    3    0  502 -0.28212688220E+02  0.16631956473E+02 -0.20650586302E-01  0.32750239376E+02  0.00000000000E+00 0.  1.
         13    1    5    5    0    0  0.28935953517E+03 -0.43963341527E+03  0.32057025328E+03  0.61625625165E+03  0.00000000000E+00 0. -1.
        -13    1    5    5    0    0  0.29707139155E+01 -0.20671749305E+02  0.36949273421E+02  0.42442845885E+02  0.00000000000E+00 0.  1.
          2    1    6    6  503    0  0.13281711345E+03 -0.24635361161E+02 -0.34902542665E+03  0.37425397138E+03  0.00000000000E+00 0. -1.
         -2    1    6    6    0  503  0.84748211971E+02 -0.11920555608E+02 -0.79804446350E+02  0.11701755738E+03  0.00000000000E+00 0.  1.
<mgrwt>
<rscale>  0 0.18952184E+04</rscale>
<asrwt>0</asrwt>
<pdfrwt beam="1">  1        2 0.17928825E+00 0.18952184E+04</pdfrwt>
<pdfrwt beam="2">  1       -1 0.11854412E+00 0.18952184E+04</pdfrwt>
<totfact> 0.13543531E+01</totfact>
</mgrwt>
</event>
<event>
12    7  0.2426980E-007  0.2695277E+04  0.7818608E-02  0.8336539E-01
         -1   -1    0    0    0  501 -0.00000000000E+00  0.00000000000E+00  0.79501813649E+03  0.79501813649E+03  0.00000000000E+00 0.  1.
          2   -1    0    0  501    0  0.00000000000E+00 -0.00000000000E+00 -0.22843871958E+04  0.22843871958E+04  0.00000000000E+00 0. -1.
         24    2    1    2    0    0 -0.71592314938E+03 -0.18026007942E+03 -0.17388855659E+04  0.18907869635E+04  0.79452363138E+02 0.  0.
        254    2    1    2    0    0  0.71592314938E+03  0.18026007942E+03  0.24951650656E+03  0.11886183688E+04  0.89750514627E+03 0.  0.
         23    2    4    4    0    0  0.24727290262E+03 -0.18083721417E+03 -0.25283777639E+03  0.40728784126E+03  0.90058081653E+02 0.  0.
         23    2    4    4    0    0  0.46865024676E+03  0.36109729359E+03  0.50235428295E+03  0.78133052755E+03  0.89962539178E+02 0.  0.
          2    1    3    3  502    0 -0.44717467333E+03 -0.14015102657E+03 -0.11691635853E+04  0.12595836566E+04  0.00000000000E+00 0. -1.
         -1    1    3    3    0  502 -0.26874847605E+03 -0.40109052851E+02 -0.56972198059E+03  0.63120330692E+03  0.00000000000E+00 0.  1.
         13    1    5    5    0    0  0.18495345447E+03 -0.16758179390E+03 -0.16664668310E+03  0.30010424015E+03  0.00000000000E+00 0. -1.
        -13    1    5    5    0    0  0.62319448148E+02 -0.13255420264E+02 -0.86191093294E+02  0.10718360111E+03  0.00000000000E+00 0.  1.
          4    1    6    6  503    0  0.41556482828E+01  0.13457831773E+02  0.30144463875E+02  0.33272681752E+02  0.00000000000E+00 0.  1.
         -4    1    6    6    0  503  0.46449459848E+03  0.34763946181E+03  0.47220981908E+03  0.74805784580E+03  0.00000000000E+00 0. -1.
<mgrwt>
<rscale>  0 0.26952768E+04</rscale>
<asrwt>0</asrwt>
<pdfrwt beam="1">  1        2 0.35144418E+00 0.26952768E+04</pdfrwt>
<pdfrwt beam="2">  1       -1 0.12231048E+00 0.26952768E+04</pdfrwt>
<totfact> 0.27273787E+00</totfact>
</mgrwt>
</event>
<event>
12    7  0.2426980E-007  0.1578006E+04  0.7818608E-02  0.8834175E-01
         -1   -1    0    0    0  501 -0.00000000000E+00  0.00000000000E+00  0.11469740526E+04  0.11469740526E+04  0.00000000000E+00 0.  1.
          2   -1    0    0  501    0  0.00000000000E+00 -0.00000000000E+00 -0.54275459876E+03  0.54275459876E+03  0.00000000000E+00 0. -1.
         24    2    1    2    0    0 -0.69507168261E+02  0.38779338516E+03 -0.17271241254E+03  0.43724399357E+03  0.78343962477E+02 0.  0.
        254    2    1    2    0    0  0.69507168261E+02 -0.38779338516E+03  0.77693186635E+03  0.12524846578E+04  0.89993318473E+03 0.  0.
         23    2    4    4    0    0 -0.24714733300E+03 -0.31966425577E+03  0.97200687692E+01  0.41480481745E+03  0.93281917960E+02 0.  0.
         23    2    4    4    0    0  0.31665450126E+03 -0.68129129383E+02  0.76721179758E+03  0.83767984031E+03  0.90453972158E+02 0.  0.
          2    1    3    3  502    0  0.88527400832E+01  0.11514605613E+03 -0.72613574249E+02  0.13641743443E+03  0.00000000000E+00 0. -1.
         -1    1    3    3    0  502 -0.78359908344E+02  0.27264732902E+03 -0.10009883829E+03  0.30082655914E+03  0.00000000000E+00 0.  1.
         13    1    5    5    0    0 -0.12185013590E+03 -0.15870555295E+03  0.51462440235E+02  0.20659934877E+03  0.00000000000E+00 0. -1.
        -13    1    5    5    0    0 -0.12529719710E+03 -0.16095870282E+03 -0.41742371466E+02  0.20820546868E+03  0.00000000000E+00 0.  1.
          2    1    6    6  503    0  0.15474859047E+03  0.50873112959E+01  0.29542468338E+03  0.33353972857E+03  0.00000000000E+00 0. -1.
         -2    1    6    6    0  503  0.16190591079E+03 -0.73216440679E+02  0.47178711421E+03  0.50414011174E+03  0.00000000000E+00 0.  1.
<mgrwt>
<rscale>  0 0.15780056E+04</rscale>
<asrwt>0</asrwt>
<pdfrwt beam="1">  1        2 0.83500708E-01 0.15780056E+04</pdfrwt>
<pdfrwt beam="2">  1       -1 0.17645755E+00 0.15780056E+04</pdfrwt>
<totfact> 0.13550180E+01</totfact>
</mgrwt>
</event>
<event>
12    7  0.2426980E-007  0.1596432E+04  0.7818608E-02  0.8822743E-01
          2   -1    0    0  501    0  0.00000000000E+00  0.00000000000E+00  0.64364235276E+03  0.64364235276E+03  0.00000000000E+00 0. -1.
         -1   -1    0    0    0  501 -0.00000000000E+00 -0.00000000000E+00 -0.98991154428E+03  0.98991154428E+03  0.00000000000E+00 0.  1.
         24    2    1    2    0    0 -0.86766701287E+02 -0.52245168370E+03 -0.91608609768E+01  0.53566230281E+03  0.79786960280E+02 0.  0.
        254    2    1    2    0    0  0.86766701287E+02  0.52245168370E+03 -0.33710833055E+03  0.10978915942E+04  0.90068846107E+03 0.  0.
         23    2    4    4    0    0 -0.34834612406E+03  0.25032585614E+03 -0.37284047037E+03  0.57576360305E+03  0.92117608818E+02 0.  0.
         23    2    4    4    0    0  0.43511282535E+03  0.27212582755E+03  0.35732139819E+02  0.52212799117E+03  0.89248061852E+02 0.  0.
          2    1    3    3  502    0 -0.65516527817E+02 -0.21438988656E+03  0.22231351985E+02  0.22527687828E+03  0.00000000000E+00 0. -1.
         -1    1    3    3    0  502 -0.21250173470E+02 -0.30806179714E+03 -0.31392212962E+02  0.31038542453E+03  0.00000000000E+00 0.  1.
         13    1    5    5    0    0 -0.14128327122E+02  0.55103903854E+01 -0.44887394016E+02  0.47379870948E+02  0.00000000000E+00 0.  1.
        -13    1    5    5    0    0 -0.33421779694E+03  0.24481546576E+03 -0.32795307635E+03  0.52838373211E+03  0.00000000000E+00 0. -1.
          1    1    6    6  503    0  0.21903723308E+03  0.16971574034E+03  0.54033741816E+02  0.28231257012E+03  0.00000000000E+00 0.  1.
         -1    1    6    6    0  503  0.21607559227E+03  0.10241008721E+03 -0.18301601997E+02  0.23981542105E+03  0.00000000000E+00 0. -1.
<mgrwt>
<rscale>  0 0.15964323E+04</rscale>
<asrwt>0</asrwt>
<pdfrwt beam="1">  1        2 0.99021901E-01 0.15964323E+04</pdfrwt>
<pdfrwt beam="2">  1       -1 0.15229408E+00 0.15964323E+04</pdfrwt>
<totfact> 0.16699419E+01</totfact>
</mgrwt>
</event>
<event>
12    7  0.2426980E-007  0.1537552E+04  0.7818608E-02  0.8859858E-01
         -1   -1    0    0    0  501 -0.00000000000E+00  0.00000000000E+00  0.56470232139E+03  0.56470232139E+03  0.00000000000E+00 0.  1.
          2   -1    0    0  501    0  0.00000000000E+00 -0.00000000000E+00 -0.10465989140E+04  0.10465989140E+04  0.00000000000E+00 0. -1.
         24    2    1    2    0    0 -0.44320432129E+03  0.15316030041E+03  0.28197383283E+02  0.47651559202E+03  0.79899117507E+02 0.  0.
        254    2    1    2    0    0  0.44320432129E+03 -0.15316030041E+03 -0.51009397591E+03  0.11347856434E+04  0.89869596870E+03 0.  0.
         23    2    4    4    0    0  0.69637753881E+03 -0.74710245771E+02 -0.47720747366E+03  0.85229861905E+03  0.90347472234E+02 0.  0.
         23    2    4    4    0    0 -0.25317321752E+03 -0.78450054643E+02 -0.32886502249E+02  0.28248702434E+03  0.92012541268E+02 0.  0.
          2    1    3    3  502    0 -0.26100752857E+03  0.55103688618E+02 -0.58520550031E+01  0.26682502322E+03  0.00000000000E+00 0. -1.
         -1    1    3    3    0  502 -0.18219679272E+03  0.98056611796E+02  0.34049438286E+02  0.20969056880E+03  0.00000000000E+00 0.  1.
         13    1    5    5    0    0  0.51473207162E+03 -0.59740548968E+02 -0.30353772580E+03  0.60054407809E+03  0.00000000000E+00 0.  1.
        -13    1    5    5    0    0  0.18164546719E+03 -0.14969696803E+02 -0.17366974786E+03  0.25175454096E+03  0.00000000000E+00 0. -1.
          1    1    6    6  503    0 -0.49235495832E+02 -0.42534328059E+02  0.21259253432E+02  0.68448951561E+02  0.00000000000E+00 0. -1.
         -1    1    6    6    0  503 -0.20393772168E+03 -0.35915726584E+02 -0.54145755681E+02  0.21403807278E+03  0.00000000000E+00 0.  1.
<mgrwt>
<rscale>  0 0.15375524E+04</rscale>
<asrwt>0</asrwt>
<pdfrwt beam="1">  1        2 0.16101521E+00 0.15375524E+04</pdfrwt>
<pdfrwt beam="2">  1       -1 0.86877282E-01 0.15375524E+04</pdfrwt>
<totfact> 0.33759853E+01</totfact>
</mgrwt>
</event>
<event>
12    7  0.2426980E-007  0.1406842E+04  0.7818608E-02  0.8948881E-01
          2   -1    0    0  501    0  0.00000000000E+00  0.00000000000E+00  0.50650061930E+03  0.50650061930E+03  0.00000000000E+00 0. -1.
         -1   -1    0    0    0  501 -0.00000000000E+00 -0.00000000000E+00 -0.97690175237E+03  0.97690175237E+03  0.00000000000E+00 0.  1.
         24    2    1    2    0    0  0.40148071020E+03  0.13218116786E+02 -0.48967292777E+02  0.41287924244E+03  0.81914551805E+02 0.  0.
        254    2    1    2    0    0 -0.40148071020E+03 -0.13218116786E+02 -0.42143384029E+03  0.10705231292E+04  0.89836062313E+03 0.  0.
         23    2    4    4    0    0 -0.25276857586E+03 -0.44192655104E+03 -0.26852759115E+03  0.58302332064E+03  0.92833699386E+02 0.  0.
         23    2    4    4    0    0 -0.14871213434E+03  0.42870843426E+03 -0.15290624915E+03  0.48749980859E+03  0.91485090826E+02 0.  0.
          2    1    3    3  502    0  0.13285641879E+03  0.43465409116E+01  0.22383629423E+02  0.13479891431E+03  0.00000000000E+00 0. -1.
         -1    1    3    3    0  502  0.26862429141E+03  0.88715758743E+01 -0.71350922200E+02  0.27808032813E+03  0.00000000000E+00 0.  1.
         13    1    5    5    0    0 -0.96036280141E+02 -0.19066537760E+03 -0.63120415421E+02  0.22262174234E+03  0.00000000000E+00 0. -1.
        -13    1    5    5    0    0 -0.15673229572E+03 -0.25126117344E+03 -0.20540717573E+03  0.36040157830E+03  0.00000000000E+00 0.  1.
          1    1    6    6  503    0 -0.42064579626E+02  0.75454109998E+02 -0.65166876722E+02  0.10821032019E+03  0.00000000000E+00 0. -1.
         -1    1    6    6    0  503 -0.10664755471E+03  0.35325432426E+03 -0.87739372425E+02  0.37928948839E+03  0.00000000000E+00 0.  1.
<mgrwt>
<rscale>  0 0.14068423E+04</rscale>
<asrwt>0</asrwt>
<pdfrwt beam="1">  1        2 0.77923173E-01 0.14068423E+04</pdfrwt>
<pdfrwt beam="2">  1       -1 0.15029258E+00 0.14068423E+04</pdfrwt>
<totfact> 0.23418895E+01</totfact>
</mgrwt>
</event>
<event>
12    7  0.2426980E-007  0.2317212E+04  0.7818608E-02  0.8471165E-01
          2   -1    0    0  501    0  0.00000000000E+00  0.00000000000E+00  0.11702709411E+04  0.11702709411E+04  0.00000000000E+00 0. -1.
         -1   -1    0    0    0  501 -0.00000000000E+00 -0.00000000000E+00 -0.11470577209E+04  0.11470577209E+04  0.00000000000E+00 0.  1.
         24    2    1    2    0    0 -0.86341274488E+03 -0.34388525390E+03  0.32721515170E+03  0.98878925843E+03  0.83040991094E+02 0.  0.
        254    2    1    2    0    0  0.86341274488E+03  0.34388525390E+03 -0.30400193150E+03  0.13285394035E+04  0.89936707544E+03 0.  0.
         23    2    4    4    0    0  0.74426501756E+03  0.50748652632E+03  0.54844596459E+02  0.90700408461E+03  0.90418410660E+02 0.  0.
         23    2    4    4    0    0  0.11914772733E+03 -0.16360127242E+03 -0.35884652796E+03  0.42153531887E+03  0.89216798647E+02 0.  0.
          2    1    3    3  502    0 -0.39241678447E+03 -0.17813139198E+03  0.18991180700E+03  0.47094396692E+03  0.00000000000E+00 0. -1.
         -1    1    3    3    0  502 -0.47099596042E+03 -0.16575386192E+03  0.13730334469E+03  0.51784529151E+03  0.00000000000E+00 0.  1.
         13    1    5    5    0    0  0.24241594737E+03  0.14636828823E+03  0.56361565689E+02  0.28873135165E+03  0.00000000000E+00 0.  1.
        -13    1    5    5    0    0  0.50184907019E+03  0.36111823809E+03 -0.15169692303E+01  0.61827273296E+03  0.00000000000E+00 0. -1.
          2    1    6    6  503    0  0.58763984289E+02 -0.94237126145E+02 -0.11031816875E+03  0.15653734426E+03  0.00000000000E+00 0. -1.
         -2    1    6    6    0  503  0.60383743037E+02 -0.69364146276E+02 -0.24852835922E+03  0.26499797461E+03  0.00000000000E+00 0.  1.
<mgrwt>
<rscale>  0 0.23172124E+04</rscale>
<asrwt>0</asrwt>
<pdfrwt beam="1">  1        2 0.18004168E+00 0.23172124E+04</pdfrwt>
<pdfrwt beam="2">  1       -1 0.17647042E+00 0.23172124E+04</pdfrwt>
<totfact> 0.44953221E+00</totfact>
</mgrwt>
</event>
<event>
12    7  0.2426980E-007  0.1867023E+04  0.7818608E-02  0.8671447E-01
          2   -1    0    0  501    0  0.00000000000E+00  0.00000000000E+00  0.18179449161E+04  0.18179449161E+04  0.00000000000E+00 0. -1.
         -1   -1    0    0    0  501 -0.00000000000E+00 -0.00000000000E+00 -0.47935662763E+03  0.47935662763E+03  0.00000000000E+00 0.  1.
         24    2    1    2    0    0  0.36478378260E+03  0.60966332265E+03  0.59263929611E+03  0.92875473590E+03  0.81286217438E+02 0.  0.
        254    2    1    2    0    0 -0.36478378260E+03 -0.60966332265E+03  0.74594899234E+03  0.13685468078E+04  0.90095720816E+03 0.  0.
         23    2    4    4    0    0  0.16330546725E+02 -0.18299975279E+03 -0.18379336394E+03  0.27280406658E+03  0.82984708435E+02 0.  0.
         23    2    4    4    0    0 -0.38111432933E+03 -0.42666356985E+03  0.92974235628E+03  0.10957427412E+04  0.94558828342E+02 0.  0.
          2    1    3    3  502    0 -0.13913862605E+01  0.43435485448E+01  0.14226860850E+02  0.14940078291E+02  0.00000000000E+00 0. -1.
         -3    1    3    3    0  502  0.36617516886E+03  0.60531977410E+03  0.57841243526E+03  0.91381465761E+03  0.00000000000E+00 0.  1.
         13    1    5    5    0    0  0.12803741896E+02 -0.18189384987E+03 -0.14269771138E+03  0.23154253445E+03  0.00000000000E+00 0.  1.
        -13    1    5    5    0    0  0.35268048283E+01 -0.11059029181E+01 -0.41095652566E+02  0.41261532126E+02  0.00000000000E+00 0. -1.
          1    1    6    6  503    0 -0.62684378508E+02 -0.12441689012E+03  0.19144137600E+03  0.23676717320E+03  0.00000000000E+00 0. -1.
         -1    1    6    6    0  503 -0.31842995082E+03 -0.30224667973E+03  0.73830098027E+03  0.85897556802E+03  0.00000000000E+00 0.  1.
<mgrwt>
<rscale>  0 0.18670232E+04</rscale>
<asrwt>0</asrwt>
<pdfrwt beam="1">  1        2 0.27968383E+00 0.18670232E+04</pdfrwt>
<pdfrwt beam="2">  1       -1 0.73747174E-01 0.18670232E+04</pdfrwt>
<totfact> 0.16701821E+01</totfact>
</mgrwt>
</event>
<event>
12    7  0.2426980E-007  0.2362307E+04  0.7818608E-02  0.8453751E-01
          2   -1    0    0  501    0  0.00000000000E+00  0.00000000000E+00  0.79743875594E+03  0.79743875594E+03  0.00000000000E+00 0. -1.
         -1   -1    0    0    0  501 -0.00000000000E+00 -0.00000000000E+00 -0.17495060269E+04  0.17495060269E+04  0.00000000000E+00 0.  1.
         24    2    1    2    0    0  0.13119350726E+03  0.82667379418E+03  0.19392838770E+03  0.86399956663E+03  0.91026003195E+02 0.  0.
        254    2    1    2    0    0 -0.13119350726E+03 -0.82667379418E+03 -0.11459956587E+04  0.16829452162E+04  0.90465311186E+03 0.  0.
         23    2    4    4    0    0 -0.13106886543E+03 -0.10033707814E+04 -0.10545456829E+04  0.14642490996E+04  0.89592723059E+02 0.  0.
         23    2    4    4    0    0 -0.12464182907E+00  0.17669698718E+03 -0.91449975801E+02  0.21869611664E+03  0.90791258090E+02 0.  0.
          4    1    3    3  502    0  0.50866663014E+02  0.41578225823E+03  0.14110834020E+03  0.44201116201E+03  0.00000000000E+00 0. -1.
         -3    1    3    3    0  502  0.80326844242E+02  0.41089153595E+03  0.52820047498E+02  0.42198840462E+03  0.00000000000E+00 0.  1.
         13    1    5    5    0    0 -0.74453267354E+02 -0.82071639284E+03 -0.87424527425E+03  0.12014256057E+04  0.00000000000E+00 0. -1.
        -13    1    5    5    0    0 -0.56615598072E+02 -0.18265438851E+03 -0.18030040864E+03  0.26282349390E+03  0.00000000000E+00 0.  1.
          1    1    6    6  503    0 -0.58137051995E+00  0.18380677114E+03 -0.71005424922E+02  0.19704577508E+03  0.00000000000E+00 0. -1.
         -1    1    6    6    0  503  0.45672869088E+00 -0.71097839601E+01 -0.20444550879E+02  0.21650341561E+02  0.00000000000E+00 0.  1.
<mgrwt>
<rscale>  0 0.23623073E+04</rscale>
<asrwt>0</asrwt>
<pdfrwt beam="1">  1        2 0.12268289E+00 0.23623073E+04</pdfrwt>
<pdfrwt beam="2">  1       -1 0.26915477E+00 0.23623073E+04</pdfrwt>
<totfact> 0.18625928E+00</totfact>
</mgrwt>
</event>
<event>
12    7  0.2426980E-007  0.1810145E+04  0.7818608E-02  0.8700923E-01
         -1   -1    0    0    0  501 -0.00000000000E+00  0.00000000000E+00  0.72901194362E+03  0.72901194362E+03  0.00000000000E+00 0.  1.
          2   -1    0    0  501    0  0.00000000000E+00 -0.00000000000E+00 -0.11236530012E+04  0.11236530012E+04  0.00000000000E+00 0. -1.
         24    2    1    2    0    0 -0.51915116415E+03  0.52372771180E+02 -0.59309169472E+03  0.79387772445E+03  0.78887544180E+02 0.  0.
        254    2    1    2    0    0  0.51915116415E+03 -0.52372771180E+02  0.19845063710E+03  0.10587872204E+04  0.89965931570E+03 0.  0.
         23    2    4    4    0    0  0.76699007135E+03 -0.37656577712E+02  0.12467470466E+03  0.78334441868E+03  0.91612820557E+02 0.  0.
         23    2    4    4    0    0 -0.24783890720E+03 -0.14716193469E+02  0.73775932440E+02  0.27544280173E+03  0.93729176596E+02 0.  0.
          2    1    3    3  502    0 -0.38318353128E+03  0.11958539530E+02 -0.46593132333E+03  0.60337767888E+03  0.00000000000E+00 0. -1.
         -1    1    3    3    0  502 -0.13596763288E+03  0.40414231651E+02 -0.12716037139E+03  0.19050004557E+03  0.00000000000E+00 0.  1.
         13    1    5    5    0    0  0.71715198853E+02  0.15773839967E+02 -0.67636931871E+01  0.73740296443E+02  0.00000000000E+00 0. -1.
        -13    1    5    5    0    0  0.69527487250E+03 -0.53430417679E+02  0.13143839785E+03  0.70960412223E+03  0.00000000000E+00 0.  1.
          3    1    6    6  503    0 -0.47656484305E+02 -0.41730023125E+02  0.19584196193E+02  0.66302911451E+02  0.00000000000E+00 0. -1.
         -3    1    6    6    0  503 -0.20018242289E+03  0.27013829656E+02  0.54191736247E+02  0.20913989028E+03  0.00000000000E+00 0.  1.
<mgrwt>
<rscale>  0 0.18101453E+04</rscale>
<asrwt>0</asrwt>
<pdfrwt beam="1">  1        2 0.17286969E+00 0.18101453E+04</pdfrwt>
<pdfrwt beam="2">  1       -1 0.11215568E+00 0.18101453E+04</pdfrwt>
<totfact> 0.16520486E+01</totfact>
</mgrwt>
</event>
<event>
12    7  0.2426980E-007  0.2974064E+04  0.7818608E-02  0.8251176E-01
          2   -1    0    0  501    0  0.00000000000E+00  0.00000000000E+00  0.25224867475E+04  0.25224867475E+04  0.00000000000E+00 0. -1.
         -1   -1    0    0    0  501 -0.00000000000E+00 -0.00000000000E+00 -0.87662083050E+03  0.87662083050E+03  0.00000000000E+00 0.  1.
         24    2    1    2    0    0  0.85469185920E+03  0.95185449397E+03  0.25695143119E+03  0.13069611180E+04  0.74820946262E+02 0.  0.
        254    2    1    2    0    0 -0.85469185920E+03 -0.95185449397E+03  0.13889144858E+04  0.20921464600E+04  0.90081530264E+03 0.  0.
         23    2    4    4    0    0 -0.22800319600E+03 -0.34743646503E+03 -0.28159501881E+02  0.42636807931E+03  0.91100092700E+02 0.  0.
         23    2    4    4    0    0 -0.62668866320E+03 -0.60441802894E+03  0.14170739877E+04  0.16657783807E+04  0.93054246604E+02 0.  0.
          2    1    3    3  502    0  0.28709098009E+03  0.36898649184E+03  0.10871402212E+03  0.47999062555E+03  0.00000000000E+00 0. -1.
         -1    1    3    3    0  502  0.56760087911E+03  0.58286800213E+03  0.14823740907E+03  0.82697049241E+03  0.00000000000E+00 0.  1.
         13    1    5    5    0    0 -0.71718844468E+02 -0.16222458801E+03  0.22494992896E+02  0.17879159464E+03  0.00000000000E+00 0. -1.
        -13    1    5    5    0    0 -0.15628435153E+03 -0.18521187702E+03 -0.50654494777E+02  0.24757648467E+03  0.00000000000E+00 0.  1.
          1    1    6    6  503    0 -0.60731172882E+03 -0.60357105813E+03  0.13861964582E+04  0.16293146347E+04  0.00000000000E+00 0. -1.
         -1    1    6    6    0  503 -0.19376934383E+02 -0.84697080977E+00  0.30877529499E+02  0.36463746017E+02  0.00000000000E+00 0.  1.
<mgrwt>
<rscale>  0 0.29740642E+04</rscale>
<asrwt>0</asrwt>
<pdfrwt beam="1">  1        2 0.38807488E+00 0.29740642E+04</pdfrwt>
<pdfrwt beam="2">  1       -1 0.13486474E+00 0.29740642E+04</pdfrwt>
<totfact> 0.15207297E+00</totfact>
</mgrwt>
</event>
<event>
12    7  0.2426980E-007  0.1377365E+04  0.7818608E-02  0.8970368E-01
         -1   -1    0    0    0  501 -0.00000000000E+00  0.00000000000E+00  0.43854667179E+03  0.43854667179E+03  0.00000000000E+00 0.  1.
          2   -1    0    0  501    0  0.00000000000E+00 -0.00000000000E+00 -0.10814897750E+04  0.10814897750E+04  0.00000000000E+00 0. -1.
         24    2    1    2    0    0 -0.22926455920E+03  0.26242004724E+03 -0.37657340803E+03  0.51857872433E+03  0.75431043997E+02 0.  0.
        254    2    1    2    0    0  0.22926455920E+03 -0.26242004724E+03 -0.26636969515E+03  0.10014577224E+04  0.90029897035E+03 0.  0.
         23    2    4    4    0    0  0.44935136501E+03  0.90322392809E+02  0.52465289052E+02  0.46985865671E+03  0.89105369394E+02 0.  0.
         23    2    4    4    0    0 -0.22008680581E+03 -0.35274244005E+03 -0.31883498420E+03  0.53159906571E+03  0.89868728770E+02 0.  0.
          4    1    3    3  502    0 -0.19592871727E+03  0.18160479848E+03 -0.30615403440E+03  0.40632334151E+03  0.00000000000E+00 0. -1.
         -3    1    3    3    0  502 -0.33335841930E+02  0.80815248759E+02 -0.70419373637E+02  0.11225538282E+03  0.00000000000E+00 0.  1.
         13    1    5    5    0    0  0.35355972096E+03  0.10598676616E+03  0.52327281898E+02  0.37279460205E+03  0.00000000000E+00 0. -1.
        -13    1    5    5    0    0  0.95791644050E+02 -0.15664373348E+02  0.13800715400E+00  0.97064054665E+02  0.00000000000E+00 0.  1.
          1    1    6    6  503    0 -0.16739001192E+03 -0.28588343016E+03 -0.29398228116E+03  0.44291571813E+03  0.00000000000E+00 0. -1.
         -1    1    6    6    0  503 -0.52696793893E+02 -0.66859009887E+02 -0.24852703042E+02  0.88683347580E+02  0.00000000000E+00 0.  1.
<mgrwt>
<rscale>  0 0.13773652E+04</rscale>
<asrwt>0</asrwt>
<pdfrwt beam="1">  1        2 0.16638304E+00 0.13773652E+04</pdfrwt>
<pdfrwt beam="2">  1       -1 0.67468720E-01 0.13773652E+04</pdfrwt>
<totfact> 0.55346186E+01</totfact>
</mgrwt>
</event>
<event>
12    7  0.2426980E-007  0.2239852E+04  0.7818608E-02  0.8502021E-01
         -1   -1    0    0    0  501 -0.00000000000E+00  0.00000000000E+00  0.75348794477E+03  0.75348794477E+03  0.00000000000E+00 0.  1.
          2   -1    0    0  501    0  0.00000000000E+00 -0.00000000000E+00 -0.16645717453E+04  0.16645717453E+04  0.00000000000E+00 0. -1.
         24    2    1    2    0    0  0.70984935027E+01 -0.92713358315E+03 -0.52930004700E+03  0.10706287853E+04  0.80376529157E+02 0.  0.
        254    2    1    2    0    0 -0.70984935027E+01  0.92713358315E+03 -0.38178375348E+03  0.13474309048E+04  0.90010229368E+03 0.  0.
         23    2    4    4    0    0  0.16190164765E+03  0.10397721678E+04 -0.38663299521E+03  0.11247608255E+04  0.90904000179E+02 0.  0.
         23    2    4    4    0    0 -0.16900014116E+03 -0.11263858460E+03  0.48492417330E+01  0.22267007927E+03  0.91158930479E+02 0.  0.
          2    1    3    3  502    0  0.40973398249E+02 -0.37207477814E+03 -0.22445621232E+03  0.43646196987E+03  0.00000000000E+00 0. -1.
         -1    1    3    3    0  502 -0.33874904746E+02 -0.55505880501E+03 -0.30484383468E+03  0.63416681539E+03  0.00000000000E+00 0.  1.
         13    1    5    5    0    0  0.23073514749E+02  0.65065069108E+02 -0.63515156631E+01  0.69326705187E+02  0.00000000000E+00 0. -1.
        -13    1    5    5    0    0  0.13882813290E+03  0.97470709864E+03 -0.38028147955E+03  0.10554341203E+04  0.00000000000E+00 0.  1.
          1    1    6    6  503    0  0.23275404817E+01  0.26660800346E+01 -0.14805043776E+02  0.15222179498E+02  0.00000000000E+00 0. -1.
         -1    1    6    6    0  503 -0.17132768164E+03 -0.11530466463E+03  0.19654285509E+02  0.20744789977E+03  0.00000000000E+00 0.  1.
<mgrwt>
<rscale>  0 0.22398524E+04</rscale>
<asrwt>0</asrwt>
<pdfrwt beam="1">  1        2 0.25608796E+00 0.22398524E+04</pdfrwt>
<pdfrwt beam="2">  1       -1 0.11592122E+00 0.22398524E+04</pdfrwt>
<totfact> 0.71698558E+00</totfact>
</mgrwt>
</event>
<event>
12    7  0.2426980E-007  0.3049421E+04  0.7818608E-02  0.8229758E-01
          2   -1    0    0  501    0  0.00000000000E+00  0.00000000000E+00  0.22648326820E+04  0.22648326820E+04  0.00000000000E+00 0. -1.
         -1   -1    0    0    0  501 -0.00000000000E+00 -0.00000000000E+00 -0.10264518449E+04  0.10264518449E+04  0.00000000000E+00 0.  1.
         24    2    1    2    0    0 -0.12281899360E+04 -0.63238642781E+03  0.74152607819E+03  0.15699715736E+04  0.81158513624E+02 0.  0.
        254    2    1    2    0    0  0.12281899360E+04  0.63238642781E+03  0.49685475889E+03  0.17213129534E+04  0.89871603924E+03 0.  0.
         23    2    4    4    0    0 -0.92364659047E+02  0.20454754369E+03  0.15846530046E+03  0.28950793902E+03  0.91283445562E+02 0.  0.
         23    2    4    4    0    0  0.13205545950E+04  0.42783888411E+03  0.33838945843E+03  0.14318050144E+04  0.92992604180E+02 0.  0.
          4    1    3    3  502    0 -0.10345758632E+04 -0.50284401399E+03  0.59974481413E+03  0.12972637208E+04  0.00000000000E+00 0. -1.
         -3    1    3    3    0  502 -0.19361407273E+03 -0.12954241382E+03  0.14178126406E+03  0.27270785279E+03  0.00000000000E+00 0.  1.
         13    1    5    5    0    0 -0.10817891095E+03  0.14666166941E+03  0.11696976363E+03  0.21655079693E+03  0.00000000000E+00 0.  1.
        -13    1    5    5    0    0  0.15814251902E+02  0.57885874284E+02  0.41495536833E+02  0.72957142089E+02  0.00000000000E+00 0. -1.
          1    1    6    6  503    0  0.54859949418E+03  0.17349836194E+03  0.93421218429E+02  0.58291561196E+03  0.00000000000E+00 0. -1.
         -1    1    6    6    0  503  0.77195510082E+03  0.25434052217E+03  0.24496824000E+03  0.84888940240E+03  0.00000000000E+00 0.  1.
<mgrwt>
<rscale>  0 0.30494207E+04</rscale>
<asrwt>0</asrwt>
<pdfrwt beam="1">  1        2 0.34843580E+00 0.30494207E+04</pdfrwt>
<pdfrwt beam="2">  1       -1 0.15791567E+00 0.30494207E+04</pdfrwt>
<totfact> 0.13944594E+00</totfact>
</mgrwt>
</event>
<event>
12    7  0.2426980E-007  0.6713527E+04  0.7818608E-02  0.7607723E-01
         -1   -1    0    0    0  501 -0.00000000000E+00  0.00000000000E+00  0.24462847012E+04  0.24462847012E+04  0.00000000000E+00 0.  1.
          2   -1    0    0  501    0  0.00000000000E+00 -0.00000000000E+00 -0.46061117983E+04  0.46061117983E+04  0.00000000000E+00 0. -1.
         24    2    1    2    0    0  0.22027819257E+04  0.15642143227E+04 -0.30437443770E+04  0.40705464449E+04  0.77161314565E+02 0.  0.
        254    2    1    2    0    0 -0.22027819257E+04 -0.15642143227E+04  0.88391727991E+03  0.29818500545E+04  0.90061386328E+03 0.  0.
         23    2    4    4    0    0 -0.16046895112E+04 -0.13270440320E+04  0.10153118842E+04  0.23186932361E+04  0.96983561033E+02 0.  0.
         23    2    4    4    0    0 -0.59809241450E+03 -0.23717029070E+03 -0.13139460425E+03  0.66315681841E+03  0.92456155572E+02 0.  0.
          4    1    3    3  502    0  0.37564483701E+03  0.29701202949E+03 -0.56383653884E+03  0.73975457536E+03  0.00000000000E+00 0. -1.
         -3    1    3    3    0  502  0.18271370886E+04  0.12672022932E+04 -0.24799078382E+04  0.33307918696E+04  0.00000000000E+00 0.  1.
         13    1    5    5    0    0 -0.15466255616E+04 -0.13003383258E+04  0.98155706928E+03  0.22464159610E+04  0.00000000000E+00 0.  1.
        -13    1    5    5    0    0 -0.58063949508E+02 -0.26705706180E+02  0.33754814877E+02  0.72277275146E+02  0.00000000000E+00 0. -1.
          1    1    6    6  503    0 -0.45262933779E+02 -0.47094120796E+02 -0.16668161426E+02  0.67412291113E+02  0.00000000000E+00 0. -1.
         -1    1    6    6    0  503 -0.55282948072E+03 -0.19007616990E+03 -0.11472644282E+03  0.59574452730E+03  0.00000000000E+00 0.  1.
<mgrwt>
<rscale>  0 0.67135269E+04</rscale>
<asrwt>0</asrwt>
<pdfrwt beam="1">  1        2 0.70863257E+00 0.67135269E+04</pdfrwt>
<pdfrwt beam="2">  1       -1 0.37635150E+00 0.67135269E+04</pdfrwt>
<totfact> 0.71206303E-04</totfact>
</mgrwt>
</event>
<event>
12    7  0.2426980E-007  0.3052458E+04  0.7818608E-02  0.8228908E-01
          2   -1    0    0  501    0  0.00000000000E+00  0.00000000000E+00  0.13639021481E+04  0.13639021481E+04  0.00000000000E+00 0. -1.
         -1   -1    0    0    0  501 -0.00000000000E+00 -0.00000000000E+00 -0.17078755116E+04  0.17078755116E+04  0.00000000000E+00 0.  1.
         24    2    1    2    0    0  0.32884090587E+03  0.10074062791E+04 -0.10708941613E+04  0.15084859916E+04  0.75577307984E+02 0.  0.
        254    2    1    2    0    0 -0.32884090587E+03 -0.10074062791E+04  0.72692079788E+03  0.15632916681E+04  0.89020404437E+03 0.  0.
         23    2    4    4    0    0 -0.40821157087E+03 -0.32179330654E+03 -0.38214507136E+02  0.52908205342E+03  0.90993691906E+02 0.  0.
         23    2    4    4    0    0  0.79370665002E+02 -0.68561297254E+03  0.76513530501E+03  0.10342096147E+04  0.88275939613E+02 0.  0.
          4    1    3    3  502    0  0.18525155306E+03  0.55049674512E+03 -0.53379314556E+03  0.78885989031E+03  0.00000000000E+00 0. -1.
         -3    1    3    3    0  502  0.14358935281E+03  0.45690953396E+03 -0.53710101579E+03  0.71962610127E+03  0.00000000000E+00 0.  1.
         13    1    5    5    0    0 -0.39107411816E+03 -0.28044793502E+03 -0.22916182898E+02  0.48178331394E+03  0.00000000000E+00 0.  1.
        -13    1    5    5    0    0 -0.17137452705E+02 -0.41345371521E+02 -0.15298324239E+02  0.47298739475E+02  0.00000000000E+00 0. -1.
          1    1    6    6  503    0 -0.11164452802E+02 -0.18348052890E+03  0.17104840544E+03  0.25109222707E+03  0.00000000000E+00 0. -1.
         -1    1    6    6    0  503  0.90535117803E+02 -0.50213244365E+03  0.59408689957E+03  0.78311738760E+03  0.00000000000E+00 0.  1.
<mgrwt>
<rscale>  0 0.30524581E+04</rscale>
<asrwt>0</asrwt>
<pdfrwt beam="1">  1        2 0.20983110E+00 0.30524581E+04</pdfrwt>
<pdfrwt beam="2">  1       -1 0.26275008E+00 0.30524581E+04</pdfrwt>
<totfact> 0.84841692E-01</totfact>
</mgrwt>
</event>
<event>
12    7  0.2426980E-007  0.1451756E+04  0.7818608E-02  0.8917184E-01
          2   -1    0    0  501    0  0.00000000000E+00  0.00000000000E+00  0.11183040846E+04  0.11183040846E+04  0.00000000000E+00 0. -1.
         -1   -1    0    0    0  501 -0.00000000000E+00 -0.00000000000E+00 -0.47115897654E+03  0.47115897654E+03  0.00000000000E+00 0.  1.
         24    2    1    2    0    0  0.14585026183E+03  0.17599237185E+03  0.61303016842E+03  0.66007753735E+03  0.87468589255E+02 0.  0.
        254    2    1    2    0    0 -0.14585026183E+03 -0.17599237185E+03  0.34114939619E+02  0.92938552377E+03  0.90019331749E+03 0.  0.
         23    2    4    4    0    0  0.14440647131E+03 -0.47227451684E+03  0.23311111595E+02  0.50405739818E+03  0.98152964904E+02 0.  0.
         23    2    4    4    0    0 -0.29025673314E+03  0.29628214500E+03  0.10803828024E+02  0.42532812559E+03  0.93569285224E+02 0.  0.
          2    1    3    3  502    0  0.11306309423E+03  0.10777025271E+03  0.50170505844E+03  0.52545756851E+03  0.00000000000E+00 0. -1.
         -1    1    3    3    0  502  0.32787167595E+02  0.68222119138E+02  0.11132510998E+03  0.13461996884E+03  0.00000000000E+00 0.  1.
         13    1    5    5    0    0  0.12925399211E+02 -0.17832521435E+02 -0.19002363510E+02  0.29088736385E+02  0.00000000000E+00 0. -1.
        -13    1    5    5    0    0  0.13148107210E+03 -0.45444199541E+03  0.42313475105E+02  0.47496866180E+03  0.00000000000E+00 0.  1.
          2    1    6    6  503    0 -0.14492044443E+03  0.97048159022E+02  0.33759709272E+02  0.17765133929E+03  0.00000000000E+00 0. -1.
         -2    1    6    6    0  503 -0.14533628871E+03  0.19923398598E+03 -0.22955881248E+02  0.24767678629E+03  0.00000000000E+00 0.  1.
<mgrwt>
<rscale>  0 0.14517562E+04</rscale>
<asrwt>0</asrwt>
<pdfrwt beam="1">  1        2 0.17204678E+00 0.14517562E+04</pdfrwt>
<pdfrwt beam="2">  1       -1 0.72485997E-01 0.14517562E+04</pdfrwt>
<totfact> 0.45070821E+01</totfact>
</mgrwt>
</event>
<event>
12    7  0.2426980E-007  0.1713551E+04  0.7818608E-02  0.8753673E-01
         -1   -1    0    0    0  501 -0.00000000000E+00  0.00000000000E+00  0.41984138392E+03  0.41984138392E+03  0.00000000000E+00 0.  1.
          2   -1    0    0  501    0  0.00000000000E+00 -0.00000000000E+00 -0.17484332277E+04  0.17484332277E+04  0.00000000000E+00 0. -1.
         24    2    1    2    0    0 -0.37404858367E+03 -0.90452551069E+02 -0.10924646549E+04  0.11610737807E+04  0.80742152416E+02 0.  0.
        254    2    1    2    0    0  0.37404858367E+03  0.90452551069E+02 -0.23612718895E+03  0.10072008309E+04  0.90033519177E+03 0.  0.
         23    2    4    4    0    0  0.62559312128E+03 -0.10947929773E+03 -0.11665465389E+03  0.65236078064E+03  0.92810612637E+02 0.  0.
         23    2    4    4    0    0 -0.25154453761E+03  0.19993184880E+03 -0.11947253506E+03  0.35484005030E+03  0.91598996177E+02 0.  0.
          2    1    3    3  502    0 -0.17357942162E+03 -0.16396707456E+02 -0.58542054356E+03  0.61083212133E+03  0.00000000000E+00 0. -1.
         -1    1    3    3    0  502 -0.20046916205E+03 -0.74055843613E+02 -0.50704411129E+03  0.55024165937E+03  0.00000000000E+00 0.  1.
         13    1    5    5    0    0  0.27698995349E+03 -0.90169056291E+01 -0.25588706813E+02  0.27831550593E+03  0.00000000000E+00 0.  1.
        -13    1    5    5    0    0  0.34860316779E+03 -0.10046239210E+03 -0.91065947078E+02  0.37404527471E+03  0.00000000000E+00 0. -1.
          1    1    6    6  503    0 -0.37549996286E+02  0.71739204625E+02 -0.72198354737E+01  0.81293552792E+02  0.00000000000E+00 0. -1.
         -1    1    6    6    0  503 -0.21399454132E+03  0.12819264417E+03 -0.11225269958E+03  0.27354649751E+03  0.00000000000E+00 0.  1.
<mgrwt>
<rscale>  0 0.17135514E+04</rscale>
<asrwt>0</asrwt>
<pdfrwt beam="1">  1        2 0.26898973E+00 0.17135514E+04</pdfrwt>
<pdfrwt beam="2">  1       -1 0.64590982E-01 0.17135514E+04</pdfrwt>
<totfact> 0.24254853E+01</totfact>
</mgrwt>
</event>
<event>
12    7  0.2426980E-007  0.1235430E+04  0.7818608E-02  0.9082398E-01
          2   -1    0    0  501    0  0.00000000000E+00  0.00000000000E+00  0.24676243028E+04  0.24676243028E+04  0.00000000000E+00 0. -1.
         -1   -1    0    0    0  501 -0.00000000000E+00 -0.00000000000E+00 -0.15463123416E+03  0.15463123416E+03  0.00000000000E+00 0.  1.
         24    2    1    2    0    0  0.17929197839E+03  0.12688535879E+03  0.17481452316E+03  0.29198051186E+03  0.80293175356E+02 0.  0.
        254    2    1    2    0    0 -0.17929197839E+03 -0.12688535879E+03  0.21381785455E+04  0.23302750251E+04  0.90007149295E+03 0.  0.
         23    2    4    4    0    0  0.25257731284E+03 -0.33940065759E+03  0.10981404621E+04  0.11803406531E+04  0.91123418291E+02 0.  0.
         23    2    4    4    0    0 -0.43186929123E+03  0.21251529880E+03  0.10400380833E+04  0.11499343720E+04  0.94847288973E+02 0.  0.
          2    1    3    3  502    0  0.37286158647E+02 -0.16615957178E+01  0.53558054705E+02  0.65280040983E+02  0.00000000000E+00 0. -1.
         -1    1    3    3    0  502  0.14200581975E+03  0.12854695451E+03  0.12125646845E+03  0.22670047088E+03  0.00000000000E+00 0.  1.
         13    1    5    5    0    0  0.68462487648E+02 -0.16678554514E+03  0.44483631612E+03  0.47998320640E+03  0.00000000000E+00 0. -1.
        -13    1    5    5    0    0  0.18411482519E+03 -0.17261511245E+03  0.65330414602E+03  0.70035744667E+03  0.00000000000E+00 0.  1.
          2    1    6    6  503    0 -0.71929031942E+02  0.78577787530E+02  0.22513666498E+03  0.24906780653E+03  0.00000000000E+00 0. -1.
         -2    1    6    6    0  503 -0.35994025929E+03  0.13393751127E+03  0.81490141834E+03  0.90086656548E+03  0.00000000000E+00 0.  1.
<mgrwt>
<rscale>  0 0.12354300E+04</rscale>
<asrwt>0</asrwt>
<pdfrwt beam="1">  1        2 0.37963448E+00 0.12354300E+04</pdfrwt>
<pdfrwt beam="2">  1       -1 0.23789422E-01 0.12354300E+04</pdfrwt>
<totfact> 0.62487555E+01</totfact>
</mgrwt>
</event>
<event>
12    7  0.2426980E-007  0.3556113E+04  0.7818608E-02  0.8100619E-01
         -1   -1    0    0    0  501 -0.00000000000E+00  0.00000000000E+00  0.12488065639E+04  0.12488065639E+04  0.00000000000E+00 0.  1.
          2   -1    0    0  501    0  0.00000000000E+00 -0.00000000000E+00 -0.25316054841E+04  0.25316054841E+04  0.00000000000E+00 0. -1.
         24    2    1    2    0    0 -0.14203855024E+04 -0.48471232993E+03 -0.13592048403E+04  0.20263934354E+04  0.79947100666E+02 0.  0.
        254    2    1    2    0    0  0.14203855024E+04  0.48471232993E+03  0.76405920074E+02  0.17540186126E+04  0.90460069128E+03 0.  0.
         23    2    4    4    0    0  0.80762026638E+03  0.69753587153E+03 -0.98434208950E+02  0.10759445740E+04  0.95711264346E+02 0.  0.
         23    2    4    4    0    0  0.61276523600E+03 -0.21282354160E+03  0.17484012902E+03  0.67807403862E+03  0.91870761483E+02 0.  0.
          2    1    3    3  502    0 -0.47181476879E+03 -0.17452061625E+03 -0.50395713483E+03  0.71206700196E+03  0.00000000000E+00 0. -1.
         -1    1    3    3    0  502 -0.94857073359E+03 -0.31019171368E+03 -0.85524770547E+03  0.13143264334E+04  0.00000000000E+00 0.  1.
         13    1    5    5    0    0  0.76290139206E+03  0.65165549669E+03 -0.69764079557E+02  0.10057536712E+04  0.00000000000E+00 0.  1.
        -13    1    5    5    0    0  0.44718874315E+02  0.45880374841E+02 -0.28670129394E+02  0.70190902794E+02  0.00000000000E+00 0. -1.
          1    1    6    6  503    0  0.15930274059E+03 -0.19553373755E+02  0.22050336554E+02  0.16200591016E+03  0.00000000000E+00 0. -1.
         -1    1    6    6    0  503  0.45346249541E+03 -0.19327016785E+03  0.15278979247E+03  0.51606812846E+03  0.00000000000E+00 0.  1.
<mgrwt>
<rscale>  0 0.35561134E+04</rscale>
<asrwt>0</asrwt>
<pdfrwt beam="1">  1        2 0.38947776E+00 0.35561134E+04</pdfrwt>
<pdfrwt beam="2">  1       -1 0.19212409E+00 0.35561134E+04</pdfrwt>
<totfact> 0.52951224E-01</totfact>
</mgrwt>
</event>
<event>
12    7  0.2426980E-007  0.1736761E+04  0.7818608E-02  0.8740672E-01
          2   -1    0    0  501    0  0.00000000000E+00  0.00000000000E+00  0.35428428857E+04  0.35428428857E+04  0.00000000000E+00 0. -1.
         -1   -1    0    0    0  501 -0.00000000000E+00 -0.00000000000E+00 -0.21284725404E+03  0.21284725404E+03  0.00000000000E+00 0.  1.
         24    2    1    2    0    0  0.25859369646E+03 -0.57606989790E+03  0.11930176549E+04  0.13522383045E+04  0.80808910744E+02 0.  0.
        254    2    1    2    0    0 -0.25859369646E+03  0.57606989790E+03  0.21369779768E+04  0.24034518353E+04  0.90065455321E+03 0.  0.
         23    2    4    4    0    0  0.13360350800E+03  0.62488780562E+03  0.94528035939E+03  0.11445649127E+04  0.90217595933E+02 0.  0.
         23    2    4    4    0    0 -0.39219720446E+03 -0.48817907724E+02  0.11916976174E+04  0.12588869226E+04  0.91930610943E+02 0.  0.
          4    1    3    3  502    0  0.21935303199E+03 -0.41566467514E+03  0.84118760069E+03  0.96358157639E+03  0.00000000000E+00 0. -1.
         -3    1    3    3    0  502  0.39240664472E+02 -0.16040522276E+03  0.35183005420E+03  0.38865672807E+03  0.00000000000E+00 0.  1.
         13    1    5    5    0    0  0.67141980835E+02  0.35015865258E+03  0.44789501631E+03  0.57247626431E+03  0.00000000000E+00 0. -1.
        -13    1    5    5    0    0  0.66461527163E+02  0.27472915304E+03  0.49738534308E+03  0.57208864840E+03  0.00000000000E+00 0.  1.
          2    1    6    6  503    0 -0.39398961123E+03 -0.49117319056E+02  0.11925298861E+04  0.12568881629E+04  0.00000000000E+00 0. -1.
         -2    1    6    6    0  503  0.17924067697E+01  0.29941133217E+00 -0.83226868413E+00  0.19987596995E+01  0.00000000000E+00 0.  1.
<mgrwt>
<rscale>  0 0.17367606E+04</rscale>
<asrwt>0</asrwt>
<pdfrwt beam="1">  1        2 0.54505271E+00 0.17367606E+04</pdfrwt>
<pdfrwt beam="2">  1       -1 0.32745734E-01 0.17367606E+04</pdfrwt>
<totfact> 0.72307831E+00</totfact>
</mgrwt>
</event>
<event>
12    7  0.2426980E-007  0.1732618E+04  0.7818608E-02  0.8742977E-01
         -1   -1    0    0    0  501 -0.00000000000E+00  0.00000000000E+00  0.26978714616E+03  0.26978714616E+03  0.00000000000E+00 0.  1.
          2   -1    0    0  501    0  0.00000000000E+00 -0.00000000000E+00 -0.27817894019E+04  0.27817894019E+04  0.00000000000E+00 0. -1.
         24    2    1    2    0    0  0.10226414017E+03 -0.27026110540E+03 -0.19047109089E+04  0.19281749187E+04  0.80223758445E+02 0.  0.
        254    2    1    2    0    0 -0.10226414017E+03  0.27026110540E+03 -0.60729134686E+03  0.11234016293E+04  0.89984966595E+03 0.  0.
         23    2    4    4    0    0 -0.15525751609E+03 -0.29687943410E+03 -0.11729547527E+03  0.36645181667E+03  0.91029724413E+02 0.  0.
         23    2    4    4    0    0  0.52993375922E+02  0.56714053950E+03 -0.48999587159E+03  0.75694981265E+03  0.91762602703E+02 0.  0.
          2    1    3    3  502    0  0.11530640525E+02 -0.12308096965E+03 -0.65542694495E+03  0.66698302897E+03  0.00000000000E+00 0. -1.
         -1    1    3    3    0  502  0.90733499646E+02 -0.14718013575E+03 -0.12492839639E+04  0.12611918898E+04  0.00000000000E+00 0.  1.
         13    1    5    5    0    0 -0.15116353700E+03 -0.22668039264E+03 -0.11598898697E+03  0.29612136097E+03  0.00000000000E+00 0. -1.
        -13    1    5    5    0    0 -0.40939790932E+01 -0.70199041461E+02 -0.13064882969E+01  0.70330455697E+02  0.00000000000E+00 0.  1.
          2    1    6    6  503    0  0.28475268652E+02  0.14649214544E+03 -0.81304028370E+02  0.16994450456E+03  0.00000000000E+00 0. -1.
         -2    1    6    6    0  503  0.24518107271E+02  0.42064839406E+03 -0.40869184322E+03  0.58700530809E+03  0.00000000000E+00 0.  1.
<mgrwt>
<rscale>  0 0.17326177E+04</rscale>
<asrwt>0</asrwt>
<pdfrwt beam="1">  1        2 0.42796760E+00 0.17326177E+04</pdfrwt>
<pdfrwt beam="2">  1       -1 0.41505715E-01 0.17326177E+04</pdfrwt>
<totfact> 0.14629660E+01</totfact>
</mgrwt>
</event>
<event>
12    7  0.2426980E-007  0.2670429E+04  0.7818608E-02  0.8344664E-01
         -1   -1    0    0    0  501 -0.00000000000E+00  0.00000000000E+00  0.15405668722E+04  0.15405668722E+04  0.00000000000E+00 0.  1.
          2   -1    0    0  501    0  0.00000000000E+00 -0.00000000000E+00 -0.11572350557E+04  0.11572350557E+04  0.00000000000E+00 0. -1.
         24    2    1    2    0    0  0.11857107944E+03 -0.10418228351E+04  0.72277735488E+03  0.12760806324E+04  0.80751192077E+02 0.  0.
        254    2    1    2    0    0 -0.11857107944E+03  0.10418228351E+04 -0.33944553837E+03  0.14217212955E+04  0.89811705703E+03 0.  0.
         23    2    4    4    0    0  0.10582796000E+03  0.72254522374E+03 -0.59610474096E+03  0.94704764824E+03  0.91034215430E+02 0.  0.
         23    2    4    4    0    0 -0.22439903945E+03  0.31927761131E+03  0.25665920259E+03  0.47467364728E+03  0.84545864234E+02 0.  0.
          4    1    3    3  502    0  0.11946234846E+03 -0.72691170260E+03  0.51343756080E+03  0.89793652611E+03  0.00000000000E+00 0. -1.
         -3    1    3    3    0  502 -0.89126902024E+00 -0.31491113245E+03  0.20933979408E+03  0.37814410624E+03  0.00000000000E+00 0.  1.
         13    1    5    5    0    0  0.71478525933E+02  0.57110243394E+03 -0.51259696861E+03  0.77072876030E+03  0.00000000000E+00 0.  1.
        -13    1    5    5    0    0  0.34349434071E+02  0.15144278980E+03 -0.83507772351E+02  0.17631888795E+03  0.00000000000E+00 0. -1.
          3    1    6    6  503    0 -0.15349948781E+03  0.14850675732E+03  0.12239032209E+03  0.24616202118E+03  0.00000000000E+00 0. -1.
         -3    1    6    6    0  503 -0.70899551640E+02  0.17077085399E+03  0.13426888050E+03  0.22851162611E+03  0.00000000000E+00 0.  1.
<mgrwt>
<rscale>  0 0.26704292E+04</rscale>
<asrwt>0</asrwt>
<pdfrwt beam="1">  1        2 0.17803616E+00 0.26704292E+04</pdfrwt>
<pdfrwt beam="2">  1       -1 0.23701029E+00 0.26704292E+04</pdfrwt>
<totfact> 0.17086980E+00</totfact>
</mgrwt>
</event>
<event>
12    7  0.2426980E-007  0.2434605E+04  0.7818608E-02  0.8426661E-01
          2   -1    0    0  501    0  0.00000000000E+00  0.00000000000E+00  0.17356559298E+04  0.17356559298E+04  0.00000000000E+00 0. -1.
         -1   -1    0    0    0  501 -0.00000000000E+00 -0.00000000000E+00 -0.85375505352E+03  0.85375505352E+03  0.00000000000E+00 0.  1.
         24    2    1    2    0    0 -0.22812681525E+03  0.99370166280E+03  0.64680207211E+03  0.12097967422E+04  0.75963138393E+02 0.  0.
        254    2    1    2    0    0  0.22812681525E+03 -0.99370166280E+03  0.23509880417E+03  0.13796142412E+04  0.89921030254E+03 0.  0.
         23    2    4    4    0    0  0.51956289588E+03 -0.65931088878E+03  0.34654851034E+03  0.91318600943E+03  0.95793355522E+02 0.  0.
         23    2    4    4    0    0 -0.29143608063E+03 -0.33439077402E+03 -0.11144970617E+03  0.46642823173E+03  0.91553697370E+02 0.  0.
          2    1    3    3  502    0 -0.83660282602E+02  0.23217676250E+03  0.17224055359E+03  0.30095165764E+03  0.00000000000E+00 0. -1.
         -1    1    3    3    0  502 -0.14446653265E+03  0.76152490030E+03  0.47456151852E+03  0.90884508453E+03  0.00000000000E+00 0.  1.
         13    1    5    5    0    0  0.41531553314E+03 -0.48022785816E+03  0.29246426242E+03  0.69902870658E+03  0.00000000000E+00 0. -1.
        -13    1    5    5    0    0  0.10424736274E+03 -0.17908303062E+03  0.54084247920E+02  0.21415730286E+03  0.00000000000E+00 0.  1.
          1    1    6    6  503    0 -0.21017797332E+03 -0.29257063679E+03 -0.10286384052E+03  0.37463759510E+03  0.00000000000E+00 0. -1.
         -1    1    6    6    0  503 -0.81258107316E+02 -0.41820137230E+02 -0.85858656481E+01  0.91790636622E+02  0.00000000000E+00 0.  1.
<mgrwt>
<rscale>  0 0.24346047E+04</rscale>
<asrwt>0</asrwt>
<pdfrwt beam="1">  1        2 0.26702399E+00 0.24346047E+04</pdfrwt>
<pdfrwt beam="2">  1       -1 0.13134693E+00 0.24346047E+04</pdfrwt>
<totfact> 0.47255062E+00</totfact>
</mgrwt>
</event>
<event>
12    7  0.2426980E-007  0.2780828E+04  0.7818608E-02  0.8309245E-01
          2   -1    0    0  501    0  0.00000000000E+00  0.00000000000E+00  0.33383399860E+04  0.33383399860E+04  0.00000000000E+00 0. -1.
         -1   -1    0    0    0  501 -0.00000000000E+00 -0.00000000000E+00 -0.57910548789E+03  0.57910548789E+03  0.00000000000E+00 0.  1.
         24    2    1    2    0    0 -0.87122193560E+03 -0.18094327725E+03  0.13599192195E+02  0.89305832987E+03  0.74833895215E+02 0.  0.
        254    2    1    2    0    0  0.87122193560E+03  0.18094327725E+03  0.27456353059E+04  0.30243871440E+04  0.90367927561E+03 0.  0.
         23    2    4    4    0    0 -0.10118151227E+03 -0.13124998640E+03  0.18820076869E+03  0.26915908629E+03  0.97789708268E+02 0.  0.
         23    2    4    4    0    0  0.97240344787E+03  0.31219326365E+03  0.25574345372E+04  0.27552280577E+04  0.88188086378E+02 0.  0.
          4    1    3    3  502    0 -0.46675027725E+03 -0.69734441675E+02  0.33387192466E+02  0.47311036587E+03  0.00000000000E+00 0. -1.
         -3    1    3    3    0  502 -0.40447165835E+03 -0.11120883558E+03 -0.19788000271E+02  0.41994796401E+03  0.00000000000E+00 0.  1.
         13    1    5    5    0    0 -0.25075126962E+02 -0.67179412299E+02  0.21205535340E+02  0.74776401077E+02  0.00000000000E+00 0.  1.
        -13    1    5    5    0    0 -0.76106385309E+02 -0.64070574102E+02  0.16699523335E+03  0.19438268521E+03  0.00000000000E+00 0. -1.
          1    1    6    6  503    0  0.73126655608E+03  0.22526568029E+03  0.18112895235E+04  0.19662820604E+04  0.00000000000E+00 0. -1.
         -1    1    6    6    0  503  0.24113689179E+03  0.86927583366E+02  0.74614501363E+03  0.78894599733E+03  0.00000000000E+00 0.  1.
<mgrwt>
<rscale>  0 0.27808279E+04</rscale>
<asrwt>0</asrwt>
<pdfrwt beam="1">  1        2 0.51359076E+00 0.27808279E+04</pdfrwt>
<pdfrwt beam="2">  1       -1 0.89093153E-01 0.27808279E+04</pdfrwt>
<totfact> 0.12841749E+00</totfact>
</mgrwt>
</event>
<event>
12    7  0.2426980E-007  0.2720360E+04  0.7818608E-02  0.8328429E-01
         -1   -1    0    0    0  501 -0.00000000000E+00  0.00000000000E+00  0.63848400343E+03  0.63848400343E+03  0.00000000000E+00 0.  1.
          2   -1    0    0  501    0  0.00000000000E+00 -0.00000000000E+00 -0.28976282541E+04  0.28976282541E+04  0.00000000000E+00 0. -1.
         24    2    1    2    0    0 -0.33056636980E+03  0.99354906603E+03 -0.22243324691E+03  0.10734404256E+04  0.79899477499E+02 0.  0.
        254    2    1    2    0    0  0.33056636980E+03 -0.99354906603E+03 -0.20367110038E+04  0.24626718320E+04  0.90561965944E+03 0.  0.
         23    2    4    4    0    0 -0.70587738928E+02  0.13701652758E+03 -0.25222163788E+03  0.31048165513E+03  0.95010240711E+02 0.  0.
         23    2    4    4    0    0  0.40115410873E+03 -0.11305655936E+04 -0.17844893659E+04  0.21521901769E+04  0.91744644867E+02 0.  0.
          2    1    3    3  502    0 -0.13400897849E+03  0.44813176292E+03 -0.13725674298E+03  0.48746271319E+03  0.00000000000E+00 0. -1.
         -1    1    3    3    0  502 -0.19655739130E+03  0.54541730311E+03 -0.85176503929E+02  0.58597771240E+03  0.00000000000E+00 0.  1.
         13    1    5    5    0    0  0.22485925548E+02  0.39027979633E+02 -0.50449917839E+02  0.67631311181E+02  0.00000000000E+00 0. -1.
        -13    1    5    5    0    0 -0.93073664476E+02  0.97988547942E+02 -0.20177172004E+03  0.24285034395E+03  0.00000000000E+00 0.  1.
          4    1    6    6  503    0  0.35606300686E+03 -0.89610422761E+03 -0.14422718984E+04  0.17349155255E+04  0.00000000000E+00 0.  1.
         -4    1    6    6    0  503  0.45091101870E+02 -0.23446136599E+03 -0.34221746752E+03  0.41727465138E+03  0.00000000000E+00 0. -1.
<mgrwt>
<rscale>  0 0.27203597E+04</rscale>
<asrwt>0</asrwt>
<pdfrwt beam="1">  1        2 0.44578897E+00 0.27203597E+04</pdfrwt>
<pdfrwt beam="2">  1       -1 0.98228307E-01 0.27203597E+04</pdfrwt>
<totfact> 0.19918992E+00</totfact>
</mgrwt>
</event>
<event>
12    7  0.2426980E-007  0.1677435E+04  0.7818608E-02  0.8774340E-01
         -1   -1    0    0    0  501 -0.00000000000E+00  0.00000000000E+00  0.22271745861E+03  0.22271745861E+03  0.00000000000E+00 0.  1.
          2   -1    0    0  501    0  0.00000000000E+00 -0.00000000000E+00 -0.31584720908E+04  0.31584720908E+04  0.00000000000E+00 0. -1.
         24    2    1    2    0    0  0.38025065174E+03 -0.45000677421E+03 -0.83877433887E+03  0.10280046902E+04  0.78451237099E+02 0.  0.
        254    2    1    2    0    0 -0.38025065174E+03  0.45000677421E+03 -0.20969802933E+04  0.23531848592E+04  0.89053690317E+03 0.  0.
         23    2    4    4    0    0  0.22126923342E+03  0.38500078389E+03 -0.97326404908E+03  0.10736672898E+04  0.91284514851E+02 0.  0.
         23    2    4    4    0    0 -0.60151988516E+03  0.65005990324E+02 -0.11237162442E+04  0.12795175694E+04  0.91515363826E+02 0.  0.
          4    1    3    3  502    0  0.15843632049E+02 -0.51122569930E+02 -0.88915447284E+02  0.10378099344E+03  0.00000000000E+00 0. -1.
         -3    1    3    3    0  502  0.36440701969E+03 -0.39888420428E+03 -0.74985889159E+03  0.92422369679E+03  0.00000000000E+00 0.  1.
         13    1    5    5    0    0  0.98916193785E+02  0.20916292074E+03 -0.40595991646E+03  0.46726544338E+03  0.00000000000E+00 0.  1.
        -13    1    5    5    0    0  0.12235303964E+03  0.17583786315E+03 -0.56730413262E+03  0.60640184640E+03  0.00000000000E+00 0. -1.
          2    1    6    6  503    0 -0.92070759854E+02  0.42640525696E+02 -0.16786198354E+03  0.19614506053E+03  0.00000000000E+00 0. -1.
         -2    1    6    6    0  503 -0.50944912530E+03  0.22365464629E+02 -0.95585426068E+03  0.10833725089E+04  0.00000000000E+00 0.  1.
<mgrwt>
<rscale>  0 0.16774348E+04</rscale>
<asrwt>0</asrwt>
<pdfrwt beam="1">  1        2 0.48591878E+00 0.16774348E+04</pdfrwt>
<pdfrwt beam="2">  1       -1 0.34264224E-01 0.16774348E+04</pdfrwt>
<totfact> 0.12152328E+01</totfact>
</mgrwt>
</event>
<event>
12    7  0.2426980E-007  0.1410807E+04  0.7818608E-02  0.8946033E-01
          4   -1    0    0  501    0  0.00000000000E+00  0.00000000000E+00  0.51432840292E+03  0.51432840292E+03  0.00000000000E+00 0. -1.
         -3   -1    0    0    0  501 -0.00000000000E+00 -0.00000000000E+00 -0.96746352023E+03  0.96746352023E+03  0.00000000000E+00 0.  1.
         24    2    1    2    0    0  0.67780693776E+02 -0.10272404023E+03 -0.54361221015E+03  0.56291160083E+03  0.78795840188E+02 0.  0.
        254    2    1    2    0    0 -0.67780693776E+02  0.10272404023E+03  0.90477092846E+02  0.91888032232E+03  0.90609518900E+03 0.  0.
         23    2    4    4    0    0 -0.40359269546E+03 -0.11273865304E+03  0.22944407308E+03  0.48628456055E+03  0.90724987933E+02 0.  0.
         23    2    4    4    0    0  0.33581200168E+03  0.21546269327E+03 -0.13896698024E+03  0.43259576177E+03  0.92916084950E+02 0.  0.
          2    1    3    3  502    0  0.26985991447E+02 -0.29627361501E+02 -0.60291941246E+02  0.72395735117E+02  0.00000000000E+00 0. -1.
         -3    1    3    3    0  502  0.40794702329E+02 -0.73096678724E+02 -0.48332026891E+03  0.49051586571E+03  0.00000000000E+00 0.  1.
         13    1    5    5    0    0 -0.36767030616E+03 -0.10975488639E+03  0.23479975806E+03  0.44984276753E+03  0.00000000000E+00 0. -1.
        -13    1    5    5    0    0 -0.35922389305E+02 -0.29837666522E+01 -0.53556849749E+01  0.36441793017E+02  0.00000000000E+00 0.  1.
          3    1    6    6  503    0  0.12805449669E+03  0.31476432853E+02 -0.37234227367E+02  0.13702228883E+03  0.00000000000E+00 0.  1.
         -3    1    6    6    0  503  0.20775750499E+03  0.18398626041E+03 -0.10173275287E+03  0.29557347294E+03  0.00000000000E+00 0. -1.
<mgrwt>
<rscale>  0 0.14108068E+04</rscale>
<asrwt>0</asrwt>
<pdfrwt beam="1">  1        4 0.79127447E-01 0.14108068E+04</pdfrwt>
<pdfrwt beam="2">  1       -3 0.14884054E+00 0.14108068E+04</pdfrwt>
<totfact> 0.10418647E+00</totfact>
</mgrwt>
</event>
<event>
12    7  0.2426980E-007  0.2200299E+04  0.7818608E-02  0.8518304E-01
         -1   -1    0    0    0  501 -0.00000000000E+00  0.00000000000E+00  0.74575238073E+03  0.74575238073E+03  0.00000000000E+00 0.  1.
          2   -1    0    0  501    0  0.00000000000E+00 -0.00000000000E+00 -0.16229638617E+04  0.16229638617E+04  0.00000000000E+00 0. -1.
         24    2    1    2    0    0  0.71282009549E+03  0.10593536990E+03  0.24084965721E+03  0.76406501643E+03  0.80324347637E+02 0.  0.
        254    2    1    2    0    0 -0.71282009549E+03 -0.10593536990E+03 -0.11180611382E+04  0.16046512260E+04  0.89750212104E+03 0.  0.
         23    2    4    4    0    0 -0.83705751820E+03  0.10253514292E+03 -0.10228831603E+04  0.13289199575E+04  0.92517833683E+02 0.  0.
         23    2    4    4    0    0  0.12423742271E+03 -0.20847051282E+03 -0.95177977927E+02  0.27573126852E+03  0.89855400708E+02 0.  0.
          2    1    3    3  502    0  0.31053708894E+03  0.49112144292E+02  0.63394156584E+02  0.32072434490E+03  0.00000000000E+00 0. -1.
         -1    1    3    3    0  502  0.40228300655E+03  0.56823225610E+02  0.17745550063E+03  0.44334067153E+03  0.00000000000E+00 0.  1.
         13    1    5    5    0    0 -0.72556899773E+03  0.11918534145E+03 -0.87352101870E+03  0.11417944150E+04  0.00000000000E+00 0.  1.
        -13    1    5    5    0    0 -0.11148852048E+03 -0.16650198526E+02 -0.14936214158E+03  0.18712554247E+03  0.00000000000E+00 0. -1.
          1    1    6    6  503    0  0.15858282877E+02  0.40409525199E+01 -0.19512224007E+02  0.25466474408E+02  0.00000000000E+00 0. -1.
         -1    1    6    6    0  503  0.10837913984E+03 -0.21251146534E+03 -0.75665753920E+02  0.25026479411E+03  0.00000000000E+00 0.  1.
<mgrwt>
<rscale>  0 0.22002992E+04</rscale>
<asrwt>0</asrwt>
<pdfrwt beam="1">  1        2 0.24968675E+00 0.22002992E+04</pdfrwt>
<pdfrwt beam="2">  1       -1 0.11473114E+00 0.22002992E+04</pdfrwt>
<totfact> 0.77799235E+00</totfact>
</mgrwt>
</event>
<event>
12    7  0.2426980E-007  0.1383447E+04  0.7818608E-02  0.8965888E-01
         -1   -1    0    0    0  501 -0.00000000000E+00  0.00000000000E+00  0.58778734923E+03  0.58778734923E+03  0.00000000000E+00 0.  1.
          2   -1    0    0  501    0  0.00000000000E+00 -0.00000000000E+00 -0.81403830111E+03  0.81403830111E+03  0.00000000000E+00 0. -1.
         24    2    1    2    0    0  0.18181421206E+03  0.27173654018E+03  0.15690213644E+03  0.37139956397E+03  0.80138634374E+02 0.  0.
        254    2    1    2    0    0 -0.18181421206E+03 -0.27173654018E+03 -0.38315308832E+03  0.10304260864E+04  0.89892962761E+03 0.  0.
         23    2    4    4    0    0 -0.27124202463E+02 -0.37641545796E+03 -0.60972432188E+03  0.72288486374E+03  0.91512065814E+02 0.  0.
         23    2    4    4    0    0 -0.15469000959E+03  0.10467891777E+03  0.22657123356E+03  0.30754122263E+03  0.91435249460E+02 0.  0.
          4    1    3    3  502    0  0.51985109687E+02  0.12401701178E+03  0.31356702583E+02  0.13807937441E+03  0.00000000000E+00 0. -1.
         -3    1    3    3    0  502  0.12982910237E+03  0.14771952840E+03  0.12554543386E+03  0.23332018956E+03  0.00000000000E+00 0.  1.
         13    1    5    5    0    0 -0.31404373135E+02 -0.37537304968E+03 -0.61143991243E+03  0.71815731396E+03  0.00000000000E+00 0.  1.
        -13    1    5    5    0    0  0.42801706718E+01 -0.10424082764E+01  0.17155905544E+01  0.47275497824E+01  0.00000000000E+00 0. -1.
          1    1    6    6  503    0  0.88510224639E+01 -0.22133823065E+01  0.25938837108E+02  0.27496598524E+02  0.00000000000E+00 0. -1.
         -1    1    6    6    0  503 -0.16354103206E+03  0.10689230008E+03  0.20063239645E+03  0.28004462410E+03  0.00000000000E+00 0.  1.
<mgrwt>
<rscale>  0 0.13834470E+04</rscale>
<asrwt>0</asrwt>
<pdfrwt beam="1">  1        2 0.12523666E+00 0.13834470E+04</pdfrwt>
<pdfrwt beam="2">  1       -1 0.90428824E-01 0.13834470E+04</pdfrwt>
<totfact> 0.44770431E+01</totfact>
</mgrwt>
</event>
<event>
12    7  0.2426980E-007  0.1555398E+04  0.7818608E-02  0.8848427E-01
         -1   -1    0    0    0  501 -0.00000000000E+00  0.00000000000E+00  0.47961339517E+03  0.47961339517E+03  0.00000000000E+00 0.  1.
          2   -1    0    0  501    0  0.00000000000E+00 -0.00000000000E+00 -0.12610487304E+04  0.12610487304E+04  0.00000000000E+00 0. -1.
         24    2    1    2    0    0 -0.19578544896E+03 -0.47086501022E+03 -0.21574558370E+03  0.55886506584E+03  0.75750940970E+02 0.  0.
        254    2    1    2    0    0  0.19578544896E+03  0.47086501022E+03 -0.56568975149E+03  0.11817970597E+04  0.90365568415E+03 0.  0.
         23    2    4    4    0    0 -0.10138549841E+03  0.41438797645E+03  0.97935504134E+02  0.44678833392E+03  0.89621638274E+02 0.  0.
         23    2    4    4    0    0  0.29717094737E+03  0.56477033774E+02 -0.66362525563E+03  0.73500872578E+03  0.91318780975E+02 0.  0.
          4    1    3    3  502    0 -0.13889949157E+03 -0.34297655156E+03 -0.19204893847E+03  0.41690379999E+03  0.00000000000E+00 0. -1.
         -3    1    3    3    0  502 -0.56885957391E+02 -0.12788845866E+03 -0.23696645224E+02  0.14196126585E+03  0.00000000000E+00 0.  1.
         13    1    5    5    0    0 -0.80580729295E+01  0.34048365959E+02 -0.16647310387E+02  0.38747344514E+02  0.00000000000E+00 0. -1.
        -13    1    5    5    0    0 -0.93327425480E+02  0.38033961049E+03  0.11458281452E+03  0.40804098941E+03  0.00000000000E+00 0.  1.
          4    1    6    6  503    0 -0.25480568575E+01  0.42015711531E+01  0.56793198987E-01  0.49141651754E+01  0.00000000000E+00 0. -1.
         -4    1    6    6    0  503  0.29971900423E+03  0.52275462621E+02 -0.66368204882E+03  0.73009456060E+03  0.00000000000E+00 0.  1.
<mgrwt>
<rscale>  0 0.15553982E+04</rscale>
<asrwt>0</asrwt>
<pdfrwt beam="1">  1        2 0.19400750E+00 0.15553982E+04</pdfrwt>
<pdfrwt beam="2">  1       -1 0.73786675E-01 0.15553982E+04</pdfrwt>
<totfact> 0.35361390E+01</totfact>
</mgrwt>
</event>
<event>
12    7  0.2550679E-007  0.3840448E+04  0.7818608E-02  0.8037530E-01
         -1   -1    0    0    0  501 -0.00000000000E+00  0.00000000000E+00  0.13777154602E+04  0.13777154602E+04  0.00000000000E+00 0.  1.
          2   -1    0    0  501    0  0.00000000000E+00 -0.00000000000E+00 -0.26763580589E+04  0.26763580589E+04  0.00000000000E+00 0. -1.
         24    2    1    2    0    0  0.11391486878E+04 -0.11676944735E+04 -0.14522804597E+04  0.21855895464E+04  0.80703253971E+02 0.  0.
        254    2    1    2    0    0 -0.11391486878E+04  0.11676944735E+04  0.15363786097E+03  0.18684839727E+04  0.89802987005E+03 0.  0.
         23    2    4    4    0    0 -0.12009681865E+04  0.88878289676E+03  0.31326210407E+03  0.15291666073E+04  0.89206189523E+02 0.  0.
         23    2    4    4    0    0  0.61819498723E+02  0.27891157672E+03 -0.15962424309E+03  0.33931736543E+03  0.89683094540E+02 0.  0.
          2    1    3    3  502    0  0.59337393692E+03 -0.58939510979E+03 -0.79545114848E+03  0.11542191101E+04  0.00000000000E+00 0. -1.
         -1    1    3    3    0  502  0.54577475090E+03 -0.57829936369E+03 -0.65682931123E+03  0.10313704363E+04  0.00000000000E+00 0.  1.
         13    1    5    5    0    0 -0.11148261727E+04  0.79455394446E+03  0.29062098111E+03  0.13995048841E+04  0.00000000000E+00 0. -1.
        -13    1    5    5    0    0 -0.86142013840E+02  0.94228952297E+02  0.22641122957E+02  0.12966172314E+03  0.00000000000E+00 0.  1.
          2    1    6    6  503    0  0.17314177039E+02  0.22486877964E+03 -0.97457902918E+02  0.24569043861E+03  0.00000000000E+00 0. -1.
         -2    1    6    6    0  503  0.44505321684E+02  0.54042797081E+02 -0.62166340176E+02  0.93626926818E+02  0.00000000000E+00 0.  1.
<mgrwt>
<rscale>  0 0.38404478E+04</rscale>
<asrwt>0</asrwt>
<pdfrwt beam="1">  1        2 0.41174739E+00 0.38404478E+04</pdfrwt>
<pdfrwt beam="2">  1       -1 0.21195623E+00 0.38404478E+04</pdfrwt>
<totfact> 0.31048634E-01</totfact>
</mgrwt>
</event>
<event>
12    7  0.2426980E-007  0.2125232E+04  0.7818608E-02  0.8550209E-01
          2   -1    0    0  501    0  0.00000000000E+00  0.00000000000E+00  0.32082691657E+04  0.32082691657E+04  0.00000000000E+00 0. -1.
         -1   -1    0    0    0  501 -0.00000000000E+00 -0.00000000000E+00 -0.35195059558E+03  0.35195059558E+03  0.00000000000E+00 0.  1.
         24    2    1    2    0    0 -0.77365395439E+03  0.23175856476E+03  0.62967431842E+03  0.10273776038E+04  0.82234543246E+02 0.  0.
        254    2    1    2    0    0  0.77365395439E+03 -0.23175856476E+03  0.22266442517E+04  0.25328421574E+04  0.89726935607E+03 0.  0.
         23    2    4    4    0    0  0.74496699089E+03  0.93111019207E+02  0.96162785044E+03  0.12233524479E+04  0.90651032806E+02 0.  0.
         23    2    4    4    0    0  0.28686963499E+02 -0.32486958397E+03  0.12650164012E+04  0.13094897094E+04  0.90186558424E+02 0.  0.
          2    1    3    3  502    0 -0.37469508451E+03  0.14541059814E+03  0.34543825585E+03  0.52997003407E+03  0.00000000000E+00 0. -1.
         -1    1    3    3    0  502 -0.39895886988E+03  0.86347966624E+02  0.28423606258E+03  0.49740756977E+03  0.00000000000E+00 0.  1.
         13    1    5    5    0    0  0.43607184600E+03  0.26941265781E+02  0.61467720210E+03  0.75413032657E+03  0.00000000000E+00 0.  1.
        -13    1    5    5    0    0  0.30889514489E+03  0.66169753426E+02  0.34695064834E+03  0.46922212137E+03  0.00000000000E+00 0. -1.
          3    1    6    6  503    0  0.47680858705E+02 -0.10268852832E+03  0.49855688855E+03  0.51125078900E+03  0.00000000000E+00 0. -1.
         -3    1    6    6    0  503 -0.18993895206E+02 -0.22218105565E+03  0.76645951267E+03  0.79823892044E+03  0.00000000000E+00 0.  1.
<mgrwt>
<rscale>  0 0.21252315E+04</rscale>
<asrwt>0</asrwt>
<pdfrwt beam="1">  1        2 0.49357985E+00 0.21252315E+04</pdfrwt>
<pdfrwt beam="2">  1       -1 0.54146248E-01 0.21252315E+04</pdfrwt>
<totfact> 0.46281589E+00</totfact>
</mgrwt>
</event>
<event>
12    7  0.2426980E-007  0.3338117E+04  0.7818608E-02  0.8153264E-01
         -1   -1    0    0    0  501 -0.00000000000E+00  0.00000000000E+00  0.12465219564E+04  0.12465219564E+04  0.00000000000E+00 0.  1.
          2   -1    0    0  501    0  0.00000000000E+00 -0.00000000000E+00 -0.22348228737E+04  0.22348228737E+04  0.00000000000E+00 0. -1.
         24    2    1    2    0    0 -0.18129733579E+03  0.15250429933E+04 -0.26283107733E+03  0.15600655550E+04  0.78099330686E+02 0.  0.
        254    2    1    2    0    0  0.18129733579E+03 -0.15250429933E+04 -0.72546984001E+03  0.19212792751E+04  0.89798814522E+03 0.  0.
         23    2    4    4    0    0 -0.28593500444E+03 -0.24800176962E+03 -0.27401023215E+02  0.38995727105E+03  0.89733787813E+02 0.  0.
         23    2    4    4    0    0  0.46723234023E+03 -0.12770412237E+04 -0.69806881680E+03  0.15313220041E+04  0.92231559144E+02 0.  0.
          4    1    3    3  502    0 -0.31491786696E+02  0.56240789202E+03 -0.11000200625E+03  0.57392927353E+03  0.00000000000E+00 0. -1.
         -3    1    3    3    0  502 -0.14980554909E+03  0.96263510126E+03 -0.15282907108E+03  0.98613628149E+03  0.00000000000E+00 0.  1.
         13    1    5    5    0    0 -0.21089375807E+03 -0.18005578301E+03 -0.59782508820E+02  0.28367271732E+03  0.00000000000E+00 0. -1.
        -13    1    5    5    0    0 -0.75041246368E+02 -0.67945986610E+02  0.32381485606E+02  0.10628455374E+03  0.00000000000E+00 0.  1.
          3    1    6    6  503    0  0.17720503206E+03 -0.58479199861E+03 -0.27939786532E+03  0.67189766495E+03  0.00000000000E+00 0. -1.
         -3    1    6    6    0  503  0.29002730817E+03 -0.69224922505E+03 -0.41867095147E+03  0.85942433912E+03  0.00000000000E+00 0.  1.
<mgrwt>
<rscale>  0 0.33381167E+04</rscale>
<asrwt>0</asrwt>
<pdfrwt beam="1">  1        2 0.34381891E+00 0.33381167E+04</pdfrwt>
<pdfrwt beam="2">  1       -1 0.19177261E+00 0.33381167E+04</pdfrwt>
<totfact> 0.80225808E-01</totfact>
</mgrwt>
</event>
<event>
12    7  0.2426980E-007  0.3323852E+04  0.7818608E-02  0.8156853E-01
          2   -1    0    0  501    0  0.00000000000E+00  0.00000000000E+00  0.27818448466E+04  0.27818448466E+04  0.00000000000E+00 0. -1.
         -1   -1    0    0    0  501 -0.00000000000E+00 -0.00000000000E+00 -0.99286539973E+03  0.99286539973E+03  0.00000000000E+00 0.  1.
         24    2    1    2    0    0  0.59932456150E+03 -0.14131268922E+04  0.74161074368E+03  0.17066012730E+04  0.79899101662E+02 0.  0.
        254    2    1    2    0    0 -0.59932456150E+03  0.14131268922E+04  0.10473687031E+04  0.20681089733E+04  0.90773122760E+03 0.  0.
         23    2    4    4    0    0 -0.60173866779E+03  0.48012327099E+03  0.76597701637E+03  0.10897973769E+04  0.91267483046E+02 0.  0.
         23    2    4    4    0    0  0.24141062966E+01  0.93300362120E+03  0.28139168678E+03  0.97831159636E+03  0.86085498823E+02 0.  0.
          2    1    3    3  502    0  0.18441792620E+03 -0.49068261034E+03  0.28776090687E+03  0.59798472816E+03  0.00000000000E+00 0. -1.
         -3    1    3    3    0  502  0.41490663530E+03 -0.92244428185E+03  0.45384983682E+03  0.11086165448E+04  0.00000000000E+00 0.  1.
         13    1    5    5    0    0 -0.16301992578E+03  0.11955957514E+03  0.25888134195E+03  0.32846542804E+03  0.00000000000E+00 0.  1.
        -13    1    5    5    0    0 -0.43871874202E+03  0.36056369586E+03  0.50709567441E+03  0.76133194887E+03  0.00000000000E+00 0. -1.
          4    1    6    6  503    0  0.25158315995E+02  0.79839105450E+03  0.26056609695E+03  0.84021182308E+03  0.00000000000E+00 0. -1.
         -4    1    6    6    0  503 -0.22744209698E+02  0.13461256669E+03  0.20825589836E+02  0.13809977328E+03  0.00000000000E+00 0.  1.
<mgrwt>
<rscale>  0 0.33238517E+04</rscale>
<asrwt>0</asrwt>
<pdfrwt beam="1">  1        2 0.42797613E+00 0.33238517E+04</pdfrwt>
<pdfrwt beam="2">  1       -1 0.15274852E+00 0.33238517E+04</pdfrwt>
<totfact> 0.74558973E-01</totfact>
</mgrwt>
</event>
<event>
12    7  0.2426980E-007  0.1620302E+04  0.7818608E-02  0.8808172E-01
          4   -1    0    0  501    0  0.00000000000E+00  0.00000000000E+00  0.74350084941E+03  0.74350084941E+03  0.00000000000E+00 0. -1.
         -3   -1    0    0    0  501 -0.00000000000E+00 -0.00000000000E+00 -0.88277606050E+03  0.88277606050E+03  0.00000000000E+00 0.  1.
         24    2    1    2    0    0 -0.18507948422E+03 -0.25398903906E+03 -0.50947665005E+03  0.60363184448E+03  0.77718075653E+02 0.  0.
        254    2    1    2    0    0  0.18507948422E+03  0.25398903906E+03  0.37020143895E+03  0.10226450654E+04  0.89999387609E+03 0.  0.
         23    2    4    4    0    0  0.42587304941E+03 -0.14183321305E+01 -0.83338766312E+02  0.44237611219E+03  0.85915125443E+02 0.  0.
         23    2    4    4    0    0 -0.24079356520E+03  0.25540737119E+03  0.45354020527E+03  0.58026895324E+03  0.88311233709E+02 0.  0.
          2    1    3    3  502    0 -0.11126850660E+03 -0.92416268349E+02 -0.20041761908E+03  0.24716122118E+03  0.00000000000E+00 0. -1.
         -1    1    3    3    0  502 -0.73810977610E+02 -0.16157277071E+03 -0.30905903097E+03  0.35647062330E+03  0.00000000000E+00 0.  1.
         13    1    5    5    0    0  0.39654317834E+02  0.24274611538E+02 -0.17848613989E+02  0.49802557259E+02  0.00000000000E+00 0. -1.
        -13    1    5    5    0    0  0.38621873158E+03 -0.25692943668E+02 -0.65490152323E+02  0.39257355493E+03  0.00000000000E+00 0.  1.
          4    1    6    6  503    0 -0.17454889289E+03  0.16416020980E+03  0.36625788355E+03  0.43767651040E+03  0.00000000000E+00 0. -1.
         -4    1    6    6    0  503 -0.66244672314E+02  0.91247161390E+02  0.87282321716E+02  0.14259244284E+03  0.00000000000E+00 0.  1.
<mgrwt>
<rscale>  0 0.16203021E+04</rscale>
<asrwt>0</asrwt>
<pdfrwt beam="1">  1        4 0.11438475E+00 0.16203021E+04</pdfrwt>
<pdfrwt beam="2">  1       -3 0.13581170E+00 0.16203021E+04</pdfrwt>
<totfact> 0.54310597E-01</totfact>
</mgrwt>
</event>
<event>
12    7  0.2426980E-007  0.2261630E+04  0.7818608E-02  0.8493205E-01
          4   -1    0    0  501    0  0.00000000000E+00  0.00000000000E+00  0.71989126862E+03  0.71989126862E+03  0.00000000000E+00 0. -1.
         -3   -1    0    0    0  501 -0.00000000000E+00 -0.00000000000E+00 -0.17763002423E+04  0.17763002423E+04  0.00000000000E+00 0.  1.
         24    2    1    2    0    0  0.17381716779E+03 -0.85672217111E+03 -0.85447335217E+03  0.12249105304E+04  0.78075678385E+02 0.  0.
        254    2    1    2    0    0 -0.17381716779E+03  0.85672217111E+03 -0.20193562149E+03  0.12712809805E+04  0.90066200650E+03 0.  0.
         23    2    4    4    0    0 -0.40648743191E+03  0.76274634669E+03 -0.38163538121E+03  0.94916965459E+03  0.90903505459E+02 0.  0.
         23    2    4    4    0    0  0.23267026412E+03  0.93975824418E+02  0.17969975972E+03  0.32211132595E+03  0.92178062879E+02 0.  0.
          2    1    3    3  502    0  0.15234846497E+03 -0.56608560878E+03 -0.57016487872E+03  0.81777194876E+03  0.00000000000E+00 0. -1.
         -3    1    3    3    0  502  0.21468702818E+02 -0.29063656233E+03 -0.28430847345E+03  0.40713858161E+03  0.00000000000E+00 0.  1.
         13    1    5    5    0    0 -0.41078118137E+03  0.74543579813E+03 -0.37586026557E+03  0.93042283255E+03  0.00000000000E+00 0.  1.
        -13    1    5    5    0    0  0.42937494520E+01  0.17310548557E+02 -0.57751156389E+01  0.18746822033E+02  0.00000000000E+00 0. -1.
          4    1    6    6  503    0  0.15329706394E+03  0.89149407158E+02  0.79896173188E+02  0.19450194112E+03  0.00000000000E+00 0. -1.
         -4    1    6    6    0  503  0.79373200188E+02  0.48264172597E+01  0.99803586532E+02  0.12760938483E+03  0.00000000000E+00 0.  1.
<mgrwt>
<rscale>  0 0.22616304E+04</rscale>
<asrwt>0</asrwt>
<pdfrwt beam="1">  1        4 0.11075250E+00 0.22616304E+04</pdfrwt>
<pdfrwt beam="2">  1       -3 0.27327696E+00 0.22616304E+04</pdfrwt>
<totfact> 0.72113223E-02</totfact>
</mgrwt>
</event>
<event>
12    7  0.2426980E-007  0.2208396E+04  0.7818608E-02  0.8514942E-01
          2   -1    0    0  501    0  0.00000000000E+00  0.00000000000E+00  0.14495582555E+04  0.14495582555E+04  0.00000000000E+00 0. -1.
         -1   -1    0    0    0  501 -0.00000000000E+00 -0.00000000000E+00 -0.84112040984E+03  0.84112040984E+03  0.00000000000E+00 0.  1.
         24    2    1    2    0    0 -0.63716116033E+03  0.97577753510E+02 -0.42465155096E+03  0.77609076349E+03  0.80574010900E+02 0.  0.
        254    2    1    2    0    0  0.63716116033E+03 -0.97577753510E+02  0.10330893966E+04  0.15145879018E+04  0.90067033301E+03 0.  0.
         23    2    4    4    0    0  0.57612595101E+03  0.14609565905E+03  0.19072008010E+03  0.63082615289E+03  0.91117688724E+02 0.  0.
         23    2    4    4    0    0  0.61035209324E+02 -0.24367341256E+03  0.84236931649E+03  0.88376174893E+03  0.91360465925E+02 0.  0.
          2    1    3    3  502    0 -0.70527925698E+01  0.10250658248E+02 -0.14910978713E+02  0.19420483097E+02  0.00000000000E+00 0. -1.
         -1    1    3    3    0  502 -0.63010836776E+03  0.87327095263E+02 -0.40974057225E+03  0.75667028040E+03  0.00000000000E+00 0.  1.
         13    1    5    5    0    0  0.31008890205E+03  0.84092854177E+02  0.55587163517E+02  0.32606236834E+03  0.00000000000E+00 0. -1.
        -13    1    5    5    0    0  0.26603704896E+03  0.62002804872E+02  0.13513291658E+03  0.30476378455E+03  0.00000000000E+00 0.  1.
          3    1    6    6  503    0  0.76761963965E+02 -0.13090161534E+03  0.52957541332E+03  0.55088814691E+03  0.00000000000E+00 0. -1.
         -3    1    6    6    0  503 -0.15726754641E+02 -0.11277179722E+03  0.31279390318E+03  0.33287360202E+03  0.00000000000E+00 0.  1.
<mgrwt>
<rscale>  0 0.22083958E+04</rscale>
<asrwt>0</asrwt>
<pdfrwt beam="1">  1        2 0.22300896E+00 0.22083958E+04</pdfrwt>
<pdfrwt beam="2">  1       -1 0.12940314E+00 0.22083958E+04</pdfrwt>
<totfact> 0.72396218E+00</totfact>
</mgrwt>
</event>
<event>
12    7  0.2426980E-007  0.1599451E+04  0.7818608E-02  0.8820886E-01
          2   -1    0    0  501    0  0.00000000000E+00  0.00000000000E+00  0.14051565254E+04  0.14051565254E+04  0.00000000000E+00 0. -1.
         -1   -1    0    0    0  501 -0.00000000000E+00 -0.00000000000E+00 -0.45515253215E+03  0.45515253215E+03  0.00000000000E+00 0.  1.
         24    2    1    2    0    0  0.39446489688E+03  0.36694329857E+03  0.26792611719E+03  0.60653105680E+03  0.76456388632E+02 0.  0.
        254    2    1    2    0    0 -0.39446489688E+03 -0.36694329857E+03  0.68207787608E+03  0.12537780008E+04  0.90359233448E+03 0.  0.
         23    2    4    4    0    0 -0.27772295964E+03  0.14155547735E+03 -0.72026358230E+02  0.33241035271E+03  0.90226663600E+02 0.  0.
         23    2    4    4    0    0 -0.11674193723E+03 -0.50849877592E+03  0.75410423431E+03  0.92136764805E+03  0.89696497463E+02 0.  0.
          2    1    3    3  502    0  0.10806172770E+03  0.82349229276E+02  0.10253218478E+03  0.17021040353E+03  0.00000000000E+00 0. -1.
         -1    1    3    3    0  502  0.28640316918E+03  0.28459406929E+03  0.16539393241E+03  0.43632065327E+03  0.00000000000E+00 0.  1.
         13    1    5    5    0    0 -0.39332338010E+02  0.55478764792E+02 -0.34287600103E+02  0.76161444820E+02  0.00000000000E+00 0. -1.
        -13    1    5    5    0    0 -0.23839062163E+03  0.86076712562E+02 -0.37738758127E+02  0.25624890789E+03  0.00000000000E+00 0.  1.
          1    1    6    6  503    0 -0.48905288794E+02 -0.10104730888E+03  0.11757987854E+03  0.16256479859E+03  0.00000000000E+00 0. -1.
         -1    1    6    6    0  503 -0.67836648438E+02 -0.40745146704E+03  0.63652435577E+03  0.75880284946E+03  0.00000000000E+00 0.  1.
<mgrwt>
<rscale>  0 0.15994506E+04</rscale>
<asrwt>0</asrwt>
<pdfrwt beam="1">  1        2 0.21617793E+00 0.15994506E+04</pdfrwt>
<pdfrwt beam="2">  1       -1 0.70023467E-01 0.15994506E+04</pdfrwt>
<totfact> 0.32388260E+01</totfact>
</mgrwt>
</event>
<event>
12    7  0.2426980E-007  0.1906333E+04  0.7818608E-02  0.8651710E-01
          4   -1    0    0  501    0  0.00000000000E+00  0.00000000000E+00  0.11670454173E+04  0.11670454173E+04  0.00000000000E+00 0. -1.
         -3   -1    0    0    0  501 -0.00000000000E+00 -0.00000000000E+00 -0.77848449549E+03  0.77848449549E+03  0.00000000000E+00 0.  1.
         24    2    1    2    0    0 -0.62534373399E+03  0.25645501288E+03 -0.15336894819E+03  0.69742242498E+03  0.77794892694E+02 0.  0.
        254    2    1    2    0    0  0.62534373399E+03 -0.25645501288E+03  0.54192987000E+03  0.12481074878E+04  0.89847668742E+03 0.  0.
         23    2    4    4    0    0 -0.13761830542E+03 -0.30855754551E+03  0.21359103587E+03  0.41073047167E+03  0.94508374656E+02 0.  0.
         23    2    4    4    0    0  0.76296203940E+03  0.52102532635E+02  0.32833883413E+03  0.83737701613E+03  0.92564192098E+02 0.  0.
          4    1    3    3  502    0 -0.10919780463E+03  0.16439988279E+02 -0.13353177391E+02  0.11123282383E+03  0.00000000000E+00 0. -1.
         -3    1    3    3    0  502 -0.51614592936E+03  0.24001502460E+03 -0.14001577080E+03  0.58618960115E+03  0.00000000000E+00 0.  1.
         13    1    5    5    0    0 -0.71212014771E+02 -0.22610113697E+03  0.18602875873E+03  0.30132967703E+03  0.00000000000E+00 0.  1.
        -13    1    5    5    0    0 -0.66406290646E+02 -0.82456408540E+02  0.27562277141E+02  0.10940079464E+03  0.00000000000E+00 0. -1.
          1    1    6    6  503    0  0.57049768973E+03 -0.14672143526E+01  0.23940570439E+03  0.61869609502E+03  0.00000000000E+00 0. -1.
         -1    1    6    6    0  503  0.19246434967E+03  0.53569746988E+02  0.88933129747E+02  0.21868092110E+03  0.00000000000E+00 0.  1.
<mgrwt>
<rscale>  0 0.19063334E+04</rscale>
<asrwt>0</asrwt>
<pdfrwt beam="1">  1        4 0.17954545E+00 0.19063334E+04</pdfrwt>
<pdfrwt beam="2">  1       -3 0.11976685E+00 0.19063334E+04</pdfrwt>
<totfact> 0.21998232E-01</totfact>
</mgrwt>
</event>
<event>
12    7  0.2426980E-007  0.1250972E+04  0.7818608E-02  0.9069375E-01
          2   -1    0    0  501    0  0.00000000000E+00  0.00000000000E+00  0.12195576266E+04  0.12195576266E+04  0.00000000000E+00 0. -1.
         -1   -1    0    0    0  501 -0.00000000000E+00 -0.00000000000E+00 -0.32079866444E+03  0.32079866444E+03  0.00000000000E+00 0.  1.
         24    2    1    2    0    0  0.20352759838E+03 -0.11424643259E+03  0.82287047674E+01  0.24654823827E+03  0.79010072452E+02 0.  0.
        254    2    1    2    0    0 -0.20352759838E+03  0.11424643259E+03  0.89053025735E+03  0.12938080527E+04  0.90907612850E+03 0.  0.
         23    2    4    4    0    0  0.34544503031E+03 -0.30369525857E+02  0.28206374377E+03  0.45660153576E+03  0.93115142940E+02 0.  0.
         23    2    4    4    0    0 -0.54897262869E+03  0.14461595845E+03  0.60846651359E+03  0.83720651697E+03  0.91643501771E+02 0.  0.
          4    1    3    3  502    0  0.77815203282E+02 -0.53477481839E+02  0.41297597646E+02  0.10305599690E+03  0.00000000000E+00 0. -1.
         -3    1    3    3    0  502  0.12571239510E+03 -0.60768950750E+02 -0.33068892878E+02  0.14349224137E+03  0.00000000000E+00 0.  1.
         13    1    5    5    0    0  0.12997710081E+03  0.18223540603E+02  0.14974147523E+03  0.19911969659E+03  0.00000000000E+00 0. -1.
        -13    1    5    5    0    0  0.21546792950E+03 -0.48593066460E+02  0.13232226854E+03  0.25748183917E+03  0.00000000000E+00 0.  1.
          4    1    6    6  503    0 -0.13138359019E+03  0.64416410349E+02  0.11722712563E+03  0.18749218831E+03  0.00000000000E+00 0. -1.
         -4    1    6    6    0  503 -0.41758903850E+03  0.80199548097E+02  0.49123938796E+03  0.64971432867E+03  0.00000000000E+00 0.  1.
<mgrwt>
<rscale>  0 0.12509716E+04</rscale>
<asrwt>0</asrwt>
<pdfrwt beam="1">  1        2 0.18762425E+00 0.12509716E+04</pdfrwt>
<pdfrwt beam="2">  1       -1 0.49353641E-01 0.12509716E+04</pdfrwt>
<totfact> 0.85031258E+01</totfact>
</mgrwt>
</event>
<event>
12    7  0.2426980E-007  0.3896796E+04  0.7818608E-02  0.8025696E-01
         -1   -1    0    0    0  501 -0.00000000000E+00  0.00000000000E+00  0.14299754148E+04  0.14299754148E+04  0.00000000000E+00 0.  1.
          2   -1    0    0  501    0  0.00000000000E+00 -0.00000000000E+00 -0.26547686025E+04  0.26547686025E+04  0.00000000000E+00 0. -1.
         24    2    1    2    0    0  0.15816026040E+04  0.73858043790E+03  0.40940014740E+02  0.17483991632E+04  0.90860822101E+02 0.  0.
        254    2    1    2    0    0 -0.15816026040E+04 -0.73858043790E+03 -0.12657332025E+04  0.23363448540E+04  0.89969932585E+03 0.  0.
         23    2    4    4    0    0 -0.73955524728E+03 -0.21507918108E+03 -0.67429147257E+02  0.77848480058E+03  0.91054252610E+02 0.  0.
         23    2    4    4    0    0 -0.84204735672E+03 -0.52350125682E+03 -0.11983040552E+04  0.15578600535E+04  0.88870808328E+02 0.  0.
          2    1    3    3  502    0  0.12268046147E+04  0.61253544998E+03  0.21923104440E+02  0.13713970478E+04  0.00000000000E+00 0. -1.
         -1    1    3    3    0  502  0.35479798930E+03  0.12604498791E+03  0.19016910299E+02  0.37700211547E+03  0.00000000000E+00 0.  1.
         13    1    5    5    0    0 -0.62256997879E+03 -0.19499361573E+03 -0.26503859943E+02  0.65293058073E+03  0.00000000000E+00 0. -1.
        -13    1    5    5    0    0 -0.11698526850E+03 -0.20085565354E+02 -0.40925287314E+02  0.12555421985E+03  0.00000000000E+00 0.  1.
          1    1    6    6  503    0 -0.24502481095E+03 -0.11365608532E+03 -0.29182623671E+03  0.39763980704E+03  0.00000000000E+00 0. -1.
         -1    1    6    6    0  503 -0.59702254577E+03 -0.40984517150E+03 -0.90647781850E+03  0.11602202464E+04  0.00000000000E+00 0.  1.
<mgrwt>
<rscale>  0 0.38967955E+04</rscale>
<asrwt>0</asrwt>
<pdfrwt beam="1">  1        2 0.40842594E+00 0.38967955E+04</pdfrwt>
<pdfrwt beam="2">  1       -1 0.21999622E+00 0.38967955E+04</pdfrwt>
<totfact> 0.28098238E-01</totfact>
</mgrwt>
</event>
<event>
12    7  0.2426980E-007  0.1851674E+04  0.7818608E-02  0.8679292E-01
          2   -1    0    0  501    0  0.00000000000E+00  0.00000000000E+00  0.23953306247E+04  0.23953306247E+04  0.00000000000E+00 0. -1.
         -1   -1    0    0    0  501 -0.00000000000E+00 -0.00000000000E+00 -0.35785229536E+03  0.35785229536E+03  0.00000000000E+00 0.  1.
         24    2    1    2    0    0  0.69189552322E+03 -0.68423250166E+02  0.61334145690E+03  0.93057106582E+03  0.79834889495E+02 0.  0.
        254    2    1    2    0    0 -0.69189552322E+03  0.68423250166E+02  0.14241368725E+04  0.18226118543E+04  0.90019274802E+03 0.  0.
         23    2    4    4    0    0  0.18710169107E+03  0.13669469396E+02  0.98303833479E+02  0.22871047480E+03  0.86318830017E+02 0.  0.
         23    2    4    4    0    0 -0.87899721428E+03  0.54753780771E+02  0.13258330390E+04  0.15939013795E+04  0.83989766950E+02 0.  0.
          4    1    3    3  502    0  0.67833531522E+03 -0.61651926109E+02  0.61140682585E+03  0.91529124685E+03  0.00000000000E+00 0. -1.
         -3    1    3    3    0  502  0.13560208001E+02 -0.67713240570E+01  0.19346310489E+01  0.15279818972E+02  0.00000000000E+00 0.  1.
         13    1    5    5    0    0  0.11438218269E+03 -0.16544873686E+02  0.19316709526E+02  0.11717573055E+03  0.00000000000E+00 0. -1.
        -13    1    5    5    0    0  0.72719508375E+02  0.30214343082E+02  0.78987123953E+02  0.11153474426E+03  0.00000000000E+00 0.  1.
          2    1    6    6  503    0 -0.36188355918E+03  0.62412731399E+02  0.53013925761E+03  0.64490518055E+03  0.00000000000E+00 0. -1.
         -2    1    6    6    0  503 -0.51711365510E+03 -0.76589506288E+01  0.79569378139E+03  0.94899619892E+03  0.00000000000E+00 0.  1.
<mgrwt>
<rscale>  0 0.18516744E+04</rscale>
<asrwt>0</asrwt>
<pdfrwt beam="1">  1        2 0.36851239E+00 0.18516744E+04</pdfrwt>
<pdfrwt beam="2">  1       -1 0.55054201E-01 0.18516744E+04</pdfrwt>
<totfact> 0.14288184E+01</totfact>
</mgrwt>
</event>
<event>
12    7  0.2426980E-007  0.2007693E+04  0.7818608E-02  0.8603032E-01
         -1   -1    0    0    0  501 -0.00000000000E+00  0.00000000000E+00  0.57426615341E+03  0.57426615341E+03  0.00000000000E+00 0.  1.
          2   -1    0    0  501    0  0.00000000000E+00 -0.00000000000E+00 -0.17547747139E+04  0.17547747139E+04  0.00000000000E+00 0. -1.
         24    2    1    2    0    0  0.16361530422E+02 -0.69828824156E+03 -0.20050230954E+02  0.70312267671E+03  0.78136539234E+02 0.  0.
        254    2    1    2    0    0 -0.16361530422E+02  0.69828824156E+03 -0.11604583295E+04  0.16259181906E+04  0.89948444119E+03 0.  0.
         23    2    4    4    0    0  0.12376464652E+03  0.66388065567E+03 -0.29328610961E+03  0.74207297638E+03  0.92738058501E+02 0.  0.
         23    2    4    4    0    0 -0.14012617694E+03  0.34407585894E+02 -0.86717221993E+03  0.88384521421E+03  0.91517628017E+02 0.  0.
          4    1    3    3  502    0  0.37052740672E+02 -0.20210532442E+03 -0.20643586761E+02  0.20650817278E+03  0.00000000000E+00 0. -1.
         -3    1    3    3    0  502 -0.20691210250E+02 -0.49618291714E+03  0.59335580633E+00  0.49661450393E+03  0.00000000000E+00 0.  1.
         13    1    5    5    0    0  0.44283177120E+02  0.44070938199E+03 -0.21671346575E+03  0.49310291562E+03  0.00000000000E+00 0. -1.
        -13    1    5    5    0    0  0.79481469400E+02  0.22317127368E+03 -0.76572643856E+02  0.24897006077E+03  0.00000000000E+00 0.  1.
          1    1    6    6  503    0 -0.13937627902E+02 -0.23229207279E+02 -0.23936694133E+03  0.24089496912E+03  0.00000000000E+00 0. -1.
         -1    1    6    6    0  503 -0.12618854904E+03  0.57636793173E+02 -0.62780527859E+03  0.64295024509E+03  0.00000000000E+00 0.  1.
<mgrwt>
<rscale>  0 0.20076929E+04</rscale>
<asrwt>0</asrwt>
<pdfrwt beam="1">  1        2 0.26996534E+00 0.20076929E+04</pdfrwt>
<pdfrwt beam="2">  1       -1 0.88348639E-01 0.20076929E+04</pdfrwt>
<totfact> 0.12163624E+01</totfact>
</mgrwt>
</event>
<event>
12    7  0.2426980E-007  0.1089780E+04  0.7818608E-02  0.9215210E-01
          2   -1    0    0  501    0  0.00000000000E+00  0.00000000000E+00  0.12229155905E+04  0.12229155905E+04  0.00000000000E+00 0. -1.
         -1   -1    0    0    0  501 -0.00000000000E+00 -0.00000000000E+00 -0.24278483448E+03  0.24278483448E+03  0.00000000000E+00 0.  1.
         24    2    1    2    0    0  0.70926376129E+02  0.13900916072E+03  0.15378282931E+03  0.23342174258E+03  0.80513686551E+02 0.  0.
        254    2    1    2    0    0 -0.70926376129E+02 -0.13900916072E+03  0.82634792670E+03  0.12322786824E+04  0.90072512873E+03 0.  0.
         23    2    4    4    0    0 -0.28239321664E+03 -0.11067068707E+03  0.92929322986E+03  0.98180455832E+03  0.91434970880E+02 0.  0.
         23    2    4    4    0    0  0.21146684051E+03 -0.28338473647E+02 -0.10294530316E+03  0.25047412407E+03  0.81352674598E+02 0.  0.
          4    1    3    3  502    0  0.64675401015E+02  0.10345864868E+03  0.15505498041E+03  0.19730343746E+03  0.00000000000E+00 0. -1.
         -3    1    3    3    0  502  0.62509751140E+01  0.35550512038E+02 -0.12721511012E+01  0.36118305116E+02  0.00000000000E+00 0.  1.
         13    1    5    5    0    0 -0.52551326285E+02 -0.41980462223E+02  0.31992285977E+03  0.32691686605E+03  0.00000000000E+00 0. -1.
        -13    1    5    5    0    0 -0.22984189035E+03 -0.68690224852E+02  0.60937037009E+03  0.65488769228E+03  0.00000000000E+00 0.  1.
          1    1    6    6  503    0  0.28640920048E+02 -0.11657858216E+02 -0.51066942169E+02  0.59699585777E+02  0.00000000000E+00 0. -1.
         -1    1    6    6    0  503  0.18282592046E+03 -0.16680615432E+02 -0.51878360992E+02  0.19077453829E+03  0.00000000000E+00 0.  1.
<mgrwt>
<rscale>  0 0.10897805E+04</rscale>
<asrwt>0</asrwt>
<pdfrwt beam="1">  1        2 0.18814086E+00 0.10897805E+04</pdfrwt>
<pdfrwt beam="2">  1       -1 0.37351514E-01 0.10897805E+04</pdfrwt>
<totfact> 0.14328743E+02</totfact>
</mgrwt>
</event>
<event>
12    7  0.2426980E-007  0.4770625E+04  0.7818608E-02  0.7864899E-01
         -1   -1    0    0    0  501 -0.00000000000E+00  0.00000000000E+00  0.24013862173E+04  0.24013862173E+04  0.00000000000E+00 0.  1.
          2   -1    0    0  501    0  0.00000000000E+00 -0.00000000000E+00 -0.23693464126E+04  0.23693464126E+04  0.00000000000E+00 0. -1.
         24    2    1    2    0    0 -0.19472304172E+04  0.69466470686E+03  0.10225622910E+04  0.23079827616E+04  0.82978527711E+02 0.  0.
        254    2    1    2    0    0  0.19472304172E+04 -0.69466470686E+03 -0.99052248630E+03  0.24627498683E+04  0.89985374671E+03 0.  0.
         23    2    4    4    0    0  0.10844421174E+04 -0.64777544543E+03 -0.19041157061E+03  0.12814170508E+04  0.10072416951E+03 0.  0.
         23    2    4    4    0    0  0.86278829983E+03 -0.46889261431E+02 -0.80011091569E+03  0.11813328175E+04  0.93634903354E+02 0.  0.
          4    1    3    3  502    0 -0.10507498875E+04  0.33872385579E+03  0.57202533570E+03  0.12433913950E+04  0.00000000000E+00 0. -1.
         -3    1    3    3    0  502 -0.89648052973E+03  0.35594085107E+03  0.45053695528E+03  0.10645913665E+04  0.00000000000E+00 0.  1.
         13    1    5    5    0    0  0.48905661279E+03 -0.26050481699E+03 -0.12593103280E+03  0.56824093060E+03  0.00000000000E+00 0. -1.
        -13    1    5    5    0    0  0.59538550458E+03 -0.38727062844E+03 -0.64480537809E+02  0.71317612024E+03  0.00000000000E+00 0.  1.
          3    1    6    6  503    0  0.32351581097E+03  0.21763560699E+02 -0.32984093803E+03  0.46252694724E+03  0.00000000000E+00 0. -1.
         -3    1    6    6    0  503  0.53927248886E+03 -0.68652822130E+02 -0.47026997766E+03  0.71880587026E+03  0.00000000000E+00 0.  1.
<mgrwt>
<rscale>  0 0.47706250E+04</rscale>
<asrwt>0</asrwt>
<pdfrwt beam="1">  1        2 0.36451483E+00 0.47706250E+04</pdfrwt>
<pdfrwt beam="2">  1       -1 0.36944403E+00 0.47706250E+04</pdfrwt>
<totfact> 0.40242393E-02</totfact>
</mgrwt>
</event>
<event>
12    7  0.2426980E-007  0.3060138E+04  0.7818608E-02  0.8226763E-01
          2   -1    0    0  501    0  0.00000000000E+00  0.00000000000E+00  0.24981712990E+04  0.24981712990E+04  0.00000000000E+00 0. -1.
         -1   -1    0    0    0  501 -0.00000000000E+00 -0.00000000000E+00 -0.93713021539E+03  0.93713021539E+03  0.00000000000E+00 0.  1.
         24    2    1    2    0    0 -0.12791381791E+04 -0.24751054026E+03  0.12802110720E+04  0.18283000961E+04  0.79277383364E+02 0.  0.
        254    2    1    2    0    0  0.12791381791E+04  0.24751054026E+03  0.28083001159E+03  0.16070014183E+04  0.89784860311E+03 0.  0.
         23    2    4    4    0    0  0.52942892902E+03  0.52048612082E+03 -0.22955021183E+02  0.74817757126E+03  0.89676932912E+02 0.  0.
         23    2    4    4    0    0  0.74970925013E+03 -0.27297558055E+03  0.30378503277E+03  0.85882384704E+03  0.93345737929E+02 0.  0.
          2    1    3    3  502    0 -0.82354649975E+03 -0.17568371944E+03  0.87471771948E+03  0.12141765503E+04  0.00000000000E+00 0. -1.
         -1    1    3    3    0  502 -0.45559167940E+03 -0.71826820821E+02  0.40549335249E+03  0.61412354575E+03  0.00000000000E+00 0.  1.
         13    1    5    5    0    0  0.17111018988E+03  0.19463824137E+03 -0.46436882601E+02  0.26328525623E+03  0.00000000000E+00 0. -1.
        -13    1    5    5    0    0  0.35831873913E+03  0.32584787945E+03  0.23481861418E+02  0.48489231503E+03  0.00000000000E+00 0.  1.
          1    1    6    6  503    0  0.45405126710E+03 -0.17394394276E+03  0.23258949759E+03  0.53899621777E+03  0.00000000000E+00 0. -1.
         -1    1    6    6    0  503  0.29565798303E+03 -0.99031637793E+02  0.71195535187E+02  0.31982762927E+03  0.00000000000E+00 0.  1.
<mgrwt>
<rscale>  0 0.30601384E+04</rscale>
<asrwt>0</asrwt>
<pdfrwt beam="1">  1        2 0.38433404E+00 0.30601384E+04</pdfrwt>
<pdfrwt beam="2">  1       -1 0.14417388E+00 0.30601384E+04</pdfrwt>
<totfact> 0.13102805E+00</totfact>
</mgrwt>
</event>
<event>
12    7  0.2426980E-007  0.1535122E+04  0.7818608E-02  0.8861427E-01
          2   -1    0    0  501    0  0.00000000000E+00  0.00000000000E+00  0.23477366599E+04  0.23477366599E+04  0.00000000000E+00 0. -1.
         -1   -1    0    0    0  501 -0.00000000000E+00 -0.00000000000E+00 -0.25094371236E+03  0.25094371236E+03  0.00000000000E+00 0.  1.
         24    2    1    2    0    0  0.40585475443E+03  0.24308668558E+03  0.41812527310E+03  0.63628198296E+03  0.78846683082E+02 0.  0.
        254    2    1    2    0    0 -0.40585475443E+03 -0.24308668558E+03  0.16786676745E+04  0.19623983893E+04  0.89959605309E+03 0.  0.
         23    2    4    4    0    0  0.20913112655E+03  0.12056907630E+03  0.23642587907E+03  0.35034172631E+03  0.92571046477E+02 0.  0.
         23    2    4    4    0    0 -0.61498588099E+03 -0.36365576188E+03  0.14422417954E+04  0.16120566630E+04  0.90620866410E+02 0.  0.
          2    1    3    3  502    0  0.25210316677E+03  0.18886638195E+03  0.29953098048E+03  0.43467841584E+03  0.00000000000E+00 0. -1.
         -1    1    3    3    0  502  0.15375158767E+03  0.54220303631E+02  0.11859429261E+03  0.20160356712E+03  0.00000000000E+00 0.  1.
         13    1    5    5    0    0  0.14775449401E+03  0.11451414590E+03  0.21534527360E+03  0.28516393000E+03  0.00000000000E+00 0.  1.
        -13    1    5    5    0    0  0.61376632543E+02  0.60549304013E+01  0.21080605467E+02  0.65177796307E+02  0.00000000000E+00 0. -1.
          2    1    6    6  503    0 -0.29353196020E+03 -0.14314895893E+03  0.74041837492E+03  0.80924162400E+03  0.00000000000E+00 0. -1.
         -2    1    6    6    0  503 -0.32145392079E+03 -0.22050680295E+03  0.70182342047E+03  0.80281503901E+03  0.00000000000E+00 0.  1.
<mgrwt>
<rscale>  0 0.15351218E+04</rscale>
<asrwt>0</asrwt>
<pdfrwt beam="1">  1        2 0.36119024E+00 0.15351218E+04</pdfrwt>
<pdfrwt beam="2">  1       -1 0.38606727E-01 0.15351218E+04</pdfrwt>
<totfact> 0.30423976E+01</totfact>
</mgrwt>
</event>
<event>
12    7  0.2426980E-007  0.2852759E+04  0.7818608E-02  0.8287073E-01
          2   -1    0    0  501    0  0.00000000000E+00  0.00000000000E+00  0.14585299064E+04  0.14585299064E+04  0.00000000000E+00 0. -1.
         -1   -1    0    0    0  501 -0.00000000000E+00 -0.00000000000E+00 -0.13949379876E+04  0.13949379876E+04  0.00000000000E+00 0.  1.
         24    2    1    2    0    0 -0.83540685632E+02 -0.12594211669E+04  0.26127113356E+03  0.12914149840E+04  0.79808106807E+02 0.  0.
        254    2    1    2    0    0  0.83540685632E+02  0.12594211669E+04 -0.19767921480E+03  0.15620529100E+04  0.89878334421E+03 0.  0.
         23    2    4    4    0    0  0.26097098552E+03  0.97782709383E+02 -0.24611897814E+03  0.38220947675E+03  0.88556305130E+02 0.  0.
         23    2    4    4    0    0 -0.17743029989E+03  0.11616384575E+04  0.48439763336E+02  0.11798434332E+04  0.93801380455E+02 0.  0.
          4    1    3    3  502    0 -0.94630712280E+02 -0.11054448383E+04  0.24470875067E+03  0.11361538781E+04  0.00000000000E+00 0. -1.
         -3    1    3    3    0  502  0.11090026648E+02 -0.15397632865E+03  0.16562382896E+02  0.15526110589E+03  0.00000000000E+00 0.  1.
         13    1    5    5    0    0  0.21834784744E+02 -0.16129141431E+02 -0.28914241707E+02  0.39660312677E+02  0.00000000000E+00 0. -1.
        -13    1    5    5    0    0  0.23913620078E+03  0.11391185081E+03 -0.21720473643E+03  0.34254916407E+03  0.00000000000E+00 0.  1.
          2    1    6    6  503    0 -0.51680405038E+02  0.31333694457E+03 -0.28393707365E+02  0.31883711784E+03  0.00000000000E+00 0. -1.
         -2    1    6    6    0  503 -0.12574989485E+03  0.84830151295E+03  0.76833470701E+02  0.86100631540E+03  0.00000000000E+00 0.  1.
<mgrwt>
<rscale>  0 0.28527592E+04</rscale>
<asrwt>0</asrwt>
<pdfrwt beam="1">  1        2 0.22438922E+00 0.28527592E+04</pdfrwt>
<pdfrwt beam="2">  1       -1 0.21460584E+00 0.28527592E+04</pdfrwt>
<totfact> 0.15818881E+00</totfact>
</mgrwt>
</event>
<event>
12    7  0.2426980E-007  0.1350682E+04  0.7818608E-02  0.8990312E-01
          2   -1    0    0  501    0  0.00000000000E+00  0.00000000000E+00  0.57688038893E+03  0.57688038893E+03  0.00000000000E+00 0. -1.
         -1   -1    0    0    0  501 -0.00000000000E+00 -0.00000000000E+00 -0.79060629803E+03  0.79060629803E+03  0.00000000000E+00 0.  1.
         24    2    1    2    0    0  0.14908348256E+03  0.32179685880E+03 -0.16631226382E+03  0.39962618762E+03  0.79134174860E+02 0.  0.
        254    2    1    2    0    0 -0.14908348256E+03 -0.32179685880E+03 -0.47413645281E+02  0.96786049934E+03  0.89929238256E+03 0.  0.
         23    2    4    4    0    0 -0.28143160789E+03  0.11860421083E+03  0.25645608707E+03  0.40913587649E+03  0.91387811497E+02 0.  0.
         23    2    4    4    0    0  0.13234812533E+03 -0.44040106963E+03 -0.30386973235E+03  0.55872462285E+03  0.91472736544E+02 0.  0.
          2    1    3    3  502    0  0.14792427620E+03  0.32268146342E+03 -0.15351329974E+03  0.38674442662E+03  0.00000000000E+00 0. -1.
         -1    1    3    3    0  502  0.11592063514E+01 -0.88460462507E+00 -0.12798964088E+02  0.12881760999E+02  0.00000000000E+00 0.  1.
         13    1    5    5    0    0 -0.25293341384E+03  0.12915312385E+03  0.20832500265E+03  0.35221463338E+03  0.00000000000E+00 0. -1.
        -13    1    5    5    0    0 -0.28498194050E+02 -0.10548913018E+02  0.48131084422E+02  0.56921243113E+02  0.00000000000E+00 0.  1.
          3    1    6    6  503    0  0.58060443310E+01 -0.12236754147E+03 -0.11381195659E+03  0.16721449345E+03  0.00000000000E+00 0. -1.
         -3    1    6    6    0  503  0.12654208100E+03 -0.31803352815E+03 -0.19005777576E+03  0.39151012940E+03  0.00000000000E+00 0.  1.
<mgrwt>
<rscale>  0 0.13506817E+04</rscale>
<asrwt>0</asrwt>
<pdfrwt beam="1">  1        2 0.88750829E-01 0.13506817E+04</pdfrwt>
<pdfrwt beam="2">  1       -1 0.12163174E+00 0.13506817E+04</pdfrwt>
<totfact> 0.34778165E+01</totfact>
</mgrwt>
</event>
<event>
12    7  0.2426980E-007  0.4275652E+04  0.7818608E-02  0.7951136E-01
          2   -1    0    0  501    0  0.00000000000E+00  0.00000000000E+00  0.36331853276E+04  0.36331853276E+04  0.00000000000E+00 0. -1.
         -1   -1    0    0    0  501 -0.00000000000E+00 -0.00000000000E+00 -0.12579319672E+04  0.12579319672E+04  0.00000000000E+00 0.  1.
         24    2    1    2    0    0  0.23057625586E+03  0.14749430763E+04 -0.45928937610E+03  0.15638528057E+04  0.77886960922E+02 0.  0.
        254    2    1    2    0    0 -0.23057625586E+03 -0.14749430763E+04  0.28345427365E+04  0.33272644890E+04  0.89857329523E+03 0.  0.
         23    2    4    4    0    0 -0.37933682375E+03 -0.76755092256E+03  0.83602676561E+03  0.12000502332E+04  0.90271616640E+02 0.  0.
         23    2    4    4    0    0  0.14876056789E+03 -0.70739215375E+03  0.19985159709E+04  0.21272142559E+04  0.91875125602E+02 0.  0.
          4    1    3    3  502    0  0.46043184826E+02  0.53627282833E+03 -0.16727930126E+03  0.56364074188E+03  0.00000000000E+00 0. -1.
         -3    1    3    3    0  502  0.18453307103E+03  0.93867024798E+03 -0.29201007484E+03  0.10002120638E+04  0.00000000000E+00 0.  1.
         13    1    5    5    0    0 -0.13250749957E+03 -0.18386201632E+03  0.20158154872E+03  0.30331270872E+03  0.00000000000E+00 0.  1.
        -13    1    5    5    0    0 -0.24682932418E+03 -0.58368890624E+03  0.63444521689E+03  0.89673752447E+03  0.00000000000E+00 0. -1.
          2    1    6    6  503    0  0.11606907391E+03 -0.36890983454E+03  0.11393895701E+04  0.12032352589E+04  0.00000000000E+00 0. -1.
         -2    1    6    6    0  503  0.32691493984E+02 -0.33848231922E+03  0.85912640080E+03  0.92397899692E+03  0.00000000000E+00 0.  1.
<mgrwt>
<rscale>  0 0.42756520E+04</rscale>
<asrwt>0</asrwt>
<pdfrwt beam="1">  1        2 0.55895158E+00 0.42756520E+04</pdfrwt>
<pdfrwt beam="2">  1       -1 0.19352800E+00 0.42756520E+04</pdfrwt>
<totfact> 0.95256295E-02</totfact>
</mgrwt>
</event>
<event>
12    7  0.2426980E-007  0.4407086E+04  0.7818608E-02  0.7927108E-01
         -1   -1    0    0    0  501 -0.00000000000E+00  0.00000000000E+00  0.20818099156E+04  0.20818099156E+04  0.00000000000E+00 0.  1.
          2   -1    0    0  501    0  0.00000000000E+00 -0.00000000000E+00 -0.23323943162E+04  0.23323943162E+04  0.00000000000E+00 0. -1.
         24    2    1    2    0    0 -0.20345163494E+04  0.44144972377E+03  0.22896776532E+03  0.20959299099E+04  0.79757851810E+02 0.  0.
        254    2    1    2    0    0  0.20345163494E+04 -0.44144972377E+03 -0.47955216598E+03  0.23182743219E+04  0.90016160613E+03 0.  0.
         23    2    4    4    0    0  0.17679823391E+04 -0.79702606287E+02 -0.20535574572E+03  0.17840542327E+04  0.92544401394E+02 0.  0.
         23    2    4    4    0    0  0.26653401036E+03 -0.36174711749E+03 -0.27419642026E+03  0.53422008923E+03  0.91137649563E+02 0.  0.
          2    1    3    3  502    0 -0.36008138960E+03  0.85718622181E+02  0.11037938470E+02  0.37030814926E+03  0.00000000000E+00 0. -1.
         -1    1    3    3    0  502 -0.16744349598E+04  0.35573110159E+03  0.21792982685E+03  0.17256217606E+04  0.00000000000E+00 0.  1.
         13    1    5    5    0    0  0.10056674817E+04 -0.61042306392E+01 -0.14051296070E+03  0.10154546949E+04  0.00000000000E+00 0. -1.
        -13    1    5    5    0    0  0.76231485741E+03 -0.73598375648E+02 -0.64842785019E+02  0.76859953779E+03  0.00000000000E+00 0.  1.
          3    1    6    6  503    0  0.20522049976E+03 -0.31046995357E+03 -0.18902586146E+03  0.41741804213E+03  0.00000000000E+00 0. -1.
         -3    1    6    6    0  503  0.61313510597E+02 -0.51277163912E+02 -0.85170558806E+02  0.11680204710E+03  0.00000000000E+00 0.  1.
<mgrwt>
<rscale>  0 0.44070859E+04</rscale>
<asrwt>0</asrwt>
<pdfrwt beam="1">  1        2 0.35882990E+00 0.44070859E+04</pdfrwt>
<pdfrwt beam="2">  1       -1 0.32027845E+00 0.44070859E+04</pdfrwt>
<totfact> 0.91958713E-02</totfact>
</mgrwt>
</event>
<event>
12    7  0.2426980E-007  0.1263749E+04  0.7818608E-02  0.9058817E-01
         -1   -1    0    0    0  501 -0.00000000000E+00  0.00000000000E+00  0.23269185386E+03  0.23269185386E+03  0.00000000000E+00 0.  1.
          2   -1    0    0  501    0  0.00000000000E+00 -0.00000000000E+00 -0.17158535666E+04  0.17158535666E+04  0.00000000000E+00 0. -1.
         24    2    1    2    0    0  0.21800137198E+03  0.21429707274E+03 -0.24019345615E+03  0.39701128178E+03  0.80481227082E+02 0.  0.
        254    2    1    2    0    0 -0.21800137198E+03 -0.21429707274E+03 -0.12429682566E+04  0.15515341387E+04  0.87683536827E+03 0.  0.
         23    2    4    4    0    0 -0.17697625988E+03  0.32173456790E+03 -0.60281889115E+03  0.71160597602E+03  0.90325637770E+02 0.  0.
         23    2    4    4    0    0 -0.41025112103E+02 -0.53603164064E+03 -0.64014936544E+03  0.83992816267E+03  0.81701461264E+02 0.  0.
          2    1    3    3  502    0  0.18277388404E+03  0.16471093257E+03 -0.22702167982E+03  0.33477578632E+03  0.00000000000E+00 0. -1.
         -1    1    3    3    0  502  0.35227487938E+02  0.49586140171E+02 -0.13171776323E+02  0.62235495459E+02  0.00000000000E+00 0.  1.
         13    1    5    5    0    0 -0.43772233589E+01  0.25363125114E+02 -0.97860380177E+02  0.10118844899E+03  0.00000000000E+00 0.  1.
        -13    1    5    5    0    0 -0.17259903652E+03  0.29637144279E+03 -0.50495851098E+03  0.61041752704E+03  0.00000000000E+00 0. -1.
          4    1    6    6  503    0 -0.22435122796E+02 -0.39071894525E+03 -0.51778597475E+03  0.64905080276E+03  0.00000000000E+00 0. -1.
         -4    1    6    6    0  503 -0.18589989306E+02 -0.14531269539E+03 -0.12236339069E+03  0.19087735991E+03  0.00000000000E+00 0.  1.
<mgrwt>
<rscale>  0 0.12637486E+04</rscale>
<asrwt>0</asrwt>
<pdfrwt beam="1">  1        2 0.26397747E+00 0.12637486E+04</pdfrwt>
<pdfrwt beam="2">  1       -1 0.35798747E-01 0.12637486E+04</pdfrwt>
<totfact> 0.80148917E+01</totfact>
</mgrwt>
</event>
<event>
12    7  0.2426980E-007  0.2416422E+04  0.7818608E-02  0.8433381E-01
          2   -1    0    0  501    0  0.00000000000E+00  0.00000000000E+00  0.16633165191E+04  0.16633165191E+04  0.00000000000E+00 0. -1.
         -1   -1    0    0    0  501 -0.00000000000E+00 -0.00000000000E+00 -0.87762845424E+03  0.87762845424E+03  0.00000000000E+00 0.  1.
         24    2    1    2    0    0  0.12028513887E+03  0.95982591708E+03 -0.59601213986E+02  0.97251740072E+03  0.80644183082E+02 0.  0.
        254    2    1    2    0    0 -0.12028513887E+03 -0.95982591708E+03  0.84528927883E+03  0.15684275726E+04  0.89984264174E+03 0.  0.
         23    2    4    4    0    0  0.16414493541E+03 -0.68536991064E+03  0.91283996552E+03  0.11566264849E+04  0.88501687812E+02 0.  0.
         23    2    4    4    0    0 -0.28443007428E+03 -0.27445600644E+03 -0.67550686692E+02  0.41180108769E+03  0.93757527302E+02 0.  0.
          4    1    3    3  502    0 -0.92719519789E+01  0.17419295141E+03 -0.93990729050E+01  0.17469257564E+03  0.00000000000E+00 0. -1.
         -3    1    3    3    0  502  0.12955709085E+03  0.78563296567E+03 -0.50202141081E+02  0.79782482508E+03  0.00000000000E+00 0.  1.
         13    1    5    5    0    0  0.13084677280E+03 -0.58640936984E+03  0.72393548614E+03  0.94078659380E+03  0.00000000000E+00 0. -1.
        -13    1    5    5    0    0  0.33298162604E+02 -0.98960540797E+02  0.18890447938E+03  0.21583989112E+03  0.00000000000E+00 0.  1.
          4    1    6    6  503    0 -0.11132835724E+03 -0.50029509356E+02 -0.31796137488E+02  0.12612671918E+03  0.00000000000E+00 0. -1.
         -4    1    6    6    0  503 -0.17310171704E+03 -0.22442649709E+03 -0.35754549204E+02  0.28567436851E+03  0.00000000000E+00 0.  1.
<mgrwt>
<rscale>  0 0.24164221E+04</rscale>
<asrwt>0</asrwt>
<pdfrwt beam="1">  1        2 0.25589485E+00 0.24164221E+04</pdfrwt>
<pdfrwt beam="2">  1       -1 0.13501976E+00 0.24164221E+04</pdfrwt>
<totfact> 0.48401926E+00</totfact>
</mgrwt>
</event>
<event>
12    7  0.2426980E-007  0.2828271E+04  0.7818608E-02  0.8294545E-01
          2   -1    0    0  501    0  0.00000000000E+00  0.00000000000E+00  0.36654963745E+04  0.36654963745E+04  0.00000000000E+00 0. -1.
         -1   -1    0    0    0  501 -0.00000000000E+00 -0.00000000000E+00 -0.54556853456E+03  0.54556853456E+03  0.00000000000E+00 0.  1.
         24    2    1    2    0    0  0.82281610089E+03  0.93763273157E+03  0.10539304343E+04  0.16350338588E+04  0.79905468751E+02 0.  0.
        254    2    1    2    0    0 -0.82281610089E+03 -0.93763273157E+03  0.20659974056E+04  0.25760310502E+04  0.90078255783E+03 0.  0.
         23    2    4    4    0    0 -0.10052818265E+04 -0.82049084022E+03  0.17960959174E+04  0.22176500855E+04  0.90634363279E+02 0.  0.
         23    2    4    4    0    0  0.18246572563E+03 -0.11714189135E+03  0.26990148820E+03  0.35838096466E+03  0.92596645528E+02 0.  0.
          4    1    3    3  502    0  0.41820235721E+03  0.51183858922E+03  0.51557655660E+03  0.83826674675E+03  0.00000000000E+00 0. -1.
         -3    1    3    3    0  502  0.40461374368E+03  0.42579414235E+03  0.53835387773E+03  0.79676711209E+03  0.00000000000E+00 0.  1.
         13    1    5    5    0    0 -0.60018526574E+03 -0.52774544545E+03  0.11605864912E+04  0.14091481867E+04  0.00000000000E+00 0.  1.
        -13    1    5    5    0    0 -0.40509656078E+03 -0.29274539477E+03  0.63550942615E+03  0.80850189884E+03  0.00000000000E+00 0. -1.
          1    1    6    6  503    0  0.12548704333E+03 -0.11731518806E+03  0.23659458866E+03  0.29238134478E+03  0.00000000000E+00 0. -1.
         -1    1    6    6    0  503  0.56978682294E+02  0.17329670533E+00  0.33306899540E+02  0.65999619883E+02  0.00000000000E+00 0.  1.
<mgrwt>
<rscale>  0 0.28282712E+04</rscale>
<asrwt>0</asrwt>
<pdfrwt beam="1">  1        2 0.56392250E+00 0.28282712E+04</pdfrwt>
<pdfrwt beam="2">  1       -1 0.83933623E-01 0.28282712E+04</pdfrwt>
<totfact> 0.85901345E-01</totfact>
</mgrwt>
</event>
<event>
12    7  0.2426980E-007  0.1530385E+04  0.7818608E-02  0.8864495E-01
          2   -1    0    0  501    0  0.00000000000E+00  0.00000000000E+00  0.94820890324E+03  0.94820890324E+03  0.00000000000E+00 0. -1.
         -1   -1    0    0    0  501 -0.00000000000E+00 -0.00000000000E+00 -0.61750076314E+03  0.61750076314E+03  0.00000000000E+00 0.  1.
         24    2    1    2    0    0  0.35916764326E+03 -0.26533306742E+03  0.33157929068E+03  0.56205555028E+03  0.80985078674E+02 0.  0.
        254    2    1    2    0    0 -0.35916764326E+03  0.26533306742E+03 -0.87115057540E+00  0.10036541161E+04  0.89884247408E+03 0.  0.
         23    2    4    4    0    0  0.10943283498E+03  0.26867306328E+03  0.31016624273E+03  0.43474501173E+03  0.92948194128E+02 0.  0.
         23    2    4    4    0    0 -0.46860047824E+03 -0.33399958628E+01 -0.31103739330E+03  0.56890910436E+03  0.85532129710E+02 0.  0.
          4    1    3    3  502    0  0.37932451040E+02 -0.50397494390E+02  0.75635921385E+02  0.98486399499E+02  0.00000000000E+00 0. -1.
         -3    1    3    3    0  502  0.32123519222E+03 -0.21493557303E+03  0.25594336929E+03  0.46356915078E+03  0.00000000000E+00 0.  1.
         13    1    5    5    0    0  0.51149454169E+02  0.22744733775E+03  0.24241856439E+03  0.33632620842E+03  0.00000000000E+00 0. -1.
        -13    1    5    5    0    0  0.58283380814E+02  0.41225725537E+02  0.67747678339E+02  0.98418803313E+02  0.00000000000E+00 0.  1.
          3    1    6    6  503    0 -0.28305767069E+03 -0.36171253168E+02 -0.15810604540E+03  0.32623231919E+03  0.00000000000E+00 0. -1.
         -3    1    6    6    0  503 -0.18554280755E+03  0.32831257305E+02 -0.15293134790E+03  0.24267678517E+03  0.00000000000E+00 0.  1.
<mgrwt>
<rscale>  0 0.15303852E+04</rscale>
<asrwt>0</asrwt>
<pdfrwt beam="1">  1        2 0.14587829E+00 0.15303852E+04</pdfrwt>
<pdfrwt beam="2">  1       -1 0.95000117E-01 0.15303852E+04</pdfrwt>
<totfact> 0.32074678E+01</totfact>
</mgrwt>
</event>
<event>
12    7  0.2426980E-007  0.3058193E+04  0.7818608E-02  0.8227306E-01
         -1   -1    0    0    0  501 -0.00000000000E+00  0.00000000000E+00  0.12826841674E+04  0.12826841674E+04  0.00000000000E+00 0.  1.
          2   -1    0    0  501    0  0.00000000000E+00 -0.00000000000E+00 -0.18228457214E+04  0.18228457214E+04  0.00000000000E+00 0. -1.
         24    2    1    2    0    0  0.56678308239E+03  0.11671564664E+04 -0.76810113746E+03  0.15099079579E+04  0.79658046255E+02 0.  0.
        254    2    1    2    0    0 -0.56678308239E+03 -0.11671564664E+04  0.22793958346E+03  0.15956219309E+04  0.90030862100E+03 0.  0.
         23    2    4    4    0    0  0.13749288404E+03 -0.27136352374E+03 -0.19963719824E+03  0.37526755756E+03  0.91805629767E+02 0.  0.
         23    2    4    4    0    0 -0.70427596643E+03 -0.89579294269E+03  0.42757678171E+03  0.12203543733E+04  0.89405029060E+02 0.  0.
          4    1    3    3  502    0  0.30969397388E+03  0.65560533797E+03 -0.47407817055E+03  0.86630181139E+03  0.00000000000E+00 0. -1.
         -3    1    3    3    0  502  0.25708910851E+03  0.51155112847E+03 -0.29402296692E+03  0.64360614651E+03  0.00000000000E+00 0.  1.
         13    1    5    5    0    0  0.47902298315E+02 -0.28818973936E+02 -0.16062344744E+02  0.58164958190E+02  0.00000000000E+00 0. -1.
        -13    1    5    5    0    0  0.89590585722E+02 -0.24254454980E+03 -0.18357485350E+03  0.31710259937E+03  0.00000000000E+00 0.  1.
          2    1    6    6  503    0 -0.38238460072E+03 -0.55580534159E+03  0.26257798267E+03  0.72393698454E+03  0.00000000000E+00 0. -1.
         -2    1    6    6    0  503 -0.32189136571E+03 -0.33998760111E+03  0.16499879904E+03  0.49641738880E+03  0.00000000000E+00 0.  1.
<mgrwt>
<rscale>  0 0.30581925E+04</rscale>
<asrwt>0</asrwt>
<pdfrwt beam="1">  1        2 0.28043780E+00 0.30581925E+04</pdfrwt>
<pdfrwt beam="2">  1       -1 0.19733602E+00 0.30581925E+04</pdfrwt>
<totfact> 0.12758021E+00</totfact>
</mgrwt>
</event>
<event>
12    7  0.2426980E-007  0.2700753E+04  0.7818608E-02  0.8334761E-01
          2   -1    0    0  501    0  0.00000000000E+00  0.00000000000E+00  0.19621452122E+04  0.19621452122E+04  0.00000000000E+00 0. -1.
         -1   -1    0    0    0  501 -0.00000000000E+00 -0.00000000000E+00 -0.92934847977E+03  0.92934847977E+03  0.00000000000E+00 0.  1.
         24    2    1    2    0    0 -0.11264567975E+04 -0.33946111611E+03  0.21216994437E+03  0.11981029313E+04  0.79345968778E+02 0.  0.
        254    2    1    2    0    0  0.11264567975E+04  0.33946111611E+03  0.82062678805E+03  0.16933907607E+04  0.90000287615E+03 0.  0.
         23    2    4    4    0    0  0.12124671597E+04  0.40539321045E+03  0.86435909640E+03  0.15459281699E+04  0.91416577063E+02 0.  0.
         23    2    4    4    0    0 -0.86010362256E+02 -0.65932094339E+02 -0.43732308348E+02  0.14746259072E+03  0.89932626943E+02 0.  0.
          2    1    3    3  502    0 -0.67561685737E+03 -0.23122837331E+03  0.15738073751E+03  0.73122732110E+03  0.00000000000E+00 0. -1.
         -1    1    3    3    0  502 -0.45083994011E+03 -0.10823274280E+03  0.54789206869E+02  0.46687561021E+03  0.00000000000E+00 0.  1.
         13    1    5    5    0    0  0.29348357319E+03  0.12900278249E+03  0.24910285450E+03  0.40598837144E+03  0.00000000000E+00 0. -1.
        -13    1    5    5    0    0  0.91898358654E+03  0.27639042796E+03  0.61525624190E+03  0.11399397985E+04  0.00000000000E+00 0.  1.
          3    1    6    6  503    0 -0.26592198450E+02 -0.62678197354E+02  0.80751370896E+01  0.68563177297E+02  0.00000000000E+00 0. -1.
         -3    1    6    6    0  503 -0.59418163806E+02 -0.32538969841E+01 -0.51807445437E+02  0.78899413423E+02  0.00000000000E+00 0.  1.
<mgrwt>
<rscale>  0 0.27007530E+04</rscale>
<asrwt>0</asrwt>
<pdfrwt beam="1">  1        2 0.30186849E+00 0.27007530E+04</pdfrwt>
<pdfrwt beam="2">  1       -1 0.14297669E+00 0.27007530E+04</pdfrwt>
<totfact> 0.27759972E+00</totfact>
</mgrwt>
</event>
<event>
12    7  0.2426980E-007  0.2597038E+04  0.7818608E-02  0.8369208E-01
         -1   -1    0    0    0  501 -0.00000000000E+00  0.00000000000E+00  0.78983175979E+03  0.78983175979E+03  0.00000000000E+00 0.  1.
          2   -1    0    0  501    0  0.00000000000E+00 -0.00000000000E+00 -0.21348235118E+04  0.21348235118E+04  0.00000000000E+00 0. -1.
         24    2    1    2    0    0  0.10926610741E+04  0.18351358611E+03 -0.29472620973E+03  0.11492681336E+04  0.79801285401E+02 0.  0.
        254    2    1    2    0    0 -0.10926610741E+04 -0.18351358611E+03 -0.10502655422E+04  0.17753871379E+04  0.90628710752E+03 0.  0.
         23    2    4    4    0    0 -0.48690331245E+03 -0.51393059601E+03 -0.68327390635E+03  0.98829392702E+03  0.93070736007E+02 0.  0.
         23    2    4    4    0    0 -0.60575776162E+03  0.33041700990E+03 -0.36699163588E+03  0.78709321091E+03  0.93354141063E+02 0.  0.
          4    1    3    3  502    0  0.27194903999E+03  0.77067282476E+02 -0.91432750503E+02  0.29707843113E+03  0.00000000000E+00 0. -1.
         -3    1    3    3    0  502  0.82071203408E+03  0.10644630363E+03 -0.20329345923E+03  0.85218970248E+03  0.00000000000E+00 0.  1.
         13    1    5    5    0    0 -0.18472987322E+03 -0.13776246364E+03 -0.19558624230E+03  0.30225419869E+03  0.00000000000E+00 0. -1.
        -13    1    5    5    0    0 -0.30217343923E+03 -0.37616813237E+03 -0.48768766405E+03  0.68603972833E+03  0.00000000000E+00 0.  1.
          2    1    6    6  503    0 -0.42450633597E+03  0.27619979325E+03 -0.25174758644E+03  0.56556944962E+03  0.00000000000E+00 0. -1.
         -2    1    6    6    0  503 -0.18125142565E+03  0.54217216657E+02 -0.11524404944E+03  0.22152376129E+03  0.00000000000E+00 0.  1.
<mgrwt>
<rscale>  0 0.25970379E+04</rscale>
<asrwt>0</asrwt>
<pdfrwt beam="1">  1        2 0.32843438E+00 0.25970379E+04</pdfrwt>
<pdfrwt beam="2">  1       -1 0.12151258E+00 0.25970379E+04</pdfrwt>
<totfact> 0.33939836E+00</totfact>
</mgrwt>
</event>
<event>
12    7  0.2426980E-007  0.1337670E+04  0.7818608E-02  0.9000215E-01
          2   -1    0    0  501    0  0.00000000000E+00  0.00000000000E+00  0.82406002201E+03  0.82406002201E+03  0.00000000000E+00 0. -1.
         -1   -1    0    0    0  501 -0.00000000000E+00 -0.00000000000E+00 -0.54284883455E+03  0.54284883455E+03  0.00000000000E+00 0.  1.
         24    2    1    2    0    0 -0.20019907300E+03 -0.15178706912E+03 -0.18119554855E+03  0.31965509932E+03  0.78921305923E+02 0.  0.
        254    2    1    2    0    0  0.20019907300E+03  0.15178706912E+03  0.46240673600E+03  0.10472537572E+04  0.90542888145E+03 0.  0.
         23    2    4    4    0    0  0.54952005662E+03  0.10253958140E+03  0.21084520148E+03  0.60449029571E+03  0.92011739663E+02 0.  0.
         23    2    4    4    0    0 -0.34932098362E+03  0.49247487715E+02  0.25156153452E+03  0.44276346153E+03  0.91136230829E+02 0.  0.
          2    1    3    3  502    0 -0.89349277812E+02 -0.91143345282E+02 -0.48808992431E+02  0.13664816346E+03  0.00000000000E+00 0. -1.
         -3    1    3    3    0  502 -0.11084979519E+03 -0.60643723834E+02 -0.13238655612E+03  0.18300693586E+03  0.00000000000E+00 0.  1.
         13    1    5    5    0    0  0.22159254248E+03  0.62774285491E+02  0.12977225097E+03  0.26435715032E+03  0.00000000000E+00 0.  1.
        -13    1    5    5    0    0  0.32792751414E+03  0.39765295910E+02  0.81072950509E+02  0.34013314539E+03  0.00000000000E+00 0. -1.
          4    1    6    6  503    0 -0.21734292459E+03  0.86615989963E+01  0.19964714237E+03  0.29524896549E+03  0.00000000000E+00 0. -1.
         -4    1    6    6    0  503 -0.13197805903E+03  0.40585888718E+02  0.51914392149E+02  0.14751449604E+03  0.00000000000E+00 0.  1.
<mgrwt>
<rscale>  0 0.13376696E+04</rscale>
<asrwt>0</asrwt>
<pdfrwt beam="1">  1        2 0.12677846E+00 0.13376696E+04</pdfrwt>
<pdfrwt beam="2">  1       -1 0.83515205E-01 0.13376696E+04</pdfrwt>
<totfact> 0.52571005E+01</totfact>
</mgrwt>
</event>
<event>
12    7  0.2426980E-007  0.2278980E+04  0.7818608E-02  0.8486255E-01
         -1   -1    0    0    0  501 -0.00000000000E+00  0.00000000000E+00  0.20246099066E+04  0.20246099066E+04  0.00000000000E+00 0.  1.
          2   -1    0    0  501    0  0.00000000000E+00 -0.00000000000E+00 -0.64132747264E+03  0.64132747264E+03  0.00000000000E+00 0. -1.
         24    2    1    2    0    0  0.92401114428E+03  0.13382922412E+03  0.32712895654E+03  0.99258504372E+03  0.80652705090E+02 0.  0.
        254    2    1    2    0    0 -0.92401114428E+03 -0.13382922412E+03  0.10561534775E+04  0.16733523356E+04  0.90163241678E+03 0.  0.
         23    2    4    4    0    0 -0.85949113587E+02  0.26705288865E+03  0.46096790078E+02  0.29797101072E+03  0.89203776321E+02 0.  0.
         23    2    4    4    0    0 -0.83806203069E+03 -0.40088211277E+03  0.10100566874E+04  0.13753813248E+04  0.91677921912E+02 0.  0.
          4    1    3    3  502    0  0.62940475346E+02  0.21233964428E+02  0.59455737452E+01  0.66691337738E+02  0.00000000000E+00 0. -1.
         -3    1    3    3    0  502  0.86107066893E+03  0.11259525969E+03  0.32118338280E+03  0.92589370598E+03  0.00000000000E+00 0.  1.
         13    1    5    5    0    0 -0.37554793401E+01  0.84589273464E+02 -0.20391091529E+02  0.87093314462E+02  0.00000000000E+00 0. -1.
        -13    1    5    5    0    0 -0.82193634247E+02  0.18246361519E+03  0.66487881607E+02  0.21087769626E+03  0.00000000000E+00 0.  1.
          3    1    6    6  503    0 -0.19539696686E+03 -0.64954281901E+02  0.26617128016E+03  0.33652070334E+03  0.00000000000E+00 0. -1.
         -3    1    6    6    0  503 -0.64266506383E+03 -0.33592783087E+03  0.74388540723E+03  0.10388606215E+04  0.00000000000E+00 0.  1.
<mgrwt>
<rscale>  0 0.22789804E+04</rscale>
<asrwt>0</asrwt>
<pdfrwt beam="1">  1        2 0.98665765E-01 0.22789804E+04</pdfrwt>
<pdfrwt beam="2">  1       -1 0.31147845E+00 0.22789804E+04</pdfrwt>
<totfact> 0.13184343E+00</totfact>
</mgrwt>
</event>
<event>
12    7  0.2426980E-007  0.3498270E+04  0.7818608E-02  0.8114200E-01
          2   -1    0    0  501    0  0.00000000000E+00  0.00000000000E+00  0.29782852407E+04  0.29782852407E+04  0.00000000000E+00 0. -1.
         -1   -1    0    0    0  501 -0.00000000000E+00 -0.00000000000E+00 -0.10272598180E+04  0.10272598180E+04  0.00000000000E+00 0.  1.
         24    2    1    2    0    0  0.10082949273E+04  0.12203395575E+04  0.45633336917E+03  0.16496155991E+04  0.84286327260E+02 0.  0.
        254    2    1    2    0    0 -0.10082949273E+04 -0.12203395575E+04  0.14946920535E+04  0.23559294596E+04  0.90022885302E+03 0.  0.
         23    2    4    4    0    0 -0.51583898369E+03 -0.12061100266E+04  0.10025137612E+04  0.16534777813E+04  0.90353077144E+02 0.  0.
         23    2    4    4    0    0 -0.49245594360E+03 -0.14229530923E+02  0.49217829231E+03  0.70245167830E+03  0.92106204922E+02 0.  0.
          4    1    3    3  502    0  0.32072815091E+03  0.33138499890E+03  0.11979200559E+03  0.47647947373E+03  0.00000000000E+00 0. -1.
         -3    1    3    3    0  502  0.68756677638E+03  0.88895455862E+03  0.33654136358E+03  0.11731361254E+04  0.00000000000E+00 0.  1.
         13    1    5    5    0    0 -0.12798578767E+03 -0.39819563904E+03  0.29899299926E+03  0.51413708523E+03  0.00000000000E+00 0. -1.
        -13    1    5    5    0    0 -0.38785319602E+03 -0.80791438756E+03  0.70352076192E+03  0.11393406961E+04  0.00000000000E+00 0.  1.
          2    1    6    6  503    0 -0.11556288609E+03 -0.37113287519E+02  0.14932023759E+03  0.19242845451E+03  0.00000000000E+00 0. -1.
         -2    1    6    6    0  503 -0.37689305751E+03  0.22883756596E+02  0.34285805472E+03  0.51002322379E+03  0.00000000000E+00 0.  1.
<mgrwt>
<rscale>  0 0.34982697E+04</rscale>
<asrwt>0</asrwt>
<pdfrwt beam="1">  1        2 0.45819773E+00 0.34982697E+04</pdfrwt>
<pdfrwt beam="2">  1       -1 0.15803997E+00 0.34982697E+04</pdfrwt>
<totfact> 0.50677724E-01</totfact>
</mgrwt>
</event>
<event>
12    7  0.2426980E-007  0.1430488E+04  0.7818608E-02  0.8932041E-01
          2   -1    0    0  501    0  0.00000000000E+00  0.00000000000E+00  0.10822900781E+04  0.10822900781E+04  0.00000000000E+00 0. -1.
         -1   -1    0    0    0  501 -0.00000000000E+00 -0.00000000000E+00 -0.47267703038E+03  0.47267703038E+03  0.00000000000E+00 0.  1.
         24    2    1    2    0    0 -0.14274767991E+03  0.40160960793E+03  0.17097367130E+03  0.46647882744E+03  0.81873822840E+02 0.  0.
        254    2    1    2    0    0  0.14274767991E+03 -0.40160960793E+03  0.43863937638E+03  0.10884882810E+04  0.90040827298E+03 0.  0.
         23    2    4    4    0    0  0.40019967082E+03 -0.39842112330E+03  0.54832741106E+03  0.79230006908E+03  0.90428323649E+02 0.  0.
         23    2    4    4    0    0 -0.25745199091E+03 -0.31884846338E+01 -0.10968803468E+03  0.29618821192E+03  0.96975759186E+02 0.  0.
          4    1    3    3  502    0  0.22574673826E+00  0.10177299730E+03  0.36724832412E+02  0.10819661389E+03  0.00000000000E+00 0. -1.
         -3    1    3    3    0  502 -0.14297342665E+03  0.29983661063E+03  0.13424883889E+03  0.35828221355E+03  0.00000000000E+00 0.  1.
         13    1    5    5    0    0  0.22813011853E+03 -0.21390710123E+03  0.24186380772E+03  0.39534503970E+03  0.00000000000E+00 0.  1.
        -13    1    5    5    0    0  0.17206955229E+03 -0.18451402207E+03  0.30646360335E+03  0.39695502937E+03  0.00000000000E+00 0. -1.
          3    1    6    6  503    0 -0.20342973545E+03  0.36890628900E+02 -0.94017491781E+02  0.22712081482E+03  0.00000000000E+00 0. -1.
         -3    1    6    6    0  503 -0.54022255461E+02 -0.40079113534E+02 -0.15670542903E+02  0.69067397096E+02  0.00000000000E+00 0.  1.
<mgrwt>
<rscale>  0 0.14304876E+04</rscale>
<asrwt>0</asrwt>
<pdfrwt beam="1">  1        2 0.16650616E+00 0.14304876E+04</pdfrwt>
<pdfrwt beam="2">  1       -1 0.72719544E-01 0.14304876E+04</pdfrwt>
<totfact> 0.47203770E+01</totfact>
</mgrwt>
</event>
<event>
12    7  0.2426980E-007  0.2015326E+04  0.7818608E-02  0.8599488E-01
         -1   -1    0    0    0  501 -0.00000000000E+00  0.00000000000E+00  0.78446210459E+03  0.78446210459E+03  0.00000000000E+00 0.  1.
          2   -1    0    0  501    0  0.00000000000E+00 -0.00000000000E+00 -0.12943710328E+04  0.12943710328E+04  0.00000000000E+00 0. -1.
         24    2    1    2    0    0  0.65954292448E+03 -0.42609476788E+03 -0.38785200894E+03  0.87911387194E+03  0.76540176114E+02 0.  0.
        254    2    1    2    0    0 -0.65954292448E+03  0.42609476788E+03 -0.12205691931E+03  0.11997192655E+04  0.89881856009E+03 0.  0.
         23    2    4    4    0    0 -0.19827778496E+03 -0.16822553182E+03 -0.31233770800E+03  0.41823432775E+03  0.98748162043E+02 0.  0.
         23    2    4    4    0    0 -0.46126513952E+03  0.59432029970E+03  0.19028078869E+03  0.78148493773E+03  0.92356817732E+02 0.  0.
          4    1    3    3  502    0  0.16999542704E+03 -0.14599446244E+03 -0.12868700704E+03  0.25840505811E+03  0.00000000000E+00 0. -1.
         -3    1    3    3    0  502  0.48954749744E+03 -0.28010030544E+03 -0.25916500190E+03  0.62070881383E+03  0.00000000000E+00 0.  1.
         13    1    5    5    0    0 -0.12556387223E+03 -0.74621063881E+02 -0.10671065939E+03  0.18089155318E+03  0.00000000000E+00 0.  1.
        -13    1    5    5    0    0 -0.72713912732E+02 -0.93604467935E+02 -0.20562704861E+03  0.23734277457E+03  0.00000000000E+00 0. -1.
          2    1    6    6  503    0 -0.23077560041E+03  0.23442089724E+03  0.10822874516E+03  0.34630044193E+03  0.00000000000E+00 0. -1.
         -2    1    6    6    0  503 -0.23048953911E+03  0.35989940246E+03  0.82052043532E+02  0.43518449579E+03  0.00000000000E+00 0.  1.
<mgrwt>
<rscale>  0 0.20153263E+04</rscale>
<asrwt>0</asrwt>
<pdfrwt beam="1">  1        2 0.19913400E+00 0.20153263E+04</pdfrwt>
<pdfrwt beam="2">  1       -1 0.12068648E+00 0.20153263E+04</pdfrwt>
<totfact> 0.10756283E+01</totfact>
</mgrwt>
</event>
<event>
12    7  0.2426980E-007  0.2681771E+04  0.7818608E-02  0.8340944E-01
          2   -1    0    0  501    0  0.00000000000E+00  0.00000000000E+00  0.18742777283E+04  0.18742777283E+04  0.00000000000E+00 0. -1.
         -1   -1    0    0    0  501 -0.00000000000E+00 -0.00000000000E+00 -0.95928870279E+03  0.95928870279E+03  0.00000000000E+00 0.  1.
         24    2    1    2    0    0 -0.11642094746E+04  0.23631532923E+03  0.43663174950E+03  0.12680554949E+04  0.78030877502E+02 0.  0.
        254    2    1    2    0    0  0.11642094746E+04 -0.23631532923E+03  0.47835727603E+03  0.15655109362E+04  0.90042777182E+03 0.  0.
         23    2    4    4    0    0  0.58898044631E+03 -0.10465913166E+02  0.68529291632E+03  0.90751662018E+03  0.83381852252E+02 0.  0.
         23    2    4    4    0    0  0.57522902831E+03 -0.22584941606E+03 -0.20693564029E+03  0.65799431603E+03  0.90762144959E+02 0.  0.
          2    1    3    3  502    0 -0.56389132147E+03  0.76946707392E+02  0.19499055785E+03  0.60159416209E+03  0.00000000000E+00 0. -1.
         -1    1    3    3    0  502 -0.60031815315E+03  0.15936862184E+03  0.24164119165E+03  0.66646133281E+03  0.00000000000E+00 0.  1.
         13    1    5    5    0    0  0.39389869978E+03 -0.33948281045E+02  0.41300913404E+03  0.57173876576E+03  0.00000000000E+00 0.  1.
        -13    1    5    5    0    0  0.19508174653E+03  0.23482367880E+02  0.27228378228E+03  0.33577785442E+03  0.00000000000E+00 0. -1.
          3    1    6    6  503    0  0.21660308641E+03 -0.12533339706E+03 -0.58071421877E+02  0.25690007298E+03  0.00000000000E+00 0. -1.
         -3    1    6    6    0  503  0.35862594190E+03 -0.10051601901E+03 -0.14886421841E+03  0.40109424305E+03  0.00000000000E+00 0.  1.
<mgrwt>
<rscale>  0 0.26817706E+04</rscale>
<asrwt>0</asrwt>
<pdfrwt beam="1">  1        2 0.28835042E+00 0.26817706E+04</pdfrwt>
<pdfrwt beam="2">  1       -1 0.14758288E+00 0.26817706E+04</pdfrwt>
<totfact> 0.28597625E+00</totfact>
</mgrwt>
</event>
<event>
12    7  0.2426980E-007  0.3853853E+04  0.7818608E-02  0.8034696E-01
          2   -1    0    0  501    0  0.00000000000E+00  0.00000000000E+00  0.33314189967E+04  0.33314189967E+04  0.00000000000E+00 0. -1.
         -1   -1    0    0    0  501 -0.00000000000E+00 -0.00000000000E+00 -0.11145535921E+04  0.11145535921E+04  0.00000000000E+00 0.  1.
         24    2    1    2    0    0 -0.83762720949E+03 -0.40945350861E+03 -0.75616352269E+03  0.12028848639E+04  0.76662931413E+02 0.  0.
        254    2    1    2    0    0  0.83762720949E+03  0.40945350861E+03  0.29730289273E+04  0.32430877248E+04  0.89969187516E+03 0.  0.
         23    2    4    4    0    0  0.30818228066E+03  0.55036341484E+03  0.22023989705E+04  0.22929310738E+04  0.95370210868E+02 0.  0.
         23    2    4    4    0    0  0.52944492884E+03 -0.14090990623E+03  0.77062995676E+03  0.95015665101E+03  0.93592717955E+02 0.  0.
          4    1    3    3  502    0 -0.23753689145E+03 -0.89803560973E+02 -0.17460031968E+03  0.30817807513E+03  0.00000000000E+00 0. -1.
         -3    1    3    3    0  502 -0.60009031805E+03 -0.31964994764E+03 -0.58156320302E+03  0.89470678881E+03  0.00000000000E+00 0.  1.
         13    1    5    5    0    0  0.28064558605E+03  0.51195351337E+03  0.19268224235E+04  0.20133313181E+04  0.00000000000E+00 0.  1.
        -13    1    5    5    0    0  0.27536694609E+02  0.38409901470E+02  0.27557654706E+03  0.27959975567E+03  0.00000000000E+00 0. -1.
          1    1    6    6  503    0  0.14056024687E+03 -0.77453655438E+02  0.25322215142E+03  0.29979611357E+03  0.00000000000E+00 0. -1.
         -1    1    6    6    0  503  0.38888468196E+03 -0.63456250787E+02  0.51740780534E+03  0.65036053744E+03  0.00000000000E+00 0.  1.
<mgrwt>
<rscale>  0 0.38538526E+04</rscale>
<asrwt>0</asrwt>
<pdfrwt beam="1">  1        2 0.51252599E+00 0.38538526E+04</pdfrwt>
<pdfrwt beam="2">  1       -1 0.17146978E+00 0.38538526E+04</pdfrwt>
<totfact> 0.23048184E-01</totfact>
</mgrwt>
</event>
<event>
12    7  0.2426980E-007  0.1417365E+04  0.7818608E-02  0.8941344E-01
         -1   -1    0    0    0  501 -0.00000000000E+00  0.00000000000E+00  0.15737785445E+03  0.15737785445E+03  0.00000000000E+00 0.  1.
          2   -1    0    0  501    0  0.00000000000E+00 -0.00000000000E+00 -0.31912434086E+04  0.31912434086E+04  0.00000000000E+00 0. -1.
         24    2    1    2    0    0 -0.19028997715E+03  0.33809789400E+03 -0.56666515396E+03  0.69116870002E+03  0.78002011846E+02 0.  0.
        254    2    1    2    0    0  0.19028997715E+03 -0.33809789400E+03 -0.24672004002E+04  0.26574525630E+04  0.90799551140E+03 0.  0.
         23    2    4    4    0    0 -0.21619545812E+02  0.29192135770E+03 -0.60109539946E+03  0.67445419813E+03  0.88810485235E+02 0.  0.
         23    2    4    4    0    0  0.21190952296E+03 -0.63001925169E+03 -0.18661050007E+04  0.19829983649E+04  0.90026318409E+02 0.  0.
          2    1    3    3  502    0 -0.15396051615E+03  0.19849977068E+03 -0.37228892207E+03  0.44911584362E+03  0.00000000000E+00 0. -1.
         -1    1    3    3    0  502 -0.36329460996E+02  0.13959812332E+03 -0.19437623189E+03  0.24205285640E+03  0.00000000000E+00 0.  1.
         13    1    5    5    0    0 -0.29632761572E+02  0.59196097936E+02 -0.81014057574E+02  0.10462101172E+03  0.00000000000E+00 0. -1.
        -13    1    5    5    0    0  0.80132157602E+01  0.23272525976E+03 -0.52008134188E+03  0.56983318641E+03  0.00000000000E+00 0.  1.
          1    1    6    6  503    0  0.15856115669E+03 -0.50959300241E+03 -0.13875346890E+04  0.14866335062E+04  0.00000000000E+00 0. -1.
         -1    1    6    6    0  503  0.53348366267E+02 -0.12042624928E+03 -0.47857031172E+03  0.49636485870E+03  0.00000000000E+00 0.  1.
<mgrwt>
<rscale>  0 0.14173652E+04</rscale>
<asrwt>0</asrwt>
<pdfrwt beam="1">  1        2 0.49096046E+00 0.14173652E+04</pdfrwt>
<pdfrwt beam="2">  1       -1 0.24211981E-01 0.14173652E+04</pdfrwt>
<totfact> 0.21773594E+01</totfact>
</mgrwt>
</event>
<event>
12    7  0.2426980E-007  0.2261445E+04  0.7818608E-02  0.8493280E-01
         -1   -1    0    0    0  501 -0.00000000000E+00  0.00000000000E+00  0.64681175760E+03  0.64681175760E+03  0.00000000000E+00 0.  1.
          2   -1    0    0  501    0  0.00000000000E+00 -0.00000000000E+00 -0.19766697400E+04  0.19766697400E+04  0.00000000000E+00 0. -1.
         24    2    1    2    0    0  0.53438749850E+03 -0.54798288563E+03  0.91346503912E+02  0.77534278482E+03  0.83408684840E+02 0.  0.
        254    2    1    2    0    0 -0.53438749850E+03  0.54798288563E+03 -0.14212044863E+04  0.18481387127E+04  0.89996625949E+03 0.  0.
         23    2    4    4    0    0 -0.27552023800E+03 -0.43496619138E+02 -0.10622015520E+02  0.29413329034E+03  0.92726521814E+02 0.  0.
         23    2    4    4    0    0 -0.25886726050E+03  0.59147950477E+03 -0.14105824707E+04  0.15540054224E+04  0.91267096734E+02 0.  0.
          4    1    3    3  502    0  0.12937508847E+03 -0.12129977282E+03 -0.13167635186E+02  0.17783400974E+03  0.00000000000E+00 0. -1.
         -3    1    3    3    0  502  0.40501241003E+03 -0.42668311281E+03  0.10451413910E+03  0.59750877509E+03  0.00000000000E+00 0.  1.
         13    1    5    5    0    0 -0.23892619498E+03 -0.38342224363E+01  0.86814969603E+00  0.23895853530E+03  0.00000000000E+00 0.  1.
        -13    1    5    5    0    0 -0.36594043017E+02 -0.39662396702E+02 -0.11490165216E+02  0.55174755035E+02  0.00000000000E+00 0. -1.
          3    1    6    6  503    0 -0.16047661784E+02  0.79624438052E+02 -0.12427490007E+03  0.14846490956E+03  0.00000000000E+00 0. -1.
         -3    1    6    6    0  503 -0.24281959872E+03  0.51185506672E+03 -0.12863075707E+04  0.14055405128E+04  0.00000000000E+00 0.  1.
<mgrwt>
<rscale>  0 0.22614449E+04</rscale>
<asrwt>0</asrwt>
<pdfrwt beam="1">  1        2 0.30410303E+00 0.22614449E+04</pdfrwt>
<pdfrwt beam="2">  1       -1 0.99509502E-01 0.22614449E+04</pdfrwt>
<totfact> 0.68682510E+00</totfact>
</mgrwt>
</event>
<event>
12    7  0.2426980E-007  0.1700213E+04  0.7818608E-02  0.8761243E-01
          2   -1    0    0  501    0  0.00000000000E+00  0.00000000000E+00  0.61382169493E+03  0.61382169493E+03  0.00000000000E+00 0. -1.
         -1   -1    0    0    0  501 -0.00000000000E+00 -0.00000000000E+00 -0.11773470516E+04  0.11773470516E+04  0.00000000000E+00 0.  1.
         24    2    1    2    0    0 -0.24000894017E+03 -0.55580863587E+03 -0.26622669856E+03  0.66613500351E+03  0.79571708517E+02 0.  0.
        254    2    1    2    0    0  0.24000894017E+03  0.55580863587E+03 -0.29729865812E+03  0.11250337430E+04  0.90043706042E+03 0.  0.
         23    2    4    4    0    0  0.20442656449E+03  0.48611808750E+03 -0.59627506510E+03  0.80120387062E+03  0.91009196091E+02 0.  0.
         23    2    4    4    0    0  0.35582375683E+02  0.69690548373E+02  0.29897640698E+03  0.32382987242E+03  0.96726502810E+02 0.  0.
          4    1    3    3  502    0 -0.10468102703E+02 -0.77262205027E+02 -0.17083947835E+02  0.79817859990E+02  0.00000000000E+00 0. -1.
         -3    1    3    3    0  502 -0.22954083747E+03 -0.47854643084E+03 -0.24914275073E+03  0.58631714352E+03  0.00000000000E+00 0.  1.
         13    1    5    5    0    0  0.17790449934E+03  0.47087012875E+03 -0.57348406636E+03  0.76305482332E+03  0.00000000000E+00 0.  1.
        -13    1    5    5    0    0  0.26522065149E+02  0.15247958747E+02 -0.22790998748E+02  0.38149047297E+02  0.00000000000E+00 0. -1.
          4    1    6    6  503    0  0.22657500410E+02  0.38705470888E+02  0.32847456776E+02  0.55591647018E+02  0.00000000000E+00 0. -1.
         -4    1    6    6    0  503  0.12924875273E+02  0.30985077485E+02  0.26612895021E+03  0.26823822540E+03  0.00000000000E+00 0.  1.
<mgrwt>
<rscale>  0 0.17002131E+04</rscale>
<asrwt>0</asrwt>
<pdfrwt beam="1">  1        2 0.94434107E-01 0.17002131E+04</pdfrwt>
<pdfrwt beam="2">  1       -1 0.18113032E+00 0.17002131E+04</pdfrwt>
<totfact> 0.10709557E+01</totfact>
</mgrwt>
</event>
<event>
12    7  0.2426980E-007  0.2130710E+04  0.7818608E-02  0.8547835E-01
          2   -1    0    0  501    0  0.00000000000E+00  0.00000000000E+00  0.69921048234E+03  0.69921048234E+03  0.00000000000E+00 0. -1.
         -1   -1    0    0    0  501 -0.00000000000E+00 -0.00000000000E+00 -0.16232327352E+04  0.16232327352E+04  0.00000000000E+00 0.  1.
         24    2    1    2    0    0  0.60317765030E+03  0.41063233450E+03 -0.90251788013E+03  0.11633447066E+04  0.79938666780E+02 0.  0.
        254    2    1    2    0    0 -0.60317765030E+03 -0.41063233450E+03 -0.21504372774E+02  0.11590985110E+04  0.90033589740E+03 0.  0.
         23    2    4    4    0    0  0.21013303406E+02 -0.49563022036E+03 -0.11106873689E+03  0.51632869007E+03  0.90377970863E+02 0.  0.
         23    2    4    4    0    0 -0.62419095371E+03  0.84997885856E+02  0.89564364120E+02  0.64276982092E+03  0.91061957300E+02 0.  0.
          4    1    3    3  502    0  0.22978477908E+03  0.11818619192E+03 -0.35272965116E+03  0.43724961688E+03  0.00000000000E+00 0. -1.
         -3    1    3    3    0  502  0.37339287122E+03  0.29244614258E+03 -0.54978822898E+03  0.72609508972E+03  0.00000000000E+00 0.  1.
         13    1    5    5    0    0 -0.14685255197E+02 -0.34585975540E+03 -0.10691788663E+03  0.36230658510E+03  0.00000000000E+00 0. -1.
        -13    1    5    5    0    0  0.35698558603E+02 -0.14977046496E+03 -0.41508502643E+01  0.15402210497E+03  0.00000000000E+00 0.  1.
          1    1    6    6  503    0 -0.15415826742E+03  0.59588490941E+02  0.34550345502E+02  0.16884693080E+03  0.00000000000E+00 0. -1.
         -1    1    6    6    0  503 -0.47003268629E+03  0.25409394915E+02  0.55014018618E+02  0.47392289011E+03  0.00000000000E+00 0.  1.
<mgrwt>
<rscale>  0 0.21307101E+04</rscale>
<asrwt>0</asrwt>
<pdfrwt beam="1">  1        2 0.10757084E+00 0.21307101E+04</pdfrwt>
<pdfrwt beam="2">  1       -1 0.24972811E+00 0.21307101E+04</pdfrwt>
<totfact> 0.30136477E+00</totfact>
</mgrwt>
</event>
<event>
12    7  0.2426980E-007  0.2229650E+04  0.7818608E-02  0.8506188E-01
         -1   -1    0    0    0  501 -0.00000000000E+00  0.00000000000E+00  0.49397846818E+03  0.49397846818E+03  0.00000000000E+00 0.  1.
          2   -1    0    0  501    0  0.00000000000E+00 -0.00000000000E+00 -0.25159694629E+04  0.25159694629E+04  0.00000000000E+00 0. -1.
         24    2    1    2    0    0  0.19074903105E+03 -0.81429969072E+03 -0.29461233151E+03  0.89031508632E+03  0.79970919043E+02 0.  0.
        254    2    1    2    0    0 -0.19074903105E+03  0.81429969072E+03 -0.17273786632E+04  0.21196328448E+04  0.89974283622E+03 0.  0.
         23    2    4    4    0    0  0.88297215719E+02 -0.16034699968E+03 -0.36187866076E+03  0.41655190705E+03  0.95140777504E+02 0.  0.
         23    2    4    4    0    0 -0.27904624677E+03  0.97464669040E+03 -0.13655000024E+04  0.17030809377E+04  0.89952458383E+02 0.  0.
          2    1    3    3  502    0  0.15026657906E+03 -0.47266519630E+03 -0.18239472221E+03  0.52845081821E+03  0.00000000000E+00 0. -1.
         -1    1    3    3    0  502  0.40482451996E+02 -0.34163449443E+03 -0.11221760930E+03  0.36186426812E+03  0.00000000000E+00 0.  1.
         13    1    5    5    0    0 -0.20647616910E+02 -0.21908567821E+02 -0.50387844341E+02  0.58696203330E+02  0.00000000000E+00 0. -1.
        -13    1    5    5    0    0  0.10894483263E+03 -0.13843843185E+03 -0.31149081642E+03  0.35785570372E+03  0.00000000000E+00 0.  1.
          1    1    6    6  503    0 -0.17461238944E+03  0.74993483884E+03 -0.10336868246E+04  0.12889531413E+04  0.00000000000E+00 0. -1.
         -1    1    6    6    0  503 -0.10443385733E+03  0.22471185156E+03 -0.33181317783E+03  0.41412779642E+03  0.00000000000E+00 0.  1.
<mgrwt>
<rscale>  0 0.22296500E+04</rscale>
<asrwt>0</asrwt>
<pdfrwt beam="1">  1        2 0.38707222E+00 0.22296500E+04</pdfrwt>
<pdfrwt beam="2">  1       -1 0.75996688E-01 0.22296500E+04</pdfrwt>
<totfact> 0.61489727E+00</totfact>
</mgrwt>
</event>
<event>
12    7  0.2426980E-007  0.2335382E+04  0.7818608E-02  0.8464100E-01
          2   -1    0    0  501    0  0.00000000000E+00  0.00000000000E+00  0.84793932383E+03  0.84793932383E+03  0.00000000000E+00 0. -1.
         -1   -1    0    0    0  501 -0.00000000000E+00 -0.00000000000E+00 -0.16080189150E+04  0.16080189150E+04  0.00000000000E+00 0.  1.
         24    2    1    2    0    0 -0.67599841440E+03 -0.68068791537E+03 -0.54688045994E+02  0.96329732720E+03  0.68125353595E+02 0.  0.
        254    2    1    2    0    0  0.67599841440E+03  0.68068791537E+03 -0.70539154517E+03  0.14926609116E+04  0.90008303546E+03 0.  0.
         23    2    4    4    0    0  0.28440274062E+03  0.81684499213E+03 -0.59508627519E+03  0.10538457318E+04  0.91337240794E+02 0.  0.
         23    2    4    4    0    0  0.39159567378E+03 -0.13615707675E+03 -0.11030526998E+03  0.43881517980E+03  0.92225745668E+02 0.  0.
          4    1    3    3  502    0 -0.19072838275E+03 -0.15695224703E+03  0.25036588134E+01  0.24701739239E+03  0.00000000000E+00 0. -1.
         -3    1    3    3    0  502 -0.48527003165E+03 -0.52373566834E+03 -0.57191704808E+02  0.71627993481E+03  0.00000000000E+00 0.  1.
         13    1    5    5    0    0  0.54512228972E+02  0.27073322626E+03 -0.21362235213E+03  0.34914548864E+03  0.00000000000E+00 0.  1.
        -13    1    5    5    0    0  0.22989051165E+03  0.54611176587E+03 -0.38146392306E+03  0.70470024320E+03  0.00000000000E+00 0. -1.
          1    1    6    6  503    0  0.12752203358E+03 -0.75738035727E+02 -0.73170403195E+02  0.16538448237E+03  0.00000000000E+00 0. -1.
         -1    1    6    6    0  503  0.26407364020E+03 -0.60419041025E+02 -0.37134866785E+02  0.27343069743E+03  0.00000000000E+00 0.  1.
<mgrwt>
<rscale>  0 0.23353822E+04</rscale>
<asrwt>0</asrwt>
<pdfrwt beam="1">  1        2 0.13045220E+00 0.23353822E+04</pdfrwt>
<pdfrwt beam="2">  1       -1 0.24738752E+00 0.23353822E+04</pdfrwt>
<totfact> 0.23810882E+00</totfact>
</mgrwt>
</event>
<event>
12    7  0.2426980E-007  0.2642779E+04  0.7818608E-02  0.8353814E-01
          2   -1    0    0  501    0  0.00000000000E+00  0.00000000000E+00  0.90085716741E+03  0.90085716741E+03  0.00000000000E+00 0. -1.
         -1   -1    0    0    0  501 -0.00000000000E+00 -0.00000000000E+00 -0.19382326283E+04  0.19382326283E+04  0.00000000000E+00 0.  1.
         24    2    1    2    0    0  0.48336558439E+03 -0.66055116098E+03 -0.13524142791E+04  0.15823441176E+04  0.69414693059E+02 0.  0.
        254    2    1    2    0    0 -0.48336558439E+03  0.66055116098E+03  0.31503881818E+03  0.12567456782E+04  0.90010561502E+03 0.  0.
         23    2    4    4    0    0 -0.56395979037E+03  0.31190219531E+03 -0.14523737127E+03  0.66664043428E+03  0.89341759614E+02 0.  0.
         23    2    4    4    0    0  0.80594205982E+02  0.34864896567E+03  0.46027618945E+03  0.59010524389E+03  0.91205816620E+02 0.  0.
          2    1    3    3  502    0  0.29973952403E+03 -0.37273693836E+03 -0.73781666151E+03  0.87928950493E+03  0.00000000000E+00 0. -1.
         -1    1    3    3    0  502  0.18362606036E+03 -0.28781422263E+03 -0.61459761760E+03  0.70305461264E+03  0.00000000000E+00 0.  1.
         13    1    5    5    0    0 -0.43849343085E+03  0.27734903338E+03 -0.13489402787E+03  0.53609269159E+03  0.00000000000E+00 0. -1.
        -13    1    5    5    0    0 -0.12546635951E+03  0.34553161928E+02 -0.10343343403E+02  0.13054774269E+03  0.00000000000E+00 0.  1.
          4    1    6    6  503    0 -0.72838389697E+01 -0.28300223807E+00  0.21223739722E+02  0.22440622277E+02  0.00000000000E+00 0. -1.
         -4    1    6    6    0  503  0.87878044952E+02  0.34893196791E+03  0.43905244973E+03  0.56766462161E+03  0.00000000000E+00 0.  1.
<mgrwt>
<rscale>  0 0.26427794E+04</rscale>
<asrwt>0</asrwt>
<pdfrwt beam="1">  1        2 0.13859341E+00 0.26427794E+04</pdfrwt>
<pdfrwt beam="2">  1       -1 0.29818964E+00 0.26427794E+04</pdfrwt>
<totfact> 0.99849482E-01</totfact>
</mgrwt>
</event>
<event>
12    7  0.2426980E-007  0.2179289E+04  0.7818608E-02  0.8527098E-01
          2   -1    0    0  501    0  0.00000000000E+00  0.00000000000E+00  0.23569324988E+04  0.23569324988E+04  0.00000000000E+00 0. -1.
         -1   -1    0    0    0  501 -0.00000000000E+00 -0.00000000000E+00 -0.50375859984E+03  0.50375859984E+03  0.00000000000E+00 0.  1.
         24    2    1    2    0    0 -0.48599781812E+03 -0.57201871609E+02 -0.22448846998E+03  0.54416196987E+03  0.79064802338E+02 0.  0.
        254    2    1    2    0    0  0.48599781812E+03  0.57201871609E+02  0.20776623689E+04  0.23165291288E+04  0.90008907994E+03 0.  0.
         23    2    4    4    0    0  0.74338920814E+03  0.41809762474E+02  0.15631666330E+04  0.17339649465E+04  0.93642630141E+02 0.  0.
         23    2    4    4    0    0 -0.25739139002E+03  0.15392109135E+02  0.51449573594E+03  0.58256418226E+03  0.90487123263E+02 0.  0.
          2    1    3    3  502    0 -0.20276915772E+03 -0.11716429414E+02 -0.52830219501E+02  0.20986576218E+03  0.00000000000E+00 0. -1.
         -1    1    3    3    0  502 -0.28322866040E+03 -0.45485442195E+02 -0.17165825048E+03  0.33429620769E+03  0.00000000000E+00 0.  1.
         13    1    5    5    0    0  0.43372030416E+03  0.31239129048E+02  0.80527251810E+03  0.91517922498E+03  0.00000000000E+00 0. -1.
        -13    1    5    5    0    0  0.30966890398E+03  0.10570633426E+02  0.75789411489E+03  0.81878572152E+03  0.00000000000E+00 0.  1.
          3    1    6    6  503    0 -0.23200277524E+03  0.14702893720E+02  0.50410179498E+03  0.55512168262E+03  0.00000000000E+00 0. -1.
         -3    1    6    6    0  503 -0.25388614780E+02  0.68921541546E+00  0.10393940953E+02  0.27442499647E+02  0.00000000000E+00 0.  1.
<mgrwt>
<rscale>  0 0.21792889E+04</rscale>
<asrwt>0</asrwt>
<pdfrwt beam="1">  1        2 0.36260499E+00 0.21792889E+04</pdfrwt>
<pdfrwt beam="2">  1       -1 0.77501325E-01 0.21792889E+04</pdfrwt>
<totfact> 0.73156830E+00</totfact>
</mgrwt>
</event>
<event>
12    7  0.2426980E-007  0.2565838E+04  0.7818608E-02  0.8379899E-01
         -1   -1    0    0    0  501 -0.00000000000E+00  0.00000000000E+00  0.95233395376E+03  0.95233395376E+03  0.00000000000E+00 0.  1.
          2   -1    0    0  501    0  0.00000000000E+00 -0.00000000000E+00 -0.17282603085E+04  0.17282603085E+04  0.00000000000E+00 0. -1.
         24    2    1    2    0    0  0.67868521242E+02  0.11195483967E+04 -0.26728792438E+03  0.11557982083E+04  0.80199222215E+02 0.  0.
        254    2    1    2    0    0 -0.67868521242E+02 -0.11195483967E+04 -0.50863843031E+03  0.15247960539E+04  0.89905239251E+03 0.  0.
         23    2    4    4    0    0  0.13008866924E+03 -0.50637362427E+03  0.19601272329E+03  0.56579815862E+03  0.91483656368E+02 0.  0.
         23    2    4    4    0    0 -0.19795719048E+03 -0.61317477238E+03 -0.70465115360E+03  0.95899789525E+03  0.89293695584E+02 0.  0.
          4    1    3    3  502    0  0.37860675238E+02  0.78161203264E+03 -0.22279765817E+03  0.81362743119E+03  0.00000000000E+00 0. -1.
         -3    1    3    3    0  502  0.30007846005E+02  0.33793636402E+03 -0.44490266210E+02  0.34217077715E+03  0.00000000000E+00 0.  1.
         13    1    5    5    0    0  0.13064932420E+03 -0.35341971592E+03  0.12344287184E+03  0.39650079965E+03  0.00000000000E+00 0. -1.
        -13    1    5    5    0    0 -0.56065496211E+00 -0.15295390836E+03  0.72569851453E+02  0.16929735897E+03  0.00000000000E+00 0.  1.
          4    1    6    6  503    0 -0.12150617022E+03 -0.45852132683E+03 -0.55969995991E+03  0.73366859118E+03  0.00000000000E+00 0.  1.
         -4    1    6    6    0  503 -0.76451020262E+02 -0.15465344555E+03 -0.14495119369E+03  0.22532930407E+03  0.00000000000E+00 0. -1.
<mgrwt>
<rscale>  0 0.25658379E+04</rscale>
<asrwt>0</asrwt>
<pdfrwt beam="1">  1        2 0.26588620E+00 0.25658379E+04</pdfrwt>
<pdfrwt beam="2">  1       -1 0.14651292E+00 0.25658379E+04</pdfrwt>
<totfact> 0.35497751E+00</totfact>
</mgrwt>
</event>
<event>
12    7  0.2426980E-007  0.1334791E+04  0.7818608E-02  0.9002421E-01
         -1   -1    0    0    0  501 -0.00000000000E+00  0.00000000000E+00  0.22653398160E+03  0.22653398160E+03  0.00000000000E+00 0.  1.
          2   -1    0    0  501    0  0.00000000000E+00 -0.00000000000E+00 -0.19662254967E+04  0.19662254967E+04  0.00000000000E+00 0. -1.
         24    2    1    2    0    0  0.22581835432E+02  0.11011378350E+03 -0.10357016205E+04  0.10448373208E+04  0.79826033509E+02 0.  0.
        254    2    1    2    0    0 -0.22581835432E+02 -0.11011378350E+03 -0.70398989463E+03  0.11479221575E+04  0.89971580146E+03 0.  0.
         23    2    4    4    0    0  0.26857602272E+03 -0.29184179842E+03 -0.67941444530E+03  0.79183019886E+03  0.89924190651E+02 0.  0.
         23    2    4    4    0    0 -0.29115785815E+03  0.18172801492E+03 -0.24575449330E+02  0.35609195867E+03  0.91649116460E+02 0.  0.
          4    1    3    3  502    0  0.49280879099E+02  0.43403018777E+02 -0.53142558726E+03  0.53546762916E+03  0.00000000000E+00 0. -1.
         -3    1    3    3    0  502 -0.26699043667E+02  0.66710764727E+02 -0.50427603319E+03  0.50936969159E+03  0.00000000000E+00 0.  1.
         13    1    5    5    0    0  0.61196413606E+01 -0.14003922339E+02 -0.40367151678E+01  0.15806799822E+02  0.00000000000E+00 0.  1.
        -13    1    5    5    0    0  0.26245638136E+03 -0.27783787608E+03 -0.67537773013E+03  0.77602339904E+03  0.00000000000E+00 0. -1.
          3    1    6    6  503    0 -0.14547649675E+03  0.66047776169E+02  0.29280701304E+02  0.16242868993E+03  0.00000000000E+00 0. -1.
         -3    1    6    6    0  503 -0.14568136140E+03  0.11568023875E+03 -0.53856150634E+02  0.19366326874E+03  0.00000000000E+00 0.  1.
<mgrwt>
<rscale>  0 0.13347912E+04</rscale>
<asrwt>0</asrwt>
<pdfrwt beam="1">  1        2 0.30249622E+00 0.13347912E+04</pdfrwt>
<pdfrwt beam="2">  1       -1 0.34851382E-01 0.13347912E+04</pdfrwt>
<totfact> 0.60803292E+01</totfact>
</mgrwt>
</event>
<event>
12    7  0.2426980E-007  0.1730182E+04  0.7818608E-02  0.8744335E-01
         -1   -1    0    0    0  501 -0.00000000000E+00  0.00000000000E+00  0.68322057985E+03  0.68322057985E+03  0.00000000000E+00 0.  1.
          2   -1    0    0  501    0  0.00000000000E+00 -0.00000000000E+00 -0.10953747320E+04  0.10953747320E+04  0.00000000000E+00 0. -1.
         24    2    1    2    0    0  0.28630029637E+03  0.52136347445E+03  0.58184100128E+02  0.60237332855E+03  0.75369126589E+02 0.  0.
        254    2    1    2    0    0 -0.28630029637E+03 -0.52136347445E+03 -0.47033825230E+03  0.11762219833E+04  0.89916202673E+03 0.  0.
         23    2    4    4    0    0 -0.85756226865E+02  0.24811900494E+03 -0.13321755282E+03  0.30770979285E+03  0.89561315178E+02 0.  0.
         23    2    4    4    0    0 -0.20054406951E+03 -0.76948247939E+03 -0.33712069948E+03  0.86851219049E+03  0.91333723882E+02 0.  0.
          2    1    3    3  502    0  0.12128372533E+03  0.22982178651E+03 -0.11837765951E+02  0.26013059853E+03  0.00000000000E+00 0. -1.
         -1    1    3    3    0  502  0.16501657104E+03  0.29154168794E+03  0.70021866079E+02  0.34224273002E+03  0.00000000000E+00 0.  1.
         13    1    5    5    0    0 -0.56347538315E+02  0.66863848175E+02 -0.74646960141E+02  0.11496950868E+03  0.00000000000E+00 0.  1.
        -13    1    5    5    0    0 -0.29408688550E+02  0.18125515676E+03 -0.58570592682E+02  0.19274028417E+03  0.00000000000E+00 0. -1.
          2    1    6    6  503    0 -0.39892556038E+02 -0.28064423580E+03 -0.15213918588E+03  0.32171250364E+03  0.00000000000E+00 0. -1.
         -2    1    6    6    0  503 -0.16065151347E+03 -0.48883824358E+03 -0.18498151360E+03  0.54679968685E+03  0.00000000000E+00 0.  1.
<mgrwt>
<rscale>  0 0.17301821E+04</rscale>
<asrwt>0</asrwt>
<pdfrwt beam="1">  1        2 0.16851919E+00 0.17301821E+04</pdfrwt>
<pdfrwt beam="2">  1       -1 0.10511086E+00 0.17301821E+04</pdfrwt>
<totfact> 0.20169084E+01</totfact>
</mgrwt>
</event>
<event>
12    7  0.2426980E-007  0.1865735E+04  0.7818608E-02  0.8672103E-01
         -1   -1    0    0    0  501 -0.00000000000E+00  0.00000000000E+00  0.10578422400E+04  0.10578422400E+04  0.00000000000E+00 0.  1.
          2   -1    0    0  501    0  0.00000000000E+00 -0.00000000000E+00 -0.82265715480E+03  0.82265715480E+03  0.00000000000E+00 0. -1.
         24    2    1    2    0    0  0.38188620706E+02  0.27058128583E+03 -0.57371771193E+03  0.64047252274E+03  0.79877634010E+02 0.  0.
        254    2    1    2    0    0 -0.38188620706E+02 -0.27058128583E+03  0.80890279710E+03  0.12400268720E+04  0.89926097726E+03 0.  0.
         23    2    4    4    0    0  0.39290264277E+03 -0.14798388161E+03  0.18793852254E+03  0.46894794214E+03  0.91211667384E+02 0.  0.
         23    2    4    4    0    0 -0.43109126348E+03 -0.12259740422E+03  0.62096427456E+03  0.77107892990E+03  0.89979358118E+02 0.  0.
          4    1    3    3  502    0  0.22580620695E+02  0.23488241960E+03 -0.53859263543E+03  0.58801501887E+03  0.00000000000E+00 0. -1.
         -3    1    3    3    0  502  0.15608000011E+02  0.35698866223E+02 -0.35125076495E+02  0.52457503875E+02  0.00000000000E+00 0.  1.
         13    1    5    5    0    0  0.15676147768E+03 -0.16898342058E+02  0.48309206686E+02  0.16490450054E+03  0.00000000000E+00 0. -1.
        -13    1    5    5    0    0  0.23614116509E+03 -0.13108553955E+03  0.13962931586E+03  0.30404344159E+03  0.00000000000E+00 0.  1.
          4    1    6    6  503    0 -0.35979973223E+03 -0.71501636619E+02  0.53139438903E+03  0.64571536147E+03  0.00000000000E+00 0. -1.
         -4    1    6    6    0  503 -0.71291531247E+02 -0.51095767600E+02  0.89569885526E+02  0.12536356842E+03  0.00000000000E+00 0.  1.
<mgrwt>
<rscale>  0 0.18657347E+04</rscale>
<asrwt>0</asrwt>
<pdfrwt beam="1">  1        2 0.12656264E+00 0.18657347E+04</pdfrwt>
<pdfrwt beam="2">  1       -1 0.16274496E+00 0.18657347E+04</pdfrwt>
<totfact> 0.99090929E+00</totfact>
</mgrwt>
</event>
<event>
12    7  0.2426980E-007  0.1654523E+04  0.7818608E-02  0.8787735E-01
          2   -1    0    0  501    0  0.00000000000E+00  0.00000000000E+00  0.27987918443E+04  0.27987918443E+04  0.00000000000E+00 0. -1.
         -1   -1    0    0    0  501 -0.00000000000E+00 -0.00000000000E+00 -0.24452046931E+03  0.24452046931E+03  0.00000000000E+00 0.  1.
         24    2    1    2    0    0  0.53337004710E+03 -0.21680787084E+03  0.10092083370E+04  0.11646015824E+04  0.79411072104E+02 0.  0.
        254    2    1    2    0    0 -0.53337004710E+03  0.21680787084E+03  0.15450630380E+04  0.18787107312E+04  0.90046929987E+03 0.  0.
         23    2    4    4    0    0  0.14894150146E+03 -0.51633359732E+02  0.83357730687E+03  0.85319753483E+03  0.90803811716E+02 0.  0.
         23    2    4    4    0    0 -0.68231154856E+03  0.26844123057E+03  0.71148573114E+03  0.10255131963E+04  0.88631973287E+02 0.  0.
          2    1    3    3  502    0  0.47230038684E+03 -0.18541845901E+03  0.93284228838E+03  0.10619050783E+04  0.00000000000E+00 0. -1.
         -1    1    3    3    0  502  0.61069660269E+02 -0.31389411832E+02  0.76366048578E+02  0.10269650411E+03  0.00000000000E+00 0.  1.
         13    1    5    5    0    0  0.17168662247E+02 -0.46944350112E+02  0.24048694201E+03  0.24562675800E+03  0.00000000000E+00 0. -1.
        -13    1    5    5    0    0  0.13177283921E+03 -0.46890096194E+01  0.59309036486E+03  0.60757077683E+03  0.00000000000E+00 0.  1.
          3    1    6    6  503    0 -0.53839287606E+02  0.47246330570E+02  0.82479658451E+02  0.10924183585E+03  0.00000000000E+00 0. -1.
         -3    1    6    6    0  503 -0.62847226096E+03  0.22119490000E+03  0.62900607269E+03  0.91627136049E+03  0.00000000000E+00 0.  1.
<mgrwt>
<rscale>  0 0.16545234E+04</rscale>
<asrwt>0</asrwt>
<pdfrwt beam="1">  1        2 0.43058334E+00 0.16545234E+04</pdfrwt>
<pdfrwt beam="2">  1       -1 0.37618536E-01 0.16545234E+04</pdfrwt>
<totfact> 0.17221643E+01</totfact>
</mgrwt>
</event>
<event>
12    7  0.2426980E-007  0.1968405E+04  0.7818608E-02  0.8621536E-01
          2   -1    0    0  501    0  0.00000000000E+00  0.00000000000E+00  0.13016797266E+04  0.13016797266E+04  0.00000000000E+00 0. -1.
         -1   -1    0    0    0  501 -0.00000000000E+00 -0.00000000000E+00 -0.74415749624E+03  0.74415749624E+03  0.00000000000E+00 0.  1.
         24    2    1    2    0    0  0.30383932229E+03  0.71549237493E+03  0.24307306503E+03  0.81692143914E+03  0.63470075038E+02 0.  0.
        254    2    1    2    0    0 -0.30383932229E+03 -0.71549237493E+03  0.31444916538E+03  0.12289157837E+04  0.89839192647E+03 0.  0.
         23    2    4    4    0    0 -0.27723226214E+03 -0.56305702298E+03 -0.21495715442E+03  0.66938589555E+03  0.89330625366E+02 0.  0.
         23    2    4    4    0    0 -0.26607060149E+02 -0.15243535196E+03  0.52940631980E+03  0.55952988818E+03  0.94117863099E+02 0.  0.
          2    1    3    3  502    0  0.26109656608E+03  0.61251717494E+03  0.23099851389E+03  0.70477586496E+03  0.00000000000E+00 0. -1.
         -1    1    3    3    0  502  0.42742756210E+02  0.10297520000E+03  0.12074551140E+02  0.11214557418E+03  0.00000000000E+00 0.  1.
         13    1    5    5    0    0 -0.24724943059E+03 -0.44892620597E+03 -0.20117610946E+03  0.55058046310E+03  0.00000000000E+00 0. -1.
        -13    1    5    5    0    0 -0.29982831554E+02 -0.11413081701E+03 -0.13781044962E+02  0.11880543245E+03  0.00000000000E+00 0.  1.
          1    1    6    6  503    0 -0.26758698154E+01 -0.13579796501E+03  0.50002603248E+03  0.51814503832E+03  0.00000000000E+00 0. -1.
         -1    1    6    6    0  503 -0.23931190334E+02 -0.16637386945E+02  0.29380287313E+02  0.41384849858E+02  0.00000000000E+00 0.  1.
<mgrwt>
<rscale>  0 0.19684052E+04</rscale>
<asrwt>0</asrwt>
<pdfrwt beam="1">  1        2 0.20025842E+00 0.19684052E+04</pdfrwt>
<pdfrwt beam="2">  1       -1 0.11448577E+00 0.19684052E+04</pdfrwt>
<totfact> 0.12151553E+01</totfact>
</mgrwt>
</event>
<event>
12    7  0.2426980E-007  0.2267614E+04  0.7818608E-02  0.8490801E-01
         -1   -1    0    0    0  501 -0.00000000000E+00  0.00000000000E+00  0.10842327569E+04  0.10842327569E+04  0.00000000000E+00 0.  1.
          2   -1    0    0  501    0  0.00000000000E+00 -0.00000000000E+00 -0.11856479359E+04  0.11856479359E+04  0.00000000000E+00 0. -1.
         24    2    1    2    0    0  0.45714330095E+03 -0.80647109289E+03  0.17908399455E+03  0.94741609246E+03  0.78425466943E+02 0.  0.
        254    2    1    2    0    0 -0.45714330095E+03  0.80647109289E+03 -0.28049917349E+03  0.13224646003E+04  0.90047610270E+03 0.  0.
         23    2    4    4    0    0 -0.40942301884E+03  0.33228953522E+03  0.26033416909E+03  0.59569821183E+03  0.95073321204E+02 0.  0.
         23    2    4    4    0    0 -0.47720282113E+02  0.47418155767E+03 -0.54083334258E+03  0.72676638851E+03  0.92538122250E+02 0.  0.
          4    1    3    3  502    0  0.12493372048E+03 -0.26466763513E+03  0.26896255363E+02  0.29390610771E+03  0.00000000000E+00 0. -1.
         -3    1    3    3    0  502  0.33220958048E+03 -0.54180345776E+03  0.15218773918E+03  0.65350998474E+03  0.00000000000E+00 0.  1.
         13    1    5    5    0    0 -0.62340152136E+02  0.28306111641E+02  0.56678236360E+01  0.68699743445E+02  0.00000000000E+00 0.  1.
        -13    1    5    5    0    0 -0.34708286670E+03  0.30398342358E+03  0.25466634545E+03  0.52699846838E+03  0.00000000000E+00 0. -1.
          2    1    6    6  503    0 -0.37245398731E+02  0.12167495906E+03 -0.97695861563E+02  0.16042598529E+03  0.00000000000E+00 0. -1.
         -2    1    6    6    0  503 -0.10474883382E+02  0.35250659861E+03 -0.44313748101E+03  0.56634040322E+03  0.00000000000E+00 0.  1.
<mgrwt>
<rscale>  0 0.22676140E+04</rscale>
<asrwt>0</asrwt>
<pdfrwt beam="1">  1        2 0.18240737E+00 0.22676140E+04</pdfrwt>
<pdfrwt beam="2">  1       -1 0.16680504E+00 0.22676140E+04</pdfrwt>
<totfact> 0.52017614E+00</totfact>
</mgrwt>
</event>
<event>
12    7  0.2426980E-007  0.3332146E+04  0.7818608E-02  0.8154764E-01
          2   -1    0    0  501    0  0.00000000000E+00  0.00000000000E+00  0.21759675179E+04  0.21759675179E+04  0.00000000000E+00 0. -1.
         -1   -1    0    0    0  501 -0.00000000000E+00 -0.00000000000E+00 -0.12756619397E+04  0.12756619397E+04  0.00000000000E+00 0.  1.
         24    2    1    2    0    0  0.81952648287E+03  0.13054942913E+04  0.47048297119E+03  0.16136810174E+04  0.81689651320E+02 0.  0.
        254    2    1    2    0    0 -0.81952648287E+03 -0.13054942913E+04  0.42982260697E+03  0.18379484401E+04  0.90408406371E+03 0.  0.
         23    2    4    4    0    0 -0.64417537191E+03 -0.92733857123E+03 -0.12297005313E+03  0.11395423350E+04  0.92284147119E+02 0.  0.
         23    2    4    4    0    0 -0.17535111096E+03 -0.37815572007E+03  0.55279266011E+03  0.69840610511E+03  0.91878190245E+02 0.  0.
          4    1    3    3  502    0  0.19663487398E+03  0.30939241826E+03  0.14855373492E+03  0.39554665249E+03  0.00000000000E+00 0. -1.
         -3    1    3    3    0  502  0.62289160889E+03  0.99610187305E+03  0.32192923627E+03  0.12181343650E+04  0.00000000000E+00 0.  1.
         13    1    5    5    0    0  0.22948054530E+01 -0.76380725799E+01 -0.44568465842E+01  0.91361789758E+01  0.00000000000E+00 0.  1.
        -13    1    5    5    0    0 -0.64647017737E+03 -0.91970049865E+03 -0.11851320655E+03  0.11304061560E+04  0.00000000000E+00 0. -1.
          2    1    6    6  503    0 -0.14186218995E+03 -0.26156267421E+03  0.44958511096E+03  0.53913512729E+03  0.00000000000E+00 0. -1.
         -2    1    6    6    0  503 -0.33488921011E+02 -0.11659304587E+03  0.10320754914E+03  0.15927097782E+03  0.00000000000E+00 0.  1.
<mgrwt>
<rscale>  0 0.33321458E+04</rscale>
<asrwt>0</asrwt>
<pdfrwt beam="1">  1        2 0.33476424E+00 0.33321458E+04</pdfrwt>
<pdfrwt beam="2">  1       -1 0.19625568E+00 0.33321458E+04</pdfrwt>
<totfact> 0.80615527E-01</totfact>
</mgrwt>
</event>
<event>
12    7  0.2426980E-007  0.3417534E+04  0.7818608E-02  0.8133616E-01
         -1   -1    0    0    0  501 -0.00000000000E+00  0.00000000000E+00  0.13547712458E+04  0.13547712458E+04  0.00000000000E+00 0.  1.
          2   -1    0    0  501    0  0.00000000000E+00 -0.00000000000E+00 -0.21552605111E+04  0.21552605111E+04  0.00000000000E+00 0. -1.
         24    2    1    2    0    0  0.10135754184E+04  0.12158983136E+04 -0.22993353728E+03  0.16015751905E+04  0.80186167245E+02 0.  0.
        254    2    1    2    0    0 -0.10135754184E+04 -0.12158983136E+04 -0.57055572800E+03  0.19084565664E+04  0.90051584621E+03 0.  0.
         23    2    4    4    0    0 -0.73205816712E+03 -0.98652484803E+03 -0.80029393184E+03  0.14689891019E+04  0.91203993674E+02 0.  0.
         23    2    4    4    0    0 -0.28151725124E+03 -0.22937346561E+03  0.22973820384E+03  0.43946746446E+03  0.92129585589E+02 0.  0.
          4    1    3    3  502    0  0.62109175473E+03  0.79938497859E+03 -0.16359481186E+03  0.10254435988E+04  0.00000000000E+00 0. -1.
         -3    1    3    3    0  502  0.39248366363E+03  0.41651333505E+03 -0.66338725419E+02  0.57613159172E+03  0.00000000000E+00 0.  1.
         13    1    5    5    0    0 -0.28483210365E+03 -0.31246015433E+03 -0.26513268733E+03  0.49905512441E+03  0.00000000000E+00 0.  1.
        -13    1    5    5    0    0 -0.44722606347E+03 -0.67406469370E+03 -0.53516124451E+03  0.96993397753E+03  0.00000000000E+00 0. -1.
          2    1    6    6  503    0 -0.17351158661E+03 -0.10045950632E+03  0.85720778104E+02  0.21805145011E+03  0.00000000000E+00 0. -1.
         -2    1    6    6    0  503 -0.10800566463E+03 -0.12891395929E+03  0.14401742574E+03  0.22141601434E+03  0.00000000000E+00 0.  1.
<mgrwt>
<rscale>  0 0.34175342E+04</rscale>
<asrwt>0</asrwt>
<pdfrwt beam="1">  1        2 0.33157854E+00 0.34175342E+04</pdfrwt>
<pdfrwt beam="2">  1       -1 0.20842635E+00 0.34175342E+04</pdfrwt>
<totfact> 0.67820722E-01</totfact>
</mgrwt>
</event>
<event>
12    7  0.2426980E-007  0.1729690E+04  0.7818608E-02  0.8744610E-01
         -1   -1    0    0    0  501 -0.00000000000E+00  0.00000000000E+00  0.49832448544E+03  0.49832448544E+03  0.00000000000E+00 0.  1.
          2   -1    0    0  501    0  0.00000000000E+00 -0.00000000000E+00 -0.15009428368E+04  0.15009428368E+04  0.00000000000E+00 0. -1.
         24    2    1    2    0    0  0.20976797394E+02 -0.12491792744E+03 -0.10775605596E+04  0.10877593024E+04  0.77711167743E+02 0.  0.
        254    2    1    2    0    0 -0.20976797394E+02  0.12491792744E+03  0.74942208210E+02  0.91150801994E+03  0.89954767590E+03 0.  0.
         23    2    4    4    0    0  0.45371213703E+02  0.42409807187E+03  0.29259259721E+03  0.52519668451E+03  0.91123037098E+02 0.  0.
         23    2    4    4    0    0 -0.66348011097E+02 -0.29918014443E+03 -0.21765038900E+03  0.38631133542E+03  0.89184856605E+02 0.  0.
          4    1    3    3  502    0  0.21590947027E+02 -0.10736933430E+03 -0.60240825111E+03  0.61228265037E+03  0.00000000000E+00 0. -1.
         -3    1    3    3    0  502 -0.61414963240E+00 -0.17548593141E+02 -0.47515230850E+03  0.47547665198E+03  0.00000000000E+00 0.  1.
         13    1    5    5    0    0  0.61529850031E+01  0.12014192253E+03  0.36233277893E+02  0.12563753898E+03  0.00000000000E+00 0. -1.
        -13    1    5    5    0    0  0.39218228699E+02  0.30395614934E+03  0.25635931931E+03  0.39955914554E+03  0.00000000000E+00 0.  1.
          2    1    6    6  503    0  0.20051201408E+02 -0.92745446741E+02 -0.55168900779E+02  0.10976054019E+03  0.00000000000E+00 0. -1.
         -2    1    6    6    0  503 -0.86399212505E+02 -0.20643469769E+03 -0.16248148822E+03  0.27655079523E+03  0.00000000000E+00 0.  1.
<mgrwt>
<rscale>  0 0.17296896E+04</rscale>
<asrwt>0</asrwt>
<pdfrwt beam="1">  1        2 0.23091428E+00 0.17296896E+04</pdfrwt>
<pdfrwt beam="2">  1       -1 0.76665306E-01 0.17296896E+04</pdfrwt>
<totfact> 0.23414805E+01</totfact>
</mgrwt>
</event>
<event>
12    7  0.3052622E-007  0.2611569E+04  0.7818608E-02  0.8364282E-01
          2   -1    0    0  501    0  0.00000000000E+00  0.00000000000E+00  0.12743850212E+04  0.12743850212E+04  0.00000000000E+00 0. -1.
         -1   -1    0    0    0  501 -0.00000000000E+00 -0.00000000000E+00 -0.13379571736E+04  0.13379571736E+04  0.00000000000E+00 0.  1.
         24    2    1    2    0    0  0.11061250016E+04 -0.20145629841E+03 -0.26146629112E+03  0.11571488774E+04  0.80819203812E+02 0.  0.
        254    2    1    2    0    0 -0.11061250016E+04  0.20145629841E+03  0.19789413872E+03  0.14551933175E+04  0.90240143057E+03 0.  0.
         23    2    4    4    0    0 -0.65181052532E+03  0.37305229392E+03 -0.24076926487E+03  0.79420170336E+03  0.93603054490E+02 0.  0.
         23    2    4    4    0    0 -0.45431447626E+03 -0.17159599551E+03  0.43866340359E+03  0.66099161414E+03  0.92938169241E+02 0.  0.
          2    1    3    3  502    0  0.22743580641E+03 -0.14276081201E+02 -0.34107230533E+02  0.23042169105E+03  0.00000000000E+00 0. -1.
         -1    1    3    3    0  502  0.87868919516E+03 -0.18718021721E+03 -0.22735906059E+03  0.92672718631E+03  0.00000000000E+00 0.  1.
         13    1    5    5    0    0 -0.27803082566E+02 -0.59366789619E+00 -0.19507733518E+02  0.33969331885E+02  0.00000000000E+00 0. -1.
        -13    1    5    5    0    0 -0.62400744275E+03  0.37364596182E+03 -0.22126153135E+03  0.76023237148E+03  0.00000000000E+00 0.  1.
          2    1    6    6  503    0 -0.34519184843E+02 -0.12655247534E+02  0.74105698037E+02  0.82724747773E+02  0.00000000000E+00 0. -1.
         -2    1    6    6    0  503 -0.41979529142E+03 -0.15894074798E+03  0.36455770555E+03  0.57826686637E+03  0.00000000000E+00 0.  1.
<mgrwt>
<rscale>  0 0.26115686E+04</rscale>
<asrwt>0</asrwt>
<pdfrwt beam="1">  1        2 0.19605923E+00 0.26115686E+04</pdfrwt>
<pdfrwt beam="2">  1       -1 0.20583957E+00 0.26115686E+04</pdfrwt>
<totfact> 0.23645604E+00</totfact>
</mgrwt>
</event>
<event>
12    7  0.2426980E-007  0.2408581E+04  0.7818608E-02  0.8436298E-01
          2   -1    0    0  501    0  0.00000000000E+00  0.00000000000E+00  0.15593745436E+04  0.15593745436E+04  0.00000000000E+00 0. -1.
         -1   -1    0    0    0  501 -0.00000000000E+00 -0.00000000000E+00 -0.93006226949E+03  0.93006226949E+03  0.00000000000E+00 0.  1.
         24    2    1    2    0    0 -0.98084637220E+03 -0.32616077529E+03  0.23100766938E+03  0.10619610356E+04  0.77176683815E+02 0.  0.
        254    2    1    2    0    0  0.98084637220E+03  0.32616077529E+03  0.39830460468E+03  0.14274757775E+04  0.90033331608E+03 0.  0.
         23    2    4    4    0    0  0.80684016610E+03 -0.11442360819E+03  0.31801159097E+02  0.82140033892E+03  0.97996873984E+02 0.  0.
         23    2    4    4    0    0  0.17400620610E+03  0.44058438348E+03  0.36650344559E+03  0.60607543858E+03  0.92789562468E+02 0.  0.
          4    1    3    3  502    0 -0.51695954644E+03 -0.13542016387E+03  0.13657702655E+03  0.55157871389E+03  0.00000000000E+00 0. -1.
         -3    1    3    3    0  502 -0.46388682576E+03 -0.19074061142E+03  0.94430642829E+02  0.51038232166E+03  0.00000000000E+00 0.  1.
         13    1    5    5    0    0  0.24334065061E+03  0.10252282448E+02  0.35584637451E+01  0.24358252031E+03  0.00000000000E+00 0. -1.
        -13    1    5    5    0    0  0.56349951549E+03 -0.12467589064E+03  0.28242695352E+02  0.57781781861E+03  0.00000000000E+00 0.  1.
          3    1    6    6  503    0  0.78238718375E+02  0.16305141236E+03  0.19546417120E+03  0.26629551696E+03  0.00000000000E+00 0. -1.
         -3    1    6    6    0  503  0.95767487722E+02  0.27753297111E+03  0.17103927438E+03  0.33977992163E+03  0.00000000000E+00 0.  1.
<mgrwt>
<rscale>  0 0.24085808E+04</rscale>
<asrwt>0</asrwt>
<pdfrwt beam="1">  1        2 0.23990378E+00 0.24085808E+04</pdfrwt>
<pdfrwt beam="2">  1       -1 0.14308650E+00 0.24085808E+04</pdfrwt>
<totfact> 0.47606375E+00</totfact>
</mgrwt>
</event>
<event>
12    7  0.2426980E-007  0.1923225E+04  0.7818608E-02  0.8643381E-01
         -1   -1    0    0    0  501 -0.00000000000E+00  0.00000000000E+00  0.45413702114E+03  0.45413702114E+03  0.00000000000E+00 0.  1.
          2   -1    0    0  501    0  0.00000000000E+00 -0.00000000000E+00 -0.20361668551E+04  0.20361668551E+04  0.00000000000E+00 0. -1.
         24    2    1    2    0    0  0.16663799522E+03 -0.55184793110E+03  0.13052957656E+01  0.58001510073E+03  0.64120611073E+02 0.  0.
        254    2    1    2    0    0 -0.16663799522E+03  0.55184793110E+03 -0.15833351297E+04  0.19102887755E+04  0.89997150637E+03 0.  0.
         23    2    4    4    0    0  0.11586494524E+03 -0.17375335795E+03 -0.66518039327E+03  0.70301817998E+03  0.90303326980E+02 0.  0.
         23    2    4    4    0    0 -0.28250294045E+03  0.72560128906E+03 -0.91815473644E+03  0.12072705955E+04  0.90493252139E+02 0.  0.
          4    1    3    3  502    0  0.31503692140E+02 -0.11861191950E+03 -0.25713346091E+02  0.12538917909E+03  0.00000000000E+00 0. -1.
         -3    1    3    3    0  502  0.13513430308E+03 -0.43323601160E+03  0.27018641856E+02  0.45462592164E+03  0.00000000000E+00 0.  1.
         13    1    5    5    0    0  0.10854430370E+03 -0.15979770631E+03 -0.65787037843E+03  0.68564612420E+03  0.00000000000E+00 0. -1.
        -13    1    5    5    0    0  0.73206415351E+01 -0.13955651645E+02 -0.73100148342E+01  0.17372055785E+02  0.00000000000E+00 0.  1.
          4    1    6    6  503    0 -0.26988161911E+03  0.61236264158E+03 -0.80270219166E+03  0.10450621520E+04  0.00000000000E+00 0. -1.
         -4    1    6    6    0  503 -0.12621321344E+02  0.11323864748E+03 -0.11545254478E+03  0.16220844347E+03  0.00000000000E+00 0.  1.
<mgrwt>
<rscale>  0 0.19232252E+04</rscale>
<asrwt>0</asrwt>
<pdfrwt beam="1">  1        2 0.31325644E+00 0.19232252E+04</pdfrwt>
<pdfrwt beam="2">  1       -1 0.69867235E-01 0.19232252E+04</pdfrwt>
<totfact> 0.14062547E+01</totfact>
</mgrwt>
</event>
<event>
12    7  0.2426980E-007  0.2915288E+04  0.7818608E-02  0.8268343E-01
          2   -1    0    0  501    0  0.00000000000E+00  0.00000000000E+00  0.14591560942E+04  0.14591560942E+04  0.00000000000E+00 0. -1.
         -1   -1    0    0    0  501 -0.00000000000E+00 -0.00000000000E+00 -0.14561333854E+04  0.14561333854E+04  0.00000000000E+00 0.  1.
         24    2    1    2    0    0  0.21051461545E+03 -0.13002974452E+04 -0.31187490511E+02  0.13200564246E+04  0.80538533448E+02 0.  0.
        254    2    1    2    0    0 -0.21051461545E+03  0.13002974452E+04  0.34210199266E+02  0.15952330550E+04  0.89917090292E+03 0.  0.
         23    2    4    4    0    0 -0.25866945702E+00  0.13553947232E+03  0.33335607147E+03  0.37096523686E+03  0.90099506691E+02 0.  0.
         23    2    4    4    0    0 -0.21025594599E+03  0.11647579729E+04 -0.29914587220E+03  0.12242678181E+04  0.92058348004E+02 0.  0.
          4    1    3    3  502    0  0.74137503371E+02 -0.50271586812E+03  0.26516132673E+02  0.50884449369E+03  0.00000000000E+00 0. -1.
         -3    1    3    3    0  502  0.13637711208E+03 -0.79758157707E+03 -0.57703623184E+02  0.81121193094E+03  0.00000000000E+00 0.  1.
         13    1    5    5    0    0 -0.22578860928E+02  0.10108462260E+03  0.14503773421E+03  0.17822415726E+03  0.00000000000E+00 0. -1.
        -13    1    5    5    0    0  0.22320191471E+02  0.34454849723E+02  0.18831833726E+03  0.19274107960E+03  0.00000000000E+00 0.  1.
          1    1    6    6  503    0  0.39245039947E+01  0.30093452766E+02 -0.19865194828E+02  0.36271801672E+02  0.00000000000E+00 0. -1.
         -1    1    6    6    0  503 -0.21418044999E+03  0.11346645201E+04 -0.27928067737E+03  0.11879960164E+04  0.00000000000E+00 0.  1.
<mgrwt>
<rscale>  0 0.29152879E+04</rscale>
<asrwt>0</asrwt>
<pdfrwt beam="1">  1        2 0.22448555E+00 0.29152879E+04</pdfrwt>
<pdfrwt beam="2">  1       -1 0.22402052E+00 0.29152879E+04</pdfrwt>
<totfact> 0.13595258E+00</totfact>
</mgrwt>
</event>
<event>
12    7  0.2426980E-007  0.3201640E+04  0.7818608E-02  0.8188384E-01
         -1   -1    0    0    0  501 -0.00000000000E+00  0.00000000000E+00  0.14882740610E+04  0.14882740610E+04  0.00000000000E+00 0.  1.
          2   -1    0    0  501    0  0.00000000000E+00 -0.00000000000E+00 -0.17218764857E+04  0.17218764857E+04  0.00000000000E+00 0. -1.
         24    2    1    2    0    0 -0.13605562630E+04  0.14700379679E+03  0.43822662228E+03  0.14393689550E+04  0.83767266561E+02 0.  0.
        254    2    1    2    0    0  0.13605562630E+04 -0.14700379679E+03 -0.67182904698E+03  0.17707815917E+04  0.90088274259E+03 0.  0.
         23    2    4    4    0    0  0.41268501440E+03 -0.15239217664E+03 -0.68403641682E+03  0.81834192963E+03  0.90804171938E+02 0.  0.
         23    2    4    4    0    0  0.94787124864E+03  0.53883798443E+01  0.12207369844E+02  0.95243966205E+03  0.92213617885E+02 0.  0.
          4    1    3    3  502    0 -0.54654006939E+03  0.50720935971E+02  0.13369386964E+03  0.56493602432E+03  0.00000000000E+00 0. -1.
         -3    1    3    3    0  502 -0.81401619365E+03  0.96282860820E+02  0.30453275264E+03  0.87443293068E+03  0.00000000000E+00 0.  1.
         13    1    5    5    0    0  0.34329744482E+03 -0.12053735830E+03 -0.49390165904E+03  0.61345027441E+03  0.00000000000E+00 0.  1.
        -13    1    5    5    0    0  0.69387569576E+02 -0.31854818339E+02 -0.19013475778E+03  0.20489165522E+03  0.00000000000E+00 0. -1.
          4    1    6    6  503    0  0.81063009040E+03 -0.25811063317E+02  0.22178314349E+02  0.81134408982E+03  0.00000000000E+00 0. -1.
         -4    1    6    6    0  503  0.13724115824E+03  0.31199443161E+02 -0.99709445044E+01  0.14109557223E+03  0.00000000000E+00 0.  1.
<mgrwt>
<rscale>  0 0.32016396E+04</rscale>
<asrwt>0</asrwt>
<pdfrwt beam="1">  1        2 0.26490407E+00 0.32016396E+04</pdfrwt>
<pdfrwt beam="2">  1       -1 0.22896524E+00 0.32016396E+04</pdfrwt>
<totfact> 0.87626172E-01</totfact>
</mgrwt>
</event>
<event>
12    7  0.2426980E-007  0.1576627E+04  0.7818608E-02  0.8835037E-01
          2   -1    0    0  501    0  0.00000000000E+00  0.00000000000E+00  0.77946941716E+03  0.77946941716E+03  0.00000000000E+00 0. -1.
         -1   -1    0    0    0  501 -0.00000000000E+00 -0.00000000000E+00 -0.79725772359E+03  0.79725772359E+03  0.00000000000E+00 0.  1.
         24    2    1    2    0    0  0.30307341497E+03 -0.40886798365E+03 -0.13417433219E+03  0.53273900075E+03  0.82350279796E+02 0.  0.
        254    2    1    2    0    0 -0.30307341497E+03  0.40886798365E+03  0.11638602577E+03  0.10439881400E+04  0.90406803203E+03 0.  0.
         23    2    4    4    0    0  0.30319132880E+03  0.20842218734E+03  0.12619746446E+03  0.39931995223E+03  0.90365005255E+02 0.  0.
         23    2    4    4    0    0 -0.60626474377E+03  0.20044579631E+03 -0.98114386983E+01  0.64466818776E+03  0.88121230042E+02 0.  0.
          2    1    3    3  502    0  0.84052466442E+02 -0.17798987218E+03 -0.40014110303E+02  0.20086398566E+03  0.00000000000E+00 0. -1.
         -1    1    3    3    0  502  0.21902094853E+03 -0.23087811147E+03 -0.94160221889E+02  0.33187501509E+03  0.00000000000E+00 0.  1.
         13    1    5    5    0    0  0.18999859183E+03  0.12826268712E+03  0.12394180331E+03  0.26059998544E+03  0.00000000000E+00 0.  1.
        -13    1    5    5    0    0  0.11319273697E+03  0.80159500217E+02  0.22556611575E+01  0.13871996679E+03  0.00000000000E+00 0. -1.
          1    1    6    6  503    0 -0.40300876036E+03  0.10852972728E+03  0.28461362591E+02  0.41833576442E+03  0.00000000000E+00 0. -1.
         -1    1    6    6    0  503 -0.20325598341E+03  0.91916069028E+02 -0.38272801289E+02  0.22633242334E+03  0.00000000000E+00 0.  1.
<mgrwt>
<rscale>  0 0.15766268E+04</rscale>
<asrwt>0</asrwt>
<pdfrwt beam="1">  1        2 0.11991837E+00 0.15766268E+04</pdfrwt>
<pdfrwt beam="2">  1       -1 0.12265503E+00 0.15766268E+04</pdfrwt>
<totfact> 0.22944889E+01</totfact>
</mgrwt>
</event>
<event>
12    7  0.2426980E-007  0.1791349E+04  0.7818608E-02  0.8710914E-01
         -1   -1    0    0    0  501 -0.00000000000E+00  0.00000000000E+00  0.28039583308E+03  0.28039583308E+03  0.00000000000E+00 0.  1.
          2   -1    0    0  501    0  0.00000000000E+00 -0.00000000000E+00 -0.28610725150E+04  0.28610725150E+04  0.00000000000E+00 0. -1.
         24    2    1    2    0    0  0.32502547566E+03 -0.53594912087E+03 -0.57101514285E+03  0.85212083746E+03  0.84667634253E+02 0.  0.
        254    2    1    2    0    0 -0.32502547566E+03  0.53594912087E+03 -0.20096615390E+04  0.22893475106E+04  0.89971634572E+03 0.  0.
         23    2    4    4    0    0  0.22647993716E+03 -0.37815534863E+02 -0.22808198783E+03  0.33598504379E+03  0.90229595297E+02 0.  0.
         23    2    4    4    0    0 -0.55150541282E+03  0.57376465573E+03 -0.17815795512E+04  0.19533624668E+04  0.90747610798E+02 0.  0.
          2    1    3    3  502    0  0.93663870351E+02 -0.22608109097E+03 -0.24564465413E+03  0.34673747476E+03  0.00000000000E+00 0. -1.
         -1    1    3    3    0  502  0.23136160531E+03 -0.30986802989E+03 -0.32537048872E+03  0.50538336270E+03  0.00000000000E+00 0.  1.
         13    1    5    5    0    0  0.11750447911E+03 -0.61982371866E+02 -0.10128915528E+03  0.16705870229E+03  0.00000000000E+00 0.  1.
        -13    1    5    5    0    0  0.10897545805E+03  0.24166837003E+02 -0.12679283255E+03  0.16892634150E+03  0.00000000000E+00 0. -1.
          4    1    6    6  503    0 -0.38604770283E+03  0.34518041365E+03 -0.11980999312E+04  0.13052301682E+04  0.00000000000E+00 0. -1.
         -4    1    6    6    0  503 -0.16545770999E+03  0.22858424208E+03 -0.58347962001E+03  0.64813229860E+03  0.00000000000E+00 0.  1.
<mgrwt>
<rscale>  0 0.17913490E+04</rscale>
<asrwt>0</asrwt>
<pdfrwt beam="1">  1        2 0.44016495E+00 0.17913490E+04</pdfrwt>
<pdfrwt beam="2">  1       -1 0.43137825E-01 0.17913490E+04</pdfrwt>
<totfact> 0.12134428E+01</totfact>
</mgrwt>
</event>
<event>
12    7  0.2426980E-007  0.2855436E+04  0.7818608E-02  0.8286261E-01
          2   -1    0    0  501    0  0.00000000000E+00  0.00000000000E+00  0.11712250455E+04  0.11712250455E+04  0.00000000000E+00 0. -1.
         -3   -1    0    0    0  501 -0.00000000000E+00 -0.00000000000E+00 -0.17403822323E+04  0.17403822323E+04  0.00000000000E+00 0.  1.
         24    2    1    2    0    0  0.97410404607E+03  0.60313314415E+03 -0.84967572179E+03  0.14286869771E+04  0.80928141832E+02 0.  0.
        254    2    1    2    0    0 -0.97410404607E+03 -0.60313314415E+03  0.28051853505E+03  0.14829203007E+04  0.89872892889E+03 0.  0.
         23    2    4    4    0    0 -0.16961013322E+03  0.22327978827E+03  0.10515326013E+03  0.31299259760E+03  0.91025803472E+02 0.  0.
         23    2    4    4    0    0 -0.80449391285E+03 -0.82641293242E+03  0.17536527492E+03  0.11699277031E+04  0.88368887004E+02 0.  0.
          4    1    3    3  502    0  0.80896770964E+03  0.49686623755E+03 -0.66491021157E+03  0.11590558238E+04  0.00000000000E+00 0. -1.
         -3    1    3    3    0  502  0.16513633643E+03  0.10626690660E+03 -0.18476551022E+03  0.26963115327E+03  0.00000000000E+00 0.  1.
         13    1    5    5    0    0 -0.55389807216E+02  0.14281398237E+03  0.72698015579E+02  0.16955490489E+03  0.00000000000E+00 0.  1.
        -13    1    5    5    0    0 -0.11422032600E+03  0.80465805900E+02  0.32455244550E+02  0.14343769271E+03  0.00000000000E+00 0. -1.
          3    1    6    6  503    0 -0.64462843341E+03 -0.67721075884E+03  0.17528149104E+03  0.95125382005E+03  0.00000000000E+00 0. -1.
         -3    1    6    6    0  503 -0.15986547944E+03 -0.14920217358E+03  0.83783872793E-01  0.21867388307E+03  0.00000000000E+00 0.  1.
<mgrwt>
<rscale>  0 0.28554364E+04</rscale>
<asrwt>0</asrwt>
<pdfrwt beam="1">  1        2 0.18018847E+00 0.28554364E+04</pdfrwt>
<pdfrwt beam="2">  1       -3 0.26775111E+00 0.28554364E+04</pdfrwt>
<totfact> 0.61939010E-01</totfact>
</mgrwt>
</event>
<event>
12    7  0.2426980E-007  0.2017286E+04  0.7818608E-02  0.8598581E-01
          2   -1    0    0  501    0  0.00000000000E+00  0.00000000000E+00  0.69215579672E+03  0.69215579672E+03  0.00000000000E+00 0. -1.
         -1   -1    0    0    0  501 -0.00000000000E+00 -0.00000000000E+00 -0.14698428520E+04  0.14698428520E+04  0.00000000000E+00 0.  1.
         24    2    1    2    0    0 -0.36533882745E+03  0.25046539400E+03 -0.10333759917E+04  0.11268573766E+04  0.75737934167E+02 0.  0.
        254    2    1    2    0    0  0.36533882745E+03 -0.25046539400E+03  0.25568893640E+03  0.10351412721E+04  0.89996402625E+03 0.  0.
         23    2    4    4    0    0  0.29882888309E+03 -0.23873553013E+03  0.57436775356E+03  0.69599674319E+03  0.90663087714E+02 0.  0.
         23    2    4    4    0    0  0.66509944351E+02 -0.11729863871E+02 -0.31867881717E+03  0.33914452889E+03  0.94348611882E+02 0.  0.
          4    1    3    3  502    0 -0.10497127777E+01  0.15224927203E+02 -0.26681202885E+02  0.30737385911E+02  0.00000000000E+00 0. -1.
         -3    1    3    3    0  502 -0.36428911467E+03  0.23524046680E+03 -0.10066947888E+04  0.10961199907E+04  0.00000000000E+00 0.  1.
         13    1    5    5    0    0  0.19727613113E+03 -0.10386593872E+03  0.29852382650E+03  0.37258888890E+03  0.00000000000E+00 0. -1.
        -13    1    5    5    0    0  0.10155275196E+03 -0.13486959141E+03  0.27584392706E+03  0.32340785429E+03  0.00000000000E+00 0.  1.
          1    1    6    6  503    0  0.38853532995E+01 -0.44022502881E+02 -0.98338839637E+02  0.10781281979E+03  0.00000000000E+00 0. -1.
         -1    1    6    6    0  503  0.62624591052E+02  0.32292639011E+02 -0.22033997753E+03  0.23133170910E+03  0.00000000000E+00 0.  1.
<mgrwt>
<rscale>  0 0.20172856E+04</rscale>
<asrwt>0</asrwt>
<pdfrwt beam="1">  1        2 0.10648551E+00 0.20172856E+04</pdfrwt>
<pdfrwt beam="2">  1       -1 0.22612967E+00 0.20172856E+04</pdfrwt>
<totfact> 0.44079674E+00</totfact>
</mgrwt>
</event>
<event>
12    7  0.2426980E-007  0.2954047E+04  0.7818608E-02  0.8256976E-01
          2   -1    0    0  501    0  0.00000000000E+00  0.00000000000E+00  0.15657779092E+04  0.15657779092E+04  0.00000000000E+00 0. -1.
         -1   -1    0    0    0  501 -0.00000000000E+00 -0.00000000000E+00 -0.13932998424E+04  0.13932998424E+04  0.00000000000E+00 0.  1.
         24    2    1    2    0    0  0.24774887629E+03  0.89991660290E+03 -0.87911990560E+03  0.12864169501E+04  0.10386223183E+03 0.  0.
        254    2    1    2    0    0 -0.24774887629E+03 -0.89991660290E+03  0.10515979724E+04  0.16726608014E+04  0.90592850893E+03 0.  0.
         23    2    4    4    0    0 -0.19026286551E+03 -0.33302779551E+03  0.10209238516E+04  0.10948261337E+04  0.96183583413E+02 0.  0.
         23    2    4    4    0    0 -0.57486010786E+02 -0.56688880739E+03  0.30674120755E+02  0.57783466771E+03  0.91018899931E+02 0.  0.
          2    1    3    3  502    0  0.17055267198E+03  0.74826365731E+03 -0.74700088464E+03  0.10709794753E+04  0.00000000000E+00 0. -1.
         -1    1    3    3    0  502  0.77196204318E+02  0.15165294559E+03 -0.13211902097E+03  0.21543747485E+03  0.00000000000E+00 0.  1.
         13    1    5    5    0    0 -0.63925992401E+01 -0.51456964498E+02  0.77398686293E+02  0.93162445010E+02  0.00000000000E+00 0.  1.
        -13    1    5    5    0    0 -0.18387026627E+03 -0.28157083101E+03  0.94352516533E+03  0.10016636887E+04  0.00000000000E+00 0. -1.
          2    1    6    6  503    0 -0.72592018403E+02 -0.53654210593E+03  0.39302663090E+02  0.54285516659E+03  0.00000000000E+00 0. -1.
         -2    1    6    6    0  503  0.15106007617E+02 -0.30346701462E+02 -0.86285423343E+01  0.34979501120E+02  0.00000000000E+00 0.  1.
<mgrwt>
<rscale>  0 0.29540468E+04</rscale>
<asrwt>0</asrwt>
<pdfrwt beam="1">  1        2 0.24088891E+00 0.29540468E+04</pdfrwt>
<pdfrwt beam="2">  1       -1 0.21435382E+00 0.29540468E+04</pdfrwt>
<totfact> 0.13696485E+00</totfact>
</mgrwt>
</event>
<event>
12    7  0.2426980E-007  0.1390759E+04  0.7818608E-02  0.8960535E-01
         -1   -1    0    0    0  501 -0.00000000000E+00  0.00000000000E+00  0.11884750050E+04  0.11884750050E+04  0.00000000000E+00 0.  1.
          2   -1    0    0  501    0  0.00000000000E+00 -0.00000000000E+00 -0.40686837023E+03  0.40686837023E+03  0.00000000000E+00 0. -1.
         24    2    1    2    0    0 -0.31521801606E+03  0.15065803998E+03  0.12928566908E+02  0.35900713930E+03  0.81601075763E+02 0.  0.
        254    2    1    2    0    0  0.31521801606E+03 -0.15065803998E+03  0.76867806788E+03  0.12363362360E+04  0.90310634680E+03 0.  0.
         23    2    4    4    0    0  0.36949805750E+03 -0.44046914511E+03  0.71637621146E+03  0.92289361623E+03  0.89419618928E+02 0.  0.
         23    2    4    4    0    0 -0.54280041434E+02  0.28981110513E+03  0.52301856419E+02  0.31344261972E+03  0.92595853672E+02 0.  0.
          4    1    3    3  502    0 -0.13865041133E+03  0.11138410564E+03  0.91657370932E+01  0.17808527813E+03  0.00000000000E+00 0. -1.
         -3    1    3    3    0  502 -0.17656760473E+03  0.39273934335E+02  0.37628298144E+01  0.18092186117E+03  0.00000000000E+00 0.  1.
         13    1    5    5    0    0  0.26980962680E+03 -0.32421788122E+03  0.58446518092E+03  0.72077320769E+03  0.00000000000E+00 0.  1.
        -13    1    5    5    0    0  0.99688430700E+02 -0.11625126389E+03  0.13191103054E+03  0.20212040854E+03  0.00000000000E+00 0. -1.
          1    1    6    6  503    0 -0.79616418111E+02  0.20384994896E+03  0.28310467175E+02  0.22066956808E+03  0.00000000000E+00 0. -1.
         -1    1    6    6    0  503  0.25336376677E+02  0.85961156173E+02  0.23991389244E+02  0.92773051645E+02  0.00000000000E+00 0.  1.
<mgrwt>
<rscale>  0 0.13907593E+04</rscale>
<asrwt>0</asrwt>
<pdfrwt beam="1">  1        2 0.62595134E-01 0.13907593E+04</pdfrwt>
<pdfrwt beam="2">  1       -1 0.18284231E+00 0.13907593E+04</pdfrwt>
<totfact> 0.17259341E+01</totfact>
</mgrwt>
</event>
<event>
12    7  0.2426980E-007  0.1431417E+04  0.7818608E-02  0.8931386E-01
          2   -1    0    0  501    0  0.00000000000E+00  0.00000000000E+00  0.11967335737E+04  0.11967335737E+04  0.00000000000E+00 0. -1.
         -1   -1    0    0    0  501 -0.00000000000E+00 -0.00000000000E+00 -0.42803055814E+03  0.42803055814E+03  0.00000000000E+00 0.  1.
         24    2    1    2    0    0 -0.14510853817E+03 -0.78515149592E+02 -0.21377729711E+03  0.28098451589E+03  0.77655964635E+02 0.  0.
        254    2    1    2    0    0  0.14510853817E+03  0.78515149592E+02  0.98248031268E+03  0.13437796160E+04  0.90180650636E+03 0.  0.
         23    2    4    4    0    0 -0.24001339750E+03 -0.24993972412E+03  0.61327523720E+03  0.71022933242E+03  0.90790370565E+02 0.  0.
         23    2    4    4    0    0  0.38512193567E+03  0.32845487372E+03  0.36920507547E+03  0.63355028354E+03  0.94191637763E+02 0.  0.
          2    1    3    3  502    0 -0.35408266220E+02 -0.49246209161E+02 -0.37509880947E+02  0.71315675711E+02  0.00000000000E+00 0. -1.
         -1    1    3    3    0  502 -0.10970027195E+03 -0.29268940430E+02 -0.17626741617E+03  0.20966884018E+03  0.00000000000E+00 0.  1.
         13    1    5    5    0    0 -0.16360052165E+03 -0.22259030027E+03  0.45322072535E+03  0.53077358483E+03  0.00000000000E+00 0. -1.
        -13    1    5    5    0    0 -0.76412875847E+02 -0.27349423851E+02  0.16005451185E+03  0.17945574759E+03  0.00000000000E+00 0.  1.
          4    1    6    6  503    0  0.93759303587E+02  0.11993622674E+03  0.14890008262E+03  0.21294774030E+03  0.00000000000E+00 0. -1.
         -4    1    6    6    0  503  0.29136263208E+03  0.20851864698E+03  0.22030499285E+03  0.42060254325E+03  0.00000000000E+00 0.  1.
<mgrwt>
<rscale>  0 0.14314168E+04</rscale>
<asrwt>0</asrwt>
<pdfrwt beam="1">  1        2 0.18411286E+00 0.14314168E+04</pdfrwt>
<pdfrwt beam="2">  1       -1 0.65850856E-01 0.14314168E+04</pdfrwt>
<totfact> 0.49244506E+01</totfact>
</mgrwt>
</event>
<event>
12    7  0.2426980E-007  0.2077196E+04  0.7818608E-02  0.8571356E-01
         -1   -1    0    0    0  501 -0.00000000000E+00  0.00000000000E+00  0.46692123657E+03  0.46692123657E+03  0.00000000000E+00 0.  1.
          2   -1    0    0  501    0  0.00000000000E+00 -0.00000000000E+00 -0.23102095299E+04  0.23102095299E+04  0.00000000000E+00 0. -1.
         24    2    1    2    0    0  0.37341612643E+03  0.75094983704E+03 -0.83409572358E+03  0.11855552134E+04  0.80375536107E+02 0.  0.
        254    2    1    2    0    0 -0.37341612643E+03 -0.75094983704E+03 -0.10091925698E+04  0.15915755530E+04  0.90070962964E+03 0.  0.
         23    2    4    4    0    0 -0.33192829897E+03 -0.63348824264E+03 -0.17281692374E+03  0.74124764998E+03  0.89992445480E+02 0.  0.
         23    2    4    4    0    0 -0.41487827461E+02 -0.11746159439E+03 -0.83637564601E+03  0.85032790305E+03  0.89525725243E+02 0.  0.
          4    1    3    3  502    0  0.20744196423E+03  0.48279075913E+03 -0.55700693417E+03  0.76575179421E+03  0.00000000000E+00 0. -1.
         -1    1    3    3    0  502  0.16597416220E+03  0.26815907791E+03 -0.27708878941E+03  0.41980341923E+03  0.00000000000E+00 0.  1.
         13    1    5    5    0    0 -0.90691622148E+02 -0.14764945708E+03 -0.80301680540E+02  0.19098086921E+03  0.00000000000E+00 0. -1.
        -13    1    5    5    0    0 -0.24123667682E+03 -0.48583878556E+03 -0.92515243203E+02  0.55026678077E+03  0.00000000000E+00 0.  1.
          2    1    6    6  503    0  0.51139000460E+01  0.80339030103E+01 -0.12859117321E+02  0.16001639589E+02  0.00000000000E+00 0. -1.
         -2    1    6    6    0  503 -0.46601727507E+02 -0.12549549740E+03 -0.82351652869E+03  0.83432626346E+03  0.00000000000E+00 0.  1.
<mgrwt>
<rscale>  0 0.20771961E+04</rscale>
<asrwt>0</asrwt>
<pdfrwt beam="1">  1        2 0.35541685E+00 0.20771961E+04</pdfrwt>
<pdfrwt beam="2">  1       -1 0.71834036E-01 0.20771961E+04</pdfrwt>
<totfact> 0.91961250E+00</totfact>
</mgrwt>
</event>
<event>
12    7  0.2426980E-007  0.1939489E+04  0.7818608E-02  0.8635446E-01
         -1   -1    0    0    0  501 -0.00000000000E+00  0.00000000000E+00  0.61557236566E+03  0.61557236566E+03  0.00000000000E+00 0.  1.
          2   -1    0    0  501    0  0.00000000000E+00 -0.00000000000E+00 -0.15276909417E+04  0.15276909417E+04  0.00000000000E+00 0. -1.
         24    2    1    2    0    0  0.74268792929E+03  0.27812863977E+02 -0.15575641178E+03  0.76353965132E+03  0.79836229993E+02 0.  0.
        254    2    1    2    0    0 -0.74268792929E+03 -0.27812863977E+02 -0.75636216422E+03  0.13797236560E+04  0.88272007325E+03 0.  0.
         23    2    4    4    0    0 -0.61999684525E+03 -0.71984449897E+02 -0.94291103394E+03  0.11343489714E+04  0.89936209557E+02 0.  0.
         23    2    4    4    0    0 -0.12269108404E+03  0.44171585921E+02  0.18654886972E+03  0.24537468462E+03  0.91673463730E+02 0.  0.
          2    1    3    3  502    0  0.39428873910E+03  0.52909947131E+02 -0.94743324145E+02  0.40894910411E+03  0.00000000000E+00 0. -1.
         -1    1    3    3    0  502  0.34839919019E+03 -0.25097083155E+02 -0.61013087632E+02  0.35459054721E+03  0.00000000000E+00 0.  1.
         13    1    5    5    0    0 -0.52187349080E+03 -0.82795278503E+02 -0.74730028051E+03  0.91524024594E+03  0.00000000000E+00 0.  1.
        -13    1    5    5    0    0 -0.98123354445E+02  0.10810828606E+02 -0.19561075343E+03  0.21910872543E+03  0.00000000000E+00 0. -1.
          1    1    6    6  503    0 -0.49838388450E+01 -0.22174630519E+02  0.40268509643E+02  0.46239655677E+02  0.00000000000E+00 0. -1.
         -1    1    6    6    0  503 -0.11770724520E+03  0.66346216440E+02  0.14628036008E+03  0.19913502894E+03  0.00000000000E+00 0.  1.
<mgrwt>
<rscale>  0 0.19394889E+04</rscale>
<asrwt>0</asrwt>
<pdfrwt beam="1">  1        2 0.23502937E+00 0.19394889E+04</pdfrwt>
<pdfrwt beam="2">  1       -1 0.94703442E-01 0.19394889E+04</pdfrwt>
<totfact> 0.14045174E+01</totfact>
</mgrwt>
</event>
<event>
12    7  0.2426980E-007  0.5747952E+04  0.7818608E-02  0.7722463E-01
          2   -1    0    0  501    0  0.00000000000E+00  0.00000000000E+00  0.26329743409E+04  0.26329743409E+04  0.00000000000E+00 0. -1.
         -1   -1    0    0    0  501 -0.00000000000E+00 -0.00000000000E+00 -0.31370371154E+04  0.31370371154E+04  0.00000000000E+00 0.  1.
         24    2    1    2    0    0  0.95236986143E+03  0.25997725740E+04  0.19070921744E+03  0.27769260627E+04  0.95512109132E+02 0.  0.
        254    2    1    2    0    0 -0.95236986143E+03 -0.25997725740E+04 -0.69477199192E+03  0.29930853935E+04  0.90001459025E+03 0.  0.
         23    2    4    4    0    0 -0.52070972523E+03 -0.58623340181E+03 -0.47179744455E+03  0.91962832396E+03  0.91187752504E+02 0.  0.
         23    2    4    4    0    0 -0.43166013620E+03 -0.20135391722E+04 -0.22297454738E+03  0.20734570695E+04  0.94000528805E+02 0.  0.
          2    1    3    3  502    0  0.23887472660E+03  0.74156786410E+03  0.83688594823E+02  0.78357374444E+03  0.00000000000E+00 0. -1.
         -1    1    3    3    0  502  0.71349513483E+03  0.18582047099E+04  0.10702062262E+03  0.19933523183E+04  0.00000000000E+00 0.  1.
         13    1    5    5    0    0 -0.40732226667E+03 -0.50332399844E+03 -0.36599175921E+03  0.74377176885E+03  0.00000000000E+00 0.  1.
        -13    1    5    5    0    0 -0.11338745856E+03 -0.82909403369E+02 -0.10580568534E+03  0.17585655511E+03  0.00000000000E+00 0. -1.
          3    1    6    6  503    0 -0.86024907441E+02 -0.57006186039E+03 -0.39290232559E+02  0.57785338257E+03  0.00000000000E+00 0. -1.
         -3    1    6    6    0  503 -0.34563522876E+03 -0.14434773118E+04 -0.18368431482E+03  0.14956036870E+04  0.00000000000E+00 0.  1.
<mgrwt>
<rscale>  0 0.57479521E+04</rscale>
<asrwt>0</asrwt>
<pdfrwt beam="1">  1        2 0.40507298E+00 0.57479521E+04</pdfrwt>
<pdfrwt beam="2">  1       -1 0.48262109E+00 0.57479521E+04</pdfrwt>
<totfact> 0.44429645E-03</totfact>
</mgrwt>
</event>
<event>
12    7  0.2426980E-007  0.1164054E+04  0.7818608E-02  0.9144915E-01
          2   -1    0    0  501    0  0.00000000000E+00  0.00000000000E+00  0.42250988414E+03  0.42250988414E+03  0.00000000000E+00 0. -1.
         -1   -1    0    0    0  501 -0.00000000000E+00 -0.00000000000E+00 -0.80176881712E+03  0.80176881712E+03  0.00000000000E+00 0.  1.
         24    2    1    2    0    0 -0.86521096829E+02 -0.19987458971E+03 -0.24778710227E+02  0.23316481035E+03  0.79473847880E+02 0.  0.
        254    2    1    2    0    0  0.86521096829E+02  0.19987458971E+03 -0.35448022276E+03  0.99111389091E+03  0.89956365234E+03 0.  0.
         23    2    4    4    0    0  0.51235214669E+02 -0.14267296010E+03 -0.55436924394E+03  0.58186411817E+03  0.90884391507E+02 0.  0.
         23    2    4    4    0    0  0.35285882160E+02  0.34254754982E+03  0.19988902118E+03  0.40924977274E+03  0.94582441984E+02 0.  0.
          4    1    3    3  502    0  0.15021926492E+02 -0.19004462624E+02  0.32401184721E+00  0.24226697233E+02  0.00000000000E+00 0. -1.
         -3    1    3    3    0  502 -0.10154302332E+03 -0.18087012709E+03 -0.25102722074E+02  0.20893811312E+03  0.00000000000E+00 0.  1.
         13    1    5    5    0    0  0.40364358043E+01 -0.11252628336E+03 -0.27913509084E+03  0.30098979418E+03  0.00000000000E+00 0. -1.
        -13    1    5    5    0    0  0.47198778865E+02 -0.30146676741E+02 -0.27523415310E+03  0.28087432399E+03  0.00000000000E+00 0.  1.
          2    1    6    6  503    0  0.51510395071E+02  0.24127571260E+03  0.17840753028E+03  0.30446106016E+03  0.00000000000E+00 0. -1.
         -2    1    6    6    0  503 -0.16224512911E+02  0.10127183722E+03  0.21481490895E+02  0.10478871258E+03  0.00000000000E+00 0.  1.
<mgrwt>
<rscale>  0 0.11640537E+04</rscale>
<asrwt>0</asrwt>
<pdfrwt beam="1">  1        2 0.65001521E-01 0.11640537E+04</pdfrwt>
<pdfrwt beam="2">  1       -1 0.12334905E+00 0.11640537E+04</pdfrwt>
<totfact> 0.48942836E+01</totfact>
</mgrwt>
</event>
<event>
12    7  0.2426980E-007  0.2702175E+04  0.7818608E-02  0.8334300E-01
          2   -1    0    0  501    0  0.00000000000E+00  0.00000000000E+00  0.76646472868E+03  0.76646472868E+03  0.00000000000E+00 0. -1.
         -1   -1    0    0    0  501 -0.00000000000E+00 -0.00000000000E+00 -0.23816319575E+04  0.23816319575E+04  0.00000000000E+00 0.  1.
         24    2    1    2    0    0  0.70258035502E+03  0.91387239049E+03 -0.32968721336E+03  0.12016312070E+04  0.80262056479E+02 0.  0.
        254    2    1    2    0    0 -0.70258035502E+03 -0.91387239049E+03 -0.12854800155E+04  0.19464654791E+04  0.89860285443E+03 0.  0.
         23    2    4    4    0    0 -0.45433406893E+03 -0.63427351235E+03 -0.22164978428E+03  0.81588328218E+03  0.88400048698E+02 0.  0.
         23    2    4    4    0    0 -0.24824628609E+03 -0.27959887815E+03 -0.10638302312E+04  0.11305821970E+04  0.81728771613E+02 0.  0.
          2    1    3    3  502    0  0.59089329143E+03  0.72323034452E+03 -0.28228728294E+03  0.97565522763E+03  0.00000000000E+00 0. -1.
         -1    1    3    3    0  502  0.11168706360E+03  0.19064204597E+03 -0.47399930415E+02  0.22597597941E+03  0.00000000000E+00 0.  1.
         13    1    5    5    0    0 -0.27247286763E+03 -0.44276288919E+03 -0.16828986394E+03  0.54644479863E+03  0.00000000000E+00 0. -1.
        -13    1    5    5    0    0 -0.18186120130E+03 -0.19151062316E+03 -0.53359920334E+02  0.26943848355E+03  0.00000000000E+00 0.  1.
          4    1    6    6  503    0 -0.67522446705E+02 -0.38554955430E+02 -0.16058826832E+03  0.17842185213E+03  0.00000000000E+00 0. -1.
         -4    1    6    6    0  503 -0.18072383938E+03 -0.24104392272E+03 -0.90324196286E+03  0.95216034483E+03  0.00000000000E+00 0.  1.
<mgrwt>
<rscale>  0 0.27021746E+04</rscale>
<asrwt>0</asrwt>
<pdfrwt beam="1">  1        2 0.11791765E+00 0.27021746E+04</pdfrwt>
<pdfrwt beam="2">  1       -1 0.36640491E+00 0.27021746E+04</pdfrwt>
<totfact> 0.44036732E-01</totfact>
</mgrwt>
</event>
<event>
12    7  0.2426980E-007  0.3680781E+04  0.7818608E-02  0.8072234E-01
         -1   -1    0    0    0  501 -0.00000000000E+00  0.00000000000E+00  0.13341468074E+04  0.13341468074E+04  0.00000000000E+00 0.  1.
          2   -1    0    0  501    0  0.00000000000E+00 -0.00000000000E+00 -0.25387296196E+04  0.25387296196E+04  0.00000000000E+00 0. -1.
         24    2    1    2    0    0 -0.38897353191E+03  0.13085352898E+04  0.55004650742E+03  0.14738704774E+04  0.78600323506E+02 0.  0.
        254    2    1    2    0    0  0.38897353191E+03 -0.13085352898E+04 -0.17546293196E+04  0.23990059496E+04  0.90163212231E+03 0.  0.
         23    2    4    4    0    0 -0.14429294187E+03 -0.59544891225E+03 -0.29323252949E+03  0.68512150676E+03  0.89589633873E+02 0.  0.
         23    2    4    4    0    0  0.53326647379E+03 -0.71308637752E+03 -0.14613967901E+04  0.17138844428E+04  0.94095650637E+02 0.  0.
          2    1    3    3  502    0 -0.22576926858E+03  0.82238508161E+03  0.30711955011E+03  0.90642782567E+03  0.00000000000E+00 0. -1.
         -1    1    3    3    0  502 -0.16320426334E+03  0.48615020816E+03  0.24292695732E+03  0.56744265178E+03  0.00000000000E+00 0.  1.
         13    1    5    5    0    0 -0.90178459519E+02 -0.41587528023E+03 -0.24672171683E+03  0.49189024063E+03  0.00000000000E+00 0. -1.
        -13    1    5    5    0    0 -0.54114482356E+02 -0.17957363201E+03 -0.46510812665E+02  0.19323126613E+03  0.00000000000E+00 0.  1.
          1    1    6    6  503    0  0.17618573608E+03 -0.20825230700E+03 -0.52695016575E+03  0.59336912134E+03  0.00000000000E+00 0. -1.
         -1    1    6    6    0  503  0.35708073771E+03 -0.50483407051E+03 -0.93444662433E+03  0.11205153215E+04  0.00000000000E+00 0.  1.
<mgrwt>
<rscale>  0 0.36807814E+04</rscale>
<asrwt>0</asrwt>
<pdfrwt beam="1">  1        2 0.39057379E+00 0.36807814E+04</pdfrwt>
<pdfrwt beam="2">  1       -1 0.20525336E+00 0.36807814E+04</pdfrwt>
<totfact> 0.42114152E-01</totfact>
</mgrwt>
</event>
<event>
12    7  0.2426980E-007  0.2026774E+04  0.7818608E-02  0.8594204E-01
          2   -1    0    0  501    0  0.00000000000E+00  0.00000000000E+00  0.44490766785E+04  0.44490766785E+04  0.00000000000E+00 0. -1.
         -3   -1    0    0    0  501 -0.00000000000E+00 -0.00000000000E+00 -0.23082386449E+03  0.23082386449E+03  0.00000000000E+00 0.  1.
         24    2    1    2    0    0  0.47033177243E+03  0.63678856625E+03  0.20937376186E+04  0.22398224700E+04  0.79723442020E+02 0.  0.
        254    2    1    2    0    0 -0.47033177243E+03 -0.63678856625E+03  0.21245151954E+04  0.24400780730E+04  0.90205572588E+03 0.  0.
         23    2    4    4    0    0  0.23699293404E+03 -0.44934572039E+02  0.31553733209E+03  0.40753397282E+03  0.91298217433E+02 0.  0.
         23    2    4    4    0    0 -0.70732470648E+03 -0.59185399422E+03  0.18089778633E+04  0.20325441002E+04  0.90748104130E+02 0.  0.
          2    1    3    3  502    0  0.36121302799E+03  0.54061627313E+03  0.17049471287E+04  0.18247151882E+04  0.00000000000E+00 0. -1.
         -1    1    3    3    0  502  0.10911874444E+03  0.96172293120E+02  0.38879048996E+03  0.41510728184E+03  0.00000000000E+00 0.  1.
         13    1    5    5    0    0  0.10709483933E+03 -0.61985490840E+02  0.12157312756E+03  0.17346910684E+03  0.00000000000E+00 0. -1.
        -13    1    5    5    0    0  0.12989809472E+03  0.17050918801E+02  0.19396420453E+03  0.23406486597E+03  0.00000000000E+00 0.  1.
          1    1    6    6  503    0 -0.50621352214E+03 -0.39022091941E+03  0.13221362303E+04  0.14685260323E+04  0.00000000000E+00 0. -1.
         -1    1    6    6    0  503 -0.20111118433E+03 -0.20163307480E+03  0.48684163296E+03  0.56401806789E+03  0.00000000000E+00 0.  1.
<mgrwt>
<rscale>  0 0.20267739E+04</rscale>
<asrwt>0</asrwt>
<pdfrwt beam="1">  1        2 0.68447327E+00 0.20267739E+04</pdfrwt>
<pdfrwt beam="2">  1       -3 0.35511367E-01 0.20267739E+04</pdfrwt>
<totfact> 0.66307305E-01</totfact>
</mgrwt>
</event>
<event>
12    7  0.2426980E-007  0.2108889E+04  0.7818608E-02  0.8557338E-01
         -1   -1    0    0    0  501 -0.00000000000E+00  0.00000000000E+00  0.14023395905E+04  0.14023395905E+04  0.00000000000E+00 0.  1.
          2   -1    0    0  501    0  0.00000000000E+00 -0.00000000000E+00 -0.79285602812E+03  0.79285602812E+03  0.00000000000E+00 0. -1.
         24    2    1    2    0    0 -0.18121951259E+03 -0.83311797782E+03  0.22874446558E+03  0.88832254995E+03  0.99331996380E+02 0.  0.
        254    2    1    2    0    0  0.18121951259E+03  0.83311797782E+03  0.38073909681E+03  0.13068730687E+04  0.91434614948E+03 0.  0.
         23    2    4    4    0    0  0.83868942262E+02 -0.17759616305E+03  0.14290855002E+03  0.25904600689E+03  0.90042120208E+02 0.  0.
         23    2    4    4    0    0  0.97350570332E+02  0.10107141409E+04  0.23783054679E+03  0.10478270618E+04  0.10177413379E+03 0.  0.
          4    1    3    3  502    0 -0.12053055036E+03 -0.64070737023E+03  0.13465539265E+03  0.66570685936E+03  0.00000000000E+00 0. -1.
         -3    1    3    3    0  502 -0.60688962237E+02 -0.19241060760E+03  0.94089072923E+02  0.22261569059E+03  0.00000000000E+00 0.  1.
         13    1    5    5    0    0 -0.57906669804E+01 -0.70800263273E+02  0.77159868585E+02  0.10488019081E+03  0.00000000000E+00 0. -1.
        -13    1    5    5    0    0  0.89659609242E+02 -0.10679589978E+03  0.65748681434E+02  0.15416581609E+03  0.00000000000E+00 0.  1.
          3    1    6    6  503    0  0.11003940853E+03  0.95509894485E+03  0.20883618686E+03  0.98383698793E+03  0.00000000000E+00 0. -1.
         -3    1    6    6    0  503 -0.12688838197E+02  0.55615196027E+02  0.28994359925E+02  0.63990073850E+02  0.00000000000E+00 0.  1.
<mgrwt>
<rscale>  0 0.21088892E+04</rscale>
<asrwt>0</asrwt>
<pdfrwt beam="1">  1        2 0.12197785E+00 0.21088892E+04</pdfrwt>
<pdfrwt beam="2">  1       -1 0.21574455E+00 0.21088892E+04</pdfrwt>
<totfact> 0.43054997E+00</totfact>
</mgrwt>
</event>
<event>
12    7  0.2426980E-007  0.3473663E+04  0.7818608E-02  0.8120060E-01
          2   -1    0    0  501    0  0.00000000000E+00  0.00000000000E+00  0.39789747313E+04  0.39789747313E+04  0.00000000000E+00 0. -1.
         -1   -1    0    0    0  501 -0.00000000000E+00 -0.00000000000E+00 -0.75813079037E+03  0.75813079037E+03  0.00000000000E+00 0.  1.
         24    2    1    2    0    0 -0.15479875574E+03 -0.13028307862E+04  0.27974181760E+04  0.30911042170E+04  0.89700149124E+02 0.  0.
        254    2    1    2    0    0  0.15479875574E+03  0.13028307862E+04  0.42342576501E+03  0.16460013047E+04  0.89927760152E+03 0.  0.
         23    2    4    4    0    0 -0.25934199443E+03  0.79429930003E+03  0.50281699795E+03  0.97945247490E+03  0.91282906712E+02 0.  0.
         23    2    4    4    0    0  0.41414075017E+03  0.50853148613E+03 -0.79391232940E+02  0.66654882984E+03  0.88699162071E+02 0.  0.
          4    1    3    3  502    0 -0.47826845154E+02 -0.45344801044E+03  0.10735244625E+04  0.11663435501E+04  0.00000000000E+00 0. -1.
         -3    1    3    3    0  502 -0.10697191059E+03 -0.84938277573E+03  0.17238937134E+04  0.19247606668E+04  0.00000000000E+00 0.  1.
         13    1    5    5    0    0  0.75056666793E+01  0.32418777889E+02  0.19882748094E+02  0.38763847382E+02  0.00000000000E+00 0. -1.
        -13    1    5    5    0    0 -0.26684766111E+03  0.76188052214E+03  0.48293424985E+03  0.94068862752E+03  0.00000000000E+00 0.  1.
          1    1    6    6  503    0  0.90809228086E+01  0.12065401326E+02  0.12042310804E+02  0.19314614097E+02  0.00000000000E+00 0. -1.
         -1    1    6    6    0  503  0.40505982736E+03  0.49646608481E+03 -0.91433543745E+02  0.64723421574E+03  0.00000000000E+00 0.  1.
<mgrwt>
<rscale>  0 0.34736628E+04</rscale>
<asrwt>0</asrwt>
<pdfrwt beam="1">  1        2 0.61214995E+00 0.34736628E+04</pdfrwt>
<pdfrwt beam="2">  1       -1 0.11663551E+00 0.34736628E+04</pdfrwt>
<totfact> 0.22004042E-01</totfact>
</mgrwt>
</event>
<event>
12    7  0.2426980E-007  0.2129482E+04  0.7818608E-02  0.8548366E-01
         -1   -1    0    0    0  501 -0.00000000000E+00  0.00000000000E+00  0.28384977285E+03  0.28384977285E+03  0.00000000000E+00 0.  1.
          2   -1    0    0  501    0  0.00000000000E+00 -0.00000000000E+00 -0.39939221036E+04  0.39939221036E+04  0.00000000000E+00 0. -1.
         24    2    1    2    0    0 -0.19459967796E+03  0.49869671734E+03 -0.28961402326E+04  0.29463239546E+04  0.81419577862E+02 0.  0.
        254    2    1    2    0    0  0.19459967796E+03 -0.49869671734E+03 -0.81393209813E+03  0.13314479219E+04  0.90757956005E+03 0.  0.
         23    2    4    4    0    0  0.42283076996E+03 -0.51799108472E+02 -0.86780729165E+02  0.44318324807E+03  0.86090003825E+02 0.  0.
         23    2    4    4    0    0 -0.22823109200E+03 -0.44689760887E+03 -0.72715136897E+03  0.88826467383E+03  0.91968001021E+02 0.  0.
          4    1    3    3  502    0 -0.11111608889E+03  0.37457924946E+03 -0.20044116850E+04  0.20421367737E+04  0.00000000000E+00 0. -1.
         -3    1    3    3    0  502 -0.83483589065E+02  0.12411746788E+03 -0.89172854761E+03  0.90418718090E+03  0.00000000000E+00 0.  1.
         13    1    5    5    0    0  0.34200054781E+03 -0.16115413143E+02 -0.92459166882E+02  0.35464458093E+03  0.00000000000E+00 0. -1.
        -13    1    5    5    0    0  0.80830222150E+02 -0.35683695329E+02  0.56784377173E+01  0.88538667147E+02  0.00000000000E+00 0.  1.
          1    1    6    6  503    0 -0.18155404992E+03 -0.26499913074E+03 -0.48714139424E+03  0.58351790917E+03  0.00000000000E+00 0. -1.
         -1    1    6    6    0  503 -0.46677042077E+02 -0.18189847813E+03 -0.24000997473E+03  0.30474676466E+03  0.00000000000E+00 0.  1.
<mgrwt>
<rscale>  0 0.21294825E+04</rscale>
<asrwt>0</asrwt>
<pdfrwt beam="1">  1        2 0.61444949E+00 0.21294825E+04</pdfrwt>
<pdfrwt beam="2">  1       -1 0.43669200E-01 0.21294825E+04</pdfrwt>
<totfact> 0.18905440E+00</totfact>
</mgrwt>
</event>
<event>
12    7  0.2426980E-007  0.2578186E+04  0.7818608E-02  0.8375649E-01
          2   -1    0    0  501    0  0.00000000000E+00  0.00000000000E+00  0.30057894601E+04  0.30057894601E+04  0.00000000000E+00 0. -1.
         -3   -1    0    0    0  501 -0.00000000000E+00 -0.00000000000E+00 -0.55285316334E+03  0.55285316334E+03  0.00000000000E+00 0.  1.
         24    2    1    2    0    0  0.10499494555E+04 -0.76327739965E+02  0.50960967000E+03  0.11722869885E+04  0.79592616632E+02 0.  0.
        254    2    1    2    0    0 -0.10499494555E+04  0.76327739965E+02  0.19433266267E+04  0.23863556349E+04  0.89997503040E+03 0.  0.
         23    2    4    4    0    0 -0.61547587967E+03  0.27158313310E+03  0.44568552844E+03  0.81221614852E+03  0.92149471081E+02 0.  0.
         23    2    4    4    0    0 -0.43447357581E+03 -0.19525539313E+03  0.14976410983E+04  0.15741394864E+04  0.89968365636E+02 0.  0.
          4    1    3    3  502    0  0.57152671362E+03 -0.80257284371E+02  0.28851042472E+03  0.64523040943E+03  0.00000000000E+00 0. -1.
         -1    1    3    3    0  502  0.47842274185E+03  0.39295444054E+01  0.22109924528E+03  0.52705657904E+03  0.00000000000E+00 0.  1.
         13    1    5    5    0    0 -0.19678609740E+03  0.84612099281E+02  0.19475946181E+03  0.28950858958E+03  0.00000000000E+00 0.  1.
        -13    1    5    5    0    0 -0.41868978227E+03  0.18697103382E+03  0.25092606663E+03  0.52270755894E+03  0.00000000000E+00 0. -1.
          1    1    6    6  503    0 -0.20443482067E+03 -0.83338100913E+02  0.83907267286E+03  0.86762998179E+03  0.00000000000E+00 0. -1.
         -1    1    6    6    0  503 -0.23003875513E+03 -0.11191729222E+03  0.65856842542E+03  0.70650950463E+03  0.00000000000E+00 0.  1.
<mgrwt>
<rscale>  0 0.25781856E+04</rscale>
<asrwt>0</asrwt>
<pdfrwt beam="1">  1        2 0.46242914E+00 0.25781856E+04</pdfrwt>
<pdfrwt beam="2">  1       -3 0.85054335E-01 0.25781856E+04</pdfrwt>
<totfact> 0.12436520E+00</totfact>
</mgrwt>
</event>
<event>
12    7  0.2426980E-007  0.2902417E+04  0.7818608E-02  0.8272159E-01
          2   -1    0    0  501    0  0.00000000000E+00  0.00000000000E+00  0.16290615873E+04  0.16290615873E+04  0.00000000000E+00 0. -1.
         -1   -1    0    0    0  501 -0.00000000000E+00 -0.00000000000E+00 -0.12927725643E+04  0.12927725643E+04  0.00000000000E+00 0.  1.
         24    2    1    2    0    0 -0.16494427689E+03  0.67255553423E+03 -0.96738182316E+03  0.11923210129E+04  0.79146982739E+02 0.  0.
        254    2    1    2    0    0  0.16494427689E+03 -0.67255553423E+03  0.13036708462E+04  0.17295131387E+04  0.90117726367E+03 0.  0.
         23    2    4    4    0    0 -0.11122350604E+03 -0.79282369295E+03  0.10599072715E+04  0.13313942039E+04  0.90923185911E+02 0.  0.
         23    2    4    4    0    0  0.27616778293E+03  0.12026815872E+03  0.24376357478E+03  0.39811893480E+03  0.91350596737E+02 0.  0.
          4    1    3    3  502    0 -0.10145055990E+03  0.41360064009E+03 -0.52757398111E+03  0.67800590789E+03  0.00000000000E+00 0. -1.
         -3    1    3    3    0  502 -0.63493716992E+02  0.25895489414E+03 -0.43980784204E+03  0.51431510499E+03  0.00000000000E+00 0.  1.
         13    1    5    5    0    0 -0.12277549505E+03 -0.74487902029E+03  0.97367715883E+03  0.12320575419E+04  0.00000000000E+00 0.  1.
        -13    1    5    5    0    0  0.11551989007E+02 -0.47944672659E+02  0.86230112638E+02  0.99336661973E+02  0.00000000000E+00 0. -1.
          2    1    6    6  503    0  0.53201183937E+01  0.19794869020E+02  0.38895980474E+02  0.43966325708E+02  0.00000000000E+00 0. -1.
         -2    1    6    6    0  503  0.27084766453E+03  0.10047328970E+03  0.20486759431E+03  0.35415260909E+03  0.00000000000E+00 0.  1.
<mgrwt>
<rscale>  0 0.29024170E+04</rscale>
<asrwt>0</asrwt>
<pdfrwt beam="1">  1        2 0.25062486E+00 0.29024170E+04</pdfrwt>
<pdfrwt beam="2">  1       -1 0.19888809E+00 0.29024170E+04</pdfrwt>
<totfact> 0.16165943E+00</totfact>
</mgrwt>
</event>
<event>
12    7  0.2426980E-007  0.1712282E+04  0.7818608E-02  0.8754390E-01
          2   -1    0    0  501    0  0.00000000000E+00  0.00000000000E+00  0.17035898366E+04  0.17035898366E+04  0.00000000000E+00 0. -1.
         -1   -1    0    0    0  501 -0.00000000000E+00 -0.00000000000E+00 -0.43025459973E+03  0.43025459973E+03  0.00000000000E+00 0.  1.
         24    2    1    2    0    0  0.21221528702E+03  0.42265955865E+03  0.95528262914E+03  0.10689268770E+04  0.79770522597E+02 0.  0.
        254    2    1    2    0    0 -0.21221528702E+03 -0.42265955865E+03  0.31805260777E+03  0.10649175594E+04  0.89956407020E+03 0.  0.
         23    2    4    4    0    0  0.20424225756E+03 -0.32423078633E+03  0.45861749766E+03  0.60444682872E+03  0.90473515548E+02 0.  0.
         23    2    4    4    0    0 -0.41645754457E+03 -0.98428772327E+02 -0.14056488989E+03  0.46047073066E+03  0.95654042630E+02 0.  0.
          2    1    3    3  502    0  0.84016255025E+02  0.19381698324E+03  0.51175782661E+03  0.55364232786E+03  0.00000000000E+00 0. -1.
         -1    1    3    3    0  502  0.12819903199E+03  0.22884257541E+03  0.44352480253E+03  0.51528454914E+03  0.00000000000E+00 0.  1.
         13    1    5    5    0    0 -0.81290424860E+01 -0.79626654824E+01  0.60557332481E+01  0.12890200871E+02  0.00000000000E+00 0.  1.
        -13    1    5    5    0    0  0.21237130004E+03 -0.31626812084E+03  0.45256176441E+03  0.59155662785E+03  0.00000000000E+00 0. -1.
          3    1    6    6  503    0 -0.28550052228E+03 -0.85433687886E+02 -0.13907114655E+03  0.32886204866E+03  0.00000000000E+00 0. -1.
         -3    1    6    6    0  503 -0.13095702229E+03 -0.12995084442E+02 -0.14937433351E+01  0.13160868200E+03  0.00000000000E+00 0.  1.
<mgrwt>
<rscale>  0 0.17122819E+04</rscale>
<asrwt>0</asrwt>
<pdfrwt beam="1">  1        2 0.26209074E+00 0.17122819E+04</pdfrwt>
<pdfrwt beam="2">  1       -1 0.66193016E-01 0.17122819E+04</pdfrwt>
<totfact> 0.24449926E+01</totfact>
</mgrwt>
</event>
<event>
12    7  0.2426980E-007  0.2988986E+04  0.7818608E-02  0.8246883E-01
         -1   -1    0    0    0  501 -0.00000000000E+00  0.00000000000E+00  0.13410867407E+04  0.13410867407E+04  0.00000000000E+00 0.  1.
          2   -1    0    0  501    0  0.00000000000E+00 -0.00000000000E+00 -0.16654469399E+04  0.16654469399E+04  0.00000000000E+00 0. -1.
         24    2    1    2    0    0 -0.59207049963E+03 -0.11854869320E+04  0.15025444778E+03  0.13361314589E+04  0.82122675672E+02 0.  0.
        254    2    1    2    0    0  0.59207049963E+03  0.11854869320E+04 -0.47461464695E+03  0.16704022218E+04  0.89947639037E+03 0.  0.
         23    2    4    4    0    0  0.27957478437E+03  0.84220022672E+03 -0.71152768249E+03  0.11410448318E+04  0.90820610203E+02 0.  0.
         23    2    4    4    0    0  0.31249571526E+03  0.34328670531E+03  0.23691303554E+03  0.52935738998E+03  0.92693720512E+02 0.  0.
          2    1    3    3  502    0 -0.31105107344E+03 -0.71095475440E+03  0.78468891864E+02  0.77997871771E+03  0.00000000000E+00 0. -1.
         -1    1    3    3    0  502 -0.28101942619E+03 -0.47453217762E+03  0.71785555918E+02  0.55615274119E+03  0.00000000000E+00 0.  1.
         13    1    5    5    0    0  0.24169596878E+03  0.59953955296E+03 -0.51431236846E+03  0.82606405880E+03  0.00000000000E+00 0. -1.
        -13    1    5    5    0    0  0.37878815596E+02  0.24266067375E+03 -0.19721531403E+03  0.31498077298E+03  0.00000000000E+00 0.  1.
          1    1    6    6  503    0  0.25696373032E+03  0.26025421830E+03  0.22337163711E+03  0.42855280318E+03  0.00000000000E+00 0. -1.
         -1    1    6    6    0  503  0.55531984939E+02  0.83032487002E+02  0.13541398427E+02  0.10080458680E+03  0.00000000000E+00 0.  1.
<mgrwt>
<rscale>  0 0.29889857E+04</rscale>
<asrwt>0</asrwt>
<pdfrwt beam="1">  1        2 0.25622260E+00 0.29889857E+04</pdfrwt>
<pdfrwt beam="2">  1       -1 0.20632104E+00 0.29889857E+04</pdfrwt>
<totfact> 0.13616835E+00</totfact>
</mgrwt>
</event>
<event>
12    7  0.2426980E-007  0.1535317E+04  0.7818608E-02  0.8861302E-01
          2   -1    0    0  501    0  0.00000000000E+00  0.00000000000E+00  0.10830178425E+04  0.10830178425E+04  0.00000000000E+00 0. -1.
         -1   -1    0    0    0  501 -0.00000000000E+00 -0.00000000000E+00 -0.54412702019E+03  0.54412702019E+03  0.00000000000E+00 0.  1.
         24    2    1    2    0    0  0.80731863360E+02 -0.34244703501E+03  0.55353694480E+03  0.66052659424E+03  0.78132111788E+02 0.  0.
        254    2    1    2    0    0 -0.80731863360E+02  0.34244703501E+03 -0.14646122470E+02  0.96661826847E+03  0.90019373609E+03 0.  0.
         23    2    4    4    0    0 -0.65489404579E+02  0.36266580959E+03  0.39408731457E+03  0.54720897261E+03  0.91200310495E+02 0.  0.
         23    2    4    4    0    0 -0.15242458781E+02 -0.20218774583E+02 -0.40873343704E+03  0.41940929587E+03  0.90553870746E+02 0.  0.
          4    1    3    3  502    0 -0.54997246105E+01 -0.13215595452E+03  0.18209798761E+03  0.22506692422E+03  0.00000000000E+00 0. -1.
         -3    1    3    3    0  502  0.86231587971E+02 -0.21029108049E+03  0.37143895719E+03  0.43545967002E+03  0.00000000000E+00 0.  1.
         13    1    5    5    0    0 -0.59419466349E+02  0.12638042277E+03  0.18384394222E+03  0.23087069830E+03  0.00000000000E+00 0.  1.
        -13    1    5    5    0    0 -0.60699382301E+01  0.23628538682E+03  0.21024337236E+03  0.31633827431E+03  0.00000000000E+00 0. -1.
          1    1    6    6  503    0 -0.38608120152E+02 -0.36914478684E+02 -0.15275622118E+03  0.16182623022E+03  0.00000000000E+00 0. -1.
         -1    1    6    6    0  503  0.23365661371E+02  0.16695704101E+02 -0.25597721586E+03  0.25758306564E+03  0.00000000000E+00 0.  1.
<mgrwt>
<rscale>  0 0.15353166E+04</rscale>
<asrwt>0</asrwt>
<pdfrwt beam="1">  1        2 0.16661813E+00 0.15353166E+04</pdfrwt>
<pdfrwt beam="2">  1       -1 0.83711850E-01 0.15353166E+04</pdfrwt>
<totfact> 0.34725711E+01</totfact>
</mgrwt>
</event>
<event>
12    7  0.2426980E-007  0.1824578E+04  0.7818608E-02  0.8693337E-01
         -1   -1    0    0    0  501 -0.00000000000E+00  0.00000000000E+00  0.79336654426E+03  0.79336654426E+03  0.00000000000E+00 0.  1.
          2   -1    0    0  501    0  0.00000000000E+00 -0.00000000000E+00 -0.10490370608E+04  0.10490370608E+04  0.00000000000E+00 0. -1.
         24    2    1    2    0    0 -0.42652049154E+03 -0.17639445300E+03 -0.61192542428E+03  0.77053613179E+03  0.78984003197E+02 0.  0.
        254    2    1    2    0    0  0.42652049154E+03  0.17639445300E+03  0.35625490776E+03  0.10718674733E+04  0.89941513673E+03 0.  0.
         23    2    4    4    0    0  0.61686764399E+03  0.14284061036E+03  0.50185492147E+03  0.81323274594E+03  0.92520304199E+02 0.  0.
         23    2    4    4    0    0 -0.19034715246E+03  0.33553842641E+02 -0.14560001371E+03  0.25863472732E+03  0.91294355676E+02 0.  0.
          2    1    3    3  502    0 -0.39921521170E+03 -0.14072283979E+03 -0.54977585103E+03  0.69385098491E+03  0.00000000000E+00 0. -1.
         -1    1    3    3    0  502 -0.27305279839E+02 -0.35671613210E+02 -0.62149573248E+02  0.76685146874E+02  0.00000000000E+00 0.  1.
         13    1    5    5    0    0  0.22894915041E+03  0.88976498910E+02  0.22984859754E+03  0.33639992363E+03  0.00000000000E+00 0.  1.
        -13    1    5    5    0    0  0.38791849358E+03  0.53864111453E+02  0.27200632393E+03  0.47683282230E+03  0.00000000000E+00 0. -1.
          3    1    6    6  503    0 -0.19606065557E+03  0.27869853502E+02 -0.11944285727E+03  0.23126414670E+03  0.00000000000E+00 0. -1.
         -3    1    6    6    0  503  0.57135031121E+01  0.56839891388E+01 -0.26157156439E+02  0.27370580617E+02  0.00000000000E+00 0.  1.
<mgrwt>
<rscale>  0 0.18245777E+04</rscale>
<asrwt>0</asrwt>
<pdfrwt beam="1">  1        2 0.16139032E+00 0.18245777E+04</pdfrwt>
<pdfrwt beam="2">  1       -1 0.12205639E+00 0.18245777E+04</pdfrwt>
<totfact> 0.14960046E+01</totfact>
</mgrwt>
</event>
<event>
12    7  0.2426980E-007  0.4846400E+04  0.7818608E-02  0.7852648E-01
         -1   -1    0    0    0  501 -0.00000000000E+00  0.00000000000E+00  0.22051203040E+04  0.22051203040E+04  0.00000000000E+00 0.  1.
          2   -1    0    0  501    0  0.00000000000E+00 -0.00000000000E+00 -0.26628466490E+04  0.26628466490E+04  0.00000000000E+00 0. -1.
         24    2    1    2    0    0  0.16025633235E+04  0.13647258357E+04 -0.12452238370E+04  0.24469440018E+04  0.79162688724E+02 0.  0.
        254    2    1    2    0    0 -0.16025633235E+04 -0.13647258357E+04  0.78749749205E+03  0.24210229512E+04  0.90028552027E+03 0.  0.
         23    2    4    4    0    0 -0.15630713936E+04 -0.11007257349E+04  0.42323607263E+03  0.19603215151E+04  0.94563970297E+02 0.  0.
         23    2    4    4    0    0 -0.39491929887E+02 -0.26400010085E+03  0.36426141942E+03  0.46070143615E+03  0.91125001063E+02 0.  0.
          4    1    3    3  502    0  0.83130351946E+03  0.66823195973E+03 -0.66038674759E+03  0.12544760460E+04  0.00000000000E+00 0. -1.
         -3    1    3    3    0  502  0.77125980401E+03  0.69649387600E+03 -0.58483708944E+03  0.11924679559E+04  0.00000000000E+00 0.  1.
         13    1    5    5    0    0 -0.11858939618E+04 -0.85705310143E+03  0.36035602452E+03  0.15068977973E+04  0.00000000000E+00 0.  1.
        -13    1    5    5    0    0 -0.37717743183E+03 -0.24367263345E+03  0.62880048106E+02  0.45342371776E+03  0.00000000000E+00 0. -1.
          1    1    6    6  503    0 -0.10199196954E+02 -0.16328354692E+02  0.11147962251E-01  0.19251984566E+02  0.00000000000E+00 0. -1.
         -1    1    6    6    0  503 -0.29292732933E+02 -0.24767174615E+03  0.36425027146E+03  0.44144945158E+03  0.00000000000E+00 0.  1.
<mgrwt>
<rscale>  0 0.48463996E+04</rscale>
<asrwt>0</asrwt>
<pdfrwt beam="1">  1        2 0.40966872E+00 0.48463996E+04</pdfrwt>
<pdfrwt beam="2">  1       -1 0.33924928E+00 0.48463996E+04</pdfrwt>
<totfact> 0.42851271E-02</totfact>
</mgrwt>
</event>
<event>
12    7  0.2426980E-007  0.1489350E+04  0.7818608E-02  0.8891566E-01
          2   -1    0    0  501    0  0.00000000000E+00  0.00000000000E+00  0.14204996688E+04  0.14204996688E+04  0.00000000000E+00 0. -1.
         -1   -1    0    0    0  501 -0.00000000000E+00 -0.00000000000E+00 -0.39038411892E+03  0.39038411892E+03  0.00000000000E+00 0.  1.
         24    2    1    2    0    0  0.35910931280E+03 -0.17244500781E+03  0.59414283119E+03  0.71970482435E+03  0.79199438624E+02 0.  0.
        254    2    1    2    0    0 -0.35910931280E+03  0.17244500781E+03  0.43597271870E+03  0.10911789634E+04  0.91755247231E+03 0.  0.
         23    2    4    4    0    0 -0.30727638044E+03 -0.13478556341E+03  0.62667608283E+03  0.71680707107E+03  0.92214653204E+02 0.  0.
         23    2    4    4    0    0 -0.51832932357E+02  0.30723057123E+03 -0.19070336413E+03  0.37437189232E+03  0.81910096414E+02 0.  0.
          2    1    3    3  502    0  0.13198252257E+03 -0.25204170907E+02  0.22279169966E+03  0.26017451438E+03  0.00000000000E+00 0. -1.
         -1    1    3    3    0  502  0.22712679023E+03 -0.14724083691E+03  0.37135113153E+03  0.45953030997E+03  0.00000000000E+00 0.  1.
         13    1    5    5    0    0 -0.14201278202E+03 -0.48859383556E+02  0.37292212692E+03  0.40202709159E+03  0.00000000000E+00 0. -1.
        -13    1    5    5    0    0 -0.16526359842E+03 -0.85926179859E+02  0.25375395590E+03  0.31477997948E+03  0.00000000000E+00 0.  1.
          1    1    6    6  503    0  0.15289306333E+02  0.27041390770E+02 -0.46675280239E+01  0.31413142485E+02  0.00000000000E+00 0.  1.
         -1    1    6    6    0  503 -0.67122238690E+02  0.28018918046E+03 -0.18603583611E+03  0.34295874984E+03  0.00000000000E+00 0. -1.
<mgrwt>
<rscale>  0 0.14893495E+04</rscale>
<asrwt>0</asrwt>
<pdfrwt beam="1">  1        2 0.21853841E+00 0.14893495E+04</pdfrwt>
<pdfrwt beam="2">  1       -1 0.60059096E-01 0.14893495E+04</pdfrwt>
<totfact> 0.43630395E+01</totfact>
</mgrwt>
</event>
<event>
12    7  0.2506090E-007  0.2797363E+04  0.7818608E-02  0.8304088E-01
          2   -1    0    0  501    0  0.00000000000E+00  0.00000000000E+00  0.96595554458E+03  0.96595554458E+03  0.00000000000E+00 0. -1.
         -1   -1    0    0    0  501 -0.00000000000E+00 -0.00000000000E+00 -0.20252582047E+04  0.20252582047E+04  0.00000000000E+00 0.  1.
         24    2    1    2    0    0 -0.11203269372E+04  0.53763751659E+03 -0.64137460339E+03  0.14006930827E+04  0.79957391669E+02 0.  0.
        254    2    1    2    0    0  0.11203269372E+04 -0.53763751659E+03 -0.41792805672E+03  0.15905206666E+04  0.90050296204E+03 0.  0.
         23    2    4    4    0    0  0.18811777950E+03 -0.25264983450E+02 -0.47773342195E+03  0.52141705469E+03  0.87292062170E+02 0.  0.
         23    2    4    4    0    0  0.93220915774E+03 -0.51237253314E+03  0.59805365234E+02  0.10691036119E+04  0.88692303728E+02 0.  0.
          4    1    3    3  502    0 -0.60850267280E+03  0.28966173059E+03 -0.30297746538E+03  0.73890105258E+03  0.00000000000E+00 0. -1.
         -3    1    3    3    0  502 -0.51182426444E+03  0.24797578599E+03 -0.33839713801E+03  0.66179203012E+03  0.00000000000E+00 0.  1.
         13    1    5    5    0    0  0.16977791227E+03  0.24157876169E+01 -0.34399604910E+03  0.38361915662E+03  0.00000000000E+00 0.  1.
        -13    1    5    5    0    0  0.18339867232E+02 -0.27680771067E+02 -0.13373737285E+03  0.13779789807E+03  0.00000000000E+00 0. -1.
          1    1    6    6  503    0  0.27365818109E+03 -0.10657037056E+03  0.69383718859E+01  0.29375871896E+03  0.00000000000E+00 0. -1.
         -1    1    6    6    0  503  0.65855097665E+03 -0.40580216258E+03  0.52866993348E+02  0.77534489292E+03  0.00000000000E+00 0.  1.
<mgrwt>
<rscale>  0 0.27973626E+04</rscale>
<asrwt>0</asrwt>
<pdfrwt beam="1">  1        2 0.14860855E+00 0.27973626E+04</pdfrwt>
<pdfrwt beam="2">  1       -1 0.31157818E+00 0.27973626E+04</pdfrwt>
<totfact> 0.73016218E-01</totfact>
</mgrwt>
</event>
<event>
12    7  0.2426980E-007  0.1057470E+04  0.7818608E-02  0.9247666E-01
          2   -1    0    0  501    0  0.00000000000E+00  0.00000000000E+00  0.11742363425E+04  0.11742363425E+04  0.00000000000E+00 0. -1.
         -1   -1    0    0    0  501 -0.00000000000E+00 -0.00000000000E+00 -0.23807871341E+03  0.23807871341E+03  0.00000000000E+00 0.  1.
         24    2    1    2    0    0  0.13324256638E+03 -0.31518243829E+02  0.14333030271E+03  0.21348212413E+03  0.79272066053E+02 0.  0.
        254    2    1    2    0    0 -0.13324256638E+03  0.31518243829E+02  0.79282732633E+03  0.11988329317E+04  0.88875094804E+03 0.  0.
         23    2    4    4    0    0 -0.32539553085E+03 -0.25452334758E+03  0.71893441968E+03  0.83494801728E+03  0.98015844610E+02 0.  0.
         23    2    4    4    0    0  0.19215296447E+03  0.28604159141E+03  0.73892906654E+02  0.36388491446E+03  0.90606376979E+02 0.  0.
          2    1    3    3  502    0  0.46833430544E+02  0.24307178687E+02  0.31152799047E+02  0.61275656184E+02  0.00000000000E+00 0. -1.
         -1    1    3    3    0  502  0.86409135837E+02 -0.55825422516E+02  0.11217750366E+03  0.15220646794E+03  0.00000000000E+00 0.  1.
         13    1    5    5    0    0 -0.29564506521E+03 -0.22762684419E+03  0.69336319651E+03  0.78738332917E+03  0.00000000000E+00 0. -1.
        -13    1    5    5    0    0 -0.29750465640E+02 -0.26896503388E+02  0.25571223167E+02  0.47564688105E+02  0.00000000000E+00 0.  1.
          1    1    6    6  503    0  0.19653832191E+03  0.24896568946E+03  0.77051595722E+02  0.32641717925E+03  0.00000000000E+00 0. -1.
         -1    1    6    6    0  503 -0.43853574398E+01  0.37075901947E+02 -0.31586890685E+01  0.37467735209E+02  0.00000000000E+00 0.  1.
<mgrwt>
<rscale>  0 0.10574700E+04</rscale>
<asrwt>0</asrwt>
<pdfrwt beam="1">  1        2 0.18065174E+00 0.10574700E+04</pdfrwt>
<pdfrwt beam="2">  1       -1 0.36627495E-01 0.10574700E+04</pdfrwt>
<totfact> 0.15904362E+02</totfact>
</mgrwt>
</event>
<event>
12    7  0.2426980E-007  0.1773006E+04  0.7818608E-02  0.8720788E-01
          2   -1    0    0  501    0  0.00000000000E+00  0.00000000000E+00  0.75066174744E+03  0.75066174744E+03  0.00000000000E+00 0. -1.
         -1   -1    0    0    0  501 -0.00000000000E+00 -0.00000000000E+00 -0.10469263518E+04  0.10469263518E+04  0.00000000000E+00 0.  1.
         24    2    1    2    0    0 -0.58562206336E+03  0.23133434123E+03  0.73250846394E+02  0.63905603189E+03  0.80982386167E+02 0.  0.
        254    2    1    2    0    0  0.58562206336E+03 -0.23133434123E+03 -0.36951545072E+03  0.11585320673E+04  0.89954772198E+03 0.  0.
         23    2    4    4    0    0  0.42731076604E+03 -0.35212634248E+03  0.16192118144E+03  0.58373233598E+03  0.89092756320E+02 0.  0.
         23    2    4    4    0    0  0.15831129732E+03  0.12079200125E+03 -0.53143663216E+03  0.57479973132E+03  0.91195738384E+02 0.  0.
          2    1    3    3  502    0 -0.45082366977E+03  0.21013622367E+03  0.72138961429E+02  0.50259650166E+03  0.00000000000E+00 0. -1.
         -1    1    3    3    0  502 -0.13479839359E+03  0.21198117560E+02  0.11118849653E+01  0.13645953023E+03  0.00000000000E+00 0.  1.
         13    1    5    5    0    0  0.32962401899E+02 -0.38579437197E+02 -0.93709729325E+01  0.51601434545E+02  0.00000000000E+00 0.  1.
        -13    1    5    5    0    0  0.39434836415E+03 -0.31354690528E+03  0.17129215437E+03  0.53213090144E+03  0.00000000000E+00 0. -1.
          1    1    6    6  503    0  0.84844263043E+02  0.11011781461E+03 -0.40483167789E+03  0.42803407515E+03  0.00000000000E+00 0. -1.
         -1    1    6    6    0  503  0.73467034277E+02  0.10674186645E+02 -0.12660495427E+03  0.14676565617E+03  0.00000000000E+00 0.  1.
<mgrwt>
<rscale>  0 0.17730060E+04</rscale>
<asrwt>0</asrwt>
<pdfrwt beam="1">  1        2 0.11548642E+00 0.17730060E+04</pdfrwt>
<pdfrwt beam="2">  1       -1 0.16106559E+00 0.17730060E+04</pdfrwt>
<totfact> 0.11606266E+01</totfact>
</mgrwt>
</event>
<event>
12    7  0.2426980E-007  0.1461989E+04  0.7818608E-02  0.8910131E-01
         -1   -1    0    0    0  501 -0.00000000000E+00  0.00000000000E+00  0.21117455197E+03  0.21117455197E+03  0.00000000000E+00 0.  1.
          2   -1    0    0  501    0  0.00000000000E+00 -0.00000000000E+00 -0.25303837515E+04  0.25303837515E+04  0.00000000000E+00 0. -1.
         24    2    1    2    0    0  0.20261948571E+03  0.38063056298E+03 -0.95933767966E+03  0.10547954362E+04  0.79563478942E+02 0.  0.
        254    2    1    2    0    0 -0.20261948571E+03 -0.38063056298E+03 -0.13598715198E+04  0.16867628672E+04  0.89999118789E+03 0.  0.
         23    2    4    4    0    0 -0.13773033157E+03 -0.47269657372E+03 -0.14387279137E+04  0.15232780245E+04  0.89589258355E+02 0.  0.
         23    2    4    4    0    0 -0.64889154140E+02  0.92066010736E+02  0.78856393916E+02  0.16348484267E+03  0.88443260134E+02 0.  0.
          4    1    3    3  502    0  0.76057896455E+02  0.19826133205E+03 -0.39688086067E+03  0.45011862544E+03  0.00000000000E+00 0. -1.
         -3    1    3    3    0  502  0.12656158926E+03  0.18236923093E+03 -0.56245681899E+03  0.60467681078E+03  0.00000000000E+00 0.  1.
         13    1    5    5    0    0  0.84590339258E+01 -0.64355612988E+02 -0.23484277706E+03  0.24364796349E+03  0.00000000000E+00 0. -1.
        -13    1    5    5    0    0 -0.14618936550E+03 -0.40834096073E+03 -0.12038851367E+04  0.12796300610E+04  0.00000000000E+00 0.  1.
          1    1    6    6  503    0 -0.17687822887E+02 -0.16696541659E+02  0.17670185388E+02  0.30064414737E+02  0.00000000000E+00 0. -1.
         -1    1    6    6    0  503 -0.47201331253E+02  0.10876255239E+03  0.61186208527E+02  0.13342042793E+03  0.00000000000E+00 0.  1.
<mgrwt>
<rscale>  0 0.14619886E+04</rscale>
<asrwt>0</asrwt>
<pdfrwt beam="1">  1        2 0.38928984E+00 0.14619886E+04</pdfrwt>
<pdfrwt beam="2">  1       -1 0.32488390E-01 0.14619886E+04</pdfrwt>
<totfact> 0.32800492E+01</totfact>
</mgrwt>
</event>
<event>
12    7  0.2426980E-007  0.1404647E+04  0.7818608E-02  0.8950461E-01
         -1   -1    0    0    0  501 -0.00000000000E+00  0.00000000000E+00  0.84398023502E+03  0.84398023502E+03  0.00000000000E+00 0.  1.
          2   -1    0    0  501    0  0.00000000000E+00 -0.00000000000E+00 -0.58444333067E+03  0.58444333067E+03  0.00000000000E+00 0. -1.
         24    2    1    2    0    0 -0.27718854819E+03  0.59172722217E+01 -0.23045664701E+03  0.36916866761E+03  0.79414945949E+02 0.  0.
        254    2    1    2    0    0  0.27718854819E+03 -0.59172722217E+01  0.48999355136E+03  0.10592548981E+04  0.89725066363E+03 0.  0.
         23    2    4    4    0    0  0.70542125624E+02  0.32028650268E+03  0.56097204391E+03  0.65620260546E+03  0.91392505583E+02 0.  0.
         23    2    4    4    0    0  0.20664642256E+03 -0.32620377490E+03 -0.70978492554E+02  0.40305229262E+03  0.91112883065E+02 0.  0.
          2    1    3    3  502    0 -0.17245791621E+03 -0.34926169942E+02 -0.13805590835E+03  0.22365375928E+03  0.00000000000E+00 0. -1.
         -1    1    3    3    0  502 -0.10473063198E+03  0.40843442164E+02 -0.92400738666E+02  0.14551490834E+03  0.00000000000E+00 0.  1.
         13    1    5    5    0    0  0.16000589263E+02  0.18128681906E+03  0.38188681702E+03  0.42303483383E+03  0.00000000000E+00 0. -1.
        -13    1    5    5    0    0  0.54541536361E+02  0.13899968363E+03  0.17908522689E+03  0.23316777163E+03  0.00000000000E+00 0.  1.
          2    1    6    6  503    0  0.31905147818E+02 -0.97321660482E+02  0.12643289793E+02  0.10319543029E+03  0.00000000000E+00 0.  1.
         -2    1    6    6    0  503  0.17474127474E+03 -0.22888211442E+03 -0.83621782347E+02  0.29985686233E+03  0.00000000000E+00 0. -1.
<mgrwt>
<rscale>  0 0.14046475E+04</rscale>
<asrwt>0</asrwt>
<pdfrwt beam="1">  1        2 0.89914358E-01 0.14046475E+04</pdfrwt>
<pdfrwt beam="2">  1       -1 0.12984311E+00 0.14046475E+04</pdfrwt>
<totfact> 0.28967276E+01</totfact>
</mgrwt>
</event>
<event>
12    7  0.2426980E-007  0.1281843E+04  0.7818608E-02  0.9044089E-01
          2   -1    0    0  501    0  0.00000000000E+00  0.00000000000E+00  0.12868431140E+04  0.12868431140E+04  0.00000000000E+00 0. -1.
         -1   -1    0    0    0  501 -0.00000000000E+00 -0.00000000000E+00 -0.31921562520E+03  0.31921562520E+03  0.00000000000E+00 0.  1.
         24    2    1    2    0    0 -0.28265672102E+03  0.28772009400E+02  0.68381149724E+02  0.30185647038E+03  0.75622064327E+02 0.  0.
        254    2    1    2    0    0  0.28265672102E+03 -0.28772009400E+02  0.89924633904E+03  0.13042022688E+04  0.90087564578E+03 0.  0.
         23    2    4    4    0    0  0.54475478303E+03 -0.22195374565E+03  0.66512876468E+03  0.89281359766E+03  0.93266326774E+02 0.  0.
         23    2    4    4    0    0 -0.26209806202E+03  0.19318173625E+03  0.23411757436E+03  0.41138867113E+03  0.91733433239E+02 0.  0.
          2    1    3    3  502    0 -0.63098723095E+02 -0.18999217643E+02  0.35248065221E+02  0.74731822065E+02  0.00000000000E+00 0. -1.
         -1    1    3    3    0  502 -0.21955799792E+03  0.47771227043E+02  0.33133084502E+02  0.22712464832E+03  0.00000000000E+00 0.  1.
         13    1    5    5    0    0  0.50967970052E+03 -0.20086828720E+03  0.64774796644E+03  0.84835069043E+03  0.00000000000E+00 0. -1.
        -13    1    5    5    0    0  0.35075082517E+02 -0.21085458456E+02  0.17380798237E+02  0.44462907228E+02  0.00000000000E+00 0.  1.
          3    1    6    6  503    0 -0.88399384359E+02  0.16490531694E+02  0.51898869498E+02  0.10382620789E+03  0.00000000000E+00 0. -1.
         -3    1    6    6    0  503 -0.17369867766E+03  0.17669120456E+03  0.18221870487E+03  0.30756246324E+03  0.00000000000E+00 0.  1.
<mgrwt>
<rscale>  0 0.12818431E+04</rscale>
<asrwt>0</asrwt>
<pdfrwt beam="1">  1        2 0.19797586E+00 0.12818431E+04</pdfrwt>
<pdfrwt beam="2">  1       -1 0.49110097E-01 0.12818431E+04</pdfrwt>
<totfact> 0.78161304E+01</totfact>
</mgrwt>
</event>
<event>
12    7  0.2426980E-007  0.3001371E+04  0.7818608E-02  0.8243339E-01
          2   -1    0    0  501    0  0.00000000000E+00  0.00000000000E+00  0.15737886661E+04  0.15737886661E+04  0.00000000000E+00 0. -1.
         -1   -1    0    0    0  501 -0.00000000000E+00 -0.00000000000E+00 -0.14309781352E+04  0.14309781352E+04  0.00000000000E+00 0.  1.
         24    2    1    2    0    0 -0.25243811493E+03  0.13279300749E+04  0.21868217508E+03  0.13715724262E+04  0.79156433381E+02 0.  0.
        254    2    1    2    0    0  0.25243811493E+03 -0.13279300749E+04 -0.75871644199E+02  0.16331943752E+04  0.91347910488E+03 0.  0.
         23    2    4    4    0    0 -0.87628212803E+02 -0.71069984638E+03 -0.42880812238E+03  0.83951783114E+03  0.90226424386E+02 0.  0.
         23    2    4    4    0    0  0.34006632773E+03 -0.61723022851E+03  0.35293647818E+03  0.79367654404E+03  0.93488163354E+02 0.  0.
          4    1    3    3  502    0 -0.39534270007E+02  0.40137189321E+03  0.67392555981E+02  0.40890599380E+03  0.00000000000E+00 0. -1.
         -3    1    3    3    0  502 -0.21290384492E+03  0.92655818168E+03  0.15128961910E+03  0.96266643239E+03  0.00000000000E+00 0.  1.
         13    1    5    5    0    0 -0.10574635792E+03 -0.64384413367E+03 -0.38865606319E+03  0.75945447272E+03  0.00000000000E+00 0. -1.
        -13    1    5    5    0    0  0.18118145121E+02 -0.66855712709E+02 -0.40152059186E+02  0.80063358419E+02  0.00000000000E+00 0.  1.
          2    1    6    6  503    0  0.30046918409E+03 -0.56254884108E+03  0.34661499538E+03  0.72586836562E+03  0.00000000000E+00 0. -1.
         -2    1    6    6    0  503  0.39597143638E+02 -0.54681387428E+02  0.63214828005E+01  0.67808178416E+02  0.00000000000E+00 0.  1.
<mgrwt>
<rscale>  0 0.30013711E+04</rscale>
<asrwt>0</asrwt>
<pdfrwt beam="1">  1        2 0.24212133E+00 0.30013711E+04</pdfrwt>
<pdfrwt beam="2">  1       -1 0.22015048E+00 0.30013711E+04</pdfrwt>
<totfact> 0.12342294E+00</totfact>
</mgrwt>
</event>
<event>
12    7  0.2426980E-007  0.3133216E+04  0.7818608E-02  0.8206681E-01
         -1   -1    0    0    0  501 -0.00000000000E+00  0.00000000000E+00  0.18376380974E+04  0.18376380974E+04  0.00000000000E+00 0.  1.
          2   -1    0    0  501    0  0.00000000000E+00 -0.00000000000E+00 -0.13355513492E+04  0.13355513492E+04  0.00000000000E+00 0. -1.
         24    2    1    2    0    0 -0.13517511166E+04  0.24604726832E+03  0.65368150150E+03  0.15236698877E+04  0.80623085230E+02 0.  0.
        254    2    1    2    0    0  0.13517511166E+04 -0.24604726832E+03 -0.15159475335E+03  0.16495195588E+04  0.90009081001E+03 0.  0.
         23    2    4    4    0    0  0.39426051233E+02 -0.30972532016E+03 -0.44332732507E+02  0.32804889305E+03  0.90368675976E+02 0.  0.
         23    2    4    4    0    0  0.13123250654E+04  0.63678051836E+02 -0.10726202084E+03  0.13214706658E+04  0.92345048289E+02 0.  0.
          4    1    3    3  502    0 -0.18594856999E+03  0.16223196162E+02  0.65425994356E+02  0.19778934125E+03  0.00000000000E+00 0. -1.
         -3    1    3    3    0  502 -0.11658025466E+04  0.22982407216E+03  0.58825550715E+03  0.13258805465E+04  0.00000000000E+00 0.  1.
         13    1    5    5    0    0  0.43358997186E+02 -0.31475867751E+03 -0.39794999187E+02  0.32021347514E+03  0.00000000000E+00 0.  1.
        -13    1    5    5    0    0 -0.39329459534E+01  0.50333573503E+01 -0.45377333195E+01  0.78354179064E+01  0.00000000000E+00 0. -1.
          4    1    6    6  503    0  0.11629493002E+04  0.81239416497E+02 -0.79199421716E+02  0.11684705671E+04  0.00000000000E+00 0.  1.
         -4    1    6    6    0  503  0.14937576512E+03 -0.17561364660E+02 -0.28062599124E+02  0.15300009871E+03  0.00000000000E+00 0. -1.
<mgrwt>
<rscale>  0 0.31332156E+04</rscale>
<asrwt>0</asrwt>
<pdfrwt beam="1">  1        2 0.20546944E+00 0.31332156E+04</pdfrwt>
<pdfrwt beam="2">  1       -1 0.28271356E+00 0.31332156E+04</pdfrwt>
<totfact> 0.64964523E-01</totfact>
</mgrwt>
</event>
<event>
12    7  0.2426980E-007  0.3526605E+04  0.7818608E-02  0.8107514E-01
         -1   -1    0    0    0  501 -0.00000000000E+00  0.00000000000E+00  0.22626452550E+04  0.22626452550E+04  0.00000000000E+00 0.  1.
          2   -1    0    0  501    0  0.00000000000E+00 -0.00000000000E+00 -0.13741593455E+04  0.13741593455E+04  0.00000000000E+00 0. -1.
         24    2    1    2    0    0 -0.14691880754E+02  0.15719736023E+04  0.92285603688E+03  0.18246995616E+04  0.80921984669E+02 0.  0.
        254    2    1    2    0    0  0.14691880754E+02 -0.15719736023E+04 -0.34370127414E+02  0.18121050389E+04  0.90068113600E+03 0.  0.
         23    2    4    4    0    0  0.18584389117E+03 -0.15726204416E+04  0.78027854359E+02  0.15881153241E+04  0.91372487344E+02 0.  0.
         23    2    4    4    0    0 -0.17115201041E+03  0.64683929255E+00 -0.11239798177E+03  0.22398971481E+03  0.90800093418E+02 0.  0.
          2    1    3    3  502    0  0.24074860824E+02  0.53994999715E+03  0.28814305071E+03  0.61249654368E+03  0.00000000000E+00 0. -1.
         -1    1    3    3    0  502 -0.38766741578E+02  0.10320236051E+04  0.63471298618E+03  0.12122030179E+04  0.00000000000E+00 0.  1.
         13    1    5    5    0    0  0.19419141052E+03 -0.14123504973E+04  0.65568006304E+02  0.14271451904E+04  0.00000000000E+00 0. -1.
        -13    1    5    5    0    0 -0.83475193546E+01 -0.16026994428E+03  0.12459848054E+02  0.16097013367E+03  0.00000000000E+00 0.  1.
          2    1    6    6  503    0 -0.13083569051E+03 -0.33124887843E+02 -0.10475001792E+03  0.17084438053E+03  0.00000000000E+00 0. -1.
         -2    1    6    6    0  503 -0.40316319904E+02  0.33771727136E+02 -0.76479638536E+01  0.53145334277E+02  0.00000000000E+00 0.  1.
<mgrwt>
<rscale>  0 0.35266047E+04</rscale>
<asrwt>0</asrwt>
<pdfrwt beam="1">  1        2 0.21140913E+00 0.35266047E+04</pdfrwt>
<pdfrwt beam="2">  1       -1 0.34809927E+00 0.35266047E+04</pdfrwt>
<totfact> 0.22354715E-01</totfact>
</mgrwt>
</event>
<event>
12    7  0.2426980E-007  0.2284921E+04  0.7818608E-02  0.8483890E-01
         -1   -1    0    0    0  501 -0.00000000000E+00  0.00000000000E+00  0.53319034914E+03  0.53319034914E+03  0.00000000000E+00 0.  1.
          2   -1    0    0  501    0  0.00000000000E+00 -0.00000000000E+00 -0.24479363244E+04  0.24479363244E+04  0.00000000000E+00 0. -1.
         24    2    1    2    0    0  0.37673222376E+03 -0.83707519179E+03 -0.11916958545E+04  0.15063193516E+04  0.78974263416E+02 0.  0.
        254    2    1    2    0    0 -0.37673222376E+03  0.83707519179E+03 -0.72305012075E+03  0.14748073219E+04  0.89979615165E+03 0.  0.
         23    2    4    4    0    0 -0.62582046727E+03  0.77121286128E+03 -0.47263558713E+03  0.11034327487E+04  0.88084607295E+02 0.  0.
         23    2    4    4    0    0  0.24908824352E+03  0.65862330508E+02 -0.25041453362E+03  0.37137457320E+03  0.93961882339E+02 0.  0.
          2    1    3    3  502    0  0.30500499416E+03 -0.72228101678E+03 -0.10491300894E+04  0.13097296890E+04  0.00000000000E+00 0. -1.
         -1    1    3    3    0  502  0.71727229601E+02 -0.11479417501E+03 -0.14256576509E+03  0.19658966264E+03  0.00000000000E+00 0.  1.
         13    1    5    5    0    0 -0.94021529001E+02  0.11052699302E+03 -0.10470104372E+03  0.17893734283E+03  0.00000000000E+00 0. -1.
        -13    1    5    5    0    0 -0.53179893827E+03  0.66068586826E+03 -0.36793454341E+03  0.92449540588E+03  0.00000000000E+00 0.  1.
          3    1    6    6  503    0  0.24226234538E+03  0.65625507948E+02 -0.20118206313E+03  0.32167059830E+03  0.00000000000E+00 0.  1.
         -3    1    6    6    0  503  0.68258981316E+01  0.23682255991E+00 -0.49232470493E+02  0.49703974902E+02  0.00000000000E+00 0. -1.
<mgrwt>
<rscale>  0 0.22849210E+04</rscale>
<asrwt>0</asrwt>
<pdfrwt beam="1">  1        2 0.37660558E+00 0.22849210E+04</pdfrwt>
<pdfrwt beam="2">  1       -1 0.82029286E-01 0.22849210E+04</pdfrwt>
<totfact> 0.56969562E+00</totfact>
</mgrwt>
</event>
<event>
12    7  0.2426980E-007  0.1745639E+04  0.7818608E-02  0.8735754E-01
         -1   -1    0    0    0  501 -0.00000000000E+00  0.00000000000E+00  0.29308503283E+03  0.29308503283E+03  0.00000000000E+00 0.  1.
          2   -1    0    0  501    0  0.00000000000E+00 -0.00000000000E+00 -0.25992935700E+04  0.25992935700E+04  0.00000000000E+00 0. -1.
         24    2    1    2    0    0 -0.42319525131E+03 -0.37920910777E+03 -0.13259909763E+04  0.14448461806E+04  0.80216259752E+02 0.  0.
        254    2    1    2    0    0  0.42319525131E+03  0.37920910777E+03 -0.98021756086E+03  0.14475324222E+04  0.90090503300E+03 0.  0.
         23    2    4    4    0    0  0.56737760225E+03  0.30647206432E+03 -0.10610578068E+04  0.12449314399E+04  0.90377822735E+02 0.  0.
         23    2    4    4    0    0 -0.14418235094E+03  0.72737043450E+02  0.80840245923E+02  0.20260098233E+03  0.91830195836E+02 0.  0.
          4    1    3    3  502    0 -0.44598189295E+02 -0.77833618406E+02 -0.19191817818E+03  0.21184819508E+03  0.00000000000E+00 0. -1.
         -3    1    3    3    0  502 -0.37859706202E+03 -0.30137548936E+03 -0.11340727981E+04  0.12329979855E+04  0.00000000000E+00 0.  1.
         13    1    5    5    0    0  0.17531094317E+03  0.50030662390E+02 -0.27876833345E+03  0.33308974423E+03  0.00000000000E+00 0.  1.
        -13    1    5    5    0    0  0.39206665908E+03  0.25644140193E+03 -0.78228947334E+03  0.91184169562E+03  0.00000000000E+00 0. -1.
          3    1    6    6  503    0 -0.12571237926E+03  0.59391311745E+02  0.10126147304E+03  0.17200237246E+03  0.00000000000E+00 0. -1.
         -3    1    6    6    0  503 -0.18469971680E+02  0.13345731705E+02 -0.20421227120E+02  0.30598609866E+02  0.00000000000E+00 0.  1.
<mgrwt>
<rscale>  0 0.17456392E+04</rscale>
<asrwt>0</asrwt>
<pdfrwt beam="1">  1        2 0.39989133E+00 0.17456392E+04</pdfrwt>
<pdfrwt beam="2">  1       -1 0.45090004E-01 0.17456392E+04</pdfrwt>
<totfact> 0.16075674E+01</totfact>
</mgrwt>
</event>
<event>
12    7  0.2426980E-007  0.3529435E+04  0.7818608E-02  0.8106849E-01
          2   -1    0    0  501    0  0.00000000000E+00  0.00000000000E+00  0.26579016430E+04  0.26579016430E+04  0.00000000000E+00 0. -1.
         -1   -1    0    0    0  501 -0.00000000000E+00 -0.00000000000E+00 -0.11716865540E+04  0.11716865540E+04  0.00000000000E+00 0.  1.
         24    2    1    2    0    0 -0.13677700513E+03 -0.16204905834E+04  0.99093507187E+03  0.19058038729E+04  0.73745543409E+02 0.  0.
        254    2    1    2    0    0  0.13677700513E+03  0.16204905834E+04  0.49528001715E+03  0.19237843241E+04  0.90052548559E+03 0.  0.
         23    2    4    4    0    0  0.32929968481E+03  0.15518467265E+04  0.57045582715E+03  0.16883057972E+04  0.91049816405E+02 0.  0.
         23    2    4    4    0    0 -0.19252267968E+03  0.68643856914E+02 -0.75175809996E+02  0.23547852693E+03  0.89564350906E+02 0.  0.
          2    1    3    3  502    0 -0.93657704233E+02 -0.69206277120E+03  0.43678479861E+03  0.82371330276E+03  0.00000000000E+00 0. -1.
         -1    1    3    3    0  502 -0.43119300895E+02 -0.92842781221E+03  0.55415027326E+03  0.10820905701E+04  0.00000000000E+00 0.  1.
         13    1    5    5    0    0 -0.18553442407E+01  0.51592446800E+02  0.81262395392E+01  0.52261445044E+02  0.00000000000E+00 0. -1.
        -13    1    5    5    0    0  0.33115502905E+03  0.15002542797E+04  0.56232958761E+03  0.16360443521E+04  0.00000000000E+00 0.  1.
          3    1    6    6  503    0 -0.14459071371E+02  0.21997593641E+02  0.15220674431E+02  0.30407693123E+02  0.00000000000E+00 0. -1.
         -3    1    6    6    0  503 -0.17806360831E+03  0.46646263272E+02 -0.90396484427E+02  0.20507083381E+03  0.00000000000E+00 0.  1.
<mgrwt>
<rscale>  0 0.35294349E+04</rscale>
<asrwt>0</asrwt>
<pdfrwt beam="1">  1        2 0.40890794E+00 0.35294349E+04</pdfrwt>
<pdfrwt beam="2">  1       -1 0.18025947E+00 0.35294349E+04</pdfrwt>
<totfact> 0.54273848E-01</totfact>
</mgrwt>
</event>
<event>
12    7  0.2426980E-007  0.1590290E+04  0.7818608E-02  0.8826535E-01
         -1   -1    0    0    0  501 -0.00000000000E+00  0.00000000000E+00  0.24678973198E+03  0.24678973198E+03  0.00000000000E+00 0.  1.
          2   -1    0    0  501    0  0.00000000000E+00 -0.00000000000E+00 -0.25619216542E+04  0.25619216542E+04  0.00000000000E+00 0. -1.
         24    2    1    2    0    0  0.27151276579E+03 -0.38515542182E+03 -0.12444536568E+04  0.13331310193E+04  0.80681656465E+02 0.  0.
        254    2    1    2    0    0 -0.27151276579E+03  0.38515542182E+03 -0.10706782653E+04  0.14755803668E+04  0.89940068386E+03 0.  0.
         23    2    4    4    0    0  0.27960145175E+03  0.11488279031E+03 -0.66024275293E+03  0.73153968131E+03  0.88627226101E+02 0.  0.
         23    2    4    4    0    0 -0.55111421755E+03  0.27027263151E+03 -0.41043551241E+03  0.74404068551E+03  0.91460678578E+02 0.  0.
          4    1    3    3  502    0  0.14691610353E+03 -0.25868331850E+03 -0.85028134504E+03  0.90082171737E+03  0.00000000000E+00 0. -1.
         -3    1    3    3    0  502  0.12459666226E+03 -0.12647210331E+03 -0.39417231179E+03  0.43230930194E+03  0.00000000000E+00 0.  1.
         13    1    5    5    0    0  0.13101963211E+03  0.83564579463E+02 -0.41444016533E+03  0.44261702811E+03  0.00000000000E+00 0. -1.
        -13    1    5    5    0    0  0.14858181965E+03  0.31318210846E+02 -0.24580258760E+03  0.28892265320E+03  0.00000000000E+00 0.  1.
          2    1    6    6  503    0 -0.43690566123E+03  0.17417889420E+03 -0.29321736155E+03  0.55425739970E+03  0.00000000000E+00 0. -1.
         -2    1    6    6    0  503 -0.11420855631E+03  0.96093737301E+02 -0.11721815086E+03  0.18978328581E+03  0.00000000000E+00 0.  1.
<mgrwt>
<rscale>  0 0.15902905E+04</rscale>
<asrwt>0</asrwt>
<pdfrwt beam="1">  1        2 0.39414178E+00 0.15902905E+04</pdfrwt>
<pdfrwt beam="2">  1       -1 0.37967653E-01 0.15902905E+04</pdfrwt>
<totfact> 0.23514697E+01</totfact>
</mgrwt>
</event>
<event>
12    7  0.2426980E-007  0.1595813E+04  0.7818608E-02  0.8823125E-01
          2   -1    0    0  501    0  0.00000000000E+00  0.00000000000E+00  0.25736816148E+04  0.25736816148E+04  0.00000000000E+00 0. -1.
         -1   -1    0    0    0  501 -0.00000000000E+00 -0.00000000000E+00 -0.24737113284E+03  0.24737113284E+03  0.00000000000E+00 0.  1.
         24    2    1    2    0    0  0.10647985627E+03  0.50909934114E+02 -0.13603652360E+03  0.19628474280E+03  0.78051158349E+02 0.  0.
        254    2    1    2    0    0 -0.10647985627E+03 -0.50909934114E+02  0.24623470056E+04  0.26247680049E+04  0.90129047605E+03 0.  0.
         23    2    4    4    0    0  0.46937213284E+01  0.87516530056E+02  0.24166850115E+04  0.24199219470E+04  0.89300677867E+02 0.  0.
         23    2    4    4    0    0 -0.11117357760E+03 -0.13842646417E+03  0.45661994114E+02  0.20484605781E+03  0.91408092393E+02 0.  0.
          4    1    3    3  502    0  0.71029223909E+02  0.24915108076E+02 -0.29164424481E+02  0.80724698295E+02  0.00000000000E+00 0. -1.
         -3    1    3    3    0  502  0.35450632363E+02  0.25994826038E+02 -0.10687209912E+03  0.11556004451E+03  0.00000000000E+00 0.  1.
         13    1    5    5    0    0 -0.71775842493E+01  0.79795872506E+02  0.23642866488E+04  0.23656437298E+04  0.00000000000E+00 0.  1.
        -13    1    5    5    0    0  0.11871305578E+02  0.77206575501E+01  0.52398362719E+02  0.54278217221E+02  0.00000000000E+00 0. -1.
          4    1    6    6  503    0  0.23023333066E+01 -0.55859838791E+02  0.30522125660E+02  0.63696330218E+02  0.00000000000E+00 0. -1.
         -4    1    6    6    0  503 -0.11347591091E+03 -0.82566625380E+02  0.15139868453E+02  0.14114972759E+03  0.00000000000E+00 0.  1.
<mgrwt>
<rscale>  0 0.15958127E+04</rscale>
<asrwt>0</asrwt>
<pdfrwt beam="1">  1        2 0.39595100E+00 0.15958127E+04</pdfrwt>
<pdfrwt beam="2">  1       -1 0.38057099E-01 0.15958127E+04</pdfrwt>
<totfact> 0.23037326E+01</totfact>
</mgrwt>
</event>
<event>
12    7  0.2426980E-007  0.2653945E+04  0.7818608E-02  0.8350105E-01
         -1   -1    0    0    0  501 -0.00000000000E+00  0.00000000000E+00  0.10239628088E+04  0.10239628088E+04  0.00000000000E+00 0.  1.
          2   -1    0    0  501    0  0.00000000000E+00 -0.00000000000E+00 -0.17196483051E+04  0.17196483051E+04  0.00000000000E+00 0. -1.
         24    2    1    2    0    0  0.10434698911E+04 -0.51587894620E+03 -0.16539625223E+03  0.11783874384E+04  0.79249819025E+02 0.  0.
        254    2    1    2    0    0 -0.10434698911E+04  0.51587894620E+03 -0.53028924404E+03  0.15652236755E+04  0.90208534582E+03 0.  0.
         23    2    4    4    0    0 -0.68424109911E+03  0.73023326802E+03 -0.20138784828E+03  0.10248810068E+04  0.91637902703E+02 0.  0.
         23    2    4    4    0    0 -0.35922879202E+03 -0.21435432181E+03 -0.32890139576E+03  0.54034266870E+03  0.93813491529E+02 0.  0.
          4    1    3    3  502    0  0.64345144552E+03 -0.31476123053E+03 -0.62864037074E+02  0.71906625714E+03  0.00000000000E+00 0. -1.
         -3    1    3    3    0  502  0.40001844560E+03 -0.20111771567E+03 -0.10253221516E+03  0.45932118122E+03  0.00000000000E+00 0.  1.
         13    1    5    5    0    0 -0.21096833222E+03  0.25210628980E+03 -0.26666140014E+02  0.32981252490E+03  0.00000000000E+00 0.  1.
        -13    1    5    5    0    0 -0.47327276688E+03  0.47812697822E+03 -0.17472170827E+03  0.69506848189E+03  0.00000000000E+00 0. -1.
          1    1    6    6  503    0 -0.20410127658E+03 -0.15356989544E+03 -0.15151900538E+03  0.29698325353E+03  0.00000000000E+00 0. -1.
         -1    1    6    6    0  503 -0.15512751544E+03 -0.60784426370E+02 -0.17738239037E+03  0.24335941517E+03  0.00000000000E+00 0.  1.
<mgrwt>
<rscale>  0 0.26539449E+04</rscale>
<asrwt>0</asrwt>
<pdfrwt beam="1">  1        2 0.26456128E+00 0.26539449E+04</pdfrwt>
<pdfrwt beam="2">  1       -1 0.15753274E+00 0.26539449E+04</pdfrwt>
<totfact> 0.29255522E+00</totfact>
</mgrwt>
</event>
<event>
12    7  0.2426980E-007  0.2285633E+04  0.7818608E-02  0.8483607E-01
          2   -1    0    0  501    0  0.00000000000E+00  0.00000000000E+00  0.36974236341E+04  0.36974236341E+04  0.00000000000E+00 0. -1.
         -1   -1    0    0    0  501 -0.00000000000E+00 -0.00000000000E+00 -0.35322705205E+03  0.35322705205E+03  0.00000000000E+00 0.  1.
         24    2    1    2    0    0 -0.51997653265E+03 -0.55884761818E+03  0.37288220064E+03  0.85330838567E+03  0.80048801691E+02 0.  0.
        254    2    1    2    0    0  0.51997653265E+03  0.55884761818E+03  0.29713143814E+04  0.31973423005E+04  0.90088977036E+03 0.  0.
         23    2    4    4    0    0  0.22655456862E+03  0.13156515432E+03  0.12886865210E+03  0.30657134968E+03  0.93501339856E+02 0.  0.
         23    2    4    4    0    0  0.29342196402E+03  0.42728246386E+03  0.28424457293E+04  0.28907709508E+04  0.91609022294E+02 0.  0.
          2    1    3    3  502    0 -0.24591329095E+03 -0.29258051300E+03  0.22546564774E+03  0.44374706936E+03  0.00000000000E+00 0. -1.
         -1    1    3    3    0  502 -0.27406324170E+03 -0.26626710518E+03  0.14741655290E+03  0.40956131631E+03  0.00000000000E+00 0.  1.
         13    1    5    5    0    0  0.18185229461E+03  0.10815510169E+03  0.14151810207E+03  0.25454892710E+03  0.00000000000E+00 0. -1.
        -13    1    5    5    0    0  0.44702274017E+02  0.23410052633E+02 -0.12649449968E+02  0.52022422580E+02  0.00000000000E+00 0.  1.
          1    1    6    6  503    0  0.24039715414E+03  0.28609901902E+03  0.21309331306E+04  0.21634508193E+04  0.00000000000E+00 0. -1.
         -1    1    6    6    0  503  0.53024809883E+02  0.14118344484E+03  0.71151259869E+03  0.72732013148E+03  0.00000000000E+00 0.  1.
<mgrwt>
<rscale>  0 0.22856334E+04</rscale>
<asrwt>0</asrwt>
<pdfrwt beam="1">  1        2 0.56883438E+00 0.22856334E+04</pdfrwt>
<pdfrwt beam="2">  1       -1 0.54342626E-01 0.22856334E+04</pdfrwt>
<totfact> 0.20785981E+00</totfact>
</mgrwt>
</event>
<event>
12    7  0.2426980E-007  0.2788080E+04  0.7818608E-02  0.8306979E-01
         -3   -1    0    0    0  501 -0.00000000000E+00  0.00000000000E+00  0.62776280241E+03  0.62776280241E+03  0.00000000000E+00 0.  1.
          2   -1    0    0  501    0  0.00000000000E+00 -0.00000000000E+00 -0.30956718488E+04  0.30956718488E+04  0.00000000000E+00 0. -1.
         24    2    1    2    0    0 -0.31798674336E+03 -0.10701609721E+04 -0.36608075124E+03  0.11776456126E+04  0.80461153505E+02 0.  0.
        254    2    1    2    0    0  0.31798674336E+03  0.10701609721E+04 -0.21018282951E+04  0.25457890387E+04  0.90388028630E+03 0.  0.
         23    2    4    4    0    0  0.24422344604E+03  0.69756139012E+03 -0.49932697583E+03  0.89652914027E+03  0.90554326087E+02 0.  0.
         23    2    4    4    0    0  0.73763297318E+02  0.37259958196E+03 -0.16025013193E+04  0.16492598984E+04  0.88183113588E+02 0.  0.
          2    1    3    3  502    0 -0.81748164327E+02 -0.41000873909E+03 -0.14326132114E+03  0.44194313507E+03  0.00000000000E+00 0. -1.
         -1    1    3    3    0  502 -0.23623857904E+03 -0.66015223299E+03 -0.22281943010E+03  0.73570247748E+03  0.00000000000E+00 0.  1.
         13    1    5    5    0    0  0.12243460133E+03  0.26920725145E+03 -0.24247178977E+03  0.38243345129E+03  0.00000000000E+00 0. -1.
        -13    1    5    5    0    0  0.12178884471E+03  0.42835413867E+03 -0.25685518606E+03  0.51409568897E+03  0.00000000000E+00 0.  1.
          4    1    6    6  503    0  0.34663307259E+02  0.76295144222E+02 -0.49964888597E+03  0.50662757836E+03  0.00000000000E+00 0. -1.
         -4    1    6    6    0  503  0.39099990059E+02  0.29630443773E+03 -0.11028524333E+04  0.11426323200E+04  0.00000000000E+00 0.  1.
<mgrwt>
<rscale>  0 0.27880801E+04</rscale>
<asrwt>0</asrwt>
<pdfrwt beam="1">  1        2 0.47625720E+00 0.27880801E+04</pdfrwt>
<pdfrwt beam="2">  1       -3 0.96578895E-01 0.27880801E+04</pdfrwt>
<totfact> 0.80038857E-01</totfact>
</mgrwt>
</event>
<event>
12    7  0.2426980E-007  0.1497236E+04  0.7818608E-02  0.8886293E-01
         -1   -1    0    0    0  501 -0.00000000000E+00  0.00000000000E+00  0.51858952543E+03  0.51858952543E+03  0.00000000000E+00 0.  1.
          2   -1    0    0  501    0  0.00000000000E+00 -0.00000000000E+00 -0.10806799105E+04  0.10806799105E+04  0.00000000000E+00 0. -1.
         24    2    1    2    0    0  0.17475524055E+03 -0.40702915979E+03 -0.40332731790E+01  0.45017514541E+03  0.80182686669E+02 0.  0.
        254    2    1    2    0    0 -0.17475524055E+03  0.40702915979E+03 -0.55805711190E+03  0.11490942905E+04  0.90154191105E+03 0.  0.
         23    2    4    4    0    0 -0.18692904058E+03  0.62748634252E+03 -0.61627610594E+03  0.90372301942E+03  0.90760568631E+02 0.  0.
         23    2    4    4    0    0  0.12173800034E+02 -0.22045718273E+03  0.58218994045E+02  0.24537127111E+03  0.89822261134E+02 0.  0.
          2    1    3    3  502    0  0.37975503111E+02 -0.46568030390E+02 -0.22574499768E+02  0.64189783694E+02  0.00000000000E+00 0. -1.
         -1    1    3    3    0  502  0.13677973744E+03 -0.36046112940E+03  0.18541226589E+02  0.38598536172E+03  0.00000000000E+00 0.  1.
         13    1    5    5    0    0 -0.10447929435E+03  0.29850637269E+03 -0.23899450815E+03  0.39640932432E+03  0.00000000000E+00 0. -1.
        -13    1    5    5    0    0 -0.82449746231E+02  0.32897996982E+03 -0.37728159779E+03  0.50731369509E+03  0.00000000000E+00 0.  1.
          4    1    6    6  503    0  0.21597132085E+01 -0.13088071230E+03 -0.11524249837E+02  0.13140484598E+03  0.00000000000E+00 0. -1.
         -4    1    6    6    0  503  0.10014086826E+02 -0.89576470427E+02  0.69743243882E+02  0.11396642513E+03  0.00000000000E+00 0.  1.
<mgrwt>
<rscale>  0 0.14972365E+04</rscale>
<asrwt>0</asrwt>
<pdfrwt beam="1">  1        2 0.16625845E+00 0.14972365E+04</pdfrwt>
<pdfrwt beam="2">  1       -1 0.79783004E-01 0.14972365E+04</pdfrwt>
<totfact> 0.38739384E+01</totfact>
</mgrwt>
</event>
<event>
12    7  0.2426980E-007  0.2493427E+04  0.7818608E-02  0.8405331E-01
         -1   -1    0    0    0  501 -0.00000000000E+00  0.00000000000E+00  0.11506849902E+04  0.11506849902E+04  0.00000000000E+00 0.  1.
          2   -1    0    0  501    0  0.00000000000E+00 -0.00000000000E+00 -0.13507557263E+04  0.13507557263E+04  0.00000000000E+00 0. -1.
         24    2    1    2    0    0 -0.10347201537E+03 -0.10502728721E+04 -0.32910708964E+03  0.11083263374E+04  0.79348785932E+02 0.  0.
        254    2    1    2    0    0  0.10347201537E+03  0.10502728721E+04  0.12903635355E+03  0.13931143790E+04  0.90018760738E+03 0.  0.
         23    2    4    4    0    0 -0.50495011673E+02 -0.14437383764E+03  0.33870608501E+02  0.18147358246E+03  0.91607269435E+02 0.  0.
         23    2    4    4    0    0  0.15396702705E+03  0.11946467098E+04  0.95165745044E+02  0.12116407965E+04  0.90168143777E+02 0.  0.
          4    1    3    3  502    0 -0.55834965218E+02 -0.56204005918E+03 -0.21750970810E+03  0.60524131104E+03  0.00000000000E+00 0. -1.
         -3    1    3    3    0  502 -0.47637050154E+02 -0.48823281296E+03 -0.11159738154E+03  0.50308502638E+03  0.00000000000E+00 0.  1.
         13    1    5    5    0    0  0.23640155937E+02 -0.15834167533E+02 -0.28965166759E+01  0.28600133619E+02  0.00000000000E+00 0.  1.
        -13    1    5    5    0    0 -0.74135167610E+02 -0.12853967011E+03  0.36767125177E+02  0.15287344885E+03  0.00000000000E+00 0. -1.
          1    1    6    6  503    0  0.12309281574E+03  0.87226411474E+03  0.30775345943E+02  0.88144407031E+03  0.00000000000E+00 0. -1.
         -1    1    6    6    0  503  0.30874211305E+02  0.32238259504E+03  0.64390399102E+02  0.33019672622E+03  0.00000000000E+00 0.  1.
<mgrwt>
<rscale>  0 0.24934268E+04</rscale>
<asrwt>0</asrwt>
<pdfrwt beam="1">  1        2 0.20780857E+00 0.24934268E+04</pdfrwt>
<pdfrwt beam="2">  1       -1 0.17702846E+00 0.24934268E+04</pdfrwt>
<totfact> 0.34338596E+00</totfact>
</mgrwt>
</event>
<event>
12    7  0.2426980E-007  0.1686106E+04  0.7818608E-02  0.8769328E-01
          2   -1    0    0  501    0  0.00000000000E+00  0.00000000000E+00  0.90315524321E+03  0.90315524321E+03  0.00000000000E+00 0. -1.
         -1   -1    0    0    0  501 -0.00000000000E+00 -0.00000000000E+00 -0.78695064666E+03  0.78695064666E+03  0.00000000000E+00 0.  1.
         24    2    1    2    0    0 -0.54218432109E+03 -0.78121574948E+02  0.28586912793E+03  0.62296193603E+03  0.79332193473E+02 0.  0.
        254    2    1    2    0    0  0.54218432109E+03  0.78121574948E+02 -0.16966453139E+03  0.10671439538E+04  0.89996852529E+03 0.  0.
         23    2    4    4    0    0  0.70307584144E+03  0.20919287101E+03  0.62812921780E+02  0.74180221333E+03  0.90817203592E+02 0.  0.
         23    2    4    4    0    0 -0.16089152035E+03 -0.13107129606E+03 -0.23247745317E+03  0.32534174051E+03  0.93465051853E+02 0.  0.
          4    1    3    3  502    0 -0.34432734910E+03 -0.82051687759E+02  0.16017590181E+03  0.38852300102E+03  0.00000000000E+00 0. -1.
         -3    1    3    3    0  502 -0.19785697199E+03  0.39301128112E+01  0.12569322612E+03  0.23443893500E+03  0.00000000000E+00 0.  1.
         13    1    5    5    0    0  0.25316622828E+03  0.88495337422E+02 -0.18976854355E+02  0.26885811293E+03  0.00000000000E+00 0.  1.
        -13    1    5    5    0    0  0.44990961316E+03  0.12069753359E+03  0.81789776134E+02  0.47294410040E+03  0.00000000000E+00 0. -1.
          1    1    6    6  503    0 -0.32172658139E+02 -0.84927414638E+02 -0.95863980076E+02  0.13205168823E+03  0.00000000000E+00 0. -1.
         -1    1    6    6    0  503 -0.12871886221E+03 -0.46143881424E+02 -0.13661347309E+03  0.19329005228E+03  0.00000000000E+00 0.  1.
<mgrwt>
<rscale>  0 0.16861063E+04</rscale>
<asrwt>0</asrwt>
<pdfrwt beam="1">  1        2 0.13894696E+00 0.16861063E+04</pdfrwt>
<pdfrwt beam="2">  1       -1 0.12106933E+00 0.16861063E+04</pdfrwt>
<totfact> 0.19217151E+01</totfact>
</mgrwt>
</event>
<event>
12    7  0.2426980E-007  0.2082945E+04  0.7818608E-02  0.8568794E-01
         -1   -1    0    0    0  501 -0.00000000000E+00  0.00000000000E+00  0.89237334807E+03  0.89237334807E+03  0.00000000000E+00 0.  1.
          2   -1    0    0  501    0  0.00000000000E+00 -0.00000000000E+00 -0.12154837278E+04  0.12154837278E+04  0.00000000000E+00 0. -1.
         24    2    1    2    0    0 -0.59071178278E+03 -0.53764907645E+03 -0.41342223960E+03  0.90309527288E+03  0.81585439719E+02 0.  0.
        254    2    1    2    0    0  0.59071178278E+03  0.53764907645E+03  0.90311859843E+02  0.12047618030E+04  0.89737830945E+03 0.  0.
         23    2    4    4    0    0  0.14473591579E+03  0.66967195797E+03  0.19733005241E+03  0.71886661841E+03  0.91766273050E+02 0.  0.
         23    2    4    4    0    0  0.44597586699E+03 -0.13202288152E+03 -0.10701819257E+03  0.48589518461E+03  0.91196061887E+02 0.  0.
          2    1    3    3  502    0 -0.27240924254E+03 -0.20235494076E+03 -0.19995395430E+03  0.39387295072E+03  0.00000000000E+00 0. -1.
         -1    1    3    3    0  502 -0.31830254024E+03 -0.33529413569E+03 -0.21346828530E+03  0.50922232215E+03  0.00000000000E+00 0.  1.
         13    1    5    5    0    0  0.55250791773E+02  0.33369911310E+03  0.14185045086E+03  0.36678235847E+03  0.00000000000E+00 0. -1.
        -13    1    5    5    0    0  0.89485124014E+02  0.33597284487E+03  0.55479601554E+02  0.35208425994E+03  0.00000000000E+00 0.  1.
          1    1    6    6  503    0  0.13109955607E+03 -0.30619244028E+02 -0.73539449668E+02  0.15340365825E+03  0.00000000000E+00 0. -1.
         -1    1    6    6    0  503  0.31487631093E+03 -0.10140363749E+03 -0.33478742901E+02  0.33249152637E+03  0.00000000000E+00 0.  1.
<mgrwt>
<rscale>  0 0.20829453E+04</rscale>
<asrwt>0</asrwt>
<pdfrwt beam="1">  1        2 0.18699750E+00 0.20829453E+04</pdfrwt>
<pdfrwt beam="2">  1       -1 0.13728821E+00 0.20829453E+04</pdfrwt>
<totfact> 0.86053189E+00</totfact>
</mgrwt>
</event>
<event>
12    7  0.2426980E-007  0.1849104E+04  0.7818608E-02  0.8680614E-01
          2   -1    0    0  501    0  0.00000000000E+00  0.00000000000E+00  0.23761045351E+04  0.23761045351E+04  0.00000000000E+00 0. -1.
         -1   -1    0    0    0  501 -0.00000000000E+00 -0.00000000000E+00 -0.35974695953E+03  0.35974695953E+03  0.00000000000E+00 0.  1.
         24    2    1    2    0    0  0.47063259900E+03  0.21864262807E+03  0.14715856130E+04  0.15623860852E+04  0.78653802109E+02 0.  0.
        254    2    1    2    0    0 -0.47063259900E+03 -0.21864262807E+03  0.54477196250E+03  0.11734654094E+04  0.90052481028E+03 0.  0.
         23    2    4    4    0    0  0.12111301883E+03  0.24031238111E+03  0.18276880019E+03  0.33690526105E+03  0.87648826337E+02 0.  0.
         23    2    4    4    0    0 -0.59174561783E+03 -0.45895500917E+03  0.36200316231E+03  0.83656014837E+03  0.89353319138E+02 0.  0.
          4    1    3    3  502    0  0.24039631320E+03  0.88889224619E+02  0.82427544291E+03  0.86320431384E+03  0.00000000000E+00 0. -1.
         -3    1    3    3    0  502  0.23023628580E+03  0.12975340345E+03  0.64731017012E+03  0.69918177132E+03  0.00000000000E+00 0.  1.
         13    1    5    5    0    0 -0.68265157218E+01  0.61372525874E+02  0.53886411165E+02  0.81956900608E+02  0.00000000000E+00 0. -1.
        -13    1    5    5    0    0  0.12793953455E+03  0.17893985523E+03  0.12888238902E+03  0.25494836044E+03  0.00000000000E+00 0.  1.
          1    1    6    6  503    0 -0.19249581417E+03 -0.18509076173E+03  0.93509131639E+02  0.28294378638E+03  0.00000000000E+00 0. -1.
         -1    1    6    6    0  503 -0.39924980366E+03 -0.27386424744E+03  0.26849403067E+03  0.55361636199E+03  0.00000000000E+00 0.  1.
<mgrwt>
<rscale>  0 0.18491040E+04</rscale>
<asrwt>0</asrwt>
<pdfrwt beam="1">  1        2 0.36555453E+00 0.18491040E+04</pdfrwt>
<pdfrwt beam="2">  1       -1 0.55345688E-01 0.18491040E+04</pdfrwt>
<totfact> 0.14507658E+01</totfact>
</mgrwt>
</event>
<event>
12    7  0.2426980E-007  0.3229172E+04  0.7818608E-02  0.8181155E-01
         -1   -1    0    0    0  501 -0.00000000000E+00  0.00000000000E+00  0.18100326073E+04  0.18100326073E+04  0.00000000000E+00 0.  1.
          2   -1    0    0  501    0  0.00000000000E+00 -0.00000000000E+00 -0.14402437509E+04  0.14402437509E+04  0.00000000000E+00 0. -1.
         24    2    1    2    0    0  0.10989828533E+03 -0.96200141557E+03  0.13092924198E+04  0.16304002411E+04  0.80211901087E+02 0.  0.
        254    2    1    2    0    0 -0.10989828533E+03  0.96200141557E+03 -0.93950356336E+03  0.16198761171E+04  0.89655302834E+03 0.  0.
         23    2    4    4    0    0  0.38629791451E+03  0.39317527464E+03 -0.42282821433E+03  0.70064439686E+03  0.91137240918E+02 0.  0.
         23    2    4    4    0    0 -0.49619619984E+03  0.56882614092E+03 -0.51667534903E+03  0.91923172027E+03  0.90882847220E+02 0.  0.
          4    1    3    3  502    0 -0.91181175481E+00 -0.17248958500E+03  0.19614766520E+03  0.26120374212E+03  0.00000000000E+00 0. -1.
         -3    1    3    3    0  502  0.11081009709E+03 -0.78951183057E+03  0.11131447546E+04  0.13691964990E+04  0.00000000000E+00 0.  1.
         13    1    5    5    0    0  0.52606090702E+02  0.86875964254E+02 -0.46264531464E+02  0.11160305021E+03  0.00000000000E+00 0. -1.
        -13    1    5    5    0    0  0.33369182380E+03  0.30629931039E+03 -0.37656368286E+03  0.58904134666E+03  0.00000000000E+00 0.  1.
          4    1    6    6  503    0 -0.13914304309E+02  0.30193052671E+02 -0.45132144032E+02  0.56054783194E+02  0.00000000000E+00 0. -1.
         -4    1    6    6    0  503 -0.48228189553E+03  0.53863308825E+03 -0.47154320500E+03  0.86317693708E+03  0.00000000000E+00 0.  1.
<mgrwt>
<rscale>  0 0.32291721E+04</rscale>
<asrwt>0</asrwt>
<pdfrwt beam="1">  1        2 0.22157596E+00 0.32291721E+04</pdfrwt>
<pdfrwt beam="2">  1       -1 0.27846656E+00 0.32291721E+04</pdfrwt>
<totfact> 0.59774731E-01</totfact>
</mgrwt>
</event>
<event>
12    7  0.2426980E-007  0.2258904E+04  0.7818608E-02  0.8494303E-01
         -1   -1    0    0    0  501 -0.00000000000E+00  0.00000000000E+00  0.27364525037E+04  0.27364525037E+04  0.00000000000E+00 0.  1.
          2   -1    0    0  501    0  0.00000000000E+00 -0.00000000000E+00 -0.46617358367E+03  0.46617358367E+03  0.00000000000E+00 0. -1.
         24    2    1    2    0    0 -0.29554518182E+03  0.47681638407E+03 -0.12332132138E+03  0.57968996671E+03  0.78303835000E+02 0.  0.
        254    2    1    2    0    0  0.29554518182E+03 -0.47681638407E+03  0.23936002414E+04  0.26229361206E+04  0.91420509667E+03 0.  0.
         23    2    4    4    0    0  0.10992618984E+03 -0.21185490599E+03  0.56449349652E+02  0.26177585852E+03  0.91508483904E+02 0.  0.
         23    2    4    4    0    0  0.18561899198E+03 -0.26496147808E+03  0.23371508917E+04  0.23611602621E+04  0.90246870396E+02 0.  0.
          2    1    3    3  502    0 -0.14532306137E+03  0.16542914156E+03 -0.36170219759E+02  0.22314541860E+03  0.00000000000E+00 0. -1.
         -1    1    3    3    0  502 -0.15022212045E+03  0.31138724252E+03 -0.87151101625E+02  0.35654454811E+03  0.00000000000E+00 0.  1.
         13    1    5    5    0    0  0.60635666260E+02 -0.62530734572E+02  0.57774642712E+02  0.10452122334E+03  0.00000000000E+00 0. -1.
        -13    1    5    5    0    0  0.49290523575E+02 -0.14932417142E+03 -0.13252930600E+01  0.15725463518E+03  0.00000000000E+00 0.  1.
          3    1    6    6  503    0  0.36528415074E+02 -0.61310839889E+02  0.82597637252E+03  0.82905386565E+03  0.00000000000E+00 0. -1.
         -3    1    6    6    0  503  0.14909057691E+03 -0.20365063819E+03  0.15111745192E+04  0.15321063965E+04  0.00000000000E+00 0.  1.
<mgrwt>
<rscale>  0 0.22589040E+04</rscale>
<asrwt>0</asrwt>
<pdfrwt beam="1">  1        2 0.71719015E-01 0.22589040E+04</pdfrwt>
<pdfrwt beam="2">  1       -1 0.42099268E+00 0.22589040E+04</pdfrwt>
<totfact> 0.35619546E-01</totfact>
</mgrwt>
</event>
<event>
12    7  0.2426980E-007  0.2582124E+04  0.7818608E-02  0.8374299E-01
          2   -1    0    0  501    0  0.00000000000E+00  0.00000000000E+00  0.80175938158E+03  0.80175938158E+03  0.00000000000E+00 0. -1.
         -1   -1    0    0    0  501 -0.00000000000E+00 -0.00000000000E+00 -0.20789797523E+04  0.20789797523E+04  0.00000000000E+00 0.  1.
         24    2    1    2    0    0 -0.34434449971E+03  0.38863970019E+02  0.64147995147E+03  0.73338962346E+03  0.79248148300E+02 0.  0.
        254    2    1    2    0    0  0.34434449971E+03 -0.38863970019E+02 -0.19187003222E+04  0.21473495104E+04  0.89978633624E+03 0.  0.
         23    2    4    4    0    0  0.59569490615E+03 -0.21846624038E+03 -0.13004888191E+04  0.14499164294E+04  0.91687316811E+02 0.  0.
         23    2    4    4    0    0 -0.25135040643E+03  0.17960227036E+03 -0.61821150307E+03  0.69743308106E+03  0.93773331521E+02 0.  0.
          4    1    3    3  502    0 -0.14748277257E+03  0.51229724099E+02  0.32338873990E+03  0.35910434408E+03  0.00000000000E+00 0. -1.
         -3    1    3    3    0  502 -0.19686172714E+03 -0.12365754080E+02  0.31809121157E+03  0.37428527938E+03  0.00000000000E+00 0.  1.
         13    1    5    5    0    0  0.11294723565E+02 -0.10274603374E+02 -0.72809778954E+02  0.74393562667E+02  0.00000000000E+00 0.  1.
        -13    1    5    5    0    0  0.58440018258E+03 -0.20819163701E+03 -0.12276790402E+04  0.13755228667E+04  0.00000000000E+00 0. -1.
          1    1    6    6  503    0 -0.24994121905E+03  0.18653795236E+03 -0.57963321745E+03  0.65821097486E+03  0.00000000000E+00 0. -1.
         -1    1    6    6    0  503 -0.14091873766E+01 -0.69356820008E+01 -0.38578285618E+02  0.39222106205E+02  0.00000000000E+00 0.  1.
<mgrwt>
<rscale>  0 0.25821243E+04</rscale>
<asrwt>0</asrwt>
<pdfrwt beam="1">  1        2 0.12334760E+00 0.25821243E+04</pdfrwt>
<pdfrwt beam="2">  1       -1 0.31984304E+00 0.25821243E+04</pdfrwt>
<totfact> 0.85134890E-01</totfact>
</mgrwt>
</event>
<event>
12    7  0.2426980E-007  0.2000057E+04  0.7818608E-02  0.8606594E-01
         -1   -1    0    0    0  501 -0.00000000000E+00  0.00000000000E+00  0.72028415996E+03  0.72028415996E+03  0.00000000000E+00 0.  1.
          2   -1    0    0  501    0  0.00000000000E+00 -0.00000000000E+00 -0.13884202767E+04  0.13884202767E+04  0.00000000000E+00 0. -1.
         24    2    1    2    0    0 -0.18223292542E+03  0.73501864515E+03 -0.12354925553E+02  0.76202126278E+03  0.84038758401E+02 0.  0.
        254    2    1    2    0    0  0.18223292542E+03 -0.73501864515E+03 -0.65578119115E+03  0.13466831738E+04  0.90002519532E+03 0.  0.
         23    2    4    4    0    0  0.23876662082E+03 -0.73377407833E+03 -0.83370655666E+03  0.11397431162E+04  0.92270532078E+02 0.  0.
         23    2    4    4    0    0 -0.56533695392E+02 -0.12445668210E+01  0.17792536551E+03  0.20694005763E+03  0.89270062726E+02 0.  0.
          2    1    3    3  502    0 -0.85346839931E+01  0.18216492281E+03 -0.69706472838E+01  0.18249791740E+03  0.00000000000E+00 0. -1.
         -1    1    3    3    0  502 -0.17369824143E+03  0.55285372235E+03 -0.53842782687E+01  0.57952334538E+03  0.00000000000E+00 0.  1.
         13    1    5    5    0    0  0.14096403410E+03 -0.40143029112E+03 -0.52470329781E+03  0.67552252980E+03  0.00000000000E+00 0.  1.
        -13    1    5    5    0    0  0.97802586711E+02 -0.33234378722E+03 -0.30900325885E+03  0.46422058641E+03  0.00000000000E+00 0. -1.
          1    1    6    6  503    0 -0.23427050628E+02  0.43328207737E+02  0.70324734339E+02  0.85858770936E+02  0.00000000000E+00 0. -1.
         -1    1    6    6    0  503 -0.33106644764E+02 -0.44572774558E+02  0.10760063117E+03  0.12108128669E+03  0.00000000000E+00 0.  1.
<mgrwt>
<rscale>  0 0.20000571E+04</rscale>
<asrwt>0</asrwt>
<pdfrwt beam="1">  1        2 0.21360312E+00 0.20000571E+04</pdfrwt>
<pdfrwt beam="2">  1       -1 0.11081295E+00 0.20000571E+04</pdfrwt>
<totfact> 0.11668390E+01</totfact>
</mgrwt>
</event>
<event>
12    7  0.2426980E-007  0.2106251E+04  0.7818608E-02  0.8558495E-01
          2   -1    0    0  501    0  0.00000000000E+00  0.00000000000E+00  0.31778752364E+04  0.31778752364E+04  0.00000000000E+00 0. -1.
         -1   -1    0    0    0  501 -0.00000000000E+00 -0.00000000000E+00 -0.34899845019E+03  0.34899845019E+03  0.00000000000E+00 0.  1.
         24    2    1    2    0    0  0.74963573770E+03 -0.21842705120E+03  0.17580393103E+04  0.19251149821E+04  0.75507363912E+02 0.  0.
        254    2    1    2    0    0 -0.74963573770E+03  0.21842705120E+03  0.10708374759E+04  0.16017587044E+04  0.89959653816E+03 0.  0.
         23    2    4    4    0    0 -0.54842205891E+03  0.24194533572E+03  0.11055728030E+03  0.61642951337E+03  0.91968106209E+02 0.  0.
         23    2    4    4    0    0 -0.20121367879E+03 -0.23518284521E+02  0.96028019558E+03  0.98532919104E+03  0.87724035709E+02 0.  0.
          4    1    3    3  502    0  0.56921198638E+03 -0.18539488569E+03  0.14065357288E+04  0.15286321681E+04  0.00000000000E+00 0. -1.
         -3    1    3    3    0  502  0.18042375132E+03 -0.33032165509E+02  0.35150358151E+03  0.39648281402E+03  0.00000000000E+00 0.  1.
         13    1    5    5    0    0 -0.60261479671E+02 -0.22475346497E+01  0.52316978119E+01  0.60529893492E+02  0.00000000000E+00 0. -1.
        -13    1    5    5    0    0 -0.48816057923E+03  0.24419287037E+03  0.10532558249E+03  0.55589961988E+03  0.00000000000E+00 0.  1.
          1    1    6    6  503    0 -0.11685501152E+03 -0.48832147863E+02  0.44905746647E+03  0.46657505353E+03  0.00000000000E+00 0. -1.
         -1    1    6    6    0  503 -0.84358667275E+02  0.25313863342E+02  0.51122272911E+03  0.51875413751E+03  0.00000000000E+00 0.  1.
<mgrwt>
<rscale>  0 0.21062512E+04</rscale>
<asrwt>0</asrwt>
<pdfrwt beam="1">  1        2 0.48890386E+00 0.21062512E+04</pdfrwt>
<pdfrwt beam="2">  1       -1 0.53692072E-01 0.21062512E+04</pdfrwt>
<totfact> 0.49316447E+00</totfact>
</mgrwt>
</event>
<event>
12    7  0.2426980E-007  0.2850434E+04  0.7818608E-02  0.8287779E-01
          2   -1    0    0  501    0  0.00000000000E+00  0.00000000000E+00  0.21893562617E+04  0.21893562617E+04  0.00000000000E+00 0. -1.
         -1   -1    0    0    0  501 -0.00000000000E+00 -0.00000000000E+00 -0.92778127421E+03  0.92778127421E+03  0.00000000000E+00 0.  1.
         24    2    1    2    0    0 -0.12022745012E+04 -0.42277197047E+03  0.42428579077E+03  0.13455987346E+04  0.80108721322E+02 0.  0.
        254    2    1    2    0    0  0.12022745012E+04  0.42277197047E+03  0.83728919676E+03  0.17715388013E+04  0.90171858713E+03 0.  0.
         23    2    4    4    0    0  0.65106725408E+03  0.26638568848E+03  0.94514584525E+03  0.11813652662E+04  0.86448360835E+02 0.  0.
         23    2    4    4    0    0  0.55120724708E+03  0.15638628199E+03 -0.10785664849E+03  0.59017353508E+03  0.91573175415E+02 0.  0.
          4    1    3    3  502    0 -0.69954876703E+03 -0.27136234536E+03  0.28253975872E+03  0.80176973951E+03  0.00000000000E+00 0. -1.
         -3    1    3    3    0  502 -0.50272573414E+03 -0.15140962511E+03  0.14174603205E+03  0.54382899513E+03  0.00000000000E+00 0.  1.
         13    1    5    5    0    0  0.44703066736E+03  0.14460294774E+03  0.59342250235E+03  0.75689939645E+03  0.00000000000E+00 0.  1.
        -13    1    5    5    0    0  0.20403658672E+03  0.12178274073E+03  0.35172334291E+03  0.42446586978E+03  0.00000000000E+00 0. -1.
          1    1    6    6  503    0  0.20314213802E+03  0.90525325445E+02 -0.98188577500E+01  0.22261620056E+03  0.00000000000E+00 0. -1.
         -1    1    6    6    0  503  0.34806510906E+03  0.65860956550E+02 -0.98037790743E+02  0.36755733452E+03  0.00000000000E+00 0.  1.
<mgrwt>
<rscale>  0 0.28504342E+04</rscale>
<asrwt>0</asrwt>
<pdfrwt beam="1">  1        2 0.33682404E+00 0.28504342E+04</pdfrwt>
<pdfrwt beam="2">  1       -1 0.14273558E+00 0.28504342E+04</pdfrwt>
<totfact> 0.20551853E+00</totfact>
</mgrwt>
</event>
<event>
12    7  0.2426980E-007  0.1462489E+04  0.7818608E-02  0.8909788E-01
          2   -1    0    0  501    0  0.00000000000E+00  0.00000000000E+00  0.15135997117E+04  0.15135997117E+04  0.00000000000E+00 0. -1.
         -1   -1    0    0    0  501 -0.00000000000E+00 -0.00000000000E+00 -0.35327607608E+03  0.35327607608E+03  0.00000000000E+00 0.  1.
         24    2    1    2    0    0  0.40978891461E+03 -0.18078402862E+03  0.35253009098E+03  0.57600417800E+03  0.83027275522E+02 0.  0.
        254    2    1    2    0    0 -0.40978891461E+03  0.18078402862E+03  0.80779354468E+03  0.12908716098E+04  0.90178117227E+03 0.  0.
         23    2    4    4    0    0  0.22044999560E+03  0.22176267377E+03  0.10651840282E+03  0.34281643470E+03  0.91651806968E+02 0.  0.
         23    2    4    4    0    0 -0.63023891021E+03 -0.40978645150E+02  0.70127514186E+03  0.94805517512E+03  0.90230023626E+02 0.  0.
          2    1    3    3  502    0  0.25432394086E+03 -0.67476404937E+02  0.20677956968E+03  0.33465134477E+03  0.00000000000E+00 0. -1.
         -1    1    3    3    0  502  0.15546497375E+03 -0.11330762368E+03  0.14575052130E+03  0.24135283323E+03  0.00000000000E+00 0.  1.
         13    1    5    5    0    0  0.12628774797E+03  0.18007178315E+03  0.50808698348E+02  0.22573428230E+03  0.00000000000E+00 0. -1.
        -13    1    5    5    0    0  0.94162247627E+02  0.41690890620E+02  0.55709704467E+02  0.11708215240E+03  0.00000000000E+00 0.  1.
          2    1    6    6  503    0 -0.41796088958E+03 -0.69447896841E+02  0.47418293378E+03  0.63589603732E+03  0.00000000000E+00 0. -1.
         -2    1    6    6    0  503 -0.21227802063E+03  0.28469251691E+02  0.22709220808E+03  0.31215913779E+03  0.00000000000E+00 0.  1.
<mgrwt>
<rscale>  0 0.14624891E+04</rscale>
<asrwt>0</asrwt>
<pdfrwt beam="1">  1        2 0.23286149E+00 0.14624891E+04</pdfrwt>
<pdfrwt beam="2">  1       -1 0.54350166E-01 0.14624891E+04</pdfrwt>
<totfact> 0.47071779E+01</totfact>
</mgrwt>
</event>
<event>
12    7  0.2426980E-007  0.1845955E+04  0.7818608E-02  0.8682236E-01
         -1   -1    0    0    0  501 -0.00000000000E+00  0.00000000000E+00  0.17513846771E+04  0.17513846771E+04  0.00000000000E+00 0.  1.
          2   -1    0    0  501    0  0.00000000000E+00 -0.00000000000E+00 -0.48640783631E+03  0.48640783631E+03  0.00000000000E+00 0. -1.
         24    2    1    2    0    0  0.22339120090E+03 -0.62331899980E+03  0.20180348495E+03  0.69677874669E+03  0.79660348716E+02 0.  0.
        254    2    1    2    0    0 -0.22339120090E+03  0.62331899980E+03  0.10631733558E+04  0.15410137667E+04  0.89775032191E+03 0.  0.
         23    2    4    4    0    0 -0.28839905913E+02  0.79990635063E+03  0.93739406225E+03  0.12360278488E+04  0.91516693805E+02 0.  0.
         23    2    4    4    0    0 -0.19455129499E+03 -0.17658735083E+03  0.12577929358E+03  0.30498591785E+03  0.90347554151E+02 0.  0.
          2    1    3    3  502    0  0.43295537585E+02 -0.22352855565E+03  0.84714365538E+02  0.24293217673E+03  0.00000000000E+00 0. -1.
         -1    1    3    3    0  502  0.18009566331E+03 -0.39979044415E+03  0.11708911941E+03  0.45384656996E+03  0.00000000000E+00 0.  1.
         13    1    5    5    0    0 -0.36563184111E+02  0.12381245424E+03  0.13623083387E+03  0.18768385747E+03  0.00000000000E+00 0. -1.
        -13    1    5    5    0    0  0.77232781976E+01  0.67609389639E+03  0.80116322838E+03  0.10483439914E+04  0.00000000000E+00 0.  1.
          1    1    6    6  503    0 -0.14904396962E+03 -0.16722023055E+03  0.12886201073E+03  0.25842238331E+03  0.00000000000E+00 0. -1.
         -1    1    6    6    0  503 -0.45507325366E+02 -0.93671202801E+01 -0.30827171491E+01  0.46563534545E+02  0.00000000000E+00 0.  1.
<mgrwt>
<rscale>  0 0.18459547E+04</rscale>
<asrwt>0</asrwt>
<pdfrwt beam="1">  1        2 0.74831976E-01 0.18459547E+04</pdfrwt>
<pdfrwt beam="2">  1       -1 0.26944379E+00 0.18459547E+04</pdfrwt>
<totfact> 0.35620794E+00</totfact>
</mgrwt>
</event>
<event>
12    7  0.2426980E-007  0.1014907E+04  0.7818608E-02  0.9292345E-01
         -1   -1    0    0    0  501 -0.00000000000E+00  0.00000000000E+00  0.24781880025E+03  0.24781880025E+03  0.00000000000E+00 0.  1.
          2   -1    0    0  501    0  0.00000000000E+00 -0.00000000000E+00 -0.10391021039E+04  0.10391021039E+04  0.00000000000E+00 0. -1.
         24    2    1    2    0    0 -0.92611145474E+01  0.72465944462E+02 -0.12919115478E+03  0.16763386590E+03  0.77933799946E+02 0.  0.
        254    2    1    2    0    0  0.92611145474E+01 -0.72465944462E+02 -0.66209214887E+03  0.11192870382E+04  0.89950007172E+03 0.  0.
         23    2    4    4    0    0 -0.32617353020E+03 -0.21240629925E+03 -0.51834210509E+02  0.40346900323E+03  0.92708378396E+02 0.  0.
         23    2    4    4    0    0  0.33543464475E+03  0.13994035479E+03 -0.61025793836E+03  0.71581803500E+03  0.88775019640E+02 0.  0.
          4    1    3    3  502    0  0.22890976253E+02  0.36129427753E+02 -0.10508635337E+03  0.11345692578E+03  0.00000000000E+00 0. -1.
         -3    1    3    3    0  502 -0.32152090801E+02  0.36336516709E+02 -0.24104801408E+02  0.54176940116E+02  0.00000000000E+00 0.  1.
         13    1    5    5    0    0 -0.85161046182E+02 -0.10653160042E+03 -0.81829387990E+01  0.13663215640E+03  0.00000000000E+00 0.  1.
        -13    1    5    5    0    0 -0.24101248402E+03 -0.10587469883E+03 -0.43651271710E+02  0.26683684683E+03  0.00000000000E+00 0. -1.
          3    1    6    6  503    0  0.12206900344E+03  0.13591781350E+02 -0.24899553200E+03  0.27764069060E+03  0.00000000000E+00 0. -1.
         -3    1    6    6    0  503  0.21336564131E+03  0.12634857344E+03 -0.36126240636E+03  0.43817734440E+03  0.00000000000E+00 0.  1.
<mgrwt>
<rscale>  0 0.10149070E+04</rscale>
<asrwt>0</asrwt>
<pdfrwt beam="1">  1        2 0.15986186E+00 0.10149070E+04</pdfrwt>
<pdfrwt beam="2">  1       -1 0.38125970E-01 0.10149070E+04</pdfrwt>
<totfact> 0.17964919E+02</totfact>
</mgrwt>
</event>
<event>
12    7  0.2426980E-007  0.2629833E+04  0.7818608E-02  0.8358138E-01
          2   -1    0    0  501    0  0.00000000000E+00  0.00000000000E+00  0.24744072150E+04  0.24744072150E+04  0.00000000000E+00 0. -1.
         -1   -1    0    0    0  501 -0.00000000000E+00 -0.00000000000E+00 -0.69875527376E+03  0.69875527376E+03  0.00000000000E+00 0.  1.
         24    2    1    2    0    0 -0.79521374285E+03 -0.83484121352E+03  0.64544231448E+03  0.13246042370E+04  0.93036846360E+02 0.  0.
        254    2    1    2    0    0  0.79521374285E+03  0.83484121352E+03  0.11302096267E+04  0.18485582517E+04  0.90026055176E+03 0.  0.
         23    2    4    4    0    0  0.42397459473E+03  0.12995511714E+03 -0.11804445210E+02  0.45306923875E+03  0.92139029337E+02 0.  0.
         23    2    4    4    0    0  0.37123914812E+03  0.70488609638E+03  0.11420140719E+04  0.13954890130E+04  0.92252538466E+02 0.  0.
          2    1    3    3  502    0 -0.68483122214E+03 -0.72697698383E+03  0.59341828755E+03  0.11617377509E+04  0.00000000000E+00 0. -1.
         -3    1    3    3    0  502 -0.11038252070E+03 -0.10786422969E+03  0.52024026927E+02  0.16286648612E+03  0.00000000000E+00 0.  1.
         13    1    5    5    0    0  0.20187387818E+03  0.61743174030E+02  0.40403012375E+02  0.21493646884E+03  0.00000000000E+00 0. -1.
        -13    1    5    5    0    0  0.22210071655E+03  0.68211943112E+02 -0.52207457585E+02  0.23813276991E+03  0.00000000000E+00 0.  1.
          1    1    6    6  503    0  0.21751578130E+03  0.50363699030E+03  0.79376456484E+03  0.96489663566E+03  0.00000000000E+00 0. -1.
         -1    1    6    6    0  503  0.15372336682E+03  0.20124910608E+03  0.34824950710E+03  0.43059237731E+03  0.00000000000E+00 0.  1.
<mgrwt>
<rscale>  0 0.26298328E+04</rscale>
<asrwt>0</asrwt>
<pdfrwt beam="1">  1        2 0.38067803E+00 0.26298328E+04</pdfrwt>
<pdfrwt beam="2">  1       -1 0.10750081E+00 0.26298328E+04</pdfrwt>
<totfact> 0.29113214E+00</totfact>
</mgrwt>
</event>
<event>
12    7  0.2426980E-007  0.2425320E+04  0.7818608E-02  0.8430085E-01
          2   -1    0    0  501    0  0.00000000000E+00  0.00000000000E+00  0.13644529357E+04  0.13644529357E+04  0.00000000000E+00 0. -1.
         -1   -1    0    0    0  501 -0.00000000000E+00 -0.00000000000E+00 -0.10777533132E+04  0.10777533132E+04  0.00000000000E+00 0.  1.
         24    2    1    2    0    0 -0.58428636383E+03  0.15338126046E+03  0.98161313360E+03  0.11551466529E+04  0.76701236092E+02 0.  0.
        254    2    1    2    0    0  0.58428636383E+03 -0.15338126046E+03 -0.69491351105E+03  0.12870595960E+04  0.89927818267E+03 0.  0.
         23    2    4    4    0    0  0.48285073749E+03  0.30477953857E+03 -0.52346092580E+03  0.77970331025E+03  0.88828539104E+02 0.  0.
         23    2    4    4    0    0  0.10143562634E+03 -0.45816079903E+03 -0.17145258525E+03  0.50735628576E+03  0.88396310200E+02 0.  0.
          2    1    3    3  502    0 -0.46266201022E+03  0.10540554566E+03  0.81849102789E+03  0.94609409019E+03  0.00000000000E+00 0. -1.
         -1    1    3    3    0  502 -0.12162435361E+03  0.47975714797E+02  0.16312210570E+03  0.20905256270E+03  0.00000000000E+00 0.  1.
         13    1    5    5    0    0  0.37663934671E+03  0.20599646165E+03 -0.35226441633E+03  0.55532149132E+03  0.00000000000E+00 0. -1.
        -13    1    5    5    0    0  0.10621139078E+03  0.98783076912E+02 -0.17119650947E+03  0.22438181894E+03  0.00000000000E+00 0.  1.
          2    1    6    6  503    0  0.32437518509E+02 -0.52991714182E+02 -0.27458653770E+00  0.62132035027E+02  0.00000000000E+00 0.  1.
         -2    1    6    6    0  503  0.68998107836E+02 -0.40516908485E+03 -0.17117799872E+03  0.44522425074E+03  0.00000000000E+00 0. -1.
<mgrwt>
<rscale>  0 0.24253195E+04</rscale>
<asrwt>0</asrwt>
<pdfrwt beam="1">  1        2 0.20991584E+00 0.24253195E+04</pdfrwt>
<pdfrwt beam="2">  1       -1 0.16580820E+00 0.24253195E+04</pdfrwt>
<totfact> 0.40988544E+00</totfact>
</mgrwt>
</event>
<event>
12    7  0.2426980E-007  0.2071945E+04  0.7818608E-02  0.8573704E-01
          2   -1    0    0  501    0  0.00000000000E+00  0.00000000000E+00  0.15387636713E+04  0.15387636713E+04  0.00000000000E+00 0. -1.
         -1   -1    0    0    0  501 -0.00000000000E+00 -0.00000000000E+00 -0.69746816797E+03  0.69746816797E+03  0.00000000000E+00 0.  1.
         24    2    1    2    0    0  0.82093219031E+03 -0.12024350701E+03  0.21238117803E+03  0.86015570568E+03  0.79836778286E+02 0.  0.
        254    2    1    2    0    0 -0.82093219031E+03  0.12024350701E+03  0.62891432527E+03  0.13760761336E+04  0.89981338886E+03 0.  0.
         23    2    4    4    0    0 -0.44452072375E+03  0.20213661893E+03 -0.13629311853E+03  0.51459755094E+03  0.88186953253E+02 0.  0.
         23    2    4    4    0    0 -0.37641146656E+03 -0.81893111920E+02  0.76520744379E+03  0.86147858262E+03  0.90613698421E+02 0.  0.
          4    1    3    3  502    0  0.11015361781E+03 -0.10828725389E+02  0.56637636994E+02  0.12433383584E+03  0.00000000000E+00 0. -1.
         -3    1    3    3    0  502  0.71077857250E+03 -0.10941478162E+03  0.15574354104E+03  0.73582186984E+03  0.00000000000E+00 0.  1.
         13    1    5    5    0    0 -0.11374017597E+03  0.82264841210E+02 -0.97823804698E+01  0.14071256766E+03  0.00000000000E+00 0. -1.
        -13    1    5    5    0    0 -0.33078054778E+03  0.11987177772E+03 -0.12651073806E+03  0.37388498329E+03  0.00000000000E+00 0.  1.
          4    1    6    6  503    0 -0.84505441995E+02 -0.37215400367E+02  0.26475744920E+03  0.28039732997E+03  0.00000000000E+00 0. -1.
         -4    1    6    6    0  503 -0.29190602457E+03 -0.44677711553E+02  0.50044999459E+03  0.58108125265E+03  0.00000000000E+00 0.  1.
<mgrwt>
<rscale>  0 0.20719447E+04</rscale>
<asrwt>0</asrwt>
<pdfrwt beam="1">  1        2 0.23673287E+00 0.20719447E+04</pdfrwt>
<pdfrwt beam="2">  1       -1 0.10730280E+00 0.20719447E+04</pdfrwt>
<totfact> 0.10278064E+01</totfact>
</mgrwt>
</event>
<event>
12    7  0.2426980E-007  0.3014539E+04  0.7818608E-02  0.8239591E-01
          2   -1    0    0  501    0  0.00000000000E+00  0.00000000000E+00  0.24375631215E+04  0.24375631215E+04  0.00000000000E+00 0. -1.
         -1   -1    0    0    0  501 -0.00000000000E+00 -0.00000000000E+00 -0.93202169281E+03  0.93202169281E+03  0.00000000000E+00 0.  1.
         24    2    1    2    0    0 -0.13975020035E+03  0.79343265233E+03 -0.55455241456E+03  0.98177465082E+03  0.85367395456E+02 0.  0.
        254    2    1    2    0    0  0.13975020035E+03 -0.79343265233E+03  0.20600938432E+04  0.23878101635E+04  0.89921367960E+03 0.  0.
         23    2    4    4    0    0  0.50714582169E+03 -0.55383567683E+03  0.12191509358E+04  0.14348598635E+04  0.92536383329E+02 0.  0.
         23    2    4    4    0    0 -0.36739562134E+03 -0.23959697550E+03  0.84094290742E+03  0.95295029996E+03  0.92428607056E+02 0.  0.
          2    1    3    3  502    0  0.62940907010E+01  0.93877309172E+02 -0.46520962692E+02  0.10496077708E+03  0.00000000000E+00 0. -1.
         -1    1    3    3    0  502 -0.14604429105E+03  0.69955534316E+03 -0.50803145187E+03  0.87681387374E+03  0.00000000000E+00 0.  1.
         13    1    5    5    0    0  0.12389670697E+03 -0.19308569582E+03  0.33868863504E+03  0.40907514155E+03  0.00000000000E+00 0. -1.
        -13    1    5    5    0    0  0.38324911471E+03 -0.36074998101E+03  0.88046230077E+03  0.10257847220E+04  0.00000000000E+00 0.  1.
          4    1    6    6  503    0 -0.19751691453E+02 -0.97319664597E+01  0.10415592588E+03  0.10645796063E+03  0.00000000000E+00 0. -1.
         -4    1    6    6    0  503 -0.34764392989E+03 -0.22986500904E+03  0.73678698154E+03  0.84649233933E+03  0.00000000000E+00 0.  1.
<mgrwt>
<rscale>  0 0.30145392E+04</rscale>
<asrwt>0</asrwt>
<pdfrwt beam="1">  1        2 0.37500971E+00 0.30145392E+04</pdfrwt>
<pdfrwt beam="2">  1       -1 0.14338795E+00 0.30145392E+04</pdfrwt>
<totfact> 0.14466680E+00</totfact>
</mgrwt>
</event>
<event>
12    7  0.2426980E-007  0.1450550E+04  0.7818608E-02  0.8918019E-01
         -1   -1    0    0    0  501 -0.00000000000E+00  0.00000000000E+00  0.52283306348E+03  0.52283306348E+03  0.00000000000E+00 0.  1.
          2   -1    0    0  501    0  0.00000000000E+00 -0.00000000000E+00 -0.10061031771E+04  0.10061031771E+04  0.00000000000E+00 0. -1.
         24    2    1    2    0    0 -0.17188753322E+03 -0.12926229180E+03 -0.55526205364E+03  0.60062178676E+03  0.78590828747E+02 0.  0.
        254    2    1    2    0    0  0.17188753322E+03  0.12926229180E+03  0.71991940014E+02  0.92831445382E+03  0.90018377101E+03 0.  0.
         23    2    4    4    0    0  0.40894833826E+03  0.22930158116E+01  0.33865196006E+03  0.53894331907E+03  0.92362058402E+02 0.  0.
         23    2    4    4    0    0 -0.23706080504E+03  0.12696927599E+03 -0.26666002004E+03  0.38937113475E+03  0.90461549600E+02 0.  0.
          4    1    3    3  502    0 -0.11863549823E+03 -0.11384348963E+03 -0.47829019323E+03  0.50576301814E+03  0.00000000000E+00 0. -1.
         -3    1    3    3    0  502 -0.53252034986E+02 -0.15418802169E+02 -0.76971860408E+02  0.94858768625E+02  0.00000000000E+00 0.  1.
         13    1    5    5    0    0  0.15295203526E+03  0.26254898132E+02  0.81444648724E+02  0.17526230505E+03  0.00000000000E+00 0. -1.
        -13    1    5    5    0    0  0.25599630300E+03 -0.23961882321E+02  0.25720731133E+03  0.36368101402E+03  0.00000000000E+00 0.  1.
          4    1    6    6  503    0 -0.46646580492E+02  0.55108400454E+02 -0.11406812833E+03  0.13499769321E+03  0.00000000000E+00 0.  1.
         -4    1    6    6    0  503 -0.19041422455E+03  0.71860875532E+02 -0.15259189172E+03  0.25437344154E+03  0.00000000000E+00 0. -1.
<mgrwt>
<rscale>  0 0.14505502E+04</rscale>
<asrwt>0</asrwt>
<pdfrwt beam="1">  1        2 0.15478510E+00 0.14505502E+04</pdfrwt>
<pdfrwt beam="2">  1       -1 0.80435857E-01 0.14505502E+04</pdfrwt>
<totfact> 0.42592856E+01</totfact>
</mgrwt>
</event>
<event>
12    7  0.2426980E-007  0.3214766E+04  0.7818608E-02  0.8184928E-01
          2   -1    0    0  501    0  0.00000000000E+00  0.00000000000E+00  0.39823810453E+04  0.39823810453E+04  0.00000000000E+00 0. -1.
         -1   -1    0    0    0  501 -0.00000000000E+00 -0.00000000000E+00 -0.64877765087E+03  0.64877765087E+03  0.00000000000E+00 0.  1.
         24    2    1    2    0    0 -0.36778446078E+03  0.11627499452E+04  0.27457375525E+04  0.30054595567E+04  0.80371604986E+02 0.  0.
        254    2    1    2    0    0  0.36778446078E+03 -0.11627499452E+04  0.58786584195E+03  0.16256991395E+04  0.90003255476E+03 0.  0.
         23    2    4    4    0    0  0.18675553456E+03 -0.91681615826E+03  0.80655479750E+03  0.12388452191E+04  0.93687446756E+02 0.  0.
         23    2    4    4    0    0  0.18102892622E+03 -0.24593378689E+03 -0.21868895556E+03  0.38685392048E+03  0.92607758004E+02 0.  0.
          4    1    3    3  502    0 -0.10187578245E+03  0.32660259721E+03  0.86165492199E+03  0.92709068389E+03  0.00000000000E+00 0. -1.
         -3    1    3    3    0  502 -0.26590867833E+03  0.83614734794E+03  0.18840826305E+04  0.20783688728E+04  0.00000000000E+00 0.  1.
         13    1    5    5    0    0  0.69802642676E+02 -0.27393198770E+03  0.19123179975E+03  0.34129275416E+03  0.00000000000E+00 0. -1.
        -13    1    5    5    0    0  0.11695289188E+03 -0.64288417056E+03  0.61532299776E+03  0.89755246490E+03  0.00000000000E+00 0.  1.
          1    1    6    6  503    0  0.84083182842E+02 -0.43955557313E+02 -0.58992791577E+02  0.11172386546E+03  0.00000000000E+00 0. -1.
         -1    1    6    6    0  503  0.96945743378E+02 -0.20197822958E+03 -0.15969616398E+03  0.27513005502E+03  0.00000000000E+00 0.  1.
<mgrwt>
<rscale>  0 0.32147658E+04</rscale>
<asrwt>0</asrwt>
<pdfrwt beam="1">  1        2 0.61267399E+00 0.32147658E+04</pdfrwt>
<pdfrwt beam="2">  1       -1 0.99811949E-01 0.32147658E+04</pdfrwt>
<totfact> 0.32262656E-01</totfact>
</mgrwt>
</event>
<event>
12    7  0.2426980E-007  0.3913460E+04  0.7818608E-02  0.8022236E-01
         -1   -1    0    0    0  501 -0.00000000000E+00  0.00000000000E+00  0.18879248835E+04  0.18879248835E+04  0.00000000000E+00 0.  1.
          2   -1    0    0  501    0  0.00000000000E+00 -0.00000000000E+00 -0.20280431454E+04  0.20280431454E+04  0.00000000000E+00 0. -1.
         24    2    1    2    0    0 -0.18325561165E+04  0.18339749813E+03  0.13203305869E+03  0.18481470782E+04  0.79487934892E+02 0.  0.
        254    2    1    2    0    0  0.18325561165E+04 -0.18339749813E+03 -0.27215132065E+03  0.20678209507E+04  0.89995587684E+03 0.  0.
         23    2    4    4    0    0  0.47956280317E+03 -0.42110016890E+03  0.72524334140E+02  0.64850856292E+03  0.89430099583E+02 0.  0.
         23    2    4    4    0    0  0.13529933133E+04  0.23770267077E+03 -0.34467565479E+03  0.14193123877E+04  0.92481789607E+02 0.  0.
          4    1    3    3  502    0 -0.72393762485E+03  0.10624589987E+03  0.32839150739E+02  0.73242903120E+03  0.00000000000E+00 0. -1.
         -3    1    3    3    0  502 -0.11086184916E+04  0.77151598264E+02  0.99193907950E+02  0.11157180470E+04  0.00000000000E+00 0.  1.
         13    1    5    5    0    0  0.48332396557E+02 -0.29365714070E+02  0.30862130371E+02  0.64426988218E+02  0.00000000000E+00 0.  1.
        -13    1    5    5    0    0  0.43123040661E+03 -0.39173445483E+03  0.41662203769E+02  0.58408157471E+03  0.00000000000E+00 0. -1.
          3    1    6    6  503    0  0.87018768623E+03  0.14795449722E+03 -0.17582064888E+03  0.90001669045E+03  0.00000000000E+00 0. -1.
         -3    1    6    6    0  503  0.48280562708E+03  0.89748173545E+02 -0.16885500590E+03  0.51929569727E+03  0.00000000000E+00 0.  1.
<mgrwt>
<rscale>  0 0.39134604E+04</rscale>
<asrwt>0</asrwt>
<pdfrwt beam="1">  1        2 0.31200664E+00 0.39134604E+04</pdfrwt>
<pdfrwt beam="2">  1       -1 0.29044998E+00 0.39134604E+04</pdfrwt>
<totfact> 0.22182516E-01</totfact>
</mgrwt>
</event>
<event>
12    7  0.2426980E-007  0.4590031E+04  0.7818608E-02  0.7895062E-01
         -1   -1    0    0    0  501 -0.00000000000E+00  0.00000000000E+00  0.30568230864E+04  0.30568230864E+04  0.00000000000E+00 0.  1.
          2   -1    0    0  501    0  0.00000000000E+00 -0.00000000000E+00 -0.17230623151E+04  0.17230623151E+04  0.00000000000E+00 0. -1.
         24    2    1    2    0    0  0.43674073136E+03 -0.10170236083E+04  0.26295037608E+04  0.28541003038E+04  0.80740508727E+02 0.  0.
        254    2    1    2    0    0 -0.43674073136E+03  0.10170236083E+04 -0.12957429895E+04  0.19257850978E+04  0.89700549697E+03 0.  0.
         23    2    4    4    0    0 -0.25473442699E+03  0.11454610586E+04 -0.99273799353E+03  0.15391802879E+04  0.81096051714E+02 0.  0.
         23    2    4    4    0    0 -0.18200630437E+03 -0.12843745031E+03 -0.30300499597E+03  0.38660480990E+03  0.89603448489E+02 0.  0.
          2    1    3    3  502    0  0.17534330097E+03 -0.36200202770E+03  0.10446267035E+04  0.11193907678E+04  0.00000000000E+00 0. -1.
         -1    1    3    3    0  502  0.26139743039E+03 -0.65502158064E+03  0.15848770573E+04  0.17347095360E+04  0.00000000000E+00 0.  1.
         13    1    5    5    0    0 -0.14683680202E+03  0.72906350969E+03 -0.58116029377E+03  0.94384423219E+03  0.00000000000E+00 0. -1.
        -13    1    5    5    0    0 -0.10789762497E+03  0.41639754896E+03 -0.41157769976E+03  0.59533605568E+03  0.00000000000E+00 0.  1.
          4    1    6    6  503    0 -0.81152488035E+02 -0.77452733935E+02 -0.83942095586E+02  0.14011041260E+03  0.00000000000E+00 0.  1.
         -4    1    6    6    0  503 -0.10085381633E+03 -0.50984716371E+02 -0.21906290039E+03  0.24649439730E+03  0.00000000000E+00 0. -1.
<mgrwt>
<rscale>  0 0.45900312E+04</rscale>
<asrwt>0</asrwt>
<pdfrwt beam="1">  1        2 0.26508651E+00 0.45900312E+04</pdfrwt>
<pdfrwt beam="2">  1       -1 0.47028047E+00 0.45900312E+04</pdfrwt>
<totfact> 0.19211232E-02</totfact>
</mgrwt>
</event>
<event>
12    7  0.2426980E-007  0.2091140E+04  0.7818608E-02  0.8565156E-01
         -1   -1    0    0    0  501 -0.00000000000E+00  0.00000000000E+00  0.65406697120E+03  0.65406697120E+03  0.00000000000E+00 0.  1.
          2   -1    0    0  501    0  0.00000000000E+00 -0.00000000000E+00 -0.16714145100E+04  0.16714145100E+04  0.00000000000E+00 0. -1.
         24    2    1    2    0    0  0.33574068086E+03  0.56002864096E+03 -0.10231179371E+04  0.12150200965E+04  0.56121638601E+02 0.  0.
        254    2    1    2    0    0 -0.33574068086E+03 -0.56002864096E+03  0.57703983053E+01  0.11104613847E+04  0.89818556314E+03 0.  0.
         23    2    4    4    0    0  0.60177822161E+02 -0.62987667908E+03  0.17676604819E+03  0.66390821248E+03  0.95717697782E+02 0.  0.
         23    2    4    4    0    0 -0.39591850302E+03  0.69848038129E+02 -0.17099564989E+03  0.44655317218E+03  0.92412195288E+02 0.  0.
          4    1    3    3  502    0  0.99975158383E+02  0.19165278138E+03 -0.38221311930E+03  0.43910441750E+03  0.00000000000E+00 0. -1.
         -3    1    3    3    0  502  0.23576552247E+03  0.36837585958E+03 -0.64090481778E+03  0.77591567903E+03  0.00000000000E+00 0.  1.
         13    1    5    5    0    0  0.80122577978E+02 -0.58188875325E+03  0.17011181214E+03  0.61151629356E+03  0.00000000000E+00 0. -1.
        -13    1    5    5    0    0 -0.19944755817E+02 -0.47987925839E+02  0.66542360523E+01  0.52391918922E+02  0.00000000000E+00 0.  1.
          2    1    6    6  503    0 -0.36146119136E+03  0.76644947405E+02 -0.12800944656E+03  0.39104355158E+03  0.00000000000E+00 0. -1.
         -2    1    6    6    0  503 -0.34457311654E+02 -0.67969092762E+01 -0.42986203327E+02  0.55509620595E+02  0.00000000000E+00 0.  1.
<mgrwt>
<rscale>  0 0.20911404E+04</rscale>
<asrwt>0</asrwt>
<pdfrwt beam="1">  1        2 0.25714070E+00 0.20911404E+04</pdfrwt>
<pdfrwt beam="2">  1       -1 0.10062569E+00 0.20911404E+04</pdfrwt>
<totfact> 0.10039277E+01</totfact>
</mgrwt>
</event>
<event>
12    7  0.2426980E-007  0.1690702E+04  0.7818608E-02  0.8766685E-01
          2   -1    0    0  501    0  0.00000000000E+00  0.00000000000E+00  0.73907255230E+03  0.73907255230E+03  0.00000000000E+00 0. -1.
         -3   -1    0    0    0  501 -0.00000000000E+00 -0.00000000000E+00 -0.96691230708E+03  0.96691230708E+03  0.00000000000E+00 0.  1.
         24    2    1    2    0    0  0.51030904482E+02 -0.58397277111E+03 -0.23054367662E+03  0.63493645409E+03  0.79784480244E+02 0.  0.
        254    2    1    2    0    0 -0.51030904482E+02  0.58397277111E+03  0.27039218339E+01  0.10710484053E+04  0.89638664909E+03 0.  0.
         23    2    4    4    0    0 -0.37860074059E+03  0.60231544904E+03  0.79922809457E+02  0.72194833486E+03  0.93270154982E+02 0.  0.
         23    2    4    4    0    0  0.32756983611E+03 -0.18342677923E+02 -0.77218887623E+02  0.34910007043E+03  0.90937622601E+02 0.  0.
          4    1    3    3  502    0  0.51956152997E+02 -0.47048431543E+03 -0.15290140666E+03  0.49742715352E+03  0.00000000000E+00 0. -1.
         -3    1    3    3    0  502 -0.92524851558E+00 -0.11348845568E+03 -0.77642269963E+02  0.13750930057E+03  0.00000000000E+00 0.  1.
         13    1    5    5    0    0 -0.23047198043E+03  0.43370969041E+03  0.30180540840E+02  0.49206939995E+03  0.00000000000E+00 0. -1.
        -13    1    5    5    0    0 -0.14812876017E+03  0.16860575863E+03  0.49742268618E+02  0.22987893491E+03  0.00000000000E+00 0.  1.
          3    1    6    6  503    0  0.77370673526E+02 -0.42188396170E+02 -0.31854837837E+02  0.93705990133E+02  0.00000000000E+00 0. -1.
         -3    1    6    6    0  503  0.25019916258E+03  0.23845718247E+02 -0.45364049787E+02  0.25539408030E+03  0.00000000000E+00 0.  1.
<mgrwt>
<rscale>  0 0.16907020E+04</rscale>
<asrwt>0</asrwt>
<pdfrwt beam="1">  1        2 0.11370347E+00 0.16907020E+04</pdfrwt>
<pdfrwt beam="2">  1       -3 0.14875574E+00 0.16907020E+04</pdfrwt>
<totfact> 0.75533620E+00</totfact>
</mgrwt>
</event>
<event>
12    7  0.2426980E-007  0.2372016E+04  0.7818608E-02  0.8450055E-01
          2   -1    0    0  501    0  0.00000000000E+00  0.00000000000E+00  0.80302441612E+03  0.80302441612E+03  0.00000000000E+00 0. -1.
         -1   -1    0    0    0  501 -0.00000000000E+00 -0.00000000000E+00 -0.17516467694E+04  0.17516467694E+04  0.00000000000E+00 0.  1.
         24    2    1    2    0    0 -0.24979222065E+03 -0.89210406400E+03 -0.84935174853E+03  0.12593885112E+04  0.80095036651E+02 0.  0.
        254    2    1    2    0    0  0.24979222065E+03  0.89210406400E+03 -0.99270604743E+02  0.12952826743E+04  0.89980927920E+03 0.  0.
         23    2    4    4    0    0  0.30446000422E+03  0.10309310865E+04  0.27846112252E+02  0.10794504802E+04  0.94462341457E+02 0.  0.
         23    2    4    4    0    0 -0.54667783569E+02 -0.13882702253E+03 -0.12711671699E+03  0.21583219410E+03  0.90351355959E+02 0.  0.
          4    1    3    3  502    0 -0.22073015679E+03 -0.77252088776E+03 -0.69776293336E+03  0.10641350644E+04  0.00000000000E+00 0. -1.
         -3    1    3    3    0  502 -0.29062063857E+02 -0.11958317624E+03 -0.15158881517E+03  0.19525344678E+03  0.00000000000E+00 0.  1.
         13    1    5    5    0    0  0.18592560348E+03  0.74897148565E+03  0.45802432233E+02  0.77306175636E+03  0.00000000000E+00 0.  1.
        -13    1    5    5    0    0  0.11853440074E+03  0.28195960088E+03 -0.17956319981E+02  0.30638872387E+03  0.00000000000E+00 0. -1.
          3    1    6    6  503    0 -0.78750859052E+02 -0.95671555376E+02 -0.10143679194E+03  0.16013796261E+03  0.00000000000E+00 0. -1.
         -3    1    6    6    0  503  0.24083075483E+02 -0.43155467154E+02 -0.25679925054E+02  0.55694231486E+02  0.00000000000E+00 0.  1.
<mgrwt>
<rscale>  0 0.23720161E+04</rscale>
<asrwt>0</asrwt>
<pdfrwt beam="1">  1        2 0.12354222E+00 0.23720161E+04</pdfrwt>
<pdfrwt beam="2">  1       -1 0.26948412E+00 0.23720161E+04</pdfrwt>
<totfact> 0.18347761E+00</totfact>
</mgrwt>
</event>
<event>
12    7  0.2426980E-007  0.1794454E+04  0.7818608E-02  0.8709254E-01
          2   -1    0    0  501    0  0.00000000000E+00  0.00000000000E+00  0.11391824691E+04  0.11391824691E+04  0.00000000000E+00 0. -1.
         -1   -1    0    0    0  501 -0.00000000000E+00 -0.00000000000E+00 -0.70666150063E+03  0.70666150063E+03  0.00000000000E+00 0.  1.
         24    2    1    2    0    0 -0.36543707886E+03 -0.39269390305E+03  0.56511577065E+03  0.78322251501E+03  0.79554469883E+02 0.  0.
        254    2    1    2    0    0  0.36543707886E+03  0.39269390305E+03 -0.13259480217E+03  0.10626214547E+04  0.90765093202E+03 0.  0.
         23    2    4    4    0    0  0.28118856619E+03 -0.15313679330E+03  0.22225838474E+03  0.39998945143E+03  0.89860360815E+02 0.  0.
         23    2    4    4    0    0  0.84248512670E+02  0.54583069635E+03 -0.35485318691E+03  0.66263200330E+03  0.90174423076E+02 0.  0.
          4    1    3    3  502    0 -0.30975680419E+03 -0.34555345333E+03  0.52209664231E+03  0.69852800284E+03  0.00000000000E+00 0. -1.
         -3    1    3    3    0  502 -0.55680274672E+02 -0.47140449722E+02  0.43019128349E+02  0.84694512168E+02  0.00000000000E+00 0.  1.
         13    1    5    5    0    0  0.23831791238E+03 -0.10742885934E+03  0.13987913120E+03  0.29648365642E+03  0.00000000000E+00 0.  1.
        -13    1    5    5    0    0  0.42870653809E+02 -0.45707933964E+02  0.82379253544E+02  0.10350579501E+03  0.00000000000E+00 0. -1.
          2    1    6    6  503    0  0.13360084393E+02  0.67900443409E+02 -0.83640239543E+02  0.10855713584E+03  0.00000000000E+00 0. -1.
         -2    1    6    6    0  503  0.70888428277E+02  0.47793025294E+03 -0.27121294737E+03  0.55407486747E+03  0.00000000000E+00 0.  1.
<mgrwt>
<rscale>  0 0.17944541E+04</rscale>
<asrwt>0</asrwt>
<pdfrwt beam="1">  1        2 0.17525884E+00 0.17944541E+04</pdfrwt>
<pdfrwt beam="2">  1       -1 0.10871715E+00 0.17944541E+04</pdfrwt>
<totfact> 0.17422940E+01</totfact>
</mgrwt>
</event>
<event>
12    7  0.2426980E-007  0.1700821E+04  0.7818608E-02  0.8760896E-01
          2   -1    0    0  501    0  0.00000000000E+00  0.00000000000E+00  0.87941312468E+03  0.87941312468E+03  0.00000000000E+00 0. -1.
         -1   -1    0    0    0  501 -0.00000000000E+00 -0.00000000000E+00 -0.82236458267E+03  0.82236458267E+03  0.00000000000E+00 0.  1.
         24    2    1    2    0    0 -0.52017533695E+03 -0.41252746994E+02  0.33544207514E+03  0.62542445682E+03  0.79688111405E+02 0.  0.
        254    2    1    2    0    0  0.52017533695E+03  0.41252746994E+02 -0.27839353312E+03  0.10763532505E+04  0.89930483727E+03 0.  0.
         23    2    4    4    0    0  0.35325149324E+03 -0.66754340410E+02  0.28709291831E+03  0.46976281208E+03  0.94931535481E+02 0.  0.
         23    2    4    4    0    0  0.16692384371E+03  0.10800708740E+03 -0.56548645143E+03  0.60659043845E+03  0.92994261850E+02 0.  0.
          2    1    3    3  502    0 -0.30618126410E+03 -0.63366052091E+02  0.20315239705E+03  0.37287145167E+03  0.00000000000E+00 0. -1.
         -1    1    3    3    0  502 -0.21399407285E+03  0.22113305097E+02  0.13228967809E+03  0.25255300515E+03  0.00000000000E+00 0.  1.
         13    1    5    5    0    0  0.30516083875E+03 -0.77804399521E+02  0.21101213462E+03  0.37908149922E+03  0.00000000000E+00 0. -1.
        -13    1    5    5    0    0  0.48090654492E+02  0.11050059111E+02  0.76080783690E+02  0.90681312864E+02  0.00000000000E+00 0.  1.
          2    1    6    6  503    0  0.80212175351E+02  0.96317217295E+02 -0.40301719588E+03  0.42205907122E+03  0.00000000000E+00 0. -1.
         -2    1    6    6    0  503  0.86711668361E+02  0.11689870110E+02 -0.16246925555E+03  0.18453136723E+03  0.00000000000E+00 0.  1.
<mgrwt>
<rscale>  0 0.17008212E+04</rscale>
<asrwt>0</asrwt>
<pdfrwt beam="1">  1        2 0.13529433E+00 0.17008212E+04</pdfrwt>
<pdfrwt beam="2">  1       -1 0.12651763E+00 0.17008212E+04</pdfrwt>
<totfact> 0.17861431E+01</totfact>
</mgrwt>
</event>
<event>
12    7  0.2426980E-007  0.3058031E+04  0.7818608E-02  0.8227351E-01
          2   -1    0    0  501    0  0.00000000000E+00  0.00000000000E+00  0.27754708406E+04  0.27754708406E+04  0.00000000000E+00 0. -1.
         -3   -1    0    0    0  501 -0.00000000000E+00 -0.00000000000E+00 -0.84233939785E+03  0.84233939785E+03  0.00000000000E+00 0.  1.
         24    2    1    2    0    0  0.13297650182E+04  0.28323229261E+03  0.12547530391E+04  0.18518489727E+04  0.80273865168E+02 0.  0.
        254    2    1    2    0    0 -0.13297650182E+04 -0.28323229261E+03  0.67837840367E+03  0.17659612657E+04  0.89995910914E+03 0.  0.
         23    2    4    4    0    0 -0.10512316674E+04 -0.50637082759E+03  0.24170954456E+03  0.11950455891E+04  0.90614693076E+02 0.  0.
         23    2    4    4    0    0 -0.27853335084E+03  0.22313853498E+03  0.43666885911E+03  0.57091567658E+03  0.88844718046E+02 0.  0.
          4    1    3    3  502    0  0.10950948866E+04  0.26423538146E+03  0.10369063542E+04  0.15310871741E+04  0.00000000000E+00 0. -1.
         -3    1    3    3    0  502  0.23467013167E+03  0.18996911155E+02  0.21784668493E+03  0.32076179864E+03  0.00000000000E+00 0.  1.
         13    1    5    5    0    0 -0.10440786146E+04 -0.49625132883E+03  0.23144423796E+03  0.11789537608E+04  0.00000000000E+00 0. -1.
        -13    1    5    5    0    0 -0.71530528101E+01 -0.10119498768E+02  0.10265306600E+02  0.16091828343E+02  0.00000000000E+00 0.  1.
          1    1    6    6  503    0 -0.28097637856E+03  0.21919902147E+03  0.43923469291E+03  0.56561740760E+03  0.00000000000E+00 0. -1.
         -1    1    6    6    0  503  0.24430277118E+01  0.39395135116E+01 -0.25658338040E+01  0.52982689832E+01  0.00000000000E+00 0.  1.
<mgrwt>
<rscale>  0 0.30580310E+04</rscale>
<asrwt>0</asrwt>
<pdfrwt beam="1">  1        2 0.42699551E+00 0.30580310E+04</pdfrwt>
<pdfrwt beam="2">  1       -3 0.12959068E+00 0.30580310E+04</pdfrwt>
<totfact> 0.60767648E-01</totfact>
</mgrwt>
</event>
<event>
12    7  0.2426980E-007  0.1248809E+04  0.7818608E-02  0.9071175E-01
          2   -1    0    0  501    0  0.00000000000E+00  0.00000000000E+00  0.66910710140E+03  0.66910710140E+03  0.00000000000E+00 0. -1.
         -1   -1    0    0    0  501 -0.00000000000E+00 -0.00000000000E+00 -0.58268849865E+03  0.58268849865E+03  0.00000000000E+00 0.  1.
         24    2    1    2    0    0 -0.27615087498E+03 -0.93270961020E+02  0.51272114592E+02  0.30484289769E+03  0.73086145149E+02 0.  0.
        254    2    1    2    0    0  0.27615087498E+03  0.93270961020E+02  0.35146488152E+02  0.94695270236E+03  0.90029182322E+03 0.  0.
         23    2    4    4    0    0 -0.14037389924E+03 -0.27109363044E+03 -0.15673743449E+03  0.35409226728E+03  0.87281855615E+02 0.  0.
         23    2    4    4    0    0  0.41652477423E+03  0.36436459146E+03  0.19188392264E+03  0.59286043508E+03  0.91703940271E+02 0.  0.
          2    1    3    3  502    0 -0.18448440735E+03 -0.30783499963E+02  0.51153124645E+02  0.19390400354E+03  0.00000000000E+00 0. -1.
         -1    1    3    3    0  502 -0.91666467628E+02 -0.62487461056E+02  0.11898994720E+00  0.11093889415E+03  0.00000000000E+00 0.  1.
         13    1    5    5    0    0 -0.93508845986E+02 -0.95680111627E+02 -0.46266666400E+02  0.14155985468E+03  0.00000000000E+00 0.  1.
        -13    1    5    5    0    0 -0.46865053259E+02 -0.17541351882E+03 -0.11047076809E+03  0.21253241259E+03  0.00000000000E+00 0. -1.
          3    1    6    6  503    0  0.33664212914E+03  0.33327273408E+03  0.14636237472E+03  0.49580296805E+03  0.00000000000E+00 0. -1.
         -3    1    6    6    0  503  0.79882645087E+02  0.31091857385E+02  0.45521547928E+02  0.97057467037E+02  0.00000000000E+00 0.  1.
<mgrwt>
<rscale>  0 0.12488091E+04</rscale>
<asrwt>0</asrwt>
<pdfrwt beam="1">  1        2 0.10293955E+00 0.12488091E+04</pdfrwt>
<pdfrwt beam="2">  1       -1 0.89644385E-01 0.12488091E+04</pdfrwt>
<totfact> 0.59413545E+01</totfact>
</mgrwt>
</event>
<event>
12    7  0.2426980E-007  0.1301055E+04  0.7818608E-02  0.9028729E-01
         -1   -1    0    0    0  501 -0.00000000000E+00  0.00000000000E+00  0.60058945435E+03  0.60058945435E+03  0.00000000000E+00 0.  1.
          2   -1    0    0  501    0  0.00000000000E+00 -0.00000000000E+00 -0.70461757019E+03  0.70461757019E+03  0.00000000000E+00 0. -1.
         24    2    1    2    0    0 -0.58064183416E+02  0.95447220298E+02  0.29199443929E+03  0.32264039785E+03  0.79714819773E+02 0.  0.
        254    2    1    2    0    0  0.58064183416E+02 -0.95447220298E+02 -0.39602255512E+03  0.98256662669E+03  0.89225651607E+03 0.  0.
         23    2    4    4    0    0  0.32760187606E+03  0.15629003239E+02 -0.54552744337E+03  0.64275488338E+03  0.89254656503E+02 0.  0.
         23    2    4    4    0    0 -0.26953769264E+03 -0.11107622354E+03  0.14950488824E+03  0.33981174331E+03  0.90176571734E+02 0.  0.
          4    1    3    3  502    0  0.72658024596E+01 -0.79257528200E+01  0.54079964179E+02  0.55138479928E+02  0.00000000000E+00 0. -1.
         -3    1    3    3    0  502 -0.65329985876E+02  0.10337297312E+03  0.23791447511E+03  0.26750191792E+03  0.00000000000E+00 0.  1.
         13    1    5    5    0    0  0.21093308105E+03 -0.20065528967E+02 -0.40164006361E+03  0.45410365648E+03  0.00000000000E+00 0. -1.
        -13    1    5    5    0    0  0.11666879501E+03  0.35694532206E+02 -0.14388737976E+03  0.18865122690E+03  0.00000000000E+00 0.  1.
          4    1    6    6  503    0 -0.12997253489E+03 -0.98001104629E+02  0.10056189824E+03  0.19133680177E+03  0.00000000000E+00 0.  1.
         -4    1    6    6    0  503 -0.13956515776E+03 -0.13075118909E+02  0.48942990001E+02  0.14847494154E+03  0.00000000000E+00 0. -1.
<mgrwt>
<rscale>  0 0.13010548E+04</rscale>
<asrwt>0</asrwt>
<pdfrwt beam="1">  1        2 0.10840270E+00 0.13010548E+04</pdfrwt>
<pdfrwt beam="2">  1       -1 0.92398378E-01 0.13010548E+04</pdfrwt>
<totfact> 0.51855589E+01</totfact>
</mgrwt>
</event>
<event>
12    7  0.2426980E-007  0.1975540E+04  0.7818608E-02  0.8618143E-01
          2   -1    0    0  501    0  0.00000000000E+00  0.00000000000E+00  0.24103286189E+04  0.24103286189E+04  0.00000000000E+00 0. -1.
         -1   -1    0    0    0  501 -0.00000000000E+00 -0.00000000000E+00 -0.40479512059E+03  0.40479512059E+03  0.00000000000E+00 0.  1.
         24    2    1    2    0    0  0.71077560083E+03 -0.15799353391E+03  0.39689750687E+03  0.83297767113E+03  0.78487312011E+02 0.  0.
        254    2    1    2    0    0 -0.71077560083E+03  0.15799353391E+03  0.16086359914E+04  0.19821460683E+04  0.90057169170E+03 0.  0.
         23    2    4    4    0    0 -0.76795523908E+03 -0.18601618097E+03  0.10508428971E+04  0.13179349035E+04  0.91237856941E+02 0.  0.
         23    2    4    4    0    0  0.57179638255E+02  0.34400971488E+03  0.55779309429E+03  0.66421116487E+03  0.91821242312E+02 0.  0.
          4    1    3    3  502    0  0.30984091415E+03 -0.59497042659E+02  0.21520913672E+03  0.38191132831E+03  0.00000000000E+00 0. -1.
         -3    1    3    3    0  502  0.40093468668E+03 -0.98496491250E+02  0.18168837015E+03  0.45106634281E+03  0.00000000000E+00 0.  1.
         13    1    5    5    0    0 -0.51656115600E+02 -0.35124842013E+02  0.66489425258E+02  0.91230216905E+02  0.00000000000E+00 0. -1.
        -13    1    5    5    0    0 -0.71629912348E+03 -0.15089133896E+03  0.98435347187E+03  0.12267046866E+04  0.00000000000E+00 0.  1.
          1    1    6    6  503    0  0.66110898669E+01  0.24674179527E+01 -0.12279492867E+01  0.71625777505E+01  0.00000000000E+00 0. -1.
         -1    1    6    6    0  503  0.50568548389E+02  0.34154229693E+03  0.55902104357E+03  0.65704858712E+03  0.00000000000E+00 0.  1.
<mgrwt>
<rscale>  0 0.19755397E+04</rscale>
<asrwt>0</asrwt>
<pdfrwt beam="1">  1        2 0.37081978E+00 0.19755397E+04</pdfrwt>
<pdfrwt beam="2">  1       -1 0.62276173E-01 0.19755397E+04</pdfrwt>
<totfact> 0.10873064E+01</totfact>
</mgrwt>
</event>
<event>
12    7  0.2426980E-007  0.2091696E+04  0.7818608E-02  0.8564910E-01
          2   -1    0    0  501    0  0.00000000000E+00  0.00000000000E+00  0.18124813856E+04  0.18124813856E+04  0.00000000000E+00 0. -1.
         -3   -1    0    0    0  501 -0.00000000000E+00 -0.00000000000E+00 -0.60348120312E+03  0.60348120312E+03  0.00000000000E+00 0.  1.
         24    2    1    2    0    0 -0.78386482656E+03 -0.31726356834E+03  0.39619814943E+03  0.93740977776E+03  0.81632589831E+02 0.  0.
        254    2    1    2    0    0  0.78386482656E+03  0.31726356834E+03  0.81280203306E+03  0.14785528110E+04  0.90020610513E+03 0.  0.
         23    2    4    4    0    0 -0.10833400481E+03  0.60957058441E+02 -0.91736599695E+02  0.17910267188E+03  0.90609843718E+02 0.  0.
         23    2    4    4    0    0  0.89219883137E+03  0.25630650990E+03  0.90453863275E+03  0.12994501391E+04  0.93106090462E+02 0.  0.
          2    1    3    3  502    0 -0.35584313594E+03 -0.10087668659E+03  0.16569164776E+03  0.40528282153E+03  0.00000000000E+00 0. -1.
         -1    1    3    3    0  502 -0.42802169062E+03 -0.21638688175E+03  0.23050650167E+03  0.53212695623E+03  0.00000000000E+00 0.  1.
         13    1    5    5    0    0 -0.93210523850E+02  0.84020260393E+02 -0.81759769941E+02  0.14977404947E+03  0.00000000000E+00 0.  1.
        -13    1    5    5    0    0 -0.15123480960E+02 -0.23063201952E+02 -0.99768297542E+01  0.29328622412E+02  0.00000000000E+00 0. -1.
          3    1    6    6  503    0  0.33906170044E+02  0.19662439778E+02  0.63970726517E+02  0.75023288092E+02  0.00000000000E+00 0. -1.
         -3    1    6    6    0  503  0.85829266133E+03  0.23664407012E+03  0.84056790623E+03  0.12244268510E+04  0.00000000000E+00 0.  1.
<mgrwt>
<rscale>  0 0.20916964E+04</rscale>
<asrwt>0</asrwt>
<pdfrwt beam="1">  1        2 0.27884329E+00 0.20916964E+04</pdfrwt>
<pdfrwt beam="2">  1       -3 0.92843263E-01 0.20916964E+04</pdfrwt>
<totfact> 0.51844606E+00</totfact>
</mgrwt>
</event>
<event>
12    7  0.2426980E-007  0.2773335E+04  0.7818608E-02  0.8311595E-01
         -1   -1    0    0    0  501 -0.00000000000E+00  0.00000000000E+00  0.19473098578E+04  0.19473098578E+04  0.00000000000E+00 0.  1.
          2   -1    0    0  501    0  0.00000000000E+00 -0.00000000000E+00 -0.98743735561E+03  0.98743735561E+03  0.00000000000E+00 0. -1.
         24    2    1    2    0    0  0.10340480622E+04  0.68014367732E+03  0.40976190036E+03  0.13061537356E+04  0.79258749595E+02 0.  0.
        254    2    1    2    0    0 -0.10340480622E+04 -0.68014367732E+03  0.55011060188E+03  0.16285934779E+04  0.90434740294E+03 0.  0.
         23    2    4    4    0    0 -0.61602727256E+03 -0.25977690372E+03 -0.16587850667E+03  0.69484564735E+03  0.91220361894E+02 0.  0.
         23    2    4    4    0    0 -0.41802078959E+03 -0.42036677361E+03  0.71598910854E+03  0.93374783051E+03  0.88289311629E+02 0.  0.
          4    1    3    3  502    0  0.32813078775E+03  0.18348001102E+03  0.98735493672E+02  0.38869451504E+03  0.00000000000E+00 0. -1.
         -3    1    3    3    0  502  0.70591727440E+03  0.49666366631E+03  0.31102640668E+03  0.91745922055E+03  0.00000000000E+00 0.  1.
         13    1    5    5    0    0 -0.39545725917E+03 -0.16803634037E+03 -0.15121079070E+03  0.45550780316E+03  0.00000000000E+00 0. -1.
        -13    1    5    5    0    0 -0.22057001339E+03 -0.91740563350E+02 -0.14667715970E+02  0.23933784420E+03  0.00000000000E+00 0.  1.
          2    1    6    6  503    0 -0.39024832445E+03 -0.41641747065E+03  0.67276364033E+03  0.88221776243E+03  0.00000000000E+00 0. -1.
         -2    1    6    6    0  503 -0.27772465140E+02 -0.39493029520E+01  0.43225468214E+02  0.51530068078E+02  0.00000000000E+00 0.  1.
<mgrwt>
<rscale>  0 0.27733348E+04</rscale>
<asrwt>0</asrwt>
<pdfrwt beam="1">  1        2 0.15191344E+00 0.27733348E+04</pdfrwt>
<pdfrwt beam="2">  1       -1 0.29958613E+00 0.27733348E+04</pdfrwt>
<totfact> 0.84763269E-01</totfact>
</mgrwt>
</event>
<event>
12    7  0.2426980E-007  0.2932269E+04  0.7818608E-02  0.8263341E-01
         -1   -1    0    0    0  501 -0.00000000000E+00  0.00000000000E+00  0.10520287105E+04  0.10520287105E+04  0.00000000000E+00 0.  1.
          2   -1    0    0  501    0  0.00000000000E+00 -0.00000000000E+00 -0.20432435413E+04  0.20432435413E+04  0.00000000000E+00 0. -1.
         24    2    1    2    0    0 -0.10574676729E+04 -0.77448103291E+03 -0.22961115407E+03  0.13331338963E+04  0.80411154072E+02 0.  0.
        254    2    1    2    0    0  0.10574676729E+04  0.77448103291E+03 -0.76160367672E+03  0.17621383555E+04  0.89834997290E+03 0.  0.
         23    2    4    4    0    0  0.27318849475E+03  0.10358046991E+03 -0.65221714529E+03  0.72048527080E+03  0.91383551160E+02 0.  0.
         23    2    4    4    0    0  0.78427917818E+03  0.67090056300E+03 -0.10938653143E+03  0.10416530847E+04  0.88737482448E+02 0.  0.
          2    1    3    3  502    0 -0.71033872120E+03 -0.56502839602E+03 -0.16743727392E+03  0.92296989541E+03  0.00000000000E+00 0. -1.
         -1    1    3    3    0  502 -0.34712895173E+03 -0.20945263689E+03 -0.62173880147E+02  0.41016400086E+03  0.00000000000E+00 0.  1.
         13    1    5    5    0    0  0.23576427263E+03  0.57547170139E+02 -0.47169538352E+03  0.53046489411E+03  0.00000000000E+00 0. -1.
        -13    1    5    5    0    0  0.37424222121E+02  0.46033299775E+02 -0.18052176177E+03  0.19002037670E+03  0.00000000000E+00 0.  1.
          4    1    6    6  503    0  0.64742101069E+03  0.57856792942E+03 -0.11844337436E+03  0.87631252813E+03  0.00000000000E+00 0. -1.
         -4    1    6    6    0  503  0.13685816749E+03  0.92332633572E+02  0.90568429262E+01  0.16534055654E+03  0.00000000000E+00 0.  1.
<mgrwt>
<rscale>  0 0.29322693E+04</rscale>
<asrwt>0</asrwt>
<pdfrwt beam="1">  1        2 0.31434516E+00 0.29322693E+04</pdfrwt>
<pdfrwt beam="2">  1       -1 0.16185057E+00 0.29322693E+04</pdfrwt>
<totfact> 0.17512033E+00</totfact>
</mgrwt>
</event>
<event>
12    7  0.2784722E-007  0.2291444E+04  0.7818608E-02  0.8481302E-01
          2   -1    0    0  501    0  0.00000000000E+00  0.00000000000E+00  0.14615599516E+04  0.14615599516E+04  0.00000000000E+00 0. -1.
         -1   -1    0    0    0  501 -0.00000000000E+00 -0.00000000000E+00 -0.89813572030E+03  0.89813572030E+03  0.00000000000E+00 0.  1.
         24    2    1    2    0    0  0.69888745715E+03 -0.20147559960E+03  0.89412596359E+03  0.11553020487E+04  0.78901774844E+02 0.  0.
        254    2    1    2    0    0 -0.69888745715E+03  0.20147559960E+03 -0.33070173229E+03  0.12043936232E+04  0.90120156945E+03 0.  0.
         23    2    4    4    0    0 -0.58557617966E+03  0.49660753750E+03 -0.53907862659E+02  0.77604376407E+03  0.99092671835E+02 0.  0.
         23    2    4    4    0    0 -0.11331127750E+03 -0.29513193790E+03 -0.27679386963E+03  0.42834985909E+03  0.83225291494E+02 0.  0.
          2    1    3    3  502    0  0.41997419427E+03 -0.16089976344E+03  0.55433427845E+03  0.71383019689E+03  0.00000000000E+00 0. -1.
         -1    1    3    3    0  502  0.27891326288E+03 -0.40575836164E+02  0.33979168514E+03  0.44147185186E+03  0.00000000000E+00 0.  1.
         13    1    5    5    0    0 -0.24391790830E+03  0.26877241668E+03 -0.10572378215E+02  0.36310650385E+03  0.00000000000E+00 0.  1.
        -13    1    5    5    0    0 -0.34165827135E+03  0.22783512082E+03 -0.43335484444E+02  0.41293726022E+03  0.00000000000E+00 0. -1.
          4    1    6    6  503    0 -0.13234244082E+02 -0.14707975282E+03 -0.13742491900E+03  0.20172557416E+03  0.00000000000E+00 0. -1.
         -4    1    6    6    0  503 -0.10007703342E+03 -0.14805218508E+03 -0.13936895063E+03  0.22662428494E+03  0.00000000000E+00 0.  1.
<mgrwt>
<rscale>  0 0.22914443E+04</rscale>
<asrwt>0</asrwt>
<pdfrwt beam="1">  1        2 0.22485538E+00 0.22914443E+04</pdfrwt>
<pdfrwt beam="2">  1       -1 0.13817473E+00 0.22914443E+04</pdfrwt>
<totfact> 0.59841465E+00</totfact>
</mgrwt>
</event>
<event>
12    7  0.2426980E-007  0.3165419E+04  0.7818608E-02  0.8198010E-01
          2   -1    0    0  501    0  0.00000000000E+00  0.00000000000E+00  0.10874706156E+04  0.10874706156E+04  0.00000000000E+00 0. -1.
         -1   -1    0    0    0  501 -0.00000000000E+00 -0.00000000000E+00 -0.23034821685E+04  0.23034821685E+04  0.00000000000E+00 0.  1.
         24    2    1    2    0    0  0.10218091666E+04  0.79797280668E+03 -0.12632653751E+04  0.18118275191E+04  0.77620730184E+02 0.  0.
        254    2    1    2    0    0 -0.10218091666E+04 -0.79797280668E+03  0.47253822190E+02  0.15791252650E+04  0.90030500708E+03 0.  0.
         23    2    4    4    0    0 -0.88047459657E+03 -0.28300331776E+03 -0.24921574797E+03  0.96162193944E+03  0.85333887159E+02 0.  0.
         23    2    4    4    0    0 -0.14133457001E+03 -0.51496948892E+03  0.29646957016E+03  0.61750332557E+03  0.90813632579E+02 0.  0.
          4    1    3    3  502    0  0.63599544344E+03  0.54282908298E+03 -0.80269024458E+03  0.11590794822E+04  0.00000000000E+00 0. -1.
         -3    1    3    3    0  502  0.38581372314E+03  0.25514372370E+03 -0.46057513055E+03  0.65274803683E+03  0.00000000000E+00 0.  1.
         13    1    5    5    0    0 -0.77593561764E+03 -0.22981985186E+03 -0.23939726902E+03  0.84392197473E+03  0.00000000000E+00 0.  1.
        -13    1    5    5    0    0 -0.10453897894E+03 -0.53183465899E+02 -0.98184789509E+01  0.11769996471E+03  0.00000000000E+00 0. -1.
          2    1    6    6  503    0 -0.80786082552E+02 -0.34683902181E+03  0.24243678487E+03  0.43081236384E+03  0.00000000000E+00 0. -1.
         -2    1    6    6    0  503 -0.60548487455E+02 -0.16813046711E+03  0.54032785292E+02  0.18669096173E+03  0.00000000000E+00 0.  1.
<mgrwt>
<rscale>  0 0.31654189E+04</rscale>
<asrwt>0</asrwt>
<pdfrwt beam="1">  1        2 0.16730317E+00 0.31654189E+04</pdfrwt>
<pdfrwt beam="2">  1       -1 0.35438187E+00 0.31654189E+04</pdfrwt>
<totfact> 0.30996039E-01</totfact>
</mgrwt>
</event>
<event>
12    7  0.2426980E-007  0.1604376E+04  0.7818608E-02  0.8817864E-01
         -1   -1    0    0    0  501 -0.00000000000E+00  0.00000000000E+00  0.52659990590E+03  0.52659990590E+03  0.00000000000E+00 0.  1.
          2   -1    0    0  501    0  0.00000000000E+00 -0.00000000000E+00 -0.12220005204E+04  0.12220005204E+04  0.00000000000E+00 0. -1.
         24    2    1    2    0    0  0.38116600021E+03 -0.23485460061E+03  0.99216906203E+02  0.46595753904E+03  0.82633108192E+02 0.  0.
        254    2    1    2    0    0 -0.38116600021E+03  0.23485460061E+03 -0.79461752073E+03  0.12826428873E+04  0.90183788395E+03 0.  0.
         23    2    4    4    0    0 -0.38291803425E+03  0.35063853630E+03 -0.56559053494E+02  0.52998376046E+03  0.90056958280E+02 0.  0.
         23    2    4    4    0    0  0.17520340317E+01 -0.11578393569E+03 -0.73805846723E+03  0.75265912683E+03  0.91413733968E+02 0.  0.
          4    1    3    3  502    0  0.99137629891E+02 -0.85635922259E+02 -0.26201684239E+01  0.13102918043E+03  0.00000000000E+00 0. -1.
         -3    1    3    3    0  502  0.28202837032E+03 -0.14921867835E+03  0.10183707463E+03  0.33492835861E+03  0.00000000000E+00 0.  1.
         13    1    5    5    0    0 -0.29166602240E+03  0.30856813309E+03 -0.27995691464E+02  0.42551982342E+03  0.00000000000E+00 0. -1.
        -13    1    5    5    0    0 -0.91252011848E+02  0.42070403202E+02 -0.28563362031E+02  0.10446393704E+03  0.00000000000E+00 0.  1.
          3    1    6    6  503    0 -0.17107768683E+01 -0.20100886571E+02 -0.42042769535E+03  0.42091141517E+03  0.00000000000E+00 0. -1.
         -3    1    6    6    0  503  0.34628109000E+01 -0.95683049117E+02 -0.31763077188E+03  0.33174771166E+03  0.00000000000E+00 0.  1.
<mgrwt>
<rscale>  0 0.16043757E+04</rscale>
<asrwt>0</asrwt>
<pdfrwt beam="1">  1        2 0.18800008E+00 0.16043757E+04</pdfrwt>
<pdfrwt beam="2">  1       -1 0.81015371E-01 0.16043757E+04</pdfrwt>
<totfact> 0.30502405E+01</totfact>
</mgrwt>
</event>
<event>
12    7  0.2426980E-007  0.1199668E+04  0.7818608E-02  0.9113147E-01
          2   -1    0    0  501    0  0.00000000000E+00  0.00000000000E+00  0.71003587041E+03  0.71003587041E+03  0.00000000000E+00 0. -1.
         -1   -1    0    0    0  501 -0.00000000000E+00 -0.00000000000E+00 -0.50673583002E+03  0.50673583002E+03  0.00000000000E+00 0.  1.
         24    2    1    2    0    0 -0.86595648191E+02 -0.33160009142E+02 -0.19610935439E+03  0.23161094497E+03  0.81156382734E+02 0.  0.
        254    2    1    2    0    0  0.86595648191E+02  0.33160009142E+02  0.39940939478E+03  0.98516075546E+03  0.89577645480E+03 0.  0.
         23    2    4    4    0    0 -0.12692184559E+03 -0.22114569389E+03 -0.17055161937E+03  0.31931492945E+03  0.88654365257E+02 0.  0.
         23    2    4    4    0    0  0.21351749379E+03  0.25430570304E+03  0.56996101415E+03  0.66584582601E+03  0.90741366629E+02 0.  0.
          2    1    3    3  502    0  0.99513075151E+01 -0.12179691617E+02 -0.50524007970E+01  0.16519690159E+02  0.00000000000E+00 0. -1.
         -1    1    3    3    0  502 -0.96546955706E+02 -0.20980317525E+02 -0.19105695359E+03  0.21509125481E+03  0.00000000000E+00 0.  1.
         13    1    5    5    0    0 -0.11146517779E+03 -0.15325852560E+03 -0.81531265040E+02  0.20630077244E+03  0.00000000000E+00 0.  1.
        -13    1    5    5    0    0 -0.15456667800E+02 -0.67887168297E+02 -0.89020354333E+02  0.11301415701E+03  0.00000000000E+00 0. -1.
          1    1    6    6  503    0  0.26197662236E+02  0.27589667534E+01  0.78838911494E+02  0.83123422510E+02  0.00000000000E+00 0. -1.
         -1    1    6    6    0  503  0.18731983155E+03  0.25154673628E+03  0.49112210266E+03  0.58272240350E+03  0.00000000000E+00 0.  1.
<mgrwt>
<rscale>  0 0.11996676E+04</rscale>
<asrwt>0</asrwt>
<pdfrwt beam="1">  1        2 0.10923629E+00 0.11996676E+04</pdfrwt>
<pdfrwt beam="2">  1       -1 0.77959358E-01 0.11996676E+04</pdfrwt>
<totfact> 0.74767190E+01</totfact>
</mgrwt>
</event>
<event>
12    7  0.2426980E-007  0.2524064E+04  0.7818608E-02  0.8394463E-01
         -1   -1    0    0    0  501 -0.00000000000E+00  0.00000000000E+00  0.13615521547E+04  0.13615521547E+04  0.00000000000E+00 0.  1.
          2   -1    0    0  501    0  0.00000000000E+00 -0.00000000000E+00 -0.11697857403E+04  0.11697857403E+04  0.00000000000E+00 0. -1.
         24    2    1    2    0    0 -0.65376039218E+03  0.27987450153E+03  0.92520920736E+03  0.11695162276E+04  0.77612770602E+02 0.  0.
        254    2    1    2    0    0  0.65376039218E+03 -0.27987450153E+03 -0.73344279291E+03  0.13618216674E+04  0.90049294078E+03 0.  0.
         23    2    4    4    0    0 -0.20949740938E+03 -0.14132820932E+03 -0.17870265435E+03  0.32266470160E+03  0.91186861435E+02 0.  0.
         23    2    4    4    0    0  0.86325780156E+03 -0.13854629221E+03 -0.55474013856E+03  0.10391569658E+04  0.87758026663E+02 0.  0.
          4    1    3    3  502    0 -0.52312579257E+03  0.25169121360E+03  0.72459457712E+03  0.92846451900E+03  0.00000000000E+00 0. -1.
         -3    1    3    3    0  502 -0.13063459961E+03  0.28183287933E+02  0.20061463024E+03  0.24105170856E+03  0.00000000000E+00 0.  1.
         13    1    5    5    0    0 -0.16741736703E+03 -0.63978417379E+02 -0.10416315584E+03  0.20729634755E+03  0.00000000000E+00 0. -1.
        -13    1    5    5    0    0 -0.42080042353E+02 -0.77349791941E+02 -0.74539498504E+02  0.11536835404E+03  0.00000000000E+00 0.  1.
          1    1    6    6  503    0  0.60445712168E+03 -0.10977400110E+03 -0.43368639218E+03  0.75199908911E+03  0.00000000000E+00 0. -1.
         -1    1    6    6    0  503  0.25880067988E+03 -0.28772291114E+02 -0.12105374639E+03  0.28715787671E+03  0.00000000000E+00 0.  1.
<mgrwt>
<rscale>  0 0.25240636E+04</rscale>
<asrwt>0</asrwt>
<pdfrwt beam="1">  1        2 0.17996704E+00 0.25240636E+04</pdfrwt>
<pdfrwt beam="2">  1       -1 0.20946956E+00 0.25240636E+04</pdfrwt>
<totfact> 0.25972586E+00</totfact>
</mgrwt>
</event>
<event>
12    7  0.2426980E-007  0.2582953E+04  0.7818608E-02  0.8374015E-01
          2   -1    0    0  501    0  0.00000000000E+00  0.00000000000E+00  0.24863994654E+04  0.24863994654E+04  0.00000000000E+00 0. -1.
         -1   -1    0    0    0  501 -0.00000000000E+00 -0.00000000000E+00 -0.67081398464E+03  0.67081398464E+03  0.00000000000E+00 0.  1.
         24    2    1    2    0    0 -0.78779220903E+03 -0.70357364549E+03  0.29767882311E+03  0.11002998509E+04  0.80091453162E+02 0.  0.
        254    2    1    2    0    0  0.78779220903E+03  0.70357364549E+03  0.15179066576E+04  0.20569135991E+04  0.90067779691E+03 0.  0.
         23    2    4    4    0    0  0.28666241761E+03 -0.75664291225E+02  0.42962100030E+02  0.31267648052E+03  0.89556757409E+02 0.  0.
         23    2    4    4    0    0  0.50112979142E+03  0.77923793672E+03  0.14749445576E+04  0.17442371186E+04  0.92514042842E+02 0.  0.
          4    1    3    3  502    0 -0.47639297979E+03 -0.37231929837E+03  0.16953339071E+03  0.62794386827E+03  0.00000000000E+00 0. -1.
         -3    1    3    3    0  502 -0.31139922923E+03 -0.33125434712E+03  0.12814543239E+03  0.47235598260E+03  0.00000000000E+00 0.  1.
         13    1    5    5    0    0  0.26519161397E+03 -0.94039616142E+02  0.36999465509E+02  0.28379394281E+03  0.00000000000E+00 0.  1.
        -13    1    5    5    0    0  0.21470803637E+02  0.18375324917E+02  0.59626345211E+01  0.28882537718E+02  0.00000000000E+00 0. -1.
          4    1    6    6  503    0  0.33146001381E+03  0.49790772276E+03  0.86898995417E+03  0.10549508906E+04  0.00000000000E+00 0.  1.
         -4    1    6    6    0  503  0.16966977761E+03  0.28133021395E+03  0.60595460342E+03  0.68928622801E+03  0.00000000000E+00 0. -1.
<mgrwt>
<rscale>  0 0.25829530E+04</rscale>
<asrwt>0</asrwt>
<pdfrwt beam="1">  1        2 0.38252299E+00 0.25829530E+04</pdfrwt>
<pdfrwt beam="2">  1       -1 0.10320215E+00 0.25829530E+04</pdfrwt>
<totfact> 0.31641238E+00</totfact>
</mgrwt>
</event>
<event>
12    7  0.2426980E-007  0.3935360E+04  0.7818608E-02  0.8017715E-01
          2   -1    0    0  501    0  0.00000000000E+00  0.00000000000E+00  0.27916657616E+04  0.27916657616E+04  0.00000000000E+00 0. -1.
         -1   -1    0    0    0  501 -0.00000000000E+00 -0.00000000000E+00 -0.13869010157E+04  0.13869010157E+04  0.00000000000E+00 0.  1.
         24    2    1    2    0    0  0.21961730891E+03 -0.28507338859E+03  0.26081060806E+04  0.26340313771E+04  0.80033547934E+02 0.  0.
        254    2    1    2    0    0 -0.21961730891E+03  0.28507338859E+03 -0.12033413347E+04  0.15445354001E+04  0.89892192948E+03 0.  0.
         23    2    4    4    0    0  0.13988645059E+03 -0.25980989391E+03 -0.33525075204E+03  0.45457976275E+03  0.84736615044E+02 0.  0.
         23    2    4    4    0    0 -0.35950375951E+03  0.54488328250E+03 -0.86809058261E+03  0.10899556374E+04  0.91001577808E+02 0.  0.
          4    1    3    3  502    0  0.72014995962E+02 -0.61072592836E+02  0.90722690447E+03  0.91212755546E+03  0.00000000000E+00 0. -1.
         -3    1    3    3    0  502  0.14760231295E+03 -0.22400079576E+03  0.17008791761E+04  0.17219038217E+04  0.00000000000E+00 0.  1.
         13    1    5    5    0    0  0.24046564945E+02 -0.64503621561E+02 -0.13621378837E+03  0.15262093769E+03  0.00000000000E+00 0.  1.
        -13    1    5    5    0    0  0.11583988565E+03 -0.19530627235E+03 -0.19903696367E+03  0.30195882506E+03  0.00000000000E+00 0. -1.
          3    1    6    6  503    0 -0.20702619176E+03  0.34849622669E+03 -0.60233335637E+03  0.72602681513E+03  0.00000000000E+00 0. -1.
         -3    1    6    6    0  503 -0.15247756775E+03  0.19638705581E+03 -0.26575722624E+03  0.36392882224E+03  0.00000000000E+00 0.  1.
<mgrwt>
<rscale>  0 0.39353597E+04</rscale>
<asrwt>0</asrwt>
<pdfrwt beam="1">  1        2 0.42948704E+00 0.39353597E+04</pdfrwt>
<pdfrwt beam="2">  1       -1 0.21336939E+00 0.39353597E+04</pdfrwt>
<totfact> 0.25697287E-01</totfact>
</mgrwt>
</event>
<event>
12    7  0.2426980E-007  0.3052978E+04  0.7818608E-02  0.8228762E-01
         -1   -1    0    0    0  501 -0.00000000000E+00  0.00000000000E+00  0.12843376749E+04  0.12843376749E+04  0.00000000000E+00 0.  1.
          2   -1    0    0  501    0  0.00000000000E+00 -0.00000000000E+00 -0.18142961316E+04  0.18142961316E+04  0.00000000000E+00 0. -1.
         24    2    1    2    0    0  0.42844547579E+03  0.89676543300E+03 -0.12342187079E+04  0.15866615335E+04  0.80282223763E+02 0.  0.
        254    2    1    2    0    0 -0.42844547579E+03 -0.89676543300E+03  0.70426025122E+03  0.15119722730E+04  0.89572534031E+03 0.  0.
         23    2    4    4    0    0 -0.47770402800E+03 -0.19821206427E+03  0.14757497494E+02  0.52498533206E+03  0.88896874851E+02 0.  0.
         23    2    4    4    0    0  0.49258552210E+02 -0.69855336873E+03  0.68950275373E+03  0.98698694092E+03  0.91246699818E+02 0.  0.
          2    1    3    3  502    0  0.30565591207E+03  0.56930747562E+03 -0.83754142192E+03  0.10578337165E+04  0.00000000000E+00 0. -1.
         -1    1    3    3    0  502  0.12278956372E+03  0.32745795738E+03 -0.39667728595E+03  0.52882781697E+03  0.00000000000E+00 0.  1.
         13    1    5    5    0    0 -0.25229971380E+03 -0.89338822280E+02 -0.34499244632E+02  0.26986435227E+03  0.00000000000E+00 0. -1.
        -13    1    5    5    0    0 -0.22540431420E+03 -0.10887324199E+03  0.49256742126E+02  0.25512097979E+03  0.00000000000E+00 0.  1.
          1    1    6    6  503    0  0.78612241359E+01 -0.46714757861E+03  0.50644861356E+03  0.68904198509E+03  0.00000000000E+00 0. -1.
         -1    1    6    6    0  503  0.41397328074E+02 -0.23140579011E+03  0.18305414017E+03  0.29794495583E+03  0.00000000000E+00 0.  1.
<mgrwt>
<rscale>  0 0.30529781E+04</rscale>
<asrwt>0</asrwt>
<pdfrwt beam="1">  1        2 0.27912248E+00 0.30529781E+04</pdfrwt>
<pdfrwt beam="2">  1       -1 0.19759041E+00 0.30529781E+04</pdfrwt>
<totfact> 0.12851650E+00</totfact>
</mgrwt>
</event>
<event>
12    7  0.2426980E-007  0.2703520E+04  0.7818608E-02  0.8333864E-01
         -1   -1    0    0    0  501 -0.00000000000E+00  0.00000000000E+00  0.46473718763E+03  0.46473718763E+03  0.00000000000E+00 0.  1.
          2   -1    0    0  501    0  0.00000000000E+00 -0.00000000000E+00 -0.39318035867E+04  0.39318035867E+04  0.00000000000E+00 0. -1.
         24    2    1    2    0    0 -0.22226910942E+03  0.11275696119E+04 -0.21156775874E+04  0.24089396228E+04  0.77985036477E+02 0.  0.
        254    2    1    2    0    0  0.22226910942E+03 -0.11275696119E+04 -0.13513888117E+04  0.19876011515E+04  0.89637594254E+03 0.  0.
         23    2    4    4    0    0  0.47021765867E+03 -0.89736146712E+03 -0.12709025809E+04  0.16280308286E+04  0.94492114157E+02 0.  0.
         23    2    4    4    0    0 -0.24794854925E+03 -0.23020814481E+03 -0.80486230798E+02  0.35957032288E+03  0.91315446329E+02 0.  0.
          4    1    3    3  502    0 -0.43067864633E+02  0.10612066124E+03 -0.19351808046E+03  0.22486814619E+03  0.00000000000E+00 0. -1.
         -3    1    3    3    0  502 -0.17920124479E+03  0.10214489507E+04 -0.19221595069E+04  0.21840714766E+04  0.00000000000E+00 0.  1.
         13    1    5    5    0    0  0.13786280799E+03 -0.19162598698E+03 -0.33156331103E+03  0.40701462128E+03  0.00000000000E+00 0. -1.
        -13    1    5    5    0    0  0.33235485068E+03 -0.70573548014E+03 -0.93933926986E+03  0.12210162073E+04  0.00000000000E+00 0.  1.
          1    1    6    6  503    0 -0.10883205022E+03 -0.14579093951E+03 -0.74904694435E+02  0.19674889186E+03  0.00000000000E+00 0. -1.
         -1    1    6    6    0  503 -0.13911649903E+03 -0.84417205292E+02 -0.55815363634E+01  0.16282143102E+03  0.00000000000E+00 0.  1.
<mgrwt>
<rscale>  0 0.27035202E+04</rscale>
<asrwt>0</asrwt>
<pdfrwt beam="1">  1        2 0.60489284E+00 0.27035202E+04</pdfrwt>
<pdfrwt beam="2">  1       -1 0.71498031E-01 0.27035202E+04</pdfrwt>
<totfact> 0.76497212E-01</totfact>
</mgrwt>
</event>
<event>
12    7  0.2426980E-007  0.2241856E+04  0.7818608E-02  0.8501206E-01
         -1   -1    0    0    0  501 -0.00000000000E+00  0.00000000000E+00  0.72828474458E+03  0.72828474458E+03  0.00000000000E+00 0.  1.
          2   -1    0    0  501    0  0.00000000000E+00 -0.00000000000E+00 -0.17252586762E+04  0.17252586762E+04  0.00000000000E+00 0. -1.
         24    2    1    2    0    0 -0.31452265923E+03 -0.87527887016E+03 -0.28651527107E+03  0.97722160658E+03  0.88506859071E+02 0.  0.
        254    2    1    2    0    0  0.31452265923E+03  0.87527887016E+03 -0.71045866053E+03  0.14763218142E+04  0.89985386977E+03 0.  0.
         23    2    4    4    0    0 -0.10712836048E+03 -0.13108278974E+03 -0.55160325451E+02  0.20067811792E+03  0.92573549798E+02 0.  0.
         23    2    4    4    0    0  0.42165101971E+03  0.10063616599E+04 -0.65529833508E+03  0.12756436962E+04  0.85425750662E+02 0.  0.
          4    1    3    3  502    0 -0.26399134595E+03 -0.63297782146E+03 -0.22974200393E+03  0.72327985011E+03  0.00000000000E+00 0. -1.
         -3    1    3    3    0  502 -0.50531313284E+02 -0.24230104870E+03 -0.56773267132E+02  0.25394175648E+03  0.00000000000E+00 0.  1.
         13    1    5    5    0    0 -0.64466699304E+01 -0.35613672189E+02 -0.50141285770E+02  0.61838836815E+02  0.00000000000E+00 0. -1.
        -13    1    5    5    0    0 -0.10068169055E+03 -0.95469117550E+02 -0.50190396811E+01  0.13883928110E+03  0.00000000000E+00 0.  1.
          3    1    6    6  503    0  0.98708732127E+02  0.22583906904E+03 -0.10764283098E+03  0.26894921075E+03  0.00000000000E+00 0. -1.
         -3    1    6    6    0  503  0.32294228759E+03  0.78052259086E+03 -0.54765550410E+03  0.10066944855E+04  0.00000000000E+00 0.  1.
<mgrwt>
<rscale>  0 0.22418560E+04</rscale>
<asrwt>0</asrwt>
<pdfrwt beam="1">  1        2 0.26542441E+00 0.22418560E+04</pdfrwt>
<pdfrwt beam="2">  1       -1 0.11204381E+00 0.22418560E+04</pdfrwt>
<totfact> 0.71941954E+00</totfact>
</mgrwt>
</event>
<event>
12    7  0.2426980E-007  0.2089094E+04  0.7818608E-02  0.8566063E-01
         -1   -1    0    0    0  501 -0.00000000000E+00  0.00000000000E+00  0.68213729642E+03  0.68213729642E+03  0.00000000000E+00 0.  1.
          2   -1    0    0  501    0  0.00000000000E+00 -0.00000000000E+00 -0.15994993926E+04  0.15994993926E+04  0.00000000000E+00 0. -1.
         24    2    1    2    0    0 -0.74863794137E+03  0.28073650800E+03 -0.62099837103E+02  0.80594686512E+03  0.80138663906E+02 0.  0.
        254    2    1    2    0    0  0.74863794137E+03 -0.28073650800E+03 -0.85526225913E+03  0.14756898239E+04  0.89828457096E+03 0.  0.
         23    2    4    4    0    0  0.78907691996E+03 -0.47088714917E+03 -0.47377951742E+03  0.10379076668E+04  0.91696242194E+02 0.  0.
         23    2    4    4    0    0 -0.40438978591E+02  0.19015064117E+03 -0.38148274170E+03  0.43778215713E+03  0.91277366071E+02 0.  0.
          4    1    3    3  502    0 -0.34172336035E+03  0.10769055301E+03 -0.62870694297E+02  0.36376480646E+03  0.00000000000E+00 0. -1.
         -1    1    3    3    0  502 -0.40691458102E+03  0.17304595499E+03  0.77085719393E+00  0.44218205866E+03  0.00000000000E+00 0.  1.
         13    1    5    5    0    0  0.52867380001E+03 -0.30224387763E+03 -0.36021988530E+03  0.70753495613E+03  0.00000000000E+00 0.  1.
        -13    1    5    5    0    0  0.26040311995E+03 -0.16864327153E+03 -0.11355963212E+03  0.33037271068E+03  0.00000000000E+00 0. -1.
          4    1    6    6  503    0 -0.18509155927E+02  0.74137011345E+02 -0.66140967134E+02  0.10106192576E+03  0.00000000000E+00 0.  1.
         -4    1    6    6    0  503 -0.21929822664E+02  0.11601362983E+03 -0.31534177457E+03  0.33672023137E+03  0.00000000000E+00 0. -1.
<mgrwt>
<rscale>  0 0.20890938E+04</rscale>
<asrwt>0</asrwt>
<pdfrwt beam="1">  1        2 0.24607683E+00 0.20890938E+04</pdfrwt>
<pdfrwt beam="2">  1       -1 0.10494420E+00 0.20890938E+04</pdfrwt>
<totfact> 0.99939841E+00</totfact>
</mgrwt>
</event>
<event>
12    7  0.2426980E-007  0.1895931E+04  0.7818608E-02  0.8656884E-01
          2   -1    0    0  501    0  0.00000000000E+00  0.00000000000E+00  0.58389144351E+03  0.58389144351E+03  0.00000000000E+00 0. -1.
         -1   -1    0    0    0  501 -0.00000000000E+00 -0.00000000000E+00 -0.15390515514E+04  0.15390515514E+04  0.00000000000E+00 0.  1.
         24    2    1    2    0    0  0.26141543908E+03  0.46508113653E+03  0.18868557673E+03  0.57266742659E+03  0.87790883745E+02 0.  0.
        254    2    1    2    0    0 -0.26141543908E+03 -0.46508113653E+03 -0.11438456846E+04  0.15502755683E+04  0.90018492110E+03 0.  0.
         23    2    4    4    0    0 -0.55593915401E+03 -0.38298806378E+03 -0.54594811264E+03  0.87295374657E+03  0.90778312317E+02 0.  0.
         23    2    4    4    0    0  0.29452371493E+03 -0.82093072747E+02 -0.59789757198E+03  0.67732182176E+03  0.88316773059E+02 0.  0.
          2    1    3    3  502    0  0.25047116712E+03  0.38614051110E+03  0.17124533759E+03  0.49108580260E+03  0.00000000000E+00 0. -1.
         -1    1    3    3    0  502  0.10944271964E+02  0.78940625425E+02  0.17440239140E+02  0.81581623988E+02  0.00000000000E+00 0.  1.
         13    1    5    5    0    0 -0.43768654832E+03 -0.25716829741E+03 -0.42605583766E+03  0.66274325691E+03  0.00000000000E+00 0.  1.
        -13    1    5    5    0    0 -0.11825260569E+03 -0.12581976637E+03 -0.11989227498E+03  0.21021048965E+03  0.00000000000E+00 0. -1.
          2    1    6    6  503    0  0.12700311395E+03 -0.54701203096E+02 -0.35507226752E+03  0.38104898338E+03  0.00000000000E+00 0. -1.
         -2    1    6    6    0  503  0.16752060098E+03 -0.27391869651E+02 -0.24282530447E+03  0.29627283839E+03  0.00000000000E+00 0.  1.
<mgrwt>
<rscale>  0 0.18959315E+04</rscale>
<asrwt>0</asrwt>
<pdfrwt beam="1">  1        2 0.89829454E-01 0.18959315E+04</pdfrwt>
<pdfrwt beam="2">  1       -1 0.23677716E+00 0.18959315E+04</pdfrwt>
<totfact> 0.46688973E+00</totfact>
</mgrwt>
</event>
<event>
12    7  0.2426980E-007  0.1630201E+04  0.7818608E-02  0.8802206E-01
         -1   -1    0    0    0  501 -0.00000000000E+00  0.00000000000E+00  0.67531352064E+03  0.67531352064E+03  0.00000000000E+00 0.  1.
          2   -1    0    0  501    0  0.00000000000E+00 -0.00000000000E+00 -0.98382261473E+03  0.98382261473E+03  0.00000000000E+00 0. -1.
         24    2    1    2    0    0 -0.32351459826E+03  0.40023936464E+03 -0.33990133239E+03  0.62206656459E+03  0.81121210126E+02 0.  0.
        254    2    1    2    0    0  0.32351459826E+03 -0.40023936464E+03  0.31392238302E+02  0.10370695708E+04  0.89981919168E+03 0.  0.
         23    2    4    4    0    0  0.50882176232E+03 -0.90942289879E+01 -0.17894098130E+03  0.54725601307E+03  0.92124797109E+02 0.  0.
         23    2    4    4    0    0 -0.18530716407E+03 -0.39114513565E+03  0.21033321960E+03  0.48981355770E+03  0.91345475241E+02 0.  0.
          4    1    3    3  502    0 -0.92079349315E+02  0.61856588403E+02 -0.77622284363E+02  0.13538856351E+03  0.00000000000E+00 0. -1.
         -3    1    3    3    0  502 -0.23143524894E+03  0.33838277623E+03 -0.26227904803E+03  0.48667800108E+03  0.00000000000E+00 0.  1.
         13    1    5    5    0    0  0.42995797517E+03 -0.39089771027E+02 -0.13641976825E+03  0.45277171265E+03  0.00000000000E+00 0.  1.
        -13    1    5    5    0    0  0.78863787155E+02  0.29995542039E+02 -0.42521213050E+02  0.94484300420E+02  0.00000000000E+00 0. -1.
          4    1    6    6  503    0 -0.12984142316E+02 -0.92331692328E+02  0.18294611594E+02  0.95018009731E+02  0.00000000000E+00 0. -1.
         -4    1    6    6    0  503 -0.17232302175E+03 -0.29881344332E+03  0.19203860800E+03  0.39479554797E+03  0.00000000000E+00 0.  1.
<mgrwt>
<rscale>  0 0.16302009E+04</rscale>
<asrwt>0</asrwt>
<pdfrwt beam="1">  1        2 0.15135732E+00 0.16302009E+04</pdfrwt>
<pdfrwt beam="2">  1       -1 0.10389439E+00 0.16302009E+04</pdfrwt>
<totfact> 0.24582618E+01</totfact>
</mgrwt>
</event>
<event>
12    7  0.2426980E-007  0.1366854E+04  0.7818608E-02  0.8978167E-01
         -1   -1    0    0    0  501 -0.00000000000E+00  0.00000000000E+00  0.10818035700E+03  0.10818035700E+03  0.00000000000E+00 0.  1.
          2   -1    0    0  501    0  0.00000000000E+00 -0.00000000000E+00 -0.43175356776E+04  0.43175356776E+04  0.00000000000E+00 0. -1.
         24    2    1    2    0    0  0.28756995905E+03 -0.86265838602E+02 -0.19659773832E+04  0.19903938910E+04  0.80389636144E+02 0.  0.
        254    2    1    2    0    0 -0.28756995905E+03  0.86265838602E+02 -0.22433779373E+04  0.24353221436E+04  0.89883874923E+03 0.  0.
         23    2    4    4    0    0 -0.34138680862E+03  0.42099583336E+03 -0.17238124591E+04  0.18092229299E+04  0.89307173630E+02 0.  0.
         23    2    4    4    0    0  0.53816849561E+02 -0.33472999475E+03 -0.51956547822E+03  0.62609921365E+03  0.84329807813E+02 0.  0.
          4    1    3    3  502    0  0.19957387003E+03 -0.50948748392E+02 -0.15572190399E+04  0.15707821754E+04  0.00000000000E+00 0. -1.
         -3    1    3    3    0  502  0.87996089019E+02 -0.35317090210E+02 -0.40875834337E+03  0.41961171554E+03  0.00000000000E+00 0.  1.
         13    1    5    5    0    0 -0.14245095633E+03  0.18155485912E+03 -0.88218679536E+03  0.91187059594E+03  0.00000000000E+00 0.  1.
        -13    1    5    5    0    0 -0.19893585228E+03  0.23944097424E+03 -0.84162566375E+03  0.89735233401E+03  0.00000000000E+00 0. -1.
          2    1    6    6  503    0  0.76884554274E+02 -0.25161336186E+03 -0.39241730324E+03  0.47245302247E+03  0.00000000000E+00 0. -1.
         -2    1    6    6    0  503 -0.23067704713E+02 -0.83116632890E+02 -0.12714817498E+03  0.15364619118E+03  0.00000000000E+00 0.  1.
<mgrwt>
<rscale>  0 0.13668541E+04</rscale>
<asrwt>0</asrwt>
<pdfrwt beam="1">  1        2 0.66423619E+00 0.13668541E+04</pdfrwt>
<pdfrwt beam="2">  1       -1 0.16643134E-01 0.13668541E+04</pdfrwt>
<totfact> 0.58605360E+00</totfact>
</mgrwt>
</event>
<event>
12    7  0.2426980E-007  0.1344354E+04  0.7818608E-02  0.8995113E-01
         -1   -1    0    0    0  501 -0.00000000000E+00  0.00000000000E+00  0.81863529599E+03  0.81863529599E+03  0.00000000000E+00 0.  1.
          2   -1    0    0  501    0  0.00000000000E+00 -0.00000000000E+00 -0.55192091481E+03  0.55192091481E+03  0.00000000000E+00 0. -1.
         24    2    1    2    0    0 -0.22984447253E+03  0.25732898033E+03  0.19298683994E+03  0.40337479193E+03  0.80128750776E+02 0.  0.
        254    2    1    2    0    0  0.22984447253E+03 -0.25732898033E+03  0.73727541233E+02  0.96718141887E+03  0.90053176568E+03 0.  0.
         23    2    4    4    0    0  0.44319348737E+03  0.16462092716E+03  0.59140148927E+02  0.48526977517E+03  0.92025434347E+02 0.  0.
         23    2    4    4    0    0 -0.21334901484E+03 -0.42194990749E+03  0.14587392305E+02  0.48191164370E+03  0.92013660694E+02 0.  0.
          4    1    3    3  502    0 -0.36104908713E+02  0.52630306402E+02  0.38304403611E+01  0.63938922876E+02  0.00000000000E+00 0. -1.
         -3    1    3    3    0  502 -0.19373956382E+03  0.20469867393E+03  0.18915639958E+03  0.33943586905E+03  0.00000000000E+00 0.  1.
         13    1    5    5    0    0  0.29086879412E+03  0.10920159147E+03 -0.55580771704E+01  0.31074191091E+03  0.00000000000E+00 0. -1.
        -13    1    5    5    0    0  0.15232469325E+03  0.55419335693E+02  0.64698226098E+02  0.17452786426E+03  0.00000000000E+00 0.  1.
          1    1    6    6  503    0 -0.21828603687E+03 -0.38421041596E+03  0.24541138237E+02  0.44257056510E+03  0.00000000000E+00 0. -1.
         -1    1    6    6    0  503  0.49370220306E+01 -0.37739491526E+02 -0.99537459316E+01  0.39341078598E+02  0.00000000000E+00 0.  1.
<mgrwt>
<rscale>  0 0.13443540E+04</rscale>
<asrwt>0</asrwt>
<pdfrwt beam="1">  1        2 0.84910910E-01 0.13443540E+04</pdfrwt>
<pdfrwt beam="2">  1       -1 0.12594389E+00 0.13443540E+04</pdfrwt>
<totfact> 0.33644768E+01</totfact>
</mgrwt>
</event>
<event>
12    7  0.2426980E-007  0.1383334E+04  0.7818608E-02  0.8965972E-01
          2   -1    0    0  501    0  0.00000000000E+00  0.00000000000E+00  0.40704798949E+04  0.40704798949E+04  0.00000000000E+00 0. -1.
         -1   -1    0    0    0  501 -0.00000000000E+00 -0.00000000000E+00 -0.11752985196E+03  0.11752985196E+03  0.00000000000E+00 0.  1.
         24    2    1    2    0    0 -0.18547682358E+03 -0.33133673059E+03  0.14553549889E+04  0.15062314260E+04  0.80556091924E+02 0.  0.
        254    2    1    2    0    0  0.18547682358E+03  0.33133673059E+03  0.24975950541E+04  0.26817783208E+04  0.89987122800E+03 0.  0.
         23    2    4    4    0    0  0.27640538187E+03  0.22356228574E+03  0.24853473673E+04  0.25122931552E+04  0.91023791868E+02 0.  0.
         23    2    4    4    0    0 -0.90928558295E+02  0.10777444484E+03  0.12247686725E+02  0.16948516563E+03  0.93230262602E+02 0.  0.
          4    1    3    3  502    0 -0.11958890742E+03 -0.14257952610E+03  0.78099299858E+03  0.80285770338E+03  0.00000000000E+00 0. -1.
         -3    1    3    3    0  502 -0.65887916165E+02 -0.18875720449E+03  0.67436199032E+03  0.70337372266E+03  0.00000000000E+00 0.  1.
         13    1    5    5    0    0  0.27639681274E+03  0.22374895698E+03  0.24861577243E+04  0.25114615315E+04  0.00000000000E+00 0.  1.
        -13    1    5    5    0    0  0.85691368772E-02 -0.18667123436E+00 -0.81035699613E+00  0.83162373765E+00  0.00000000000E+00 0. -1.
          1    1    6    6  503    0 -0.32184272506E+02  0.69821134433E+02  0.48306729104E+02  0.90798448703E+02  0.00000000000E+00 0. -1.
         -1    1    6    6    0  503 -0.58744285789E+02  0.37953310409E+02 -0.36059042378E+02  0.78686716930E+02  0.00000000000E+00 0.  1.
<mgrwt>
<rscale>  0 0.13833335E+04</rscale>
<asrwt>0</asrwt>
<pdfrwt beam="1">  1        2 0.62622757E+00 0.13833335E+04</pdfrwt>
<pdfrwt beam="2">  1       -1 0.18081519E-01 0.13833335E+04</pdfrwt>
<totfact> 0.82956032E+00</totfact>
</mgrwt>
</event>
<event>
12    7  0.2426980E-007  0.2410021E+04  0.7818608E-02  0.8435761E-01
         -1   -1    0    0    0  501 -0.00000000000E+00  0.00000000000E+00  0.39902071707E+03  0.39902071707E+03  0.00000000000E+00 0.  1.
          2   -1    0    0  501    0  0.00000000000E+00 -0.00000000000E+00 -0.36390357102E+04  0.36390357102E+04  0.00000000000E+00 0. -1.
         24    2    1    2    0    0  0.43866746665E+03  0.92520971197E+03 -0.16529084053E+04  0.19459584609E+04  0.78778030426E+02 0.  0.
        254    2    1    2    0    0 -0.43866746665E+03 -0.92520971197E+03 -0.15871065879E+04  0.20920979663E+04  0.89973575124E+03 0.  0.
         23    2    4    4    0    0 -0.30618468507E+03 -0.84990097370E+03 -0.59805348273E+03  0.10871834543E+04  0.90659631074E+02 0.  0.
         23    2    4    4    0    0 -0.13248278158E+03 -0.75308738272E+02 -0.98905310513E+03  0.10049145120E+04  0.91673541286E+02 0.  0.
          2    1    3    3  502    0  0.13673087475E+03  0.25910738402E+03 -0.53775079920E+03  0.61237887831E+03  0.00000000000E+00 0. -1.
         -1    1    3    3    0  502  0.30193659190E+03  0.66610232795E+03 -0.11151576061E+04  0.13335795826E+04  0.00000000000E+00 0.  1.
         13    1    5    5    0    0 -0.15849576459E+03 -0.47927102123E+03 -0.38521647862E+03  0.63499083031E+03  0.00000000000E+00 0.  1.
        -13    1    5    5    0    0 -0.14768892048E+03 -0.37062995247E+03 -0.21283700412E+03  0.45219262403E+03  0.00000000000E+00 0. -1.
          4    1    6    6  503    0 -0.99075617835E+02 -0.51941792454E+02 -0.90056949975E+03  0.90749068961E+03  0.00000000000E+00 0. -1.
         -4    1    6    6    0  503 -0.33407163745E+02 -0.23366945818E+02 -0.88483605385E+02  0.97423822386E+02  0.00000000000E+00 0.  1.
<mgrwt>
<rscale>  0 0.24100213E+04</rscale>
<asrwt>0</asrwt>
<pdfrwt beam="1">  1        2 0.55985164E+00 0.24100213E+04</pdfrwt>
<pdfrwt beam="2">  1       -1 0.61387804E-01 0.24100213E+04</pdfrwt>
<totfact> 0.17839226E+00</totfact>
</mgrwt>
</event>
<event>
12    7  0.2426980E-007  0.2885577E+04  0.7818608E-02  0.8277182E-01
         -1   -1    0    0    0  501 -0.00000000000E+00  0.00000000000E+00  0.14383004684E+04  0.14383004684E+04  0.00000000000E+00 0.  1.
          2   -1    0    0  501    0  0.00000000000E+00 -0.00000000000E+00 -0.14472903986E+04  0.14472903986E+04  0.00000000000E+00 0. -1.
         24    2    1    2    0    0  0.11046616232E+04  0.64177519765E+03 -0.24943539090E+03  0.13041045553E+04  0.79485664659E+02 0.  0.
        254    2    1    2    0    0 -0.11046616232E+04 -0.64177519765E+03  0.24044546074E+03  0.15814863116E+04  0.90062879609E+03 0.  0.
         23    2    4    4    0    0 -0.64122425658E+03 -0.80843497209E+03  0.29631557074E+03  0.10774552007E+04  0.91493938622E+02 0.  0.
         23    2    4    4    0    0 -0.46343736658E+03  0.16665977444E+03 -0.55870109997E+02  0.50403111091E+03  0.91521682768E+02 0.  0.
          2    1    3    3  502    0  0.43951106075E+03  0.22110005782E+03 -0.70653147843E+02  0.49703830374E+03  0.00000000000E+00 0. -1.
         -3    1    3    3    0  502  0.66515056241E+03  0.42067513984E+03 -0.17878224306E+03  0.80706625155E+03  0.00000000000E+00 0.  1.
         13    1    5    5    0    0 -0.59412261650E+03 -0.72734823029E+03  0.24513247807E+03  0.97062199818E+03  0.00000000000E+00 0. -1.
        -13    1    5    5    0    0 -0.47101640089E+02 -0.81086741801E+02  0.51183092664E+02  0.10683320256E+03  0.00000000000E+00 0.  1.
          2    1    6    6  503    0 -0.27204734578E+03  0.13741385710E+03 -0.58774197278E+02  0.31039770092E+03  0.00000000000E+00 0. -1.
         -2    1    6    6    0  503 -0.19139002080E+03  0.29245917338E+02  0.29040872811E+01  0.19363340999E+03  0.00000000000E+00 0.  1.
<mgrwt>
<rscale>  0 0.28855769E+04</rscale>
<asrwt>0</asrwt>
<pdfrwt beam="1">  1        2 0.22266006E+00 0.28855769E+04</pdfrwt>
<pdfrwt beam="2">  1       -1 0.22127699E+00 0.28855769E+04</pdfrwt>
<totfact> 0.14439166E+00</totfact>
</mgrwt>
</event>
<event>
12    7  0.2426980E-007  0.1603132E+04  0.7818608E-02  0.8818626E-01
          2   -1    0    0  501    0  0.00000000000E+00  0.00000000000E+00  0.77596731533E+03  0.77596731533E+03  0.00000000000E+00 0. -1.
         -3   -1    0    0    0  501 -0.00000000000E+00 -0.00000000000E+00 -0.82800928832E+03  0.82800928832E+03  0.00000000000E+00 0.  1.
         24    2    1    2    0    0 -0.43058488410E+03  0.32524120314E+03 -0.11130635126E+03  0.55704025843E+03  0.81972940915E+02 0.  0.
        254    2    1    2    0    0  0.43058488410E+03 -0.32524120314E+03  0.59264378270E+02  0.10469363452E+04  0.89519733121E+03 0.  0.
         23    2    4    4    0    0  0.51968905003E+03 -0.24690143562E+02 -0.26113736399E+03  0.58962849836E+03  0.93716227472E+02 0.  0.
         23    2    4    4    0    0 -0.89104165929E+02 -0.30055105958E+03  0.32040174226E+03  0.45730784687E+03  0.90568750521E+02 0.  0.
          2    1    3    3  502    0 -0.37864919388E+03  0.31571661354E+03 -0.10016028821E+03  0.50307482090E+03  0.00000000000E+00 0. -1.
         -1    1    3    3    0  502 -0.51935690226E+02  0.95245896009E+01 -0.11146063053E+02  0.53965437531E+02  0.00000000000E+00 0.  1.
         13    1    5    5    0    0  0.33307362492E+03  0.18181008486E+02 -0.19851840244E+03  0.38817282851E+03  0.00000000000E+00 0. -1.
        -13    1    5    5    0    0  0.18661542511E+03 -0.42871152048E+02 -0.62618961547E+02  0.20145566984E+03  0.00000000000E+00 0.  1.
          1    1    6    6  503    0 -0.25682721289E+01 -0.28759060219E+02  0.77349805654E+02  0.82563139482E+02  0.00000000000E+00 0. -1.
         -1    1    6    6    0  503 -0.86535893800E+02 -0.27179199936E+03  0.24305193661E+03  0.37474470739E+03  0.00000000000E+00 0.  1.
<mgrwt>
<rscale>  0 0.16031321E+04</rscale>
<asrwt>0</asrwt>
<pdfrwt beam="1">  1        2 0.11937959E+00 0.16031321E+04</pdfrwt>
<pdfrwt beam="2">  1       -3 0.12738604E+00 0.16031321E+04</pdfrwt>
<totfact> 0.10589786E+01</totfact>
</mgrwt>
</event>
<event>
12    7  0.2426980E-007  0.1897953E+04  0.7818608E-02  0.8655876E-01
         -1   -1    0    0    0  501 -0.00000000000E+00  0.00000000000E+00  0.77642713906E+03  0.77642713906E+03  0.00000000000E+00 0.  1.
          2   -1    0    0  501    0  0.00000000000E+00 -0.00000000000E+00 -0.11598722192E+04  0.11598722192E+04  0.00000000000E+00 0. -1.
         24    2    1    2    0    0  0.27196558740E+03 -0.58144048742E+03 -0.51063615929E+03  0.82451111425E+03  0.83850874811E+02 0.  0.
        254    2    1    2    0    0 -0.27196558740E+03  0.58144048742E+03  0.12719107917E+03  0.11117882440E+04  0.89880877148E+03 0.  0.
         23    2    4    4    0    0 -0.41387591878E+03  0.65283260577E+02 -0.20539508753E+03  0.47535905838E+03  0.90685787955E+02 0.  0.
         23    2    4    4    0    0  0.14191033138E+03  0.51615722684E+03  0.33258616671E+03  0.63642918560E+03  0.88722742457E+02 0.  0.
          4    1    3    3  502    0  0.98530443547E+02 -0.25590885593E+03 -0.17140547408E+03  0.32338433387E+03  0.00000000000E+00 0. -1.
         -3    1    3    3    0  502  0.17343514385E+03 -0.32553163149E+03 -0.33923068521E+03  0.50112678038E+03  0.00000000000E+00 0.  1.
         13    1    5    5    0    0 -0.36952943556E+03  0.53733789688E+02 -0.14742617924E+03  0.40146457157E+03  0.00000000000E+00 0. -1.
        -13    1    5    5    0    0 -0.44346483226E+02  0.11549470889E+02 -0.57968908291E+02  0.73894486809E+02  0.00000000000E+00 0.  1.
          4    1    6    6  503    0  0.80340656514E+02  0.14568791530E+03  0.87463785677E+02  0.18796144168E+03  0.00000000000E+00 0. -1.
         -4    1    6    6    0  503  0.61569674868E+02  0.37046931154E+03  0.24512238103E+03  0.44846774393E+03  0.00000000000E+00 0.  1.
<mgrwt>
<rscale>  0 0.18979529E+04</rscale>
<asrwt>0</asrwt>
<pdfrwt beam="1">  1        2 0.17844188E+00 0.18979529E+04</pdfrwt>
<pdfrwt beam="2">  1       -1 0.11945033E+00 0.18979529E+04</pdfrwt>
<totfact> 0.13393092E+01</totfact>
</mgrwt>
</event>
<event>
12    7  0.2426980E-007  0.1592207E+04  0.7818608E-02  0.8825350E-01
          2   -1    0    0  501    0  0.00000000000E+00  0.00000000000E+00  0.17788835585E+04  0.17788835585E+04  0.00000000000E+00 0. -1.
         -1   -1    0    0    0  501 -0.00000000000E+00 -0.00000000000E+00 -0.35627993193E+03  0.35627993193E+03  0.00000000000E+00 0.  1.
         24    2    1    2    0    0  0.13154278418E+03  0.39877271813E+03  0.93483240590E+03  0.10279743486E+04  0.80600554354E+02 0.  0.
        254    2    1    2    0    0 -0.13154278418E+03 -0.39877271813E+03  0.48777122064E+03  0.11071891418E+04  0.90090168572E+03 0.  0.
         23    2    4    4    0    0  0.11526250920E+01 -0.64347617871E+03  0.16147446749E+03  0.66889526391E+03  0.85346056269E+02 0.  0.
         23    2    4    4    0    0 -0.13269540927E+03  0.24470346058E+03  0.32629675315E+03  0.43829387794E+03  0.90244651131E+02 0.  0.
          4    1    3    3  502    0  0.11916268410E+03  0.37204162268E+03  0.90653039473E+03  0.98712312852E+03  0.00000000000E+00 0. -1.
         -3    1    3    3    0  502  0.12380100075E+02  0.26731095448E+02  0.28302011173E+02  0.40851220033E+02  0.00000000000E+00 0.  1.
         13    1    5    5    0    0 -0.13693328009E+02 -0.59981963906E+03  0.13248921325E+03  0.61443022245E+03  0.00000000000E+00 0. -1.
        -13    1    5    5    0    0  0.14845953101E+02 -0.43656539648E+02  0.28985254247E+02  0.54465041460E+02  0.00000000000E+00 0.  1.
          1    1    6    6  503    0 -0.87390559201E+02  0.22404269922E+03  0.24757273372E+03  0.34514417189E+03  0.00000000000E+00 0. -1.
         -1    1    6    6    0  503 -0.45304850071E+02  0.20660761357E+02  0.78724019436E+02  0.93149706043E+02  0.00000000000E+00 0.  1.
<mgrwt>
<rscale>  0 0.15922067E+04</rscale>
<asrwt>0</asrwt>
<pdfrwt beam="1">  1        2 0.27367439E+00 0.15922067E+04</pdfrwt>
<pdfrwt beam="2">  1       -1 0.54812298E-01 0.15922067E+04</pdfrwt>
<totfact> 0.32588948E+01</totfact>
</mgrwt>
</event>
<event>
12    7  0.2426980E-007  0.1696987E+04  0.7818608E-02  0.8763084E-01
          2   -1    0    0  501    0  0.00000000000E+00  0.00000000000E+00  0.78012942461E+03  0.78012942461E+03  0.00000000000E+00 0. -1.
         -1   -1    0    0    0  501 -0.00000000000E+00 -0.00000000000E+00 -0.92284882343E+03  0.92284882343E+03  0.00000000000E+00 0.  1.
         24    2    1    2    0    0 -0.44462791403E+03  0.40957984420E+03 -0.12214990670E+01  0.60957258247E+03  0.78279055501E+02 0.  0.
        254    2    1    2    0    0  0.44462791403E+03 -0.40957984420E+03 -0.14149789975E+03  0.10934056656E+04  0.90003592327E+03 0.  0.
         23    2    4    4    0    0 -0.12782257786E+03 -0.39380119114E+03 -0.26699533654E+03  0.50171153131E+03  0.94920816286E+02 0.  0.
         23    2    4    4    0    0  0.57245049189E+03 -0.15778653062E+02  0.12549743679E+03  0.59169413426E+03  0.80023810974E+02 0.  0.
          4    1    3    3  502    0 -0.39499142811E+03  0.39310800651E+03 -0.79112401082E+00  0.55727260738E+03  0.00000000000E+00 0. -1.
         -3    1    3    3    0  502 -0.49636485918E+02  0.16471837688E+02 -0.43037505620E+00  0.52299975084E+02  0.00000000000E+00 0.  1.
         13    1    5    5    0    0 -0.17715576594E+02 -0.16653900907E+03 -0.14375408953E+03  0.22071321087E+03  0.00000000000E+00 0. -1.
        -13    1    5    5    0    0 -0.11010700127E+03 -0.22726218207E+03 -0.12324124701E+03  0.28099832044E+03  0.00000000000E+00 0.  1.
          3    1    6    6  503    0  0.23535637132E+03  0.29074098208E+02  0.68898371546E+02  0.24695123063E+03  0.00000000000E+00 0. -1.
         -3    1    6    6    0  503  0.33709412057E+03 -0.44852751271E+02  0.56599065244E+02  0.34474290363E+03  0.00000000000E+00 0.  1.
<mgrwt>
<rscale>  0 0.16969874E+04</rscale>
<asrwt>0</asrwt>
<pdfrwt beam="1">  1        2 0.12001991E+00 0.16969874E+04</pdfrwt>
<pdfrwt beam="2">  1       -1 0.14197674E+00 0.16969874E+04</pdfrwt>
<totfact> 0.15636373E+01</totfact>
</mgrwt>
</event>
<event>
12    7  0.2426980E-007  0.1573235E+04  0.7818608E-02  0.8837161E-01
         -1   -1    0    0    0  501 -0.00000000000E+00  0.00000000000E+00  0.96026727568E+03  0.96026727568E+03  0.00000000000E+00 0.  1.
          2   -1    0    0  501    0  0.00000000000E+00 -0.00000000000E+00 -0.64436992403E+03  0.64436992403E+03  0.00000000000E+00 0. -1.
         24    2    1    2    0    0  0.34274302255E+03 -0.39759949322E+03  0.10236216871E+03  0.54077630919E+03  0.80017913517E+02 0.  0.
        254    2    1    2    0    0 -0.34274302255E+03  0.39759949322E+03  0.21353518294E+03  0.10638608905E+04  0.90035803073E+03 0.  0.
         23    2    4    4    0    0 -0.42408001217E+03  0.51810685812E+03  0.41970039414E+03  0.79558367639E+03  0.92338465137E+02 0.  0.
         23    2    4    4    0    0  0.81336989624E+02 -0.12050736490E+03 -0.20616521120E+03  0.26827721412E+03  0.91273426766E+02 0.  0.
          2    1    3    3  502    0  0.10412094854E+03 -0.17964359809E+03  0.33112810999E+02  0.21026043972E+03  0.00000000000E+00 0. -1.
         -1    1    3    3    0  502  0.23862207401E+03 -0.21795589513E+03  0.69249357709E+02  0.33051586947E+03  0.00000000000E+00 0.  1.
         13    1    5    5    0    0 -0.26837974583E+03  0.31158227654E+03  0.20527908224E+03  0.45962017431E+03  0.00000000000E+00 0.  1.
        -13    1    5    5    0    0 -0.15570026635E+03  0.20652458158E+03  0.21442131190E+03  0.33596350209E+03  0.00000000000E+00 0. -1.
          2    1    6    6  503    0  0.93913263433E+02 -0.86260201943E+02 -0.12170554385E+03  0.17627468024E+03  0.00000000000E+00 0.  1.
         -2    1    6    6    0  503 -0.12576273809E+02 -0.34247162954E+02 -0.84459667348E+02  0.92002533888E+02  0.00000000000E+00 0. -1.
<mgrwt>
<rscale>  0 0.15732353E+04</rscale>
<asrwt>0</asrwt>
<pdfrwt beam="1">  1        2 0.99133834E-01 0.15732353E+04</pdfrwt>
<pdfrwt beam="2">  1       -1 0.14773343E+00 0.15732353E+04</pdfrwt>
<totfact> 0.18135801E+01</totfact>
</mgrwt>
</event>
<event>
12    7  0.2426980E-007  0.2026623E+04  0.7818608E-02  0.8594274E-01
          2   -1    0    0  501    0  0.00000000000E+00  0.00000000000E+00  0.27132763874E+04  0.27132763874E+04  0.00000000000E+00 0. -1.
         -1   -1    0    0    0  501 -0.00000000000E+00 -0.00000000000E+00 -0.37843542011E+03  0.37843542011E+03  0.00000000000E+00 0.  1.
         24    2    1    2    0    0  0.39756886774E+03  0.69901270369E+03  0.76132742508E+03  0.11087316711E+04  0.54650762529E+02 0.  0.
        254    2    1    2    0    0 -0.39756886774E+03 -0.69901270369E+03  0.15735135422E+04  0.19829801363E+04  0.89976974235E+03 0.  0.
         23    2    4    4    0    0 -0.89402916842E+02  0.18474805633E+03  0.54313113902E+03  0.58794262319E+03  0.92522257457E+02 0.  0.
         23    2    4    4    0    0 -0.30816595090E+03 -0.88376076002E+03  0.10303824031E+04  0.13950375132E+04  0.91882708775E+02 0.  0.
          4    1    3    3  502    0  0.17969778789E+03  0.26892567102E+03  0.32407433568E+03  0.45786077202E+03  0.00000000000E+00 0. -1.
         -3    1    3    3    0  502  0.21787107985E+03  0.43008703267E+03  0.43725308940E+03  0.65087089910E+03  0.00000000000E+00 0.  1.
         13    1    5    5    0    0 -0.21175091049E+02  0.14372615704E+03  0.33756549779E+03  0.36749973877E+03  0.00000000000E+00 0.  1.
        -13    1    5    5    0    0 -0.68227825793E+02  0.41021899292E+02  0.20556564123E+03  0.22044288441E+03  0.00000000000E+00 0. -1.
          4    1    6    6  503    0 -0.29213288361E+01 -0.38757523772E+02  0.22786514781E+02  0.45054467781E+02  0.00000000000E+00 0. -1.
         -4    1    6    6    0  503 -0.30524462206E+03 -0.84500323625E+03  0.10075958884E+04  0.13499830454E+04  0.00000000000E+00 0.  1.
<mgrwt>
<rscale>  0 0.20266227E+04</rscale>
<asrwt>0</asrwt>
<pdfrwt beam="1">  1        2 0.41742713E+00 0.20266227E+04</pdfrwt>
<pdfrwt beam="2">  1       -1 0.58220835E-01 0.20266227E+04</pdfrwt>
<totfact> 0.82332921E+00</totfact>
</mgrwt>
</event>
<event>
12    7  0.2426980E-007  0.1763331E+04  0.7818608E-02  0.8726046E-01
         -1   -1    0    0    0  501 -0.00000000000E+00  0.00000000000E+00  0.10390877271E+04  0.10390877271E+04  0.00000000000E+00 0.  1.
          2   -1    0    0  501    0  0.00000000000E+00 -0.00000000000E+00 -0.74809268589E+03  0.74809268589E+03  0.00000000000E+00 0. -1.
         24    2    1    2    0    0  0.21875127467E+03 -0.59337285118E+03 -0.37193241499E+02  0.63882141229E+03  0.82255692238E+02 0.  0.
        254    2    1    2    0    0 -0.21875127467E+03  0.59337285118E+03  0.32818828276E+03  0.11483590007E+04  0.90059834831E+03 0.  0.
         23    2    4    4    0    0 -0.36636973098E+03 -0.41700011595E+02 -0.57794718275E+02  0.38453439796E+03  0.92524607588E+02 0.  0.
         23    2    4    4    0    0  0.14761845631E+03  0.63507286277E+03  0.38598300103E+03  0.76382460278E+03  0.96625033290E+02 0.  0.
          4    1    3    3  502    0  0.18341259337E+03 -0.55768767213E+03 -0.27823648367E+02  0.58773282575E+03  0.00000000000E+00 0. -1.
         -1    1    3    3    0  502  0.35338681297E+02 -0.35685179042E+02 -0.93695931321E+01  0.51088586538E+02  0.00000000000E+00 0.  1.
         13    1    5    5    0    0 -0.11947337595E+03 -0.35586317932E+02 -0.58164021745E+02  0.13756208420E+03  0.00000000000E+00 0. -1.
        -13    1    5    5    0    0 -0.24689635504E+03 -0.61136936628E+01  0.36930347003E+00  0.24697231376E+03  0.00000000000E+00 0.  1.
          3    1    6    6  503    0  0.36458660259E+02  0.22128669439E+03  0.83315875151E+02  0.23924583607E+03  0.00000000000E+00 0. -1.
         -3    1    6    6    0  503  0.11115979605E+03  0.41378616838E+03  0.30266712588E+03  0.52457876672E+03  0.00000000000E+00 0.  1.
<mgrwt>
<rscale>  0 0.17633309E+04</rscale>
<asrwt>0</asrwt>
<pdfrwt beam="1">  1        2 0.11509118E+00 0.17633309E+04</pdfrwt>
<pdfrwt beam="2">  1       -1 0.15985965E+00 0.17633309E+04</pdfrwt>
<totfact> 0.11915247E+01</totfact>
</mgrwt>
</event>
<event>
12    7  0.2426980E-007  0.1565912E+04  0.7818608E-02  0.8841767E-01
         -1   -1    0    0    0  501 -0.00000000000E+00  0.00000000000E+00  0.22249325697E+03  0.22249325697E+03  0.00000000000E+00 0.  1.
          2   -1    0    0  501    0  0.00000000000E+00 -0.00000000000E+00 -0.27552313988E+04  0.27552313988E+04  0.00000000000E+00 0. -1.
         24    2    1    2    0    0  0.18478367085E+02  0.51873858717E+03 -0.78607241375E+03  0.94530277643E+03  0.79096950600E+02 0.  0.
        254    2    1    2    0    0 -0.18478367085E+02 -0.51873858717E+03 -0.17466657281E+04  0.20324218793E+04  0.90025905057E+03 0.  0.
         23    2    4    4    0    0 -0.29671748504E+03 -0.22996349504E+03 -0.20648075550E+03  0.43817401343E+03  0.91856892329E+02 0.  0.
         23    2    4    4    0    0  0.27823911795E+03 -0.28877509212E+03 -0.15401849726E+04  0.15942478659E+04  0.92997030339E+02 0.  0.
          2    1    3    3  502    0  0.24402187283E+02  0.51517036074E+03 -0.78331380032E+03  0.93785738633E+03  0.00000000000E+00 0. -1.
         -1    1    3    3    0  502 -0.59238201973E+01  0.35682264324E+01 -0.27586134281E+01  0.74453900938E+01  0.00000000000E+00 0.  1.
         13    1    5    5    0    0 -0.39482180130E+02 -0.17155484537E+02 -0.59400477256E+02  0.73359184126E+02  0.00000000000E+00 0. -1.
        -13    1    5    5    0    0 -0.25723530491E+03 -0.21280801051E+03 -0.14708027825E+03  0.36481482930E+03  0.00000000000E+00 0.  1.
          3    1    6    6  503    0  0.23379656805E+02  0.60489570090E+00 -0.13978207917E+03  0.14172509978E+03  0.00000000000E+00 0. -1.
         -3    1    6    6    0  503  0.25485946115E+03 -0.28937998783E+03 -0.14004028934E+04  0.14525227661E+04  0.00000000000E+00 0.  1.
<mgrwt>
<rscale>  0 0.15659124E+04</rscale>
<asrwt>0</asrwt>
<pdfrwt beam="1">  1        2 0.42388179E+00 0.15659124E+04</pdfrwt>
<pdfrwt beam="2">  1       -1 0.34229729E-01 0.15659124E+04</pdfrwt>
<totfact> 0.21847545E+01</totfact>
</mgrwt>
</event>
<event>
12    7  0.2426980E-007  0.2748759E+04  0.7818608E-02  0.8319355E-01
          2   -1    0    0  501    0  0.00000000000E+00  0.00000000000E+00  0.32381548119E+04  0.32381548119E+04  0.00000000000E+00 0. -1.
         -1   -1    0    0    0  501 -0.00000000000E+00 -0.00000000000E+00 -0.58333210816E+03  0.58333210816E+03  0.00000000000E+00 0.  1.
         24    2    1    2    0    0 -0.11040761135E+04  0.53015876662E+03  0.11178070663E+04  0.16601695781E+04  0.81351140625E+02 0.  0.
        254    2    1    2    0    0  0.11040761135E+04 -0.53015876662E+03  0.15370156374E+04  0.21613173420E+04  0.89934598512E+03 0.  0.
         23    2    4    4    0    0  0.21368394120E+03 -0.11521437174E+02 -0.75752249587E+02  0.24479961907E+03  0.91623577403E+02 0.  0.
         23    2    4    4    0    0  0.89039217231E+03 -0.51863732945E+03  0.16127678870E+04  0.19165177229E+04  0.10117818443E+03 0.  0.
          2    1    3    3  502    0 -0.52124746536E+03  0.22412222027E+03  0.56220145119E+03  0.79874912299E+03  0.00000000000E+00 0. -1.
         -1    1    3    3    0  502 -0.58282864815E+03  0.30603654636E+03  0.55560561516E+03  0.86142045507E+03  0.00000000000E+00 0.  1.
         13    1    5    5    0    0  0.16552080778E+03  0.90616085533E+01 -0.92474746894E+02  0.18981788475E+03  0.00000000000E+00 0.  1.
        -13    1    5    5    0    0  0.48163133428E+02 -0.20583045727E+02  0.16722497307E+02  0.54981734323E+02  0.00000000000E+00 0. -1.
          1    1    6    6  503    0  0.25670582264E+03 -0.18549960703E+03  0.56071246150E+03  0.64397705555E+03  0.00000000000E+00 0. -1.
         -1    1    6    6    0  503  0.63368634967E+03 -0.33313772242E+03  0.10520554255E+04  0.12725406674E+04  0.00000000000E+00 0.  1.
<mgrwt>
<rscale>  0 0.27487595E+04</rscale>
<asrwt>0</asrwt>
<pdfrwt beam="1">  1        2 0.49817765E+00 0.27487595E+04</pdfrwt>
<pdfrwt beam="2">  1       -1 0.89743403E-01 0.27487595E+04</pdfrwt>
<totfact> 0.14775848E+00</totfact>
</mgrwt>
</event>
<event>
12    7  0.2426980E-007  0.2592116E+04  0.7818608E-02  0.8370884E-01
          2   -1    0    0  501    0  0.00000000000E+00  0.00000000000E+00  0.29096909828E+04  0.29096909828E+04  0.00000000000E+00 0. -1.
         -1   -1    0    0    0  501 -0.00000000000E+00 -0.00000000000E+00 -0.57730063300E+03  0.57730063300E+03  0.00000000000E+00 0.  1.
         24    2    1    2    0    0  0.21463151690E+03  0.10881825591E+04  0.70066151505E+03  0.13143108422E+04  0.79236741923E+02 0.  0.
        254    2    1    2    0    0 -0.21463151690E+03 -0.10881825591E+04  0.16317288348E+04  0.21726807736E+04  0.90983228332E+03 0.  0.
         23    2    4    4    0    0 -0.50362978439E+03 -0.33968422822E+03  0.85053561982E+03  0.10491850911E+04  0.91379320316E+02 0.  0.
         23    2    4    4    0    0  0.28899826749E+03 -0.74849833089E+03  0.78119321496E+03  0.11234956825E+04  0.90608827139E+02 0.  0.
          4    1    3    3  502    0  0.10723834160E+03  0.73337223553E+03  0.47517149362E+03  0.88041061221E+03  0.00000000000E+00 0. -1.
         -3    1    3    3    0  502  0.10739317530E+03  0.35481032359E+03  0.22549002143E+03  0.43390023000E+03  0.00000000000E+00 0.  1.
         13    1    5    5    0    0  0.28270700358E+01 -0.61825634622E+01  0.40702884330E+01  0.79236143192E+01  0.00000000000E+00 0.  1.
        -13    1    5    5    0    0 -0.50645685443E+03 -0.33350166476E+03  0.84646533138E+03  0.10412614768E+04  0.00000000000E+00 0. -1.
          1    1    6    6  503    0  0.90542177352E+02 -0.29475392153E+03  0.24724897203E+03  0.39523387292E+03  0.00000000000E+00 0. -1.
         -1    1    6    6    0  503  0.19845609014E+03 -0.45374440936E+03  0.53394424293E+03  0.72826180958E+03  0.00000000000E+00 0.  1.
<mgrwt>
<rscale>  0 0.25921161E+04</rscale>
<asrwt>0</asrwt>
<pdfrwt beam="1">  1        2 0.44764476E+00 0.25921161E+04</pdfrwt>
<pdfrwt beam="2">  1       -1 0.88815484E-01 0.25921161E+04</pdfrwt>
<totfact> 0.24801773E+00</totfact>
</mgrwt>
</event>
<event>
12    7  0.2426980E-007  0.2051198E+04  0.7818608E-02  0.8583051E-01
          2   -1    0    0  501    0  0.00000000000E+00  0.00000000000E+00  0.99872487551E+03  0.99872487551E+03  0.00000000000E+00 0. -1.
         -1   -1    0    0    0  501 -0.00000000000E+00 -0.00000000000E+00 -0.10531966980E+04  0.10531966980E+04  0.00000000000E+00 0.  1.
         24    2    1    2    0    0  0.22396574927E+03  0.72653705184E+03  0.30644110451E+03  0.82407171244E+03  0.84683482277E+02 0.  0.
        254    2    1    2    0    0 -0.22396574927E+03 -0.72653705184E+03 -0.36091292698E+03  0.12278498610E+04  0.89405838504E+03 0.  0.
         23    2    4    4    0    0 -0.12985845380E+03 -0.43461692719E+03  0.25967484720E+03  0.53011720305E+03  0.88533221287E+02 0.  0.
         23    2    4    4    0    0 -0.94107295471E+02 -0.29192012465E+03 -0.62058777419E+03  0.69773265800E+03  0.87339191279E+02 0.  0.
          2    1    3    3  502    0  0.96465897615E+02  0.21722112356E+03  0.66466468536E+02  0.24679642899E+03  0.00000000000E+00 0. -1.
         -1    1    3    3    0  502  0.12749985166E+03  0.50931592828E+03  0.23997463597E+03  0.57727528346E+03  0.00000000000E+00 0.  1.
         13    1    5    5    0    0 -0.12381869247E+03 -0.40738264314E+03  0.21385142720E+03  0.47647048120E+03  0.00000000000E+00 0.  1.
        -13    1    5    5    0    0 -0.60397613366E+01 -0.27234284051E+02  0.45823419999E+02  0.53646721849E+02  0.00000000000E+00 0. -1.
          1    1    6    6  503    0 -0.24875002952E+02 -0.15498995197E+03 -0.23365580466E+03  0.28148834085E+03  0.00000000000E+00 0. -1.
         -1    1    6    6    0  503 -0.69232292519E+02 -0.13693017268E+03 -0.38693196953E+03  0.41624431715E+03  0.00000000000E+00 0.  1.
<mgrwt>
<rscale>  0 0.20511984E+04</rscale>
<asrwt>0</asrwt>
<pdfrwt beam="1">  1        2 0.15364998E+00 0.20511984E+04</pdfrwt>
<pdfrwt beam="2">  1       -1 0.16203026E+00 0.20511984E+04</pdfrwt>
<totfact> 0.75131371E+00</totfact>
</mgrwt>
</event>
<event>
12    7  0.2426980E-007  0.4132299E+04  0.7818608E-02  0.7978377E-01
         -1   -1    0    0    0  501 -0.00000000000E+00  0.00000000000E+00  0.11473210372E+04  0.11473210372E+04  0.00000000000E+00 0.  1.
          2   -1    0    0  501    0  0.00000000000E+00 -0.00000000000E+00 -0.37208180341E+04  0.37208180341E+04  0.00000000000E+00 0. -1.
         24    2    1    2    0    0  0.14408924010E+04 -0.13162472109E+04 -0.15214168288E+04  0.24758782167E+04  0.81155071489E+02 0.  0.
        254    2    1    2    0    0 -0.14408924010E+04  0.13162472109E+04 -0.10520801680E+04  0.23922608545E+04  0.89853307389E+03 0.  0.
         23    2    4    4    0    0 -0.74284103465E+03  0.99126045287E+03 -0.10353663918E+04  0.16168865088E+04  0.89041163984E+02 0.  0.
         23    2    4    4    0    0 -0.69805136631E+03  0.32498675802E+03 -0.16713776208E+02  0.77537434573E+03  0.89632152665E+02 0.  0.
          2    1    3    3  502    0  0.38095641045E+03 -0.39346942916E+03 -0.44473135539E+03  0.70550120964E+03  0.00000000000E+00 0. -1.
         -1    1    3    3    0  502  0.10599359905E+04 -0.92277778173E+03 -0.10766854735E+04  0.17703770071E+04  0.00000000000E+00 0.  1.
         13    1    5    5    0    0 -0.66890633913E+03  0.85632590928E+03 -0.93167894681E+03  0.14313474118E+04  0.00000000000E+00 0. -1.
        -13    1    5    5    0    0 -0.73934695524E+02  0.13493454359E+03 -0.10368744502E+03  0.18553909699E+03  0.00000000000E+00 0.  1.
          4    1    6    6  503    0 -0.25883707102E+03  0.16296518271E+03  0.14319060869E+02  0.30620142981E+03  0.00000000000E+00 0. -1.
         -4    1    6    6    0  503 -0.43921429529E+03  0.16202157531E+03 -0.31032837077E+02  0.46917291592E+03  0.00000000000E+00 0.  1.
<mgrwt>
<rscale>  0 0.41322985E+04</rscale>
<asrwt>0</asrwt>
<pdfrwt beam="1">  1        2 0.57243355E+00 0.41322985E+04</pdfrwt>
<pdfrwt beam="2">  1       -1 0.17651093E+00 0.41322985E+04</pdfrwt>
<totfact> 0.10973386E-01</totfact>
</mgrwt>
</event>
<event>
12    7  0.2426980E-007  0.3661993E+04  0.7818608E-02  0.8076437E-01
          2   -1    0    0  501    0  0.00000000000E+00  0.00000000000E+00  0.33257709194E+04  0.33257709194E+04  0.00000000000E+00 0. -1.
         -1   -1    0    0    0  501 -0.00000000000E+00 -0.00000000000E+00 -0.10080514360E+04  0.10080514360E+04  0.00000000000E+00 0.  1.
         24    2    1    2    0    0 -0.15352472421E+04 -0.32619453331E+03  0.26135872282E+03  0.15930965522E+04  0.79128216905E+02 0.  0.
        254    2    1    2    0    0  0.15352472421E+04  0.32619453331E+03  0.20563607606E+04  0.27407258032E+04  0.90530181874E+03 0.  0.
         23    2    4    4    0    0  0.16587036936E+03  0.30084122724E+03  0.81852534134E+03  0.89239550746E+03  0.91474498508E+02 0.  0.
         23    2    4    4    0    0  0.13693768727E+04  0.25353306069E+02  0.12378354192E+04  0.18483302958E+04  0.90843532915E+02 0.  0.
          2    1    3    3  502    0 -0.90586091592E+03 -0.15440709716E+03  0.16457789487E+03  0.93354776746E+03  0.00000000000E+00 0. -1.
         -1    1    3    3    0  502 -0.62938632618E+03 -0.17178743615E+03  0.96780827952E+02  0.65954878474E+03  0.00000000000E+00 0.  1.
         13    1    5    5    0    0  0.17669152089E+02 -0.22444162780E+01  0.49972098180E+02  0.53051361307E+02  0.00000000000E+00 0. -1.
        -13    1    5    5    0    0  0.14820121727E+03  0.30308564352E+03  0.76855324316E+03  0.83934414615E+03  0.00000000000E+00 0.  1.
          4    1    6    6  503    0  0.14977540073E+02  0.97628105664E+01  0.12307210288E+02  0.21704990253E+02  0.00000000000E+00 0. -1.
         -4    1    6    6    0  503  0.13543993327E+04  0.15590495503E+02  0.12255282089E+04  0.18266253055E+04  0.00000000000E+00 0.  1.
<mgrwt>
<rscale>  0 0.36619930E+04</rscale>
<asrwt>0</asrwt>
<pdfrwt beam="1">  1        2 0.51165706E+00 0.36619930E+04</pdfrwt>
<pdfrwt beam="2">  1       -1 0.15508484E+00 0.36619930E+04</pdfrwt>
<totfact> 0.31358239E-01</totfact>
</mgrwt>
</event>
<event>
12    7  0.2426980E-007  0.1795346E+04  0.7818608E-02  0.8708778E-01
          2   -1    0    0  501    0  0.00000000000E+00  0.00000000000E+00  0.11535757116E+04  0.11535757116E+04  0.00000000000E+00 0. -1.
         -1   -1    0    0    0  501 -0.00000000000E+00 -0.00000000000E+00 -0.69853864119E+03  0.69853864119E+03  0.00000000000E+00 0.  1.
         24    2    1    2    0    0 -0.72154326003E+02 -0.52203499279E+03 -0.25451056061E+03  0.59066593072E+03  0.79898909830E+02 0.  0.
        254    2    1    2    0    0  0.72154326003E+02  0.52203499279E+03  0.70954763102E+03  0.12614484221E+04  0.90003749943E+03 0.  0.
         23    2    4    4    0    0  0.39953768342E+03  0.14198400707E+03  0.60028467038E+03  0.73990057623E+03  0.85564937157E+02 0.  0.
         23    2    4    4    0    0 -0.32738335742E+03  0.38005098572E+03  0.10926296064E+03  0.52154784584E+03  0.91951870398E+02 0.  0.
          4    1    3    3  502    0 -0.87241687731E+02 -0.39802840944E+03 -0.18254083288E+03  0.44649622895E+03  0.00000000000E+00 0. -1.
         -3    1    3    3    0  502  0.15087361728E+02 -0.12400658335E+03 -0.71969727736E+02  0.14416970177E+03  0.00000000000E+00 0.  1.
         13    1    5    5    0    0  0.31236767339E+03  0.14120712881E+03  0.50905236133E+03  0.61371599554E+03  0.00000000000E+00 0. -1.
        -13    1    5    5    0    0  0.87170010028E+02  0.77687825703E+00  0.91232309053E+02  0.12618458069E+03  0.00000000000E+00 0.  1.
          1    1    6    6  503    0 -0.27071346211E+03  0.26048098908E+03  0.60457699214E+02  0.38051446443E+03  0.00000000000E+00 0. -1.
         -1    1    6    6    0  503 -0.56669895302E+02  0.11956999664E+03  0.48805261424E+02  0.14103338141E+03  0.00000000000E+00 0.  1.
<mgrwt>
<rscale>  0 0.17953464E+04</rscale>
<asrwt>0</asrwt>
<pdfrwt beam="1">  1        2 0.17747319E+00 0.17953464E+04</pdfrwt>
<pdfrwt beam="2">  1       -1 0.10746748E+00 0.17953464E+04</pdfrwt>
<totfact> 0.17544479E+01</totfact>
</mgrwt>
</event>
<event>
12    7  0.2426980E-007  0.1624941E+04  0.7818608E-02  0.8805371E-01
         -1   -1    0    0    0  501 -0.00000000000E+00  0.00000000000E+00  0.75131169476E+03  0.75131169476E+03  0.00000000000E+00 0.  1.
          2   -1    0    0  501    0  0.00000000000E+00 -0.00000000000E+00 -0.87860732811E+03  0.87860732811E+03  0.00000000000E+00 0. -1.
         24    2    1    2    0    0 -0.12184977924E+03 -0.45948946450E+02 -0.59198025818E+03  0.61172424480E+03  0.82506067834E+02 0.  0.
        254    2    1    2    0    0  0.12184977924E+03  0.45948946450E+02  0.46468462483E+03  0.10181947781E+04  0.89656574279E+03 0.  0.
         23    2    4    4    0    0 -0.25263503974E+03 -0.23053966790E+03 -0.11075813940E+01  0.35353744371E+03  0.89523715217E+02 0.  0.
         23    2    4    4    0    0  0.37448481898E+03  0.27648861435E+03  0.46579220622E+03  0.66465733435E+03  0.90123022712E+02 0.  0.
          4    1    3    3  502    0 -0.12147221311E+03 -0.62346792435E+02 -0.54890643757E+03  0.56563318351E+03  0.00000000000E+00 0. -1.
         -3    1    3    3    0  502 -0.37756612082E+00  0.16397845986E+02 -0.43073820609E+02  0.46091061292E+02  0.00000000000E+00 0.  1.
         13    1    5    5    0    0 -0.25541170170E+03 -0.23107631952E+03 -0.96242251265E+01  0.34456353335E+03  0.00000000000E+00 0.  1.
        -13    1    5    5    0    0  0.27766619584E+01  0.53665161834E+00  0.85166437325E+01  0.89739103548E+01  0.00000000000E+00 0. -1.
          1    1    6    6  503    0  0.29934296834E+03  0.17166551172E+03  0.34484255502E+03  0.48784387704E+03  0.00000000000E+00 0.  1.
         -1    1    6    6    0  503  0.75141850635E+02  0.10482310263E+03  0.12094965120E+03  0.17681345732E+03  0.00000000000E+00 0. -1.
<mgrwt>
<rscale>  0 0.16249406E+04</rscale>
<asrwt>0</asrwt>
<pdfrwt beam="1">  1        2 0.13517036E+00 0.16249406E+04</pdfrwt>
<pdfrwt beam="2">  1       -1 0.11558641E+00 0.16249406E+04</pdfrwt>
<totfact> 0.22465991E+01</totfact>
</mgrwt>
</event>
<event>
12    7  0.2426980E-007  0.1578677E+04  0.7818608E-02  0.8833756E-01
          2   -1    0    0  501    0  0.00000000000E+00  0.00000000000E+00  0.86715140183E+03  0.86715140183E+03  0.00000000000E+00 0. -1.
         -3   -1    0    0    0  501 -0.00000000000E+00 -0.00000000000E+00 -0.71850816098E+03  0.71850816098E+03  0.00000000000E+00 0.  1.
         24    2    1    2    0    0 -0.51036891376E+03 -0.69020159589E+02 -0.68990694903E+02  0.52580267663E+03  0.80427160871E+02 0.  0.
        254    2    1    2    0    0  0.51036891376E+03  0.69020159589E+02  0.21763393575E+03  0.10598568862E+04  0.90038429496E+03 0.  0.
         23    2    4    4    0    0 -0.52698920656E+02  0.28954475215E+03  0.31651862548E+03  0.44184307834E+03  0.91803735567E+02 0.  0.
         23    2    4    4    0    0  0.56306783442E+03 -0.22052459256E+03 -0.98884689732E+02  0.61801380783E+03  0.80538206619E+02 0.  0.
          4    1    3    3  502    0 -0.28723115153E+03 -0.53520629410E+02 -0.76420861968E+02  0.30200387469E+03  0.00000000000E+00 0. -1.
         -3    1    3    3    0  502 -0.22313776223E+03 -0.15499530179E+02  0.74301670649E+01  0.22379880194E+03  0.00000000000E+00 0.  1.
         13    1    5    5    0    0 -0.28887674931E+02  0.20132920252E+02  0.19962413876E+02  0.40476291931E+02  0.00000000000E+00 0. -1.
        -13    1    5    5    0    0 -0.23811245726E+02  0.26941183190E+03  0.29655621161E+03  0.40136678641E+03  0.00000000000E+00 0.  1.
          3    1    6    6  503    0  0.35015936115E+02 -0.17101741563E+02  0.13193573927E+02  0.41141897616E+02  0.00000000000E+00 0. -1.
         -3    1    6    6    0  503  0.52805189830E+03 -0.20342285100E+03 -0.11207826366E+03  0.57687191022E+03  0.00000000000E+00 0.  1.
<mgrwt>
<rscale>  0 0.15786771E+04</rscale>
<asrwt>0</asrwt>
<pdfrwt beam="1">  1        2 0.13340791E+00 0.15786771E+04</pdfrwt>
<pdfrwt beam="2">  1       -3 0.11053972E+00 0.15786771E+04</pdfrwt>
<totfact> 0.12928734E+01</totfact>
</mgrwt>
</event>
