<event>
12    1  0.1467288E-007  0.1038497E+04  0.7818608E-02  0.9267302E-01
         -1   -1    0    0    0  501 -0.00000000000E+00  0.00000000000E+00  0.73874301495E+03  0.73874301495E+03  0.00000000000E+00 0.  1.
          1   -1    0    0  501    0  0.00000000000E+00 -0.00000000000E+00 -0.36496963343E+03  0.36496963343E+03  0.00000000000E+00 0. -1.
         23    2    1    2    0    0  0.14584100669E+02 -0.29677018451E+02  0.14614668402E+03  0.17518384678E+03  0.90758501018E+02 0.  0.
        254    2    1    2    0    0 -0.14584100669E+02  0.29677018451E+02  0.22762669750E+03  0.92852880160E+03  0.89958790597E+03 0.  0.
        -24    2    4    4    0    0  0.72634336654E+02 -0.27951888245E+03  0.44242159357E+03  0.53423973683E+03  0.79174979913E+02 0.  0.
         24    2    4    4    0    0 -0.87218437324E+02  0.30919590090E+03 -0.21479489607E+03  0.39428906477E+03  0.78216739083E+02 0.  0.
         13    1    3    3    0    0  0.29218113859E+02 -0.19849175888E+02  0.83919599102E+01  0.36305825318E+02  0.00000000000E+00 0. -1.
        -13    1    3    3    0    0 -0.14634013189E+02 -0.98278425632E+01  0.13775472411E+03  0.13887802146E+03  0.00000000000E+00 0.  1.
          2    1    6    6  502    0  0.14265234926E+02  0.42452391500E+02 -0.36523283231E+02  0.57789728236E+02  0.00000000000E+00 0. -1.
          1    1    5    5  503    0 -0.10427206065E+02 -0.31958022923E+01  0.15126607452E+02  0.18648164296E+02  0.00000000000E+00 0. -1.
         -2    1    5    5    0  503  0.83061542719E+02 -0.27632308016E+03  0.42729498612E+03  0.51559157254E+03  0.00000000000E+00 0.  1.
         -1    1    6    6    0  502 -0.10148367225E+03  0.26674350940E+03 -0.17827161284E+03  0.33649933653E+03  0.00000000000E+00 0.  1.
<mgrwt>
<rscale>  0 0.10384965E+04</rscale>
<asrwt>0</asrwt>
<pdfrwt beam="1">  1        1 0.56149175E-01 0.10384965E+04</pdfrwt>
<pdfrwt beam="2">  1       -1 0.11365277E+00 0.10384965E+04</pdfrwt>
<totfact> 0.47885611E+01</totfact>
</mgrwt>
</event>
<event>
12    1  0.1467288E-007  0.1463655E+04  0.7818608E-02  0.8908988E-01
          1   -1    0    0  501    0  0.00000000000E+00  0.00000000000E+00  0.12196973191E+04  0.12196973191E+04  0.00000000000E+00 0. -1.
         -1   -1    0    0    0  501 -0.00000000000E+00 -0.00000000000E+00 -0.43910220318E+03  0.43910220318E+03  0.00000000000E+00 0.  1.
         23    2    1    2    0    0  0.71431778081E+02  0.22107051881E+03 -0.19274758249E+03  0.31465709217E+03  0.88785031902E+02 0.  0.
        254    2    1    2    0    0 -0.71431778081E+02 -0.22107051881E+03  0.97334269845E+03  0.13441424302E+04  0.89741194037E+03 0.  0.
        -24    2    4    4    0    0 -0.63240177867E+01 -0.54967553541E+03  0.43666234532E+03  0.70660899728E+03  0.80243901815E+02 0.  0.
         24    2    4    4    0    0 -0.65107760294E+02  0.32860501660E+03  0.53668035313E+03  0.63753343288E+03  0.78757851811E+02 0.  0.
         11    1    3    3    0    0  0.32915746409E+02  0.15487331399E+02 -0.48298613429E+02  0.60465360783E+02  0.00000000000E+00 0.  1.
        -11    1    3    3    0    0  0.38516031672E+02  0.20558318741E+03 -0.14444896906E+03  0.25419173138E+03  0.00000000000E+00 0. -1.
          4    1    6    6  502    0 -0.48846252226E+02  0.30157949986E+03  0.51649685773E+03  0.60008762289E+03  0.00000000000E+00 0. -1.
          3    1    5    5  503    0 -0.19562400788E+02 -0.51993263525E+03  0.39249664272E+03  0.65174093570E+03  0.00000000000E+00 0. -1.
         -2    1    5    5    0  503  0.13238383001E+02 -0.29742900158E+02  0.44165702603E+02  0.54868061573E+02  0.00000000000E+00 0.  1.
         -3    1    6    6    0  502 -0.16261508068E+02  0.27025516742E+02  0.20183495392E+02  0.37445809993E+02  0.00000000000E+00 0.  1.
<mgrwt>
<rscale>  0 0.14636554E+04</rscale>
<asrwt>0</asrwt>
<pdfrwt beam="1">  1        1 0.18764574E+00 0.14636554E+04</pdfrwt>
<pdfrwt beam="2">  1       -1 0.67554186E-01 0.14636554E+04</pdfrwt>
<totfact> 0.22256634E+01</totfact>
</mgrwt>
</event>
<event>
12    1  0.1467288E-007  0.2622647E+04  0.7818608E-02  0.8360549E-01
          1   -1    0    0  501    0  0.00000000000E+00  0.00000000000E+00  0.26860369483E+04  0.26860369483E+04  0.00000000000E+00 0. -1.
         -1   -1    0    0    0  501 -0.00000000000E+00 -0.00000000000E+00 -0.64018839283E+03  0.64018839283E+03  0.00000000000E+00 0.  1.
         23    2    1    2    0    0  0.32186309110E+03  0.79139824374E+03  0.19165003852E+04  0.21005142487E+04  0.96329398561E+02 0.  0.
        254    2    1    2    0    0 -0.32186309110E+03 -0.79139824374E+03  0.12934817028E+03  0.12257110924E+04  0.86932715549E+03 0.  0.
        -24    2    4    4    0    0  0.12891628514E+03 -0.47155631331E+03 -0.24667608407E+03  0.55275070963E+03  0.75494975691E+02 0.  0.
         24    2    4    4    0    0 -0.45077937624E+03 -0.31984193043E+03  0.37602425434E+03  0.67296038277E+03  0.77333889217E+02 0.  0.
         13    1    3    3    0    0  0.14829826631E+03  0.43441163205E+03  0.11253750323E+04  0.12153908035E+04  0.00000000000E+00 0. -1.
        -13    1    3    3    0    0  0.17356482479E+03  0.35698661169E+03  0.79112535287E+03  0.88512344522E+03  0.00000000000E+00 0.  1.
          2    1    6    6  502    0 -0.32978906730E+03 -0.20657688309E+03  0.22973771797E+03  0.45190071542E+03  0.00000000000E+00 0. -1.
          1    1    5    5  503    0  0.10358370434E+03 -0.39838050135E+03 -0.17517067532E+03  0.44734927423E+03  0.00000000000E+00 0. -1.
         -2    1    5    5    0  503  0.25332580792E+02 -0.73175811964E+02 -0.71505408744E+02  0.10540143541E+03  0.00000000000E+00 0.  1.
         -1    1    6    6    0  502 -0.12099030894E+03 -0.11326504734E+03  0.14628653637E+03  0.22105966735E+03  0.00000000000E+00 0.  1.
<mgrwt>
<rscale>  0 0.26226473E+04</rscale>
<asrwt>0</asrwt>
<pdfrwt beam="1">  1        1 0.41323645E+00 0.26226473E+04</pdfrwt>
<pdfrwt beam="2">  1       -1 0.98490523E-01 0.26226473E+04</pdfrwt>
<totfact> 0.87043956E-01</totfact>
</mgrwt>
</event>
<event>
12    1  0.1467288E-007  0.1209424E+04  0.7818608E-02  0.9104648E-01
         -2   -1    0    0    0  501 -0.00000000000E+00  0.00000000000E+00  0.14666616423E+04  0.14666616423E+04  0.00000000000E+00 0.  1.
          2   -1    0    0  501    0  0.00000000000E+00 -0.00000000000E+00 -0.24932567137E+03  0.24932567137E+03  0.00000000000E+00 0. -1.
         23    2    1    2    0    0  0.22825629796E+03  0.12647926833E+03  0.27462775853E+03  0.38971133195E+03  0.91414296571E+02 0.  0.
        254    2    1    2    0    0 -0.22825629796E+03 -0.12647926833E+03  0.94270821240E+03  0.13262759817E+04  0.89566247163E+03 0.  0.
        -24    2    4    4    0    0 -0.17933194960E+03 -0.49381432864E+03  0.40461714539E+03  0.66800060134E+03  0.80605395199E+02 0.  0.
         24    2    4    4    0    0 -0.48924348363E+02  0.36733506031E+03  0.53809106701E+03  0.65827538038E+03  0.80348252134E+02 0.  0.
         11    1    3    3    0    0  0.16829195325E+03  0.66365037375E+02  0.23346491890E+03  0.29535126218E+03  0.00000000000E+00 0.  1.
        -11    1    3    3    0    0  0.59964344710E+02  0.60114230956E+02  0.41162839627E+02  0.94360069765E+02  0.00000000000E+00 0. -1.
          4    1    6    6  502    0 -0.68815035006E+02  0.23333444460E+03  0.33007346723E+03  0.41003532268E+03  0.00000000000E+00 0. -1.
          1    1    5    5  503    0 -0.98127747939E+00 -0.88505084585E+01 -0.34808525467E+01  0.95608963972E+01  0.00000000000E+00 0. -1.
         -2    1    5    5    0  503 -0.17835067212E+03 -0.48496382018E+03  0.40809799793E+03  0.65843970494E+03  0.00000000000E+00 0.  1.
         -3    1    6    6    0  502  0.19890686643E+02  0.13400061571E+03  0.20801759978E+03  0.24824005769E+03  0.00000000000E+00 0.  1.
<mgrwt>
<rscale>  0 0.12094237E+04</rscale>
<asrwt>0</asrwt>
<pdfrwt beam="1">  1        2 0.38357796E-01 0.12094237E+04</pdfrwt>
<pdfrwt beam="2">  1       -2 0.22564025E+00 0.12094237E+04</pdfrwt>
<totfact> 0.12131403E+01</totfact>
</mgrwt>
</event>
<event>
12    1  0.1467288E-007  0.2003941E+04  0.7818608E-02  0.8604780E-01
         -2   -1    0    0    0  501 -0.00000000000E+00  0.00000000000E+00  0.35072776074E+03  0.35072776074E+03  0.00000000000E+00 0.  1.
          2   -1    0    0  501    0  0.00000000000E+00 -0.00000000000E+00 -0.28624614954E+04  0.28624614954E+04  0.00000000000E+00 0. -1.
         23    2    1    2    0    0 -0.48447579448E+03 -0.52170437237E+03 -0.45853982892E+03  0.85180727291E+03  0.91785662777E+02 0.  0.
        254    2    1    2    0    0  0.48447579448E+03  0.52170437237E+03 -0.20531939057E+04  0.23613819832E+04  0.92391958989E+03 0.  0.
        -24    2    4    4    0    0 -0.94620761521E+02 -0.13788710690E+03 -0.85029993175E+03  0.87018124137E+03  0.78990354673E+02 0.  0.
         24    2    4    4    0    0  0.57909655600E+03  0.65959147927E+03 -0.12028939740E+04  0.14912007419E+04  0.79448091167E+02 0.  0.
         11    1    3    3    0    0 -0.48212304461E+03 -0.49967715011E+03 -0.43437341129E+03  0.81902389765E+03  0.00000000000E+00 0.  1.
        -11    1    3    3    0    0 -0.23527498700E+01 -0.22027222258E+02 -0.24166417632E+02  0.32783375261E+02  0.00000000000E+00 0. -1.
          2    1    6    6  502    0  0.28773213180E+03  0.38045028820E+03 -0.68352949941E+03  0.83351351400E+03  0.00000000000E+00 0. -1.
          1    1    5    5  503    0  0.30048403536E+01 -0.40435975080E+02 -0.11218694102E+03  0.11928959251E+03  0.00000000000E+00 0. -1.
         -2    1    5    5    0  503 -0.97625601874E+02 -0.97451131818E+02 -0.73811299073E+03  0.75089164886E+03  0.00000000000E+00 0.  1.
         -1    1    6    6    0  502  0.29136442420E+03  0.27914119106E+03 -0.51936447457E+03  0.65768722786E+03  0.00000000000E+00 0.  1.
<mgrwt>
<rscale>  0 0.20039408E+04</rscale>
<asrwt>0</asrwt>
<pdfrwt beam="1">  1        2 0.44037869E+00 0.20039408E+04</pdfrwt>
<pdfrwt beam="2">  1       -2 0.53958118E-01 0.20039408E+04</pdfrwt>
<totfact> 0.63764327E+00</totfact>
</mgrwt>
</event>
<event>
12    1  0.1467288E-007  0.1813132E+04  0.7818608E-02  0.8699347E-01
          1   -1    0    0  501    0  0.00000000000E+00  0.00000000000E+00  0.12300457289E+04  0.12300457289E+04  0.00000000000E+00 0. -1.
         -1   -1    0    0    0  501 -0.00000000000E+00 -0.00000000000E+00 -0.66815588878E+03  0.66815588878E+03  0.00000000000E+00 0.  1.
         23    2    1    2    0    0  0.20926264314E+03  0.43065907868E+03 -0.29250864537E+03  0.56943381188E+03  0.97136309545E+02 0.  0.
        254    2    1    2    0    0 -0.20926264314E+03 -0.43065907868E+03  0.85439848546E+03  0.13287678058E+04  0.89798051974E+03 0.  0.
        -24    2    4    4    0    0  0.29824460400E+03  0.18786978270E+02  0.40848604695E+03  0.51330697073E+03  0.85559343631E+02 0.  0.
         24    2    4    4    0    0 -0.50750724715E+03 -0.44944605695E+03  0.44591243851E+03  0.81546083504E+03  0.81074697934E+02 0.  0.
         11    1    3    3    0    0  0.17330623951E+03  0.32517931484E+03 -0.26718404950E+03  0.45515267303E+03  0.00000000000E+00 0.  1.
        -11    1    3    3    0    0  0.35956403630E+02  0.10547976384E+03 -0.25324595863E+02  0.11428113885E+03  0.00000000000E+00 0. -1.
          2    1    6    6  502    0 -0.18420140496E+03 -0.11535705325E+03  0.15657321524E+03  0.26786671882E+03  0.00000000000E+00 0. -1.
          3    1    5    5  503    0  0.69403554824E+01 -0.16116751597E+01 -0.38040484021E+01  0.80769310563E+01  0.00000000000E+00 0. -1.
         -4    1    5    5    0  503  0.29130424852E+03  0.20398653430E+02  0.41229009535E+03  0.50523003968E+03  0.00000000000E+00 0.  1.
         -1    1    6    6    0  502 -0.32330584218E+03 -0.33408900370E+03  0.28933922328E+03  0.54759411621E+03  0.00000000000E+00 0.  1.
<mgrwt>
<rscale>  0 0.18131324E+04</rscale>
<asrwt>0</asrwt>
<pdfrwt beam="1">  1        1 0.18923780E+00 0.18131324E+04</pdfrwt>
<pdfrwt beam="2">  1       -1 0.10279321E+00 0.18131324E+04</pdfrwt>
<totfact> 0.85661852E+00</totfact>
</mgrwt>
</event>
<event>
12    1  0.1467288E-007  0.1011554E+04  0.7818608E-02  0.9295962E-01
          1   -1    0    0  501    0  0.00000000000E+00  0.00000000000E+00  0.13638065185E+03  0.13638065185E+03  0.00000000000E+00 0. -1.
         -1   -1    0    0    0  501 -0.00000000000E+00 -0.00000000000E+00 -0.18757090883E+04  0.18757090883E+04  0.00000000000E+00 0.  1.
         23    2    1    2    0    0 -0.28115035485E+02  0.14269424273E+03 -0.18132740808E+03  0.24969069286E+03  0.91179553901E+02 0.  0.
        254    2    1    2    0    0  0.28115035485E+02 -0.14269424273E+03 -0.15580010284E+04  0.17623990473E+04  0.81088291101E+03 0.  0.
        -24    2    4    4    0    0 -0.58363355656E+02 -0.22745850245E+03 -0.15933019986E+04  0.16124588996E+04  0.79175706130E+02 0.  0.
         24    2    4    4    0    0  0.86478391141E+02  0.84764259719E+02  0.35300970218E+02  0.14994014773E+03  0.81070324680E+02 0.  0.
         13    1    3    3    0    0  0.17561723391E+02  0.73352144089E+02 -0.38996841655E+02  0.84909980744E+02  0.00000000000E+00 0. -1.
        -13    1    3    3    0    0 -0.45676758876E+02  0.69342098641E+02 -0.14233056643E+03  0.16478071211E+03  0.00000000000E+00 0.  1.
          2    1    6    6  502    0  0.42782653905E+02 -0.65917367545E+01  0.19381543173E+02  0.47428374254E+02  0.00000000000E+00 0. -1.
          1    1    5    5  503    0 -0.56668751442E+02 -0.78170741855E+02 -0.52936627511E+03  0.53809912237E+03  0.00000000000E+00 0. -1.
         -2    1    5    5    0  503 -0.16946042142E+01 -0.14928776059E+03 -0.10639357235E+04  0.10743597772E+04  0.00000000000E+00 0.  1.
         -1    1    6    6    0  502  0.43695737236E+02  0.91355996473E+02  0.15919427045E+02  0.10251177348E+03  0.00000000000E+00 0.  1.
<mgrwt>
<rscale>  0 0.10115541E+04</rscale>
<asrwt>0</asrwt>
<pdfrwt beam="1">  1        1 0.20981640E-01 0.10115541E+04</pdfrwt>
<pdfrwt beam="2">  1       -1 0.28857061E+00 0.10115541E+04</pdfrwt>
<totfact> 0.97648865E+00</totfact>
</mgrwt>
</event>
<event>
12    1  0.1467288E-007  0.1352596E+04  0.7818608E-02  0.8988865E-01
          4   -1    0    0  501    0  0.00000000000E+00  0.00000000000E+00  0.91038105505E+03  0.91038105505E+03  0.00000000000E+00 0. -1.
         -4   -1    0    0    0  501 -0.00000000000E+00 -0.00000000000E+00 -0.50240397344E+03  0.50240397344E+03  0.00000000000E+00 0.  1.
         23    2    1    2    0    0 -0.19607357868E+03 -0.21577465552E+03 -0.12195771339E+03  0.32849842927E+03  0.89632493882E+02 0.  0.
        254    2    1    2    0    0  0.19607357868E+03  0.21577465552E+03  0.52993479500E+03  0.10842865992E+04  0.89991276915E+03 0.  0.
        -24    2    4    4    0    0  0.33694183553E+03 -0.15905895002E+03  0.55663994813E+03  0.67468922324E+03  0.80795829057E+02 0.  0.
         24    2    4    4    0    0 -0.14086825685E+03  0.37483360554E+03 -0.26705153135E+02  0.40959737598E+03  0.81931358931E+02 0.  0.
         13    1    3    3    0    0 -0.72848605902E+02 -0.12958280409E+03 -0.28259327057E+02  0.15131824763E+03  0.00000000000E+00 0. -1.
        -13    1    3    3    0    0 -0.12322497277E+03 -0.86191851429E+02 -0.93698386330E+02  0.17718018165E+03  0.00000000000E+00 0.  1.
          4    1    6    6  502    0 -0.28585511015E+02  0.81275754932E+02 -0.40062209283E+02  0.95015053504E+02  0.00000000000E+00 0. -1.
          1    1    5    5  503    0  0.52601259870E+02  0.10668412535E+01  0.10557641658E+03  0.11795935922E+03  0.00000000000E+00 0. -1.
         -2    1    5    5    0  503  0.28434057566E+03 -0.16012579127E+03  0.45106353155E+03  0.55672986402E+03  0.00000000000E+00 0.  1.
         -3    1    6    6    0  502 -0.11228274584E+03  0.29355785061E+03  0.13357056148E+02  0.31458232247E+03  0.00000000000E+00 0.  1.
<mgrwt>
<rscale>  0 0.13525961E+04</rscale>
<asrwt>0</asrwt>
<pdfrwt beam="1">  1        4 0.14005862E+00 0.13525961E+04</pdfrwt>
<pdfrwt beam="2">  1       -4 0.77292919E-01 0.13525961E+04</pdfrwt>
<totfact> 0.10446462E+00</totfact>
</mgrwt>
</event>
<event>
12    1  0.1467288E-007  0.1981567E+04  0.7818608E-02  0.8615287E-01
          1   -1    0    0  501    0  0.00000000000E+00  0.00000000000E+00  0.77032160996E+03  0.77032160996E+03  0.00000000000E+00 0. -1.
         -1   -1    0    0    0  501 -0.00000000000E+00 -0.00000000000E+00 -0.12743406253E+04  0.12743406253E+04  0.00000000000E+00 0.  1.
         23    2    1    2    0    0  0.54601270286E+03  0.69241924930E+02 -0.78609021263E+03  0.96350180559E+03  0.86449934290E+02 0.  0.
        254    2    1    2    0    0 -0.54601270286E+03 -0.69241924930E+02  0.28207119730E+03  0.10811604297E+04  0.88680290845E+03 0.  0.
        -24    2    4    4    0    0  0.13888693661E+03  0.22383166933E+03 -0.14607058148E+02  0.27521691390E+03  0.78363168576E+02 0.  0.
         24    2    4    4    0    0 -0.68489963948E+03 -0.29307359426E+03  0.29667825545E+03  0.80594351575E+03  0.80915483786E+02 0.  0.
         13    1    3    3    0    0  0.18294932386E+03 -0.11078701329E+02 -0.29894747662E+03  0.35066050034E+03  0.00000000000E+00 0. -1.
        -13    1    3    3    0    0  0.36306337901E+03  0.80320626260E+02 -0.48714273601E+03  0.61284130526E+03  0.00000000000E+00 0.  1.
          2    1    6    6  502    0 -0.65243150894E+03 -0.26010439359E+03  0.26962034742E+03  0.75234054866E+03  0.00000000000E+00 0. -1.
          3    1    5    5  503    0  0.11800490709E+03  0.19226414442E+03  0.16546183312E+02  0.22619556916E+03  0.00000000000E+00 0. -1.
         -4    1    5    5    0  503  0.20882029525E+02  0.31567524914E+02 -0.31153241460E+02  0.49021344736E+02  0.00000000000E+00 0.  1.
         -1    1    6    6    0  502 -0.32468130538E+02 -0.32969200672E+02  0.27057908035E+02  0.53602967089E+02  0.00000000000E+00 0.  1.
<mgrwt>
<rscale>  0 0.19815672E+04</rscale>
<asrwt>0</asrwt>
<pdfrwt beam="1">  1        1 0.11851102E+00 0.19815672E+04</pdfrwt>
<pdfrwt beam="2">  1       -1 0.19605240E+00 0.19815672E+04</pdfrwt>
<totfact> 0.34970852E+00</totfact>
</mgrwt>
</event>
<event>
12    1  0.1467288E-007  0.1614172E+04  0.7818608E-02  0.8811888E-01
          1   -1    0    0  501    0  0.00000000000E+00  0.00000000000E+00  0.69261058866E+03  0.69261058866E+03  0.00000000000E+00 0. -1.
         -1   -1    0    0    0  501 -0.00000000000E+00 -0.00000000000E+00 -0.94048226665E+03  0.94048226665E+03  0.00000000000E+00 0.  1.
         23    2    1    2    0    0  0.83580269560E+02 -0.88342897787E+02  0.45752692021E+03  0.48230714132E+03  0.92190925830E+02 0.  0.
        254    2    1    2    0    0 -0.83580269560E+02  0.88342897787E+02 -0.70539859820E+03  0.11507857140E+04  0.90107183295E+03 0.  0.
        -24    2    4    4    0    0  0.19723792051E+03  0.39864927700E+03 -0.51161481122E+03  0.68253560068E+03  0.79253314119E+02 0.  0.
         24    2    4    4    0    0 -0.28081819007E+03 -0.31030637921E+03 -0.19378378698E+03  0.46825011332E+03  0.80975969713E+02 0.  0.
         13    1    3    3    0    0  0.10313851054E+03 -0.79680580892E+02  0.37295975724E+03  0.39507661010E+03  0.00000000000E+00 0. -1.
        -13    1    3    3    0    0 -0.19558240985E+02 -0.86623168946E+01  0.84567162971E+02  0.87230531223E+02  0.00000000000E+00 0.  1.
          4    1    6    6  502    0 -0.12313981096E+03 -0.79973979958E+02 -0.58412816233E+02  0.15802312367E+03  0.00000000000E+00 0. -1.
          1    1    5    5  503    0  0.39725182844E+02  0.29532516128E+02 -0.70974291276E+02  0.86530975281E+02  0.00000000000E+00 0. -1.
         -2    1    5    5    0  503  0.15751273767E+03  0.36911676087E+03 -0.44064051994E+03  0.59600462540E+03  0.00000000000E+00 0.  1.
         -3    1    6    6    0  502 -0.15767837911E+03 -0.23033239925E+03 -0.13537097075E+03  0.31022698964E+03  0.00000000000E+00 0.  1.
<mgrwt>
<rscale>  0 0.16141722E+04</rscale>
<asrwt>0</asrwt>
<pdfrwt beam="1">  1        1 0.10655548E+00 0.16141722E+04</pdfrwt>
<pdfrwt beam="2">  1       -1 0.14468958E+00 0.16141722E+04</pdfrwt>
<totfact> 0.10197991E+01</totfact>
</mgrwt>
</event>
<event>
12    1  0.1467288E-007  0.2092355E+04  0.7818608E-02  0.8564619E-01
         -2   -1    0    0    0  501 -0.00000000000E+00  0.00000000000E+00  0.60956742764E+03  0.60956742764E+03  0.00000000000E+00 0.  1.
          2   -1    0    0  501    0  0.00000000000E+00 -0.00000000000E+00 -0.17955144858E+04  0.17955144858E+04  0.00000000000E+00 0. -1.
         23    2    1    2    0    0  0.81912410308E+02 -0.71001624990E+02 -0.14881212746E+04  0.14951775796E+04  0.96437507107E+02 0.  0.
        254    2    1    2    0    0 -0.81912410308E+02  0.71001624990E+02  0.30217421650E+03  0.90990433382E+03  0.85139048966E+03 0.  0.
        -24    2    4    4    0    0 -0.44264229537E+03  0.15241022493E+03  0.11812635443E+03  0.48916356834E+03  0.78524408095E+02 0.  0.
         24    2    4    4    0    0  0.36072988506E+03 -0.81408599935E+02  0.18404786207E+03  0.42074076548E+03  0.79973533656E+02 0.  0.
         13    1    3    3    0    0  0.38234971200E+02  0.69972474523E+01 -0.84255610973E+03  0.84345223489E+03  0.00000000000E+00 0. -1.
        -13    1    3    3    0    0  0.43677439107E+02 -0.77998872443E+02 -0.64556516491E+03  0.65172534471E+03  0.00000000000E+00 0.  1.
          4    1    6    6  502    0  0.17417245959E+03 -0.48054439491E+01  0.61606210303E+02  0.18480926145E+03  0.00000000000E+00 0. -1.
          3    1    5    5  503    0 -0.21320901523E+03  0.46269516072E+02  0.85264338345E+02  0.23424124250E+03  0.00000000000E+00 0. -1.
         -4    1    5    5    0  503 -0.22943328014E+03  0.10614070885E+03  0.32862016086E+02  0.25492232585E+03  0.00000000000E+00 0.  1.
         -3    1    6    6    0  502  0.18655742547E+03 -0.76603155986E+02  0.12244165176E+03  0.23593150403E+03  0.00000000000E+00 0.  1.
<mgrwt>
<rscale>  0 0.20923548E+04</rscale>
<asrwt>0</asrwt>
<pdfrwt beam="1">  1        2 0.27623299E+00 0.20923548E+04</pdfrwt>
<pdfrwt beam="2">  1       -2 0.93779607E-01 0.20923548E+04</pdfrwt>
<totfact> 0.76869960E+00</totfact>
</mgrwt>
</event>
<event>
12    1  0.1467288E-007  0.3539276E+04  0.7818608E-02  0.8104545E-01
         -2   -1    0    0    0  501 -0.00000000000E+00  0.00000000000E+00  0.15457948181E+04  0.15457948181E+04  0.00000000000E+00 0.  1.
          2   -1    0    0  501    0  0.00000000000E+00 -0.00000000000E+00 -0.20258957458E+04  0.20258957458E+04  0.00000000000E+00 0. -1.
         23    2    1    2    0    0 -0.31588150754E+03 -0.94895938944E+02  0.14120241427E+04  0.14529801649E+04  0.92481424691E+02 0.  0.
        254    2    1    2    0    0  0.31588150754E+03  0.94895938944E+02 -0.18921250705E+04  0.21187103990E+04  0.89443284078E+03 0.  0.
        -24    2    4    4    0    0  0.73054152840E+02  0.22759559229E+03 -0.53338071402E+02  0.25753029011E+03  0.79625608874E+02 0.  0.
         24    2    4    4    0    0  0.24282735470E+03 -0.13269965335E+03 -0.18387869991E+04  0.18611801089E+04  0.79242966490E+02 0.  0.
         13    1    3    3    0    0 -0.15822076344E+03 -0.18656267674E+02  0.83112454905E+03  0.84625639279E+03  0.00000000000E+00 0. -1.
        -13    1    3    3    0    0 -0.15766074411E+03 -0.76239671269E+02  0.58089959364E+03  0.60672377208E+03  0.00000000000E+00 0.  1.
          4    1    6    6  502    0  0.18909399527E+03 -0.11353049358E+03 -0.12206597832E+04  0.12404257408E+04  0.00000000000E+00 0. -1.
          1    1    5    5  503    0  0.11631078707E+02  0.12980947941E+03 -0.56407387054E+02  0.14201259187E+03  0.00000000000E+00 0. -1.
         -2    1    5    5    0  503  0.61423074132E+02  0.97786112881E+02  0.30693156530E+01  0.11551769824E+03  0.00000000000E+00 0.  1.
         -3    1    6    6    0  502  0.53733359430E+02 -0.19169159765E+02 -0.61812721586E+03  0.62075436816E+03  0.00000000000E+00 0.  1.
<mgrwt>
<rscale>  0 0.35392763E+04</rscale>
<asrwt>0</asrwt>
<pdfrwt beam="1">  1        2 0.31167627E+00 0.35392763E+04</pdfrwt>
<pdfrwt beam="2">  1       -2 0.23781459E+00 0.35392763E+04</pdfrwt>
<totfact> 0.40459496E-01</totfact>
</mgrwt>
</event>
<event>
12    1  0.1467288E-007  0.1879802E+04  0.7818608E-02  0.8664976E-01
          1   -1    0    0  501    0  0.00000000000E+00  0.00000000000E+00  0.20396364514E+04  0.20396364514E+04  0.00000000000E+00 0. -1.
         -1   -1    0    0    0  501 -0.00000000000E+00 -0.00000000000E+00 -0.43312322470E+03  0.43312322470E+03  0.00000000000E+00 0.  1.
         23    2    1    2    0    0 -0.30984540164E+02  0.40082307127E+03 -0.15536755120E+03  0.44083531335E+03  0.92614908882E+02 0.  0.
        254    2    1    2    0    0  0.30984540164E+02 -0.40082307127E+03  0.17618807779E+04  0.20319243628E+04  0.92890987951E+03 0.  0.
        -24    2    4    4    0    0  0.13088135298E+03 -0.41897896090E+03  0.24413105914E+03  0.50868888668E+03  0.80567432397E+02 0.  0.
         24    2    4    4    0    0 -0.99896812821E+02  0.18155889636E+02  0.15177497188E+04  0.15232354761E+04  0.79831680473E+02 0.  0.
         11    1    3    3    0    0  0.31842047644E+02  0.99098157884E+02 -0.32419481427E+02  0.10902010672E+03  0.00000000000E+00 0. -1.
        -11    1    3    3    0    0 -0.62826587808E+02  0.30172491338E+03 -0.12294806977E+03  0.33181520663E+03  0.00000000000E+00 0.  1.
          2    1    6    6  502    0 -0.11262366696E+02  0.34726683150E+02  0.31448418219E+03  0.31659609011E+03  0.00000000000E+00 0. -1.
          1    1    5    5  503    0  0.83065049403E+02 -0.30992331879E+03  0.21457350709E+03  0.38599748174E+03  0.00000000000E+00 0. -1.
         -2    1    5    5    0  503  0.47816303582E+02 -0.10905564211E+03  0.29557552043E+02  0.12269140495E+03  0.00000000000E+00 0.  1.
         -1    1    6    6    0  502 -0.88634446125E+02 -0.16570793514E+02  0.12032655366E+04  0.12066393860E+04  0.00000000000E+00 0.  1.
<mgrwt>
<rscale>  0 0.18798020E+04</rscale>
<asrwt>0</asrwt>
<pdfrwt beam="1">  1        1 0.31379022E+00 0.18798020E+04</pdfrwt>
<pdfrwt beam="2">  1       -1 0.66634343E-01 0.18798020E+04</pdfrwt>
<totfact> 0.59906334E+00</totfact>
</mgrwt>
</event>
<event>
12    1  0.1467288E-007  0.1669620E+04  0.7818608E-02  0.8778883E-01
          2   -1    0    0  501    0  0.00000000000E+00  0.00000000000E+00  0.73723002623E+03  0.73723002623E+03  0.00000000000E+00 0. -1.
         -2   -1    0    0    0  501 -0.00000000000E+00 -0.00000000000E+00 -0.94530603466E+03  0.94530603466E+03  0.00000000000E+00 0.  1.
         23    2    1    2    0    0 -0.30094940331E+03 -0.50223092927E+03 -0.11705511563E+03  0.60413035312E+03  0.92006161760E+02 0.  0.
        254    2    1    2    0    0  0.30094940331E+03  0.50223092927E+03 -0.91020892790E+02  0.10784057078E+04  0.90103696814E+03 0.  0.
        -24    2    4    4    0    0  0.36017885042E+03  0.68719595554E+03  0.11002717957E+03  0.78756141371E+03  0.78612432386E+02 0.  0.
         24    2    4    4    0    0 -0.59229447111E+02 -0.18496502627E+03 -0.20104807236E+03  0.29084429406E+03  0.80311192510E+02 0.  0.
         11    1    3    3    0    0 -0.24441615854E+03 -0.44567836166E+03 -0.12595537797E+03  0.52367281564E+03  0.00000000000E+00 0. -1.
        -11    1    3    3    0    0 -0.56533244762E+02 -0.56552567612E+02  0.89002623393E+01  0.80457537475E+02  0.00000000000E+00 0.  1.
          4    1    6    6  502    0 -0.39416113593E+02 -0.13576034562E+03 -0.18973190199E+03  0.23660662731E+03  0.00000000000E+00 0. -1.
          3    1    5    5  503    0  0.29591439823E+03  0.61899031018E+03  0.94219301376E+02  0.69252553161E+03  0.00000000000E+00 0. -1.
         -4    1    5    5    0  503  0.64264452193E+02  0.68205645351E+02  0.15807878189E+02  0.95035882098E+02  0.00000000000E+00 0.  1.
         -3    1    6    6    0  502 -0.19813333518E+02 -0.49204680652E+02 -0.11316170365E+02  0.54237666754E+02  0.00000000000E+00 0.  1.
<mgrwt>
<rscale>  0 0.16696203E+04</rscale>
<asrwt>0</asrwt>
<pdfrwt beam="1">  1        2 0.11342000E+00 0.16696203E+04</pdfrwt>
<pdfrwt beam="2">  1       -2 0.14543170E+00 0.16696203E+04</pdfrwt>
<totfact> 0.11885302E+01</totfact>
</mgrwt>
</event>
<event>
12    1  0.1467288E-007  0.2653314E+04  0.7818608E-02  0.8350314E-01
         -2   -1    0    0    0  501 -0.00000000000E+00  0.00000000000E+00  0.13489287871E+04  0.13489287871E+04  0.00000000000E+00 0.  1.
          2   -1    0    0  501    0  0.00000000000E+00 -0.00000000000E+00 -0.13047528525E+04  0.13047528525E+04  0.00000000000E+00 0. -1.
         23    2    1    2    0    0  0.10899722047E+04 -0.91937301478E+02 -0.42414078126E+03  0.11767456391E+04  0.91340146391E+02 0.  0.
        254    2    1    2    0    0 -0.10899722047E+04  0.91937301478E+02  0.46831671587E+03  0.14769360005E+04  0.87494430037E+03 0.  0.
        -24    2    4    4    0    0 -0.63060878187E+03 -0.87646276795E+02  0.67913065491E+03  0.93457191824E+03  0.82806511337E+02 0.  0.
         24    2    4    4    0    0 -0.45936342285E+03  0.17958357827E+03 -0.21081393904E+03  0.54236408226E+03  0.80319767138E+02 0.  0.
         11    1    3    3    0    0  0.18005095908E+03 -0.10430240963E+02 -0.34815075062E+02  0.18368240864E+03  0.00000000000E+00 0.  1.
        -11    1    3    3    0    0  0.90992124564E+03 -0.81507060515E+02 -0.38932570620E+03  0.99306323046E+03  0.00000000000E+00 0. -1.
          4    1    6    6  502    0 -0.84551052994E+02  0.39788676932E+01 -0.22213524178E+02  0.87510871364E+02  0.00000000000E+00 0. -1.
          3    1    5    5  503    0 -0.15780830662E+03 -0.54798036782E+02  0.20088121078E+03  0.26126528150E+03  0.00000000000E+00 0. -1.
         -4    1    5    5    0  503 -0.47280047525E+03 -0.32848240013E+02  0.47824944413E+03  0.67330663674E+03  0.00000000000E+00 0.  1.
         -3    1    6    6    0  502 -0.37481236985E+03  0.17560471058E+03 -0.18860041487E+03  0.45485321090E+03  0.00000000000E+00 0.  1.
<mgrwt>
<rscale>  0 0.26533139E+04</rscale>
<asrwt>0</asrwt>
<pdfrwt beam="1">  1        2 0.20073121E+00 0.26533139E+04</pdfrwt>
<pdfrwt beam="2">  1       -2 0.20752751E+00 0.26533139E+04</pdfrwt>
<totfact> 0.17185277E+00</totfact>
</mgrwt>
</event>
<event>
12    1  0.1467288E-007  0.2618394E+04  0.7818608E-02  0.8361980E-01
         -2   -1    0    0    0  501 -0.00000000000E+00  0.00000000000E+00  0.93732996878E+03  0.93732996878E+03  0.00000000000E+00 0.  1.
          2   -1    0    0  501    0  0.00000000000E+00 -0.00000000000E+00 -0.18285943069E+04  0.18285943069E+04  0.00000000000E+00 0. -1.
         23    2    1    2    0    0  0.78954008777E+03 -0.41134039929E+03  0.38072930440E+03  0.97263055067E+03  0.92091859428E+02 0.  0.
        254    2    1    2    0    0 -0.78954008777E+03  0.41134039929E+03 -0.12719936425E+04  0.17932937250E+04  0.89741856636E+03 0.  0.
        -24    2    4    4    0    0 -0.36976933623E+03 -0.24979606640E+03 -0.63480922609E+03  0.78019900111E+03  0.81242175052E+02 0.  0.
         24    2    4    4    0    0 -0.41977075155E+03  0.66113646569E+03 -0.63718441639E+03  0.10130947239E+04  0.83952539648E+02 0.  0.
         11    1    3    3    0    0  0.33780513547E+03 -0.15322653808E+03  0.11454665824E+03  0.38821594305E+03  0.00000000000E+00 0. -1.
        -11    1    3    3    0    0  0.45173495230E+03 -0.25811386121E+03  0.26618264617E+03  0.58441460762E+03  0.00000000000E+00 0.  1.
          2    1    6    6  502    0 -0.23221048186E+03  0.30787393248E+03 -0.34918113190E+03  0.52022642095E+03  0.00000000000E+00 0. -1.
          1    1    5    5  503    0 -0.28451580398E+03 -0.23036371069E+03 -0.50784371453E+03  0.62603667649E+03  0.00000000000E+00 0. -1.
         -2    1    5    5    0  503 -0.85253532247E+02 -0.19432355709E+02 -0.12696551156E+03  0.15416232463E+03  0.00000000000E+00 0.  1.
         -1    1    6    6    0  502 -0.18756026969E+03  0.35326253321E+03 -0.28800328450E+03  0.49286830291E+03  0.00000000000E+00 0.  1.
<mgrwt>
<rscale>  0 0.26183936E+04</rscale>
<asrwt>0</asrwt>
<pdfrwt beam="1">  1        2 0.28132220E+00 0.26183936E+04</pdfrwt>
<pdfrwt beam="2">  1       -2 0.14420461E+00 0.26183936E+04</pdfrwt>
<totfact> 0.24429624E+00</totfact>
</mgrwt>
</event>
<event>
12    1  0.1467288E-007  0.1551567E+04  0.7818608E-02  0.8850867E-01
         -1   -1    0    0    0  501 -0.00000000000E+00  0.00000000000E+00  0.18729849246E+04  0.18729849246E+04  0.00000000000E+00 0.  1.
          1   -1    0    0  501    0  0.00000000000E+00 -0.00000000000E+00 -0.32132677838E+03  0.32132677838E+03  0.00000000000E+00 0. -1.
         23    2    1    2    0    0 -0.39249017104E+03  0.28350914232E+03  0.27866728342E+03  0.56598983655E+03  0.90901441593E+02 0.  0.
        254    2    1    2    0    0  0.39249017104E+03 -0.28350914232E+03  0.12729908628E+04  0.16283218665E+04  0.89246870859E+03 0.  0.
        -24    2    4    4    0    0 -0.65434918192E+02  0.24339727597E+03  0.59818291762E+03  0.65409264274E+03  0.80563142216E+02 0.  0.
         24    2    4    4    0    0  0.45792508923E+03 -0.52690641829E+03  0.67480794521E+03  0.97422922372E+03  0.80193867942E+02 0.  0.
         11    1    3    3    0    0 -0.23539869286E+03  0.17859772394E+03  0.11861979103E+03  0.31840280530E+03  0.00000000000E+00 0. -1.
        -11    1    3    3    0    0 -0.15709147818E+03  0.10491141839E+03  0.16004749239E+03  0.24758703125E+03  0.00000000000E+00 0.  1.
          2    1    6    6  502    0  0.26179455401E+03 -0.33872666787E+03  0.37003891630E+03  0.56586300782E+03  0.00000000000E+00 0. -1.
          3    1    5    5  503    0 -0.44820252041E+02  0.22523828460E+03  0.57096615623E+03  0.61542139336E+03  0.00000000000E+00 0. -1.
         -4    1    5    5    0  503 -0.20614666151E+02  0.18158991369E+02  0.27216761390E+02  0.38671249380E+02  0.00000000000E+00 0.  1.
         -1    1    6    6    0  502  0.19613053522E+03 -0.18817975042E+03  0.30476902890E+03  0.40836621590E+03  0.00000000000E+00 0.  1.
<mgrwt>
<rscale>  0 0.15515672E+04</rscale>
<asrwt>0</asrwt>
<pdfrwt beam="1">  1        1 0.49434890E-01 0.15515672E+04</pdfrwt>
<pdfrwt beam="2">  1       -1 0.28815152E+00 0.15515672E+04</pdfrwt>
<totfact> 0.30478926E+00</totfact>
</mgrwt>
</event>
<event>
12    1  0.1467288E-007  0.1885908E+04  0.7818608E-02  0.8661903E-01
          2   -1    0    0  501    0  0.00000000000E+00  0.00000000000E+00  0.21514975461E+04  0.21514975461E+04  0.00000000000E+00 0. -1.
         -2   -1    0    0    0  501 -0.00000000000E+00 -0.00000000000E+00 -0.41327617868E+03  0.41327617868E+03  0.00000000000E+00 0.  1.
         23    2    1    2    0    0  0.50891637926E+03  0.62064943252E+02 -0.19726362050E+02  0.52096629958E+03  0.90381511795E+02 0.  0.
        254    2    1    2    0    0 -0.50891637926E+03 -0.62064943252E+02  0.17579477294E+04  0.20438074252E+04  0.90770074005E+03 0.  0.
        -24    2    4    4    0    0  0.14383314976E+03 -0.28575886279E+03  0.75661304417E+03  0.82511120389E+03  0.77453841337E+02 0.  0.
         24    2    4    4    0    0 -0.65274952902E+03  0.22369391954E+03  0.10013346853E+04  0.12186962213E+04  0.80177369492E+02 0.  0.
         11    1    3    3    0    0  0.36105588357E+03  0.35696776281E+02 -0.54267883848E+02  0.36685230559E+03  0.00000000000E+00 0.  1.
        -11    1    3    3    0    0  0.14786049569E+03  0.26368166971E+02  0.34541521797E+02  0.15411399399E+03  0.00000000000E+00 0. -1.
          4    1    6    6  502    0 -0.54818935442E+03  0.15548239322E+03  0.82267452387E+03  0.10007395841E+04  0.00000000000E+00 0. -1.
          1    1    5    5  503    0  0.11525723541E+03 -0.21211983409E+03  0.64223913618E+03  0.68611235405E+03  0.00000000000E+00 0. -1.
         -2    1    5    5    0  503  0.28575914352E+02 -0.73639028703E+02  0.11437390799E+03  0.13899884985E+03  0.00000000000E+00 0.  1.
         -3    1    6    6    0  502 -0.10456017460E+03  0.68211526318E+02  0.17866016140E+03  0.21795663722E+03  0.00000000000E+00 0.  1.
<mgrwt>
<rscale>  0 0.18859085E+04</rscale>
<asrwt>0</asrwt>
<pdfrwt beam="1">  1        2 0.33099962E+00 0.18859085E+04</pdfrwt>
<pdfrwt beam="2">  1       -2 0.63580952E-01 0.18859085E+04</pdfrwt>
<totfact> 0.11802170E+01</totfact>
</mgrwt>
</event>
<event>
12    1  0.1467288E-007  0.1846069E+04  0.7818608E-02  0.8682177E-01
          1   -1    0    0  501    0  0.00000000000E+00  0.00000000000E+00  0.28299405940E+04  0.28299405940E+04  0.00000000000E+00 0. -1.
         -1   -1    0    0    0  501 -0.00000000000E+00 -0.00000000000E+00 -0.30106392695E+03  0.30106392695E+03  0.00000000000E+00 0.  1.
         23    2    1    2    0    0  0.13293555853E+02  0.58421891917E+03  0.16116951309E+04  0.17170215619E+04  0.95464049081E+02 0.  0.
        254    2    1    2    0    0 -0.13293555853E+02 -0.58421891917E+03  0.91718153610E+03  0.14139829591E+04  0.90367990696E+03 0.  0.
        -24    2    4    4    0    0  0.32112317774E+03 -0.63589369624E+03  0.71173435099E+03  0.10101069505E+04  0.79179396305E+02 0.  0.
         24    2    4    4    0    0 -0.33441673360E+03  0.51674777067E+02  0.20544718511E+03  0.40387600861E+03  0.80015312070E+02 0.  0.
         11    1    3    3    0    0  0.39706378961E+02  0.11190187058E+03  0.34664312145E+03  0.36641517274E+03  0.00000000000E+00 0.  1.
        -11    1    3    3    0    0 -0.26412823109E+02  0.47231704859E+03  0.12650520095E+04  0.13506063891E+04  0.00000000000E+00 0. -1.
          2    1    6    6  502    0 -0.19133917218E+03  0.63677986508E+02  0.14349561299E+03  0.24750061762E+03  0.00000000000E+00 0. -1.
          1    1    5    5  503    0  0.96079441824E-01 -0.54230595795E+01  0.19683403551E+02  0.20417031660E+02  0.00000000000E+00 0. -1.
         -2    1    5    5    0  503  0.32102709830E+03 -0.63047063666E+03  0.69205094744E+03  0.98968991880E+03  0.00000000000E+00 0.  1.
         -1    1    6    6    0  502 -0.14307756142E+03 -0.12003209441E+02  0.61951572116E+02  0.15637539098E+03  0.00000000000E+00 0.  1.
<mgrwt>
<rscale>  0 0.18460694E+04</rscale>
<asrwt>0</asrwt>
<pdfrwt beam="1">  1        1 0.43537546E+00 0.18460694E+04</pdfrwt>
<pdfrwt beam="2">  1       -1 0.46317529E-01 0.18460694E+04</pdfrwt>
<totfact> 0.34664354E+00</totfact>
</mgrwt>
</event>
<event>
12    1  0.1467288E-007  0.2091093E+04  0.7818608E-02  0.8565177E-01
         -2   -1    0    0    0  501 -0.00000000000E+00  0.00000000000E+00  0.10336852422E+04  0.10336852422E+04  0.00000000000E+00 0. -1.
          2   -1    0    0  501    0  0.00000000000E+00 -0.00000000000E+00 -0.10575439151E+04  0.10575439151E+04  0.00000000000E+00 0.  1.
         23    2    1    2    0    0  0.19153789800E+03 -0.33153692621E+03 -0.74556986230E+03  0.84294587978E+03  0.89887912753E+02 0.  0.
        254    2    1    2    0    0 -0.19153789800E+03  0.33153692621E+03  0.72171118934E+03  0.12482832775E+04  0.94379054896E+03 0.  0.
        -24    2    4    4    0    0 -0.68064496993E+02  0.50038538348E+03  0.84863477608E+03  0.99103639442E+03  0.83389712448E+02 0.  0.
         24    2    4    4    0    0 -0.12347340101E+03 -0.16884845727E+03 -0.12692358673E+03  0.25724688311E+03  0.79441045551E+02 0.  0.
         11    1    3    3    0    0  0.76498848152E+02 -0.10516335339E+03 -0.17154799050E+03  0.21526754913E+03  0.00000000000E+00 0. -1.
        -11    1    3    3    0    0  0.11503904985E+03 -0.22637357282E+03 -0.57402187180E+03  0.62767833065E+03  0.00000000000E+00 0.  1.
          2    1    6    6  502    0 -0.11313709620E+03 -0.10885668493E+03 -0.11645468862E+03  0.19547755598E+03  0.00000000000E+00 0. -1.
          1    1    5    5  503    0 -0.21310417122E+02  0.37727744916E+03  0.66834611595E+03  0.76777531754E+03  0.00000000000E+00 0. -1.
         -2    1    5    5    0  503 -0.46754079872E+02  0.12310793432E+03  0.18028866013E+03  0.22326107687E+03  0.00000000000E+00 0.  1.
         -3    1    6    6    0  502 -0.10336304811E+02 -0.59991772345E+02 -0.10468898116E+02  0.61769327129E+02  0.00000000000E+00 0.  1.
<mgrwt>
<rscale>  0 0.20910931E+04</rscale>
<asrwt>0</asrwt>
<pdfrwt beam="1">  1        2 0.16269906E+00 0.20910931E+04</pdfrwt>
<pdfrwt beam="2">  1       -2 0.15902850E+00 0.20910931E+04</pdfrwt>
<totfact> 0.54681745E+00</totfact>
</mgrwt>
</event>
<event>
12    1  0.1467288E-007  0.1289283E+04  0.7818608E-02  0.9038107E-01
         -1   -1    0    0    0  501 -0.00000000000E+00  0.00000000000E+00  0.95416645381E+03  0.95416645381E+03  0.00000000000E+00 0.  1.
          1   -1    0    0  501    0  0.00000000000E+00 -0.00000000000E+00 -0.43552458111E+03  0.43552458111E+03  0.00000000000E+00 0. -1.
         23    2    1    2    0    0  0.23550431626E+03  0.97792740646E+02  0.33490913351E+03  0.43083666542E+03  0.91817217693E+02 0.  0.
        254    2    1    2    0    0 -0.23550431626E+03 -0.97792740646E+02  0.18373273919E+03  0.95885436949E+03  0.90587983714E+03 0.  0.
        -24    2    4    4    0    0 -0.40415466501E+03  0.28251262182E+03  0.35190993787E+01  0.49879579287E+03  0.75036552319E+02 0.  0.
         24    2    4    4    0    0  0.16865034875E+03 -0.38030536247E+03  0.18021363981E+03  0.46005857662E+03  0.78114205409E+02 0.  0.
         11    1    3    3    0    0 -0.10360459085E+01 -0.55758052385E+01  0.33577888742E+02  0.34053452212E+02  0.00000000000E+00 0. -1.
        -11    1    3    3    0    0  0.23654036217E+03  0.10336854588E+03  0.30133124477E+03  0.39678321321E+03  0.00000000000E+00 0.  1.
          4    1    6    6  502    0  0.86272866575E+02 -0.12127061251E+03  0.39509986891E+02  0.15398249260E+03  0.00000000000E+00 0. -1.
          1    1    5    5  503    0 -0.43932882257E+02  0.16358570419E+02 -0.18441228669E+02  0.50376382208E+02  0.00000000000E+00 0. -1.
         -2    1    5    5    0  503 -0.36022178276E+03  0.26615405141E+03  0.21960328048E+02  0.44841941066E+03  0.00000000000E+00 0.  1.
         -3    1    6    6    0  502  0.82377482178E+02 -0.25903474996E+03  0.14070365292E+03  0.30607608401E+03  0.00000000000E+00 0.  1.
<mgrwt>
<rscale>  0 0.12892834E+04</rscale>
<asrwt>0</asrwt>
<pdfrwt beam="1">  1        1 0.67003782E-01 0.12892834E+04</pdfrwt>
<pdfrwt beam="2">  1       -1 0.14679484E+00 0.12892834E+04</pdfrwt>
<totfact> 0.19461056E+01</totfact>
</mgrwt>
</event>
<event>
12    1  0.1467288E-007  0.1691996E+04  0.7818608E-02  0.8765942E-01
          1   -1    0    0  501    0  0.00000000000E+00  0.00000000000E+00  0.12125566684E+04  0.12125566684E+04  0.00000000000E+00 0. -1.
         -1   -1    0    0    0  501 -0.00000000000E+00 -0.00000000000E+00 -0.59025093936E+03  0.59025093936E+03  0.00000000000E+00 0.  1.
         23    2    1    2    0    0  0.50404898211E+03  0.10390433506E+03 -0.11131575387E+03  0.53377598699E+03  0.87544960013E+02 0.  0.
        254    2    1    2    0    0 -0.50404898211E+03 -0.10390433506E+03  0.73362148287E+03  0.12690316207E+04  0.89854286880E+03 0.  0.
        -24    2    4    4    0    0 -0.49729748511E+03  0.26294237243E+03  0.17305647049E+03  0.59423485171E+03  0.81994128391E+02 0.  0.
         24    2    4    4    0    0 -0.67514969962E+01 -0.36684670749E+03  0.56056501237E+03  0.67479676902E+03  0.80594397269E+02 0.  0.
         13    1    3    3    0    0  0.58531146016E+02  0.48250158046E+01 -0.41855949409E+02  0.72118626806E+02  0.00000000000E+00 0. -1.
        -13    1    3    3    0    0  0.44551783609E+03  0.99079319253E+02 -0.69459804459E+02  0.46165736019E+03  0.00000000000E+00 0.  1.
          2    1    6    6  502    0 -0.13869046024E+02 -0.92359833493E+02  0.20732816175E+03  0.22739317478E+03  0.00000000000E+00 0. -1.
          1    1    5    5  503    0 -0.11740970480E+03  0.74039682313E+02  0.81308995269E+01  0.13904324818E+03  0.00000000000E+00 0. -1.
         -2    1    5    5    0  503 -0.37988778031E+03  0.18890269012E+03  0.16492557096E+03  0.45519160353E+03  0.00000000000E+00 0.  1.
         -1    1    6    6    0  502  0.71175490276E+01 -0.27448687400E+03  0.35323685062E+03  0.44740359424E+03  0.00000000000E+00 0.  1.
<mgrwt>
<rscale>  0 0.16919961E+04</rscale>
<asrwt>0</asrwt>
<pdfrwt beam="1">  1        1 0.18654718E+00 0.16919961E+04</pdfrwt>
<pdfrwt beam="2">  1       -1 0.90807837E-01 0.16919961E+04</pdfrwt>
<totfact> 0.11799709E+01</totfact>
</mgrwt>
</event>
<event>
12    1  0.1467288E-007  0.1460656E+04  0.7818608E-02  0.8911046E-01
         -2   -1    0    0    0  501 -0.00000000000E+00  0.00000000000E+00  0.43191190974E+03  0.43191190974E+03  0.00000000000E+00 0.  1.
          2   -1    0    0  501    0  0.00000000000E+00 -0.00000000000E+00 -0.12349259627E+04  0.12349259627E+04  0.00000000000E+00 0. -1.
         23    2    1    2    0    0  0.27970358088E+03 -0.31323422265E+03 -0.72302998270E+02  0.43593360961E+03  0.91981612456E+02 0.  0.
        254    2    1    2    0    0 -0.27970358088E+03  0.31323422265E+03 -0.73071105470E+03  0.12309042628E+04  0.89712701857E+03 0.  0.
        -24    2    4    4    0    0 -0.50600277528E+03  0.47621038957E+03 -0.48685248981E+03  0.85198664716E+03  0.77722302910E+02 0.  0.
         24    2    4    4    0    0  0.22629919440E+03 -0.16297616692E+03 -0.24385856488E+03  0.37891761569E+03  0.79617858809E+02 0.  0.
         13    1    3    3    0    0  0.11440754267E+03 -0.19231715680E+03 -0.20692536681E+02  0.22472907176E+03  0.00000000000E+00 0.  1.
        -13    1    3    3    0    0  0.16529603821E+03 -0.12091706585E+03 -0.51610461589E+02  0.21120453784E+03  0.00000000000E+00 0. -1.
          4    1    6    6  502    0  0.25889463150E+02 -0.17721903636E+02  0.11587897853E+00  0.31374250567E+02  0.00000000000E+00 0. -1.
          1    1    5    5  503    0 -0.12384544299E+03  0.83615765978E+02 -0.13065990637E+03  0.19849761006E+03  0.00000000000E+00 0. -1.
         -2    1    5    5    0  503 -0.38215733229E+03  0.39259462360E+03 -0.35619258344E+03  0.65348903709E+03  0.00000000000E+00 0.  1.
         -3    1    6    6    0  502  0.20040973125E+03 -0.14525426329E+03 -0.24397444386E+03  0.34754336512E+03  0.00000000000E+00 0.  1.
<mgrwt>
<rscale>  0 0.14606563E+04</rscale>
<asrwt>0</asrwt>
<pdfrwt beam="1">  1        2 0.18998861E+00 0.14606563E+04</pdfrwt>
<pdfrwt beam="2">  1       -2 0.66447987E-01 0.14606563E+04</pdfrwt>
<totfact> 0.36423419E+01</totfact>
</mgrwt>
</event>
<event>
12    1  0.1467288E-007  0.1900213E+04  0.7818608E-02  0.8654750E-01
          2   -1    0    0  501    0  0.00000000000E+00  0.00000000000E+00  0.21781260844E+04  0.21781260844E+04  0.00000000000E+00 0. -1.
         -2   -1    0    0    0  501 -0.00000000000E+00 -0.00000000000E+00 -0.41444011475E+03  0.41444011475E+03  0.00000000000E+00 0.  1.
         23    2    1    2    0    0  0.27781827148E+03 -0.61757183673E+03  0.29967580380E+03  0.74637212960E+03  0.93208384622E+02 0.  0.
        254    2    1    2    0    0 -0.27781827148E+03  0.61757183673E+03  0.14640101659E+04  0.18461940696E+04  0.89806949131E+03 0.  0.
        -24    2    4    4    0    0 -0.30711027947E+03 -0.10962148383E+03  0.75766304432E+03  0.82881436209E+03  0.80909607609E+02 0.  0.
         24    2    4    4    0    0  0.29292007984E+02  0.72719332056E+03  0.70634712154E+03  0.10173797075E+04  0.80418069190E+02 0.  0.
         13    1    3    3    0    0  0.17496152688E+03 -0.48615986323E+03  0.22531475409E+03  0.56367516081E+03  0.00000000000E+00 0.  1.
        -13    1    3    3    0    0  0.10285674460E+03 -0.13141197350E+03  0.74361049710E+02  0.18269696878E+03  0.00000000000E+00 0. -1.
          4    1    6    6  502    0  0.42227555229E+02  0.19388078662E+03  0.20494851501E+03  0.28526622592E+03  0.00000000000E+00 0. -1.
          3    1    5    5  503    0 -0.34576803642E+02 -0.11064332105E+02  0.16680689008E+03  0.17071178452E+03  0.00000000000E+00 0. -1.
         -4    1    5    5    0  503 -0.27253347582E+03 -0.98557151727E+02  0.59085615424E+03  0.65810257757E+03  0.00000000000E+00 0.  1.
         -3    1    6    6    0  502 -0.12935547246E+02  0.53331253394E+03  0.50139860653E+03  0.73211348155E+03  0.00000000000E+00 0.  1.
<mgrwt>
<rscale>  0 0.19002135E+04</rscale>
<asrwt>0</asrwt>
<pdfrwt beam="1">  1        2 0.33509631E+00 0.19002135E+04</pdfrwt>
<pdfrwt beam="2">  1       -2 0.63760019E-01 0.19002135E+04</pdfrwt>
<totfact> 0.11321484E+01</totfact>
</mgrwt>
</event>
<event>
12    1  0.1467288E-007  0.2376028E+04  0.7818608E-02  0.8448533E-01
         -1   -1    0    0    0  501 -0.00000000000E+00  0.00000000000E+00  0.78541463437E+03  0.78541463437E+03  0.00000000000E+00 0.  1.
          1   -1    0    0  501    0  0.00000000000E+00 -0.00000000000E+00 -0.17969833200E+04  0.17969833200E+04  0.00000000000E+00 0. -1.
         23    2    1    2    0    0 -0.16521423349E+03 -0.99822569435E+03 -0.54253056143E+03  0.11520499195E+04  0.95547511908E+02 0.  0.
        254    2    1    2    0    0  0.16521423349E+03  0.99822569435E+03 -0.46903812418E+03  0.14303480349E+04  0.89562741092E+03 0.  0.
        -24    2    4    4    0    0  0.52705220710E+03  0.66187105855E+03 -0.31904611881E+03  0.90775406580E+03  0.79810343299E+02 0.  0.
         24    2    4    4    0    0 -0.36183797361E+03  0.33635463580E+03 -0.14999200537E+03  0.52259396910E+03  0.80905467630E+02 0.  0.
         13    1    3    3    0    0 -0.60178602568E+02 -0.18444652438E+03 -0.77636768479E+02  0.20897237229E+03  0.00000000000E+00 0. -1.
        -13    1    3    3    0    0 -0.10503563093E+03 -0.81377916997E+03 -0.46489379295E+03  0.94307754716E+03  0.00000000000E+00 0.  1.
          2    1    6    6  502    0 -0.57076970896E+02  0.97972679539E+02 -0.41652265950E+02  0.12079460998E+03  0.00000000000E+00 0. -1.
          3    1    5    5  503    0  0.36590495680E+02  0.76830039270E+02 -0.17209255692E+02  0.86820952481E+02  0.00000000000E+00 0. -1.
         -4    1    5    5    0  503  0.49046171142E+03  0.58504101928E+03 -0.30183686312E+03  0.82093311332E+03  0.00000000000E+00 0.  1.
         -1    1    6    6    0  502 -0.30476100271E+03  0.23838195626E+03 -0.10833973942E+03  0.40179935911E+03  0.00000000000E+00 0.  1.
<mgrwt>
<rscale>  0 0.23760278E+04</rscale>
<asrwt>0</asrwt>
<pdfrwt beam="1">  1        1 0.27645897E+00 0.23760278E+04</pdfrwt>
<pdfrwt beam="2">  1       -1 0.12083302E+00 0.23760278E+04</pdfrwt>
<totfact> 0.22369869E+00</totfact>
</mgrwt>
</event>
<event>
12    1  0.1467288E-007  0.3078429E+04  0.7818608E-02  0.8221683E-01
          1   -1    0    0  501    0  0.00000000000E+00  0.00000000000E+00  0.13557760516E+04  0.13557760516E+04  0.00000000000E+00 0. -1.
         -1   -1    0    0    0  501 -0.00000000000E+00 -0.00000000000E+00 -0.17474727887E+04  0.17474727887E+04  0.00000000000E+00 0.  1.
         23    2    1    2    0    0 -0.90865646237E+01  0.80757709913E+03 -0.13521949062E+04  0.15776745090E+04  0.91446462000E+02 0.  0.
        254    2    1    2    0    0  0.90865646237E+01 -0.80757709913E+03  0.96049816909E+03  0.15255743313E+04  0.86750041540E+03 0.  0.
        -24    2    4    4    0    0 -0.57994274592E+02 -0.23964817589E+03  0.90972390144E+03  0.94599449548E+03  0.80705790029E+02 0.  0.
         24    2    4    4    0    0  0.67080839216E+02 -0.56792892323E+03  0.50774267656E+02  0.57957983579E+03  0.79319978327E+02 0.  0.
         13    1    3    3    0    0 -0.42513514360E+01  0.98909080289E+02 -0.11376220071E+03  0.15080755439E+03  0.00000000000E+00 0. -1.
        -13    1    3    3    0    0 -0.48352131877E+01  0.70866801884E+03 -0.12384327055E+04  0.14268669546E+04  0.00000000000E+00 0.  1.
          4    1    6    6  502    0  0.77019167429E+02 -0.32683016727E+03  0.38208039523E+02  0.33794935223E+03  0.00000000000E+00 0. -1.
          1    1    5    5  503    0 -0.43079220540E+02 -0.23893785199E+03  0.87768162239E+03  0.91064380887E+03  0.00000000000E+00 0. -1.
         -2    1    5    5    0  503 -0.14915054052E+02 -0.71032390819E+00  0.32042279045E+02  0.35350686611E+02  0.00000000000E+00 0.  1.
         -3    1    6    6    0  502 -0.99383282126E+01 -0.24109875597E+03  0.12566228132E+02  0.24163048356E+03  0.00000000000E+00 0.  1.
<mgrwt>
<rscale>  0 0.30784293E+04</rscale>
<asrwt>0</asrwt>
<pdfrwt beam="1">  1        1 0.20858093E+00 0.30784293E+04</pdfrwt>
<pdfrwt beam="2">  1       -1 0.26884197E+00 0.30784293E+04</pdfrwt>
<totfact> 0.36686129E-01</totfact>
</mgrwt>
</event>
<event>
12    1  0.1467288E-007  0.1253109E+04  0.7818608E-02  0.9067600E-01
         -1   -1    0    0    0  501 -0.00000000000E+00  0.00000000000E+00  0.23429740001E+03  0.23429740001E+03  0.00000000000E+00 0.  1.
          1   -1    0    0  501    0  0.00000000000E+00 -0.00000000000E+00 -0.16755220536E+04  0.16755220536E+04  0.00000000000E+00 0. -1.
         23    2    1    2    0    0  0.10674937774E+03 -0.17226527328E+03 -0.27250897454E+02  0.22214348595E+03  0.86800708015E+02 0.  0.
        254    2    1    2    0    0 -0.10674937774E+03  0.17226527328E+03 -0.14139737561E+04  0.16876759676E+04  0.89880900904E+03 0.  0.
        -24    2    4    4    0    0 -0.25111823737E+03  0.82545434008E+02 -0.14668505376E+04  0.14925403280E+04  0.78434772098E+02 0.  0.
         24    2    4    4    0    0  0.14436885963E+03  0.89719839268E+02  0.52876781438E+02  0.19513563960E+03  0.79937141798E+02 0.  0.
         13    1    3    3    0    0  0.70446304930E+02 -0.58765422835E+02 -0.44109702628E+02  0.10179254720E+03  0.00000000000E+00 0. -1.
        -13    1    3    3    0    0  0.36303072808E+02 -0.11349985044E+03  0.16858805174E+02  0.12035093875E+03  0.00000000000E+00 0.  1.
          2    1    6    6  502    0  0.14866612725E+03  0.98060867186E+02  0.47493708110E+02  0.18431821227E+03  0.00000000000E+00 0. -1.
          1    1    5    5  503    0 -0.21681869935E+03  0.48882413372E+02 -0.10736909171E+04  0.10964542964E+04  0.00000000000E+00 0. -1.
         -2    1    5    5    0  503 -0.34299538019E+02  0.33663020636E+02 -0.39315962049E+03  0.39608603163E+03  0.00000000000E+00 0.  1.
         -1    1    6    6    0  502 -0.42972676155E+01 -0.83410279183E+01  0.53830733284E+01  0.10817427335E+02  0.00000000000E+00 0.  1.
<mgrwt>
<rscale>  0 0.12531089E+04</rscale>
<asrwt>0</asrwt>
<pdfrwt beam="1">  1        1 0.25777263E+00 0.12531089E+04</pdfrwt>
<pdfrwt beam="2">  1       -1 0.36045753E-01 0.12531089E+04</pdfrwt>
<totfact> 0.35945608E+01</totfact>
</mgrwt>
</event>
<event>
12    1  0.1467288E-007  0.1589340E+04  0.7818608E-02  0.8827124E-01
         -2   -1    0    0    0  501 -0.00000000000E+00  0.00000000000E+00  0.15904782912E+04  0.15904782912E+04  0.00000000000E+00 0. -1.
          2   -1    0    0  501    0  0.00000000000E+00 -0.00000000000E+00 -0.39705077346E+03  0.39705077346E+03  0.00000000000E+00 0.  1.
         23    2    1    2    0    0  0.43042698153E+03 -0.25805489270E+03  0.62581154712E+03  0.80724192906E+03  0.90220427040E+02 0.  0.
        254    2    1    2    0    0 -0.43042698153E+03  0.25805489270E+03  0.56761597062E+03  0.11802871356E+04  0.90500282778E+03 0.  0.
        -24    2    4    4    0    0 -0.47253161356E+03 -0.23395643278E+03  0.32303710332E+03  0.62327214944E+03  0.78060642342E+02 0.  0.
         24    2    4    4    0    0  0.42104632036E+02  0.49201132548E+03  0.24457886730E+03  0.55701498617E+03  0.81233786320E+02 0.  0.
         13    1    3    3    0    0  0.12976605507E+03 -0.32910415337E+02  0.15040284216E+03  0.20135376683E+03  0.00000000000E+00 0.  1.
        -13    1    3    3    0    0  0.30066092646E+03 -0.22514447736E+03  0.47540870495E+03  0.60588816223E+03  0.00000000000E+00 0. -1.
          4    1    6    6  502    0 -0.16251521105E+02  0.21122785410E+03  0.12745089720E+03  0.24723480637E+03  0.00000000000E+00 0. -1.
          1    1    5    5  503    0 -0.43753479395E+02 -0.49108656126E+02  0.32852387304E+02  0.73520789014E+02  0.00000000000E+00 0. -1.
         -2    1    5    5    0  503 -0.42877813417E+03 -0.18484777666E+03  0.29018471602E+03  0.54975136042E+03  0.00000000000E+00 0.  1.
         -3    1    6    6    0  502  0.58356153140E+02  0.28078347139E+03  0.11712797010E+03  0.30978017979E+03  0.00000000000E+00 0.  1.
<mgrwt>
<rscale>  0 0.15893403E+04</rscale>
<asrwt>0</asrwt>
<pdfrwt beam="1">  1        2 0.61084735E-01 0.15893403E+04</pdfrwt>
<pdfrwt beam="2">  1       -2 0.24468897E+00 0.15893403E+04</pdfrwt>
<totfact> 0.53330235E+00</totfact>
</mgrwt>
</event>
<event>
12    1  0.1467288E-007  0.1316830E+04  0.7818608E-02  0.9016324E-01
         -2   -1    0    0    0  501 -0.00000000000E+00  0.00000000000E+00  0.62970057517E+03  0.62970057517E+03  0.00000000000E+00 0.  1.
          2   -1    0    0  501    0  0.00000000000E+00 -0.00000000000E+00 -0.68843887266E+03  0.68843887266E+03  0.00000000000E+00 0. -1.
         23    2    1    2    0    0  0.11714219330E+03 -0.20124628593E+03  0.23615665813E+03  0.34394506427E+03  0.91136595301E+02 0.  0.
        254    2    1    2    0    0 -0.11714219330E+03  0.20124628593E+03 -0.29489495563E+03  0.97419438356E+03  0.89881549890E+03 0.  0.
        -24    2    4    4    0    0 -0.18943030526E+02  0.48413424805E+02  0.31689835136E+03  0.33105898886E+03  0.80453656866E+02 0.  0.
         24    2    4    4    0    0 -0.98199162771E+02  0.15283286113E+03 -0.61179330699E+03  0.64313539470E+03  0.79568375853E+02 0.  0.
         13    1    3    3    0    0  0.66190354970E+02 -0.34336859205E+02  0.84986205411E+02  0.11306121396E+03  0.00000000000E+00 0.  1.
        -13    1    3    3    0    0  0.50951838328E+02 -0.16690942673E+03  0.15117045272E+03  0.23088385031E+03  0.00000000000E+00 0. -1.
          4    1    6    6  502    0 -0.86853305633E+02  0.12322602345E+03 -0.57561304854E+03  0.59502817682E+03  0.00000000000E+00 0. -1.
          1    1    5    5  503    0 -0.15251448811E+02  0.13854151315E+02  0.27852303322E+03  0.27928412814E+03  0.00000000000E+00 0. -1.
         -2    1    5    5    0  503 -0.36915817154E+01  0.34559273490E+02  0.38375318141E+02  0.51774860716E+02  0.00000000000E+00 0.  1.
         -3    1    6    6    0  502 -0.11345857139E+02  0.29606837678E+02 -0.36180258443E+02  0.48107217883E+02  0.00000000000E+00 0.  1.
<mgrwt>
<rscale>  0 0.13168301E+04</rscale>
<asrwt>0</asrwt>
<pdfrwt beam="1">  1        2 0.10591367E+00 0.13168301E+04</pdfrwt>
<pdfrwt beam="2">  1       -2 0.96877012E-01 0.13168301E+04</pdfrwt>
<totfact> 0.36481451E+01</totfact>
</mgrwt>
</event>
<event>
12    1  0.1467288E-007  0.1438700E+04  0.7818608E-02  0.8926272E-01
          2   -1    0    0  501    0  0.00000000000E+00  0.00000000000E+00  0.90994299912E+03  0.90994299912E+03  0.00000000000E+00 0. -1.
         -2   -1    0    0    0  501 -0.00000000000E+00 -0.00000000000E+00 -0.56867765600E+03  0.56867765600E+03  0.00000000000E+00 0.  1.
         23    2    1    2    0    0  0.10951406298E+03 -0.23841987100E+03  0.46368430929E+03  0.54073209867E+03  0.92469989554E+02 0.  0.
        254    2    1    2    0    0 -0.10951406298E+03  0.23841987100E+03 -0.12241896617E+03  0.93788855645E+03  0.89208249404E+03 0.  0.
        -24    2    4    4    0    0  0.49190925098E+02  0.50658542275E+03  0.12884025565E+03  0.53102363102E+03  0.79609971517E+02 0.  0.
         24    2    4    4    0    0 -0.15870498808E+03 -0.26816555176E+03 -0.25125922182E+03  0.40686492543E+03  0.72854887339E+02 0.  0.
         11    1    3    3    0    0 -0.58635018998E+01 -0.89200853954E+02  0.14032425714E+03  0.16637929601E+03  0.00000000000E+00 0.  1.
        -11    1    3    3    0    0  0.11537756488E+03 -0.14921901704E+03  0.32336005215E+03  0.37435280265E+03  0.00000000000E+00 0. -1.
          2    1    6    6  502    0 -0.16055927821E+03 -0.22764697118E+03 -0.22888384056E+03  0.36054158952E+03  0.00000000000E+00 0. -1.
          1    1    5    5  503    0  0.57215379436E+02  0.32855514846E+03  0.54476955017E+02  0.33791984826E+03  0.00000000000E+00 0. -1.
         -2    1    5    5    0  503 -0.80244543374E+01  0.17803027429E+03  0.74363300633E+02  0.19310378275E+03  0.00000000000E+00 0.  1.
         -1    1    6    6    0  502  0.18542901234E+01 -0.40518580572E+02 -0.22375381261E+02  0.46323335911E+02  0.00000000000E+00 0.  1.
<mgrwt>
<rscale>  0 0.14386998E+04</rscale>
<asrwt>0</asrwt>
<pdfrwt beam="1">  1        2 0.13999123E+00 0.14386998E+04</pdfrwt>
<pdfrwt beam="2">  1       -2 0.87488870E-01 0.14386998E+04</pdfrwt>
<totfact> 0.31616592E+01</totfact>
</mgrwt>
</event>
<event>
12    1  0.1467288E-007  0.1691835E+04  0.7818608E-02  0.8766035E-01
         -1   -1    0    0    0  501 -0.00000000000E+00  0.00000000000E+00  0.15365567162E+04  0.15365567162E+04  0.00000000000E+00 0.  1.
          1   -1    0    0  501    0  0.00000000000E+00 -0.00000000000E+00 -0.46570137538E+03  0.46570137538E+03  0.00000000000E+00 0. -1.
         23    2    1    2    0    0  0.17346922924E+03  0.18652674518E+03 -0.26133184037E+03  0.37615541460E+03  0.91185333135E+02 0.  0.
        254    2    1    2    0    0 -0.17346922924E+03 -0.18652674518E+03  0.13321871812E+04  0.16261026770E+04  0.89699689532E+03 0.  0.
        -24    2    4    4    0    0  0.52883265004E+02  0.17121461493E+03  0.11362999135E+04  0.11529482707E+04  0.77467007937E+02 0.  0.
         24    2    4    4    0    0 -0.22635249425E+03 -0.35774136011E+03  0.19588726769E+03  0.47315440633E+03  0.79302825905E+02 0.  0.
         11    1    3    3    0    0  0.15852091390E+03  0.11128421111E+03 -0.19289095584E+03  0.27334955027E+03  0.00000000000E+00 0. -1.
        -11    1    3    3    0    0  0.14948315337E+02  0.75242534077E+02 -0.68440884527E+02  0.10280586433E+03  0.00000000000E+00 0.  1.
          2    1    6    6  502    0 -0.36733326723E+02 -0.49011824762E+02  0.61293768935E+02  0.86651153304E+02  0.00000000000E+00 0. -1.
          3    1    5    5  503    0  0.39215591265E+02  0.10986228904E+03  0.49427050277E+03  0.50784930349E+03  0.00000000000E+00 0. -1.
         -4    1    5    5    0  503  0.13667673739E+02  0.61352325889E+02  0.64202941074E+03  0.64509896717E+03  0.00000000000E+00 0.  1.
         -1    1    6    6    0  502 -0.18961916752E+03 -0.30872953535E+03  0.13459349876E+03  0.38650325302E+03  0.00000000000E+00 0.  1.
<mgrwt>
<rscale>  0 0.16918352E+04</rscale>
<asrwt>0</asrwt>
<pdfrwt beam="1">  1        1 0.71646366E-01 0.16918352E+04</pdfrwt>
<pdfrwt beam="2">  1       -1 0.23639334E+00 0.16918352E+04</pdfrwt>
<totfact> 0.39850752E+00</totfact>
</mgrwt>
</event>
<event>
12    1  0.1467288E-007  0.1881773E+04  0.7818608E-02  0.8663983E-01
          2   -1    0    0  501    0  0.00000000000E+00  0.00000000000E+00  0.16113351090E+04  0.16113351090E+04  0.00000000000E+00 0. -1.
         -2   -1    0    0    0  501 -0.00000000000E+00 -0.00000000000E+00 -0.54939970417E+03  0.54939970417E+03  0.00000000000E+00 0.  1.
         23    2    1    2    0    0  0.38490346794E+03 -0.46131840521E+03 -0.45728251101E+02  0.60947341024E+03  0.91659228744E+02 0.  0.
        254    2    1    2    0    0 -0.38490346794E+03  0.46131840521E+03  0.11076636559E+04  0.15512614029E+04  0.90472527040E+03 0.  0.
        -24    2    4    4    0    0  0.17692317677E+03  0.41739427315E+03  0.25618505259E+03  0.52694823179E+03  0.80770465419E+02 0.  0.
         24    2    4    4    0    0 -0.56182664472E+03  0.43924132068E+02  0.85147860330E+03  0.10243131711E+04  0.81382753181E+02 0.  0.
         11    1    3    3    0    0  0.34502065348E+03 -0.44542329878E+03 -0.53083536428E+02  0.56591432944E+03  0.00000000000E+00 0.  1.
        -11    1    3    3    0    0  0.39882814461E+02 -0.15895106438E+02  0.73552853272E+01  0.43559080801E+02  0.00000000000E+00 0. -1.
          2    1    6    6  502    0 -0.30933893196E+03  0.52582133089E+02  0.41923285535E+03  0.52365221527E+03  0.00000000000E+00 0. -1.
          1    1    5    5  503    0  0.12537792971E+03  0.22883112254E+03  0.18074664322E+03  0.31741559026E+03  0.00000000000E+00 0. -1.
         -2    1    5    5    0  503  0.51545247060E+02  0.18856315060E+03  0.75438409365E+02  0.20953264153E+03  0.00000000000E+00 0.  1.
         -1    1    6    6    0  502 -0.25248771275E+03 -0.86580010210E+01  0.43224574795E+03  0.50066095583E+03  0.00000000000E+00 0.  1.
<mgrwt>
<rscale>  0 0.18817726E+04</rscale>
<asrwt>0</asrwt>
<pdfrwt beam="1">  1        2 0.24789771E+00 0.18817726E+04</pdfrwt>
<pdfrwt beam="2">  1       -2 0.84523032E-01 0.18817726E+04</pdfrwt>
<totfact> 0.12580214E+01</totfact>
</mgrwt>
</event>
<event>
12    1  0.1467288E-007  0.1583397E+04  0.7818608E-02  0.8830813E-01
          1   -1    0    0  501    0  0.00000000000E+00  0.00000000000E+00  0.84520293383E+03  0.84520293383E+03  0.00000000000E+00 0. -1.
         -1   -1    0    0    0  501 -0.00000000000E+00 -0.00000000000E+00 -0.74158144113E+03  0.74158144113E+03  0.00000000000E+00 0.  1.
         23    2    1    2    0    0 -0.90533554948E+02  0.18817150095E+03 -0.45493131395E+03  0.50869278976E+03  0.90559458925E+02 0.  0.
        254    2    1    2    0    0  0.90533554948E+02 -0.18817150095E+03  0.55855280664E+03  0.10780915852E+04  0.89816222919E+03 0.  0.
        -24    2    4    4    0    0 -0.36300014359E+03  0.61740625367E+02  0.11939878315E+03  0.39544366482E+03  0.80861694019E+02 0.  0.
         24    2    4    4    0    0  0.45353369854E+03 -0.24991212631E+03  0.43915402349E+03  0.68264792038E+03  0.70732172800E+02 0.  0.
         11    1    3    3    0    0 -0.82063388677E+01  0.73371039671E+02 -0.84340541951E+02  0.11208916306E+03  0.00000000000E+00 0. -1.
        -11    1    3    3    0    0 -0.82327216080E+02  0.11480046128E+03 -0.37059077200E+03  0.39660362669E+03  0.00000000000E+00 0.  1.
          4    1    6    6  502    0  0.34241202773E+03 -0.21361569077E+03  0.36543724066E+03  0.54444654186E+03  0.00000000000E+00 0. -1.
          1    1    5    5  503    0 -0.20700077397E+03  0.15418901968E+02  0.29876310990E+02  0.20971327311E+03  0.00000000000E+00 0. -1.
         -2    1    5    5    0  503 -0.15599936963E+03  0.46321723400E+02  0.89522472164E+02  0.18573039171E+03  0.00000000000E+00 0.  1.
         -3    1    6    6    0  502  0.11112167081E+03 -0.36296435546E+02  0.73716782828E+02  0.13820137853E+03  0.00000000000E+00 0.  1.
<mgrwt>
<rscale>  0 0.15833974E+04</rscale>
<asrwt>0</asrwt>
<pdfrwt beam="1">  1        1 0.13003122E+00 0.15833974E+04</pdfrwt>
<pdfrwt beam="2">  1       -1 0.11408945E+00 0.15833974E+04</pdfrwt>
<totfact> 0.13593469E+01</totfact>
</mgrwt>
</event>
<event>
12    1  0.1467288E-007  0.1582108E+04  0.7818608E-02  0.8831616E-01
          1   -1    0    0  501    0  0.00000000000E+00  0.00000000000E+00  0.94830620745E+03  0.94830620745E+03  0.00000000000E+00 0. -1.
         -1   -1    0    0    0  501 -0.00000000000E+00 -0.00000000000E+00 -0.65987776479E+03  0.65987776479E+03  0.00000000000E+00 0.  1.
         23    2    1    2    0    0 -0.44809837735E+03  0.76464606830E+02  0.31489026323E+03  0.56053877619E+03  0.91699781087E+02 0.  0.
        254    2    1    2    0    0  0.44809837735E+03 -0.76464606830E+02 -0.26461820574E+02  0.10476451960E+04  0.94351536128E+03 0.  0.
        -24    2    4    4    0    0 -0.25442403206E+03 -0.13317665352E+03 -0.13937234022E+03  0.32889285791E+03  0.79235431694E+02 0.  0.
         24    2    4    4    0    0  0.70252240940E+03  0.56712046689E+02  0.11291051965E+03  0.71875233814E+03  0.84274232000E+02 0.  0.
         11    1    3    3    0    0 -0.17807926222E+03 -0.97318077625E+01  0.96942103789E+02  0.20298941648E+03  0.00000000000E+00 0.  1.
        -11    1    3    3    0    0 -0.27001911512E+03  0.86196414593E+02  0.21794815944E+03  0.35754935970E+03  0.00000000000E+00 0. -1.
          2    1    6    6  502    0  0.71353730694E+02 -0.15368844864E+02 -0.27323481485E+01  0.73041234948E+02  0.00000000000E+00 0. -1.
          1    1    5    5  503    0  0.24685274274E+01 -0.89962431268E+01 -0.14929151898E+02  0.17604135720E+02  0.00000000000E+00 0. -1.
         -2    1    5    5    0  503 -0.25689255948E+03 -0.12418041039E+03 -0.12444318832E+03  0.31128872219E+03  0.00000000000E+00 0.  1.
         -1    1    6    6    0  502  0.63116867871E+03  0.72080891553E+02  0.11564286780E+03  0.64571110319E+03  0.00000000000E+00 0.  1.
<mgrwt>
<rscale>  0 0.15821077E+04</rscale>
<asrwt>0</asrwt>
<pdfrwt beam="1">  1        1 0.14589326E+00 0.15821077E+04</pdfrwt>
<pdfrwt beam="2">  1       -1 0.10151966E+00 0.15821077E+04</pdfrwt>
<totfact> 0.14712699E+01</totfact>
</mgrwt>
</event>
<event>
12    1  0.1467288E-007  0.4931274E+04  0.7818608E-02  0.7839197E-01
         -2   -1    0    0    0  501 -0.00000000000E+00  0.00000000000E+00  0.21858354104E+04  0.21858354104E+04  0.00000000000E+00 0.  1.
          2   -1    0    0  501    0  0.00000000000E+00 -0.00000000000E+00 -0.27812552524E+04  0.27812552524E+04  0.00000000000E+00 0. -1.
         23    2    1    2    0    0  0.10376411696E+04  0.18247674929E+04 -0.14192846202E+04  0.25355553039E+04  0.90533232582E+02 0.  0.
        254    2    1    2    0    0 -0.10376411696E+04 -0.18247674929E+04  0.82386477816E+03  0.24315353589E+04  0.90946986145E+03 0.  0.
        -24    2    4    4    0    0 -0.35387012943E+03 -0.58082898267E+03 -0.16002954475E+03  0.70251898260E+03  0.73055390699E+02 0.  0.
         24    2    4    4    0    0 -0.68377104015E+03 -0.12439385102E+04  0.98389432291E+03  0.17290163763E+04  0.80769661618E+02 0.  0.
         11    1    3    3    0    0  0.87592711860E+03  0.14902031539E+04 -0.11967696416E+04  0.21024298637E+04  0.00000000000E+00 0. -1.
        -11    1    3    3    0    0  0.16171405099E+03  0.33456433903E+03 -0.22251497857E+03  0.43312544018E+03  0.00000000000E+00 0.  1.
          2    1    6    6  502    0 -0.27337145585E+03 -0.57700898595E+03  0.45634926833E+03  0.78480951667E+03  0.00000000000E+00 0. -1.
          1    1    5    5  503    0 -0.34218157968E+03 -0.53101425615E+03 -0.13696345948E+03  0.64639257648E+03  0.00000000000E+00 0. -1.
         -2    1    5    5    0  503 -0.11688549754E+02 -0.49814726522E+02 -0.23066085273E+02  0.56126406118E+02  0.00000000000E+00 0.  1.
         -1    1    6    6    0  502 -0.41039958430E+03 -0.66692952427E+03  0.52754505458E+03  0.94420685962E+03  0.00000000000E+00 0.  1.
<mgrwt>
<rscale>  0 0.49312742E+04</rscale>
<asrwt>0</asrwt>
<pdfrwt beam="1">  1        2 0.42788542E+00 0.49312742E+04</pdfrwt>
<pdfrwt beam="2">  1       -2 0.33628237E+00 0.49312742E+04</pdfrwt>
<totfact> 0.32954026E-02</totfact>
</mgrwt>
</event>
<event>
12    1  0.1467288E-007  0.1344573E+04  0.7818608E-02  0.8994946E-01
          2   -1    0    0  501    0  0.00000000000E+00  0.00000000000E+00  0.89398606299E+03  0.89398606299E+03  0.00000000000E+00 0.  1.
         -2   -1    0    0    0  501 -0.00000000000E+00 -0.00000000000E+00 -0.50556649962E+03  0.50556649962E+03  0.00000000000E+00 0. -1.
         23    2    1    2    0    0  0.90641593984E+02 -0.33784209337E+03  0.23049905266E+03  0.42886136156E+03  0.91864441173E+02 0.  0.
        254    2    1    2    0    0 -0.90641593984E+02  0.33784209337E+03  0.15792051071E+03  0.97069120105E+03  0.89159931667E+03 0.  0.
        -24    2    4    4    0    0  0.13438491020E+03  0.26117972580E+03  0.47706784168E+03  0.56566275217E+03  0.78143908096E+02 0.  0.
         24    2    4    4    0    0 -0.22502650419E+03  0.76662367566E+02 -0.31914733097E+03  0.40502844888E+03  0.75359003111E+02 0.  0.
         13    1    3    3    0    0  0.75165458303E+02 -0.31883523639E+03  0.18254060875E+03  0.37500243723E+03  0.00000000000E+00 0.  1.
        -13    1    3    3    0    0  0.15476135681E+02 -0.19006856977E+02  0.47958443909E+02  0.53858924329E+02  0.00000000000E+00 0. -1.
          2    1    6    6  502    0 -0.20164519235E+03  0.91727122795E+02 -0.28587342095E+03  0.36166042285E+03  0.00000000000E+00 0. -1.
          3    1    5    5  503    0  0.78286245382E+02  0.11365867999E+03  0.28813163692E+03  0.31947906339E+03  0.00000000000E+00 0. -1.
         -4    1    5    5    0  503  0.56098664823E+02  0.14752104582E+03  0.18893620476E+03  0.24618368878E+03  0.00000000000E+00 0.  1.
         -1    1    6    6    0  502 -0.23381311840E+02 -0.15064755229E+02 -0.33273910021E+02  0.43368026027E+02  0.00000000000E+00 0.  1.
<mgrwt>
<rscale>  0 0.13445734E+04</rscale>
<asrwt>0</asrwt>
<pdfrwt beam="1">  1        2 0.13753632E+00 0.13445734E+04</pdfrwt>
<pdfrwt beam="2">  1       -2 0.77779461E-01 0.13445734E+04</pdfrwt>
<totfact> 0.42600749E+01</totfact>
</mgrwt>
</event>
<event>
12    1  0.1467288E-007  0.1567084E+04  0.7818608E-02  0.8841028E-01
         -2   -1    0    0    0  501 -0.00000000000E+00  0.00000000000E+00  0.14689981758E+04  0.14689981758E+04  0.00000000000E+00 0.  1.
          2   -1    0    0  501    0  0.00000000000E+00 -0.00000000000E+00 -0.41792994144E+03  0.41792994144E+03  0.00000000000E+00 0. -1.
         23    2    1    2    0    0 -0.21072847749E+03  0.34197053809E+03 -0.42229196549E+02  0.41348124688E+03  0.88504781395E+02 0.  0.
        254    2    1    2    0    0  0.21072847749E+03 -0.34197053809E+03  0.10932974309E+04  0.14734468703E+04  0.90243895483E+03 0.  0.
        -24    2    4    4    0    0  0.30412997337E+03  0.20185688359E+03  0.69267808105E+03  0.78691316129E+03  0.78664841555E+02 0.  0.
         24    2    4    4    0    0 -0.93401495881E+02 -0.54382742168E+03  0.40061934984E+03  0.68653370905E+03  0.79753157881E+02 0.  0.
         11    1    3    3    0    0 -0.11243187080E+03  0.18226358351E+03  0.21942594438E+02  0.21527288936E+03  0.00000000000E+00 0.  1.
        -11    1    3    3    0    0 -0.98296606690E+02  0.15970695458E+03 -0.64171790987E+02  0.19820835751E+03  0.00000000000E+00 0. -1.
          2    1    6    6  502    0 -0.66213217665E+02 -0.50321716280E+03  0.37702265576E+03  0.63226401613E+03  0.00000000000E+00 0. -1.
          3    1    5    5  503    0  0.22019120396E+03  0.11985068452E+03  0.53028126213E+03  0.58655483107E+03  0.00000000000E+00 0. -1.
         -4    1    5    5    0  503  0.83938769413E+02  0.82006199074E+02  0.16239681892E+03  0.20035833023E+03  0.00000000000E+00 0.  1.
         -1    1    6    6    0  502 -0.27188278216E+02 -0.40610258881E+02  0.23596694077E+02  0.54269692924E+02  0.00000000000E+00 0.  1.
<mgrwt>
<rscale>  0 0.15670843E+04</rscale>
<asrwt>0</asrwt>
<pdfrwt beam="1">  1        2 0.64296915E-01 0.15670843E+04</pdfrwt>
<pdfrwt beam="2">  1       -2 0.22599972E+00 0.15670843E+04</pdfrwt>
<totfact> 0.65857493E+00</totfact>
</mgrwt>
</event>
<event>
12    1  0.1467288E-007  0.2721905E+04  0.7818608E-02  0.8327932E-01
         -2   -1    0    0    0  501 -0.00000000000E+00  0.00000000000E+00  0.15368061309E+04  0.15368061309E+04  0.00000000000E+00 0. -1.
          2   -1    0    0  501    0  0.00000000000E+00 -0.00000000000E+00 -0.12052215649E+04  0.12052215649E+04  0.00000000000E+00 0.  1.
         23    2    1    2    0    0 -0.33124529300E+02 -0.10583667307E+04  0.73800334736E+03  0.12938399319E+04  0.90196770457E+02 0.  0.
        254    2    1    2    0    0  0.33124529300E+02  0.10583667307E+04 -0.40641878140E+03  0.14481877639E+04  0.90046332659E+03 0.  0.
        -24    2    4    4    0    0 -0.11991414785E+03  0.74809633460E+03 -0.66329483908E+03  0.10101620149E+04  0.80247891031E+02 0.  0.
         24    2    4    4    0    0  0.15303867715E+03  0.31027039613E+03  0.25687605768E+03  0.43802574906E+03  0.78693661801E+02 0.  0.
         13    1    3    3    0    0 -0.54998553938E+02 -0.47993560325E+03  0.36074262303E+03  0.60290817234E+03  0.00000000000E+00 0.  1.
        -13    1    3    3    0    0  0.21874024638E+02 -0.57843112748E+03  0.37726072433E+03  0.69093175952E+03  0.00000000000E+00 0. -1.
          2    1    6    6  502    0  0.82072192389E+01  0.93963989658E+02  0.62573336267E+02  0.11319015952E+03  0.00000000000E+00 0. -1.
          1    1    5    5  503    0 -0.75098697354E+02  0.46596680395E+03 -0.46387952862E+03  0.66177722369E+03  0.00000000000E+00 0. -1.
         -2    1    5    5    0  503 -0.44815450500E+02  0.28212953065E+03 -0.19941531046E+03  0.34838479116E+03  0.00000000000E+00 0.  1.
         -1    1    6    6    0  502  0.14483145792E+03  0.21630640648E+03  0.19430272142E+03  0.32483558954E+03  0.00000000000E+00 0.  1.
<mgrwt>
<rscale>  0 0.27219051E+04</rscale>
<asrwt>0</asrwt>
<pdfrwt beam="1">  1        2 0.18541870E+00 0.27219051E+04</pdfrwt>
<pdfrwt beam="2">  1       -2 0.23643171E+00 0.27219051E+04</pdfrwt>
<totfact> 0.12836862E+00</totfact>
</mgrwt>
</event>
<event>
12    1  0.1467288E-007  0.1440758E+04  0.7818608E-02  0.8924833E-01
          1   -1    0    0  501    0  0.00000000000E+00  0.00000000000E+00  0.90837542784E+02  0.90837542784E+02  0.00000000000E+00 0. -1.
         -1   -1    0    0    0  501 -0.00000000000E+00 -0.00000000000E+00 -0.57129020673E+04  0.57129020673E+04  0.00000000000E+00 0.  1.
         23    2    1    2    0    0  0.35663397500E+03 -0.13383427438E+02 -0.27173153485E+04  0.27421871952E+04  0.91766017191E+02 0.  0.
        254    2    1    2    0    0 -0.35663397500E+03  0.13383427438E+02 -0.29047491760E+04  0.30615524149E+04  0.89898192721E+03 0.  0.
        -24    2    4    4    0    0 -0.18118414139E+03 -0.23451042095E+03 -0.26190384724E+04  0.26370097541E+04  0.81456078401E+02 0.  0.
         24    2    4    4    0    0 -0.17544983361E+03  0.24789384838E+03 -0.28571070358E+03  0.42454266077E+03  0.79823934366E+02 0.  0.
         13    1    3    3    0    0  0.15741954440E+03  0.30258719770E+02 -0.99334757130E+03  0.10061987381E+04  0.00000000000E+00 0. -1.
        -13    1    3    3    0    0  0.19921443060E+03 -0.43642147209E+02 -0.17239677772E+04  0.17359884571E+04  0.00000000000E+00 0.  1.
          4    1    6    6  502    0 -0.76896795666E+02  0.14575458360E+03 -0.10767152741E+03  0.19685190789E+03  0.00000000000E+00 0. -1.
          3    1    5    5  503    0 -0.10332709337E+00 -0.45048756369E+02 -0.42001959156E+03  0.42242852463E+03  0.00000000000E+00 0. -1.
         -4    1    5    5    0  503 -0.18108081430E+03 -0.18946166458E+03 -0.21990188809E+04  0.22145812295E+04  0.00000000000E+00 0.  1.
         -3    1    6    6    0  502 -0.98553037940E+02  0.10213926478E+03 -0.17803917617E+03  0.22769075288E+03  0.00000000000E+00 0.  1.
<mgrwt>
<rscale>  0 0.14407581E+04</rscale>
<asrwt>0</asrwt>
<pdfrwt beam="1">  1        1 0.13975005E-01 0.14407581E+04</pdfrwt>
<pdfrwt beam="2">  1       -1 0.87890808E+00 0.14407581E+04</pdfrwt>
<totfact> 0.67313595E-03</totfact>
</mgrwt>
</event>
<event>
12    1  0.1467288E-007  0.2438374E+04  0.7818608E-02  0.8425275E-01
         -1   -1    0    0    0  501 -0.00000000000E+00  0.00000000000E+00  0.25562961846E+04  0.25562961846E+04  0.00000000000E+00 0.  1.
          1   -1    0    0  501    0  0.00000000000E+00 -0.00000000000E+00 -0.58147284637E+03  0.58147284637E+03  0.00000000000E+00 0. -1.
         23    2    1    2    0    0  0.67200715674E+03 -0.64265817511E+03  0.14194429423E+04  0.16993856804E+04  0.92142691296E+02 0.  0.
        254    2    1    2    0    0 -0.67200715674E+03  0.64265817511E+03  0.55538039596E+03  0.14383833506E+04  0.94651789751E+03 0.  0.
        -24    2    4    4    0    0 -0.90025172037E+03  0.49277613765E+03  0.51639399817E+03  0.11515955698E+04  0.78918396049E+02 0.  0.
         24    2    4    4    0    0  0.22824456363E+03  0.14988203746E+03  0.38986397787E+02  0.28678778076E+03  0.78530796510E+02 0.  0.
         13    1    3    3    0    0  0.16243166455E+03 -0.14406050105E+03  0.40432862962E+03  0.45893258147E+03  0.00000000000E+00 0. -1.
        -13    1    3    3    0    0  0.50957549219E+03 -0.49859767406E+03  0.10151143127E+04  0.12404530989E+04  0.00000000000E+00 0.  1.
          2    1    6    6  502    0  0.23080199551E+02 -0.88497963155E+01  0.39627101281E+01  0.25034327986E+02  0.00000000000E+00 0. -1.
          3    1    5    5  503    0 -0.19195558710E+03  0.11144622385E+03  0.14836472333E+03  0.26698183339E+03  0.00000000000E+00 0. -1.
         -4    1    5    5    0  503 -0.70829613327E+03  0.38132991380E+03  0.36802927484E+03  0.88461373644E+03  0.00000000000E+00 0.  1.
         -1    1    6    6    0  502  0.20516436408E+03  0.15873183377E+03  0.35023687659E+02  0.26175345277E+03  0.00000000000E+00 0.  1.
<mgrwt>
<rscale>  0 0.24383739E+04</rscale>
<asrwt>0</asrwt>
<pdfrwt beam="1">  1        1 0.89457362E-01 0.24383739E+04</pdfrwt>
<pdfrwt beam="2">  1       -1 0.39327633E+00 0.24383739E+04</pdfrwt>
<totfact> 0.25454301E-01</totfact>
</mgrwt>
</event>
<event>
12    1  0.1467288E-007  0.2752215E+04  0.7818608E-02  0.8318259E-01
          1   -1    0    0  501    0  0.00000000000E+00  0.00000000000E+00  0.21724087346E+04  0.21724087346E+04  0.00000000000E+00 0. -1.
         -1   -1    0    0    0  501 -0.00000000000E+00 -0.00000000000E+00 -0.87169250088E+03  0.87169250088E+03  0.00000000000E+00 0.  1.
         23    2    1    2    0    0  0.12215418507E+04  0.11313112563E+03  0.63022026960E+03  0.13821921420E+04  0.91183246964E+02 0.  0.
        254    2    1    2    0    0 -0.12215418507E+04 -0.11313112563E+03  0.67049596412E+03  0.16619090935E+04  0.89856210277E+03 0.  0.
        -24    2    4    4    0    0 -0.65578342285E+03  0.36294818055E+03  0.19517126944E+03  0.77927921554E+03  0.86029017804E+02 0.  0.
         24    2    4    4    0    0 -0.56575842786E+03 -0.47607930618E+03  0.47532469469E+03  0.88262987796E+03  0.79798694373E+02 0.  0.
         11    1    3    3    0    0  0.14560498967E+03  0.20842002833E+02  0.44428023257E+02  0.15365237177E+03  0.00000000000E+00 0.  1.
        -11    1    3    3    0    0  0.10759368610E+04  0.92289122792E+02  0.58579224634E+03  0.12285397702E+04  0.00000000000E+00 0. -1.
          4    1    6    6  502    0 -0.53732082028E+03 -0.42447896255E+03  0.43548436143E+03  0.81150642795E+03  0.00000000000E+00 0. -1.
          1    1    5    5  503    0 -0.41959527353E+03  0.24683868120E+03  0.86017150758E+02  0.49435663071E+03  0.00000000000E+00 0. -1.
         -2    1    5    5    0  503 -0.23618814932E+03  0.11610949936E+03  0.10915411868E+03  0.28492258483E+03  0.00000000000E+00 0.  1.
         -3    1    6    6    0  502 -0.28437607581E+02 -0.51600343628E+02  0.39840333260E+02  0.71123450013E+02  0.00000000000E+00 0.  1.
<mgrwt>
<rscale>  0 0.27522154E+04</rscale>
<asrwt>0</asrwt>
<pdfrwt beam="1">  1        1 0.33421673E+00 0.27522154E+04</pdfrwt>
<pdfrwt beam="2">  1       -1 0.13410654E+00 0.27522154E+04</pdfrwt>
<totfact> 0.92638968E-01</totfact>
</mgrwt>
</event>
<event>
12    1  0.1467288E-007  0.1721472E+04  0.7818608E-02  0.8749212E-01
         -1   -1    0    0    0  501 -0.00000000000E+00  0.00000000000E+00  0.13263883216E+04  0.13263883216E+04  0.00000000000E+00 0.  1.
          1   -1    0    0  501    0  0.00000000000E+00 -0.00000000000E+00 -0.55855899620E+03  0.55855899620E+03  0.00000000000E+00 0. -1.
         23    2    1    2    0    0 -0.40042744630E+03  0.17904607620E+03  0.75627501148E+03  0.87914143514E+03  0.92402017449E+02 0.  0.
        254    2    1    2    0    0  0.40042744630E+03 -0.17904607620E+03  0.11554313901E+02  0.10058058827E+04  0.90504824969E+03 0.  0.
        -24    2    4    4    0    0  0.51319494200E+03  0.18507195424E+03 -0.16858778390E+03  0.57672437987E+03  0.81046238140E+02 0.  0.
         24    2    4    4    0    0 -0.11276749570E+03 -0.36411803043E+03  0.18014209780E+03  0.42908150279E+03  0.79757836367E+02 0.  0.
         13    1    3    3    0    0 -0.18977496329E+03  0.91218242008E+02  0.45336830857E+03  0.49987811273E+03  0.00000000000E+00 0. -1.
        -13    1    3    3    0    0 -0.21065248301E+03  0.87827834191E+02  0.30290670291E+03  0.37926332241E+03  0.00000000000E+00 0.  1.
          2    1    6    6  502    0 -0.22205256196E+02 -0.10814652923E+02  0.10652576300E+02  0.26898094773E+02  0.00000000000E+00 0. -1.
          3    1    5    5  503    0  0.64139146974E+02  0.72067493396E+01 -0.43363911050E+02  0.77757290283E+02  0.00000000000E+00 0. -1.
         -4    1    5    5    0  503  0.44905579502E+03  0.17786520490E+03 -0.12522387285E+03  0.49896708959E+03  0.00000000000E+00 0.  1.
         -1    1    6    6    0  502 -0.90562239504E+02 -0.35330337751E+03  0.16948952150E+03  0.40218340802E+03  0.00000000000E+00 0.  1.
<mgrwt>
<rscale>  0 0.17214716E+04</rscale>
<asrwt>0</asrwt>
<pdfrwt beam="1">  1        1 0.85932154E-01 0.17214716E+04</pdfrwt>
<pdfrwt beam="2">  1       -1 0.20405974E+00 0.17214716E+04</pdfrwt>
<totfact> 0.50867305E+00</totfact>
</mgrwt>
</event>
<event>
12    1  0.1467288E-007  0.1278564E+04  0.7818608E-02  0.9046739E-01
          3   -1    0    0  501    0  0.00000000000E+00  0.00000000000E+00  0.79801447509E+03  0.79801447509E+03  0.00000000000E+00 0. -1.
         -3   -1    0    0    0  501 -0.00000000000E+00 -0.00000000000E+00 -0.51212271211E+03  0.51212271211E+03  0.00000000000E+00 0.  1.
         23    2    1    2    0    0 -0.62571863461E+02 -0.10942805817E+03 -0.21965678840E+03  0.27083262068E+03  0.95976381059E+02 0.  0.
        254    2    1    2    0    0  0.62571863461E+02  0.10942805817E+03  0.50554855138E+03  0.10393045665E+04  0.89926909554E+03 0.  0.
        -24    2    4    4    0    0  0.42241299022E+03 -0.32601086793E+02  0.46077625632E+02  0.43353107662E+03  0.79564323951E+02 0.  0.
         24    2    4    4    0    0 -0.35984112676E+03  0.14202914497E+03  0.45947092575E+03  0.60577348990E+03  0.78677029302E+02 0.  0.
         13    1    3    3    0    0 -0.40609761978E+02 -0.61831824742E+01 -0.11530580149E+03  0.12240429882E+03  0.00000000000E+00 0. -1.
        -13    1    3    3    0    0 -0.21962101483E+02 -0.10324487570E+03 -0.10435098691E+03  0.14842832185E+03  0.00000000000E+00 0.  1.
          4    1    6    6  502    0 -0.29853223078E+03  0.84282237811E+02  0.35064606627E+03  0.46816412957E+03  0.00000000000E+00 0. -1.
          3    1    5    5  503    0  0.24133900209E+03 -0.18469178896E+02 -0.13401047529E+02  0.24241537199E+03  0.00000000000E+00 0. -1.
         -4    1    5    5    0  503  0.18107398812E+03 -0.14131907898E+02  0.59478673161E+02  0.19111570463E+03  0.00000000000E+00 0.  1.
         -3    1    6    6    0  502 -0.61308895977E+02  0.57746907155E+02  0.10882485947E+03  0.13760936033E+03  0.00000000000E+00 0.  1.
<mgrwt>
<rscale>  0 0.12785638E+04</rscale>
<asrwt>0</asrwt>
<pdfrwt beam="1">  1        3 0.12277146E+00 0.12785638E+04</pdfrwt>
<pdfrwt beam="2">  1       -3 0.78788110E-01 0.12785638E+04</pdfrwt>
<totfact> 0.20736556E+00</totfact>
</mgrwt>
</event>
<event>
12    1  0.1467288E-007  0.1475192E+04  0.7818608E-02  0.8901119E-01
          2   -1    0    0  501    0  0.00000000000E+00  0.00000000000E+00  0.10136330313E+04  0.10136330313E+04  0.00000000000E+00 0. -1.
         -2   -1    0    0    0  501 -0.00000000000E+00 -0.00000000000E+00 -0.53673071103E+03  0.53673071103E+03  0.00000000000E+00 0.  1.
         23    2    1    2    0    0  0.16385763520E+02 -0.28667569465E+03 -0.22245886214E+03  0.37441719820E+03  0.90823156823E+02 0.  0.
        254    2    1    2    0    0 -0.16385763520E+02  0.28667569465E+03  0.69936118241E+03  0.11759465441E+04  0.90071791591E+03 0.  0.
        -24    2    4    4    0    0 -0.25680690085E+03 -0.18053094444E+03  0.52317675587E+03  0.61598413323E+03  0.84742718193E+02 0.  0.
         24    2    4    4    0    0  0.24042113733E+03  0.46720663909E+03  0.17618442654E+03  0.55996241090E+03  0.80203382577E+02 0.  0.
         11    1    3    3    0    0 -0.35067542759E+02 -0.15556688968E+03 -0.13212442390E+03  0.20709334396E+03  0.00000000000E+00 0. -1.
        -11    1    3    3    0    0  0.51453306279E+02 -0.13110880497E+03 -0.90334438245E+02  0.16732385425E+03  0.00000000000E+00 0.  1.
          2    1    6    6  502    0  0.73844211678E+02  0.14540741849E+03  0.94598544054E+02  0.18853426608E+03  0.00000000000E+00 0. -1.
          1    1    5    5  503    0 -0.75911169245E+01 -0.29271139567E+02  0.27189567254E+02  0.40665676377E+02  0.00000000000E+00 0. -1.
         -2    1    5    5    0  503 -0.24921578392E+03 -0.15125980487E+03  0.49598718862E+03  0.57531845686E+03  0.00000000000E+00 0.  1.
         -1    1    6    6    0  502  0.16657692565E+03  0.32179922060E+03  0.81585882483E+02  0.37142814481E+03  0.00000000000E+00 0.  1.
<mgrwt>
<rscale>  0 0.14751922E+04</rscale>
<asrwt>0</asrwt>
<pdfrwt beam="1">  1        2 0.15594354E+00 0.14751922E+04</pdfrwt>
<pdfrwt beam="2">  1       -2 0.82573956E-01 0.14751922E+04</pdfrwt>
<totfact> 0.30758023E+01</totfact>
</mgrwt>
</event>
<event>
12    1  0.1467288E-007  0.1979954E+04  0.7818608E-02  0.8616051E-01
         -2   -1    0    0    0  501 -0.00000000000E+00  0.00000000000E+00  0.53324600447E+03  0.53324600447E+03  0.00000000000E+00 0.  1.
          2   -1    0    0  501    0  0.00000000000E+00 -0.00000000000E+00 -0.18379027721E+04  0.18379027721E+04  0.00000000000E+00 0. -1.
         23    2    1    2    0    0 -0.56462857125E+03  0.53314841753E+03 -0.29169538409E+03  0.83454065783E+03  0.91209944009E+02 0.  0.
        254    2    1    2    0    0  0.56462857125E+03 -0.53314841753E+03 -0.10129613835E+04  0.15366081187E+04  0.85558230898E+03 0.  0.
        -24    2    4    4    0    0 -0.26118983595E+02  0.19458237312E+03 -0.14467447926E+03  0.25648519609E+03  0.79432044137E+02 0.  0.
         24    2    4    4    0    0  0.59074755484E+03 -0.72773079064E+03 -0.86828690426E+03  0.12801229226E+04  0.78852848547E+02 0.  0.
         11    1    3    3    0    0 -0.89823859540E+02  0.13207946691E+03 -0.73474074496E+02  0.17581737953E+03  0.00000000000E+00 0. -1.
        -11    1    3    3    0    0 -0.47480471171E+03  0.40106895062E+03 -0.21822130959E+03  0.65872327830E+03  0.00000000000E+00 0.  1.
          4    1    6    6  502    0  0.56311116044E+02 -0.72877651684E+02 -0.55740756183E+02  0.10765280212E+03  0.00000000000E+00 0. -1.
          3    1    5    5  503    0 -0.36484394083E+02  0.48195955817E+02 -0.67738313431E+02  0.90787886170E+02  0.00000000000E+00 0. -1.
         -4    1    5    5    0  503  0.10365410488E+02  0.14638641730E+03 -0.76936165826E+02  0.16569730992E+03  0.00000000000E+00 0.  1.
         -3    1    6    6    0  502  0.53443643880E+03 -0.65485313896E+03 -0.81254614808E+03  0.11724701205E+04  0.00000000000E+00 0.  1.
<mgrwt>
<rscale>  0 0.19799538E+04</rscale>
<asrwt>0</asrwt>
<pdfrwt beam="1">  1        2 0.28275428E+00 0.19799538E+04</pdfrwt>
<pdfrwt beam="2">  1       -2 0.82037846E-01 0.19799538E+04</pdfrwt>
<totfact> 0.99899955E+00</totfact>
</mgrwt>
</event>
<event>
12    1  0.1467288E-007  0.1847425E+04  0.7818608E-02  0.8681478E-01
          2   -1    0    0  501    0  0.00000000000E+00  0.00000000000E+00  0.17680096382E+04  0.17680096382E+04  0.00000000000E+00 0. -1.
         -2   -1    0    0    0  501 -0.00000000000E+00 -0.00000000000E+00 -0.48260211085E+03  0.48260211085E+03  0.00000000000E+00 0.  1.
         23    2    1    2    0    0  0.23517055409E+03 -0.47155402829E+03  0.10485857323E+04  0.11770940215E+04  0.91377822272E+02 0.  0.
        254    2    1    2    0    0 -0.23517055409E+03  0.47155402829E+03  0.23682179499E+03  0.10735177275E+04  0.90481343796E+03 0.  0.
        -24    2    4    4    0    0 -0.40619058450E+03  0.54763648227E+03  0.41558543412E+03  0.80278654556E+03  0.82815922562E+02 0.  0.
         24    2    4    4    0    0  0.17102003041E+03 -0.76082453982E+02 -0.17876363913E+03  0.27073118191E+03  0.79388560752E+02 0.  0.
         11    1    3    3    0    0 -0.77540541290E+01 -0.27721347760E+02  0.60430338949E+02  0.66935971963E+02  0.00000000000E+00 0.  1.
        -11    1    3    3    0    0  0.24292460822E+03 -0.44383268053E+03  0.98815539336E+03  0.11101580496E+04  0.00000000000E+00 0. -1.
          4    1    6    6  502    0  0.29183066901E+02 -0.47790881881E+02 -0.31173686435E+02  0.64089145030E+02  0.00000000000E+00 0. -1.
          1    1    5    5  503    0 -0.42834364974E+02  0.10988229032E+03  0.71502279696E+02  0.13791836915E+03  0.00000000000E+00 0. -1.
         -2    1    5    5    0  503 -0.36335621953E+03  0.43775419196E+03  0.34408315443E+03  0.66486817641E+03  0.00000000000E+00 0.  1.
         -3    1    6    6    0  502  0.14183696351E+03 -0.28291572100E+02 -0.14758995270E+03  0.20664203688E+03  0.00000000000E+00 0.  1.
<mgrwt>
<rscale>  0 0.18474254E+04</rscale>
<asrwt>0</asrwt>
<pdfrwt beam="1">  1        2 0.27200148E+00 0.18474254E+04</pdfrwt>
<pdfrwt beam="2">  1       -2 0.74246479E-01 0.18474254E+04</pdfrwt>
<totfact> 0.13804003E+01</totfact>
</mgrwt>
</event>
<event>
12    1  0.1467288E-007  0.1183152E+04  0.7818608E-02  0.9127733E-01
         -2   -1    0    0    0  501 -0.00000000000E+00  0.00000000000E+00  0.33741555805E+03  0.33741555805E+03  0.00000000000E+00 0.  1.
          2   -1    0    0  501    0  0.00000000000E+00 -0.00000000000E+00 -0.10371844211E+04  0.10371844211E+04  0.00000000000E+00 0. -1.
         23    2    1    2    0    0 -0.49044889056E+02 -0.19728779092E+03 -0.46896258764E+01  0.22827936068E+03  0.10373813346E+03 0.  0.
        254    2    1    2    0    0  0.49044889056E+02  0.19728779092E+03 -0.69507923714E+03  0.11463206184E+04  0.88858761006E+03 0.  0.
        -24    2    4    4    0    0  0.46135836216E+03  0.11639220631E+03 -0.38297189579E+03  0.61669711709E+03  0.85142100239E+02 0.  0.
         24    2    4    4    0    0 -0.41231347311E+03  0.80895584607E+02 -0.31210734135E+03  0.52962350134E+03  0.80892304568E+02 0.  0.
         11    1    3    3    0    0  0.50376163823E+01 -0.16121930777E+03 -0.16743514966E+02  0.16216469428E+03  0.00000000000E+00 0. -1.
        -11    1    3    3    0    0 -0.54082505439E+02 -0.36068483145E+02  0.12053889090E+02  0.66114666399E+02  0.00000000000E+00 0.  1.
          4    1    6    6  502    0 -0.25007431741E+03  0.11379077947E+02 -0.16463368798E+03  0.29961792147E+03  0.00000000000E+00 0. -1.
          3    1    5    5  503    0  0.34608670049E+03  0.12415270761E+03 -0.28463799110E+03  0.46498245671E+03  0.00000000000E+00 0. -1.
         -4    1    5    5    0  503  0.11527166167E+03 -0.77605012950E+01 -0.98333904687E+02  0.15171466038E+03  0.00000000000E+00 0.  1.
         -3    1    6    6    0  502 -0.16223915569E+03  0.69516506660E+02 -0.14747365336E+03  0.23000557988E+03  0.00000000000E+00 0.  1.
<mgrwt>
<rscale>  0 0.11831520E+04</rscale>
<asrwt>0</asrwt>
<pdfrwt beam="1">  1        2 0.15956683E+00 0.11831520E+04</pdfrwt>
<pdfrwt beam="2">  1       -2 0.51910087E-01 0.11831520E+04</pdfrwt>
<totfact> 0.82541491E+01</totfact>
</mgrwt>
</event>
<event>
12    1  0.1467288E-007  0.1281948E+04  0.7818608E-02  0.9044005E-01
         -1   -1    0    0    0  501 -0.00000000000E+00  0.00000000000E+00  0.85599235706E+03  0.85599235706E+03  0.00000000000E+00 0.  1.
          1   -1    0    0  501    0  0.00000000000E+00 -0.00000000000E+00 -0.47996616955E+03  0.47996616955E+03  0.00000000000E+00 0. -1.
         23    2    1    2    0    0  0.25616640401E+03 -0.18568836821E+03  0.79512315127E+02  0.33864935852E+03  0.90883349068E+02 0.  0.
        254    2    1    2    0    0 -0.25616640401E+03  0.18568836821E+03  0.29651387238E+03  0.99730916809E+03  0.89811118666E+03 0.  0.
        -24    2    4    4    0    0  0.64714025661E+02 -0.31968346266E+03  0.18429003283E+03  0.38310498137E+03  0.80132322698E+02 0.  0.
         24    2    4    4    0    0 -0.32088042967E+03  0.50537183087E+03  0.11222383955E+03  0.61420418672E+03  0.79294736512E+02 0.  0.
         11    1    3    3    0    0  0.13398088270E+02  0.51806118540E+01 -0.95467445785E+01  0.17247835822E+02  0.00000000000E+00 0. -1.
        -11    1    3    3    0    0  0.24276831574E+03 -0.19086898006E+03  0.89059059706E+02  0.32140152270E+03  0.00000000000E+00 0.  1.
          4    1    6    6  502    0 -0.29256108856E+03  0.49229938569E+03  0.10692184900E+03  0.58256583961E+03  0.00000000000E+00 0. -1.
          1    1    5    5  503    0  0.20021186617E+02 -0.25718989908E+03  0.12882448736E+03  0.28834569642E+03  0.00000000000E+00 0. -1.
         -2    1    5    5    0  503  0.44692839044E+02 -0.62493563575E+02  0.55465545470E+02  0.94759284951E+02  0.00000000000E+00 0.  1.
         -3    1    6    6    0  502 -0.28319341107E+02  0.13072445178E+02  0.53019905503E+01  0.31638347104E+02  0.00000000000E+00 0.  1.
<mgrwt>
<rscale>  0 0.12819475E+04</rscale>
<asrwt>0</asrwt>
<pdfrwt beam="1">  1        1 0.73840949E-01 0.12819475E+04</pdfrwt>
<pdfrwt beam="2">  1       -1 0.13169113E+00 0.12819475E+04</pdfrwt>
<totfact> 0.22648218E+01</totfact>
</mgrwt>
</event>
<event>
12    1  0.1467288E-007  0.1862742E+04  0.7818608E-02  0.8673627E-01
         -1   -1    0    0    0  501 -0.00000000000E+00  0.00000000000E+00  0.47896557639E+03  0.47896557639E+03  0.00000000000E+00 0.  1.
          1   -1    0    0  501    0  0.00000000000E+00 -0.00000000000E+00 -0.18110950412E+04  0.18110950412E+04  0.00000000000E+00 0. -1.
         23    2    1    2    0    0 -0.30580112823E+03 -0.55808513367E+03 -0.89272609854E+03  0.11000926770E+04  0.90943193977E+02 0.  0.
        254    2    1    2    0    0  0.30580112823E+03  0.55808513367E+03 -0.43940336625E+03  0.11899679406E+04  0.90441972274E+03 0.  0.
        -24    2    4    4    0    0 -0.26144763441E+03  0.32938835604E+03  0.71491127907E+01  0.42821809248E+03  0.80424314002E+02 0.  0.
         24    2    4    4    0    0  0.56724876264E+03  0.22869677763E+03 -0.44655247904E+03  0.76174984809E+03  0.82342818273E+02 0.  0.
         11    1    3    3    0    0 -0.15661657851E+03 -0.34792039415E+03 -0.58861273883E+03  0.70145727571E+03  0.00000000000E+00 0.  1.
        -11    1    3    3    0    0 -0.14918454972E+03 -0.21016473951E+03 -0.30411335971E+03  0.39863540129E+03  0.00000000000E+00 0. -1.
          4    1    6    6  502    0  0.12103421544E+03  0.14970267566E+02 -0.77319947222E+02  0.14440140047E+03  0.00000000000E+00 0. -1.
          3    1    5    5  503    0  0.57299143436E+01  0.65256287060E+01 -0.24823312595E+01  0.90320383566E+01  0.00000000000E+00 0. -1.
         -4    1    5    5    0  503 -0.26717754875E+03  0.32286272733E+03  0.96314440502E+01  0.41918605413E+03  0.00000000000E+00 0.  1.
         -1    1    6    6    0  502  0.44621454720E+03  0.21372651006E+03 -0.36923253182E+03  0.61734844763E+03  0.00000000000E+00 0.  1.
<mgrwt>
<rscale>  0 0.18627423E+04</rscale>
<asrwt>0</asrwt>
<pdfrwt beam="1">  1        1 0.27863001E+00 0.18627423E+04</pdfrwt>
<pdfrwt beam="2">  1       -1 0.73687010E-01 0.18627423E+04</pdfrwt>
<totfact> 0.69710236E+00</totfact>
</mgrwt>
</event>
<event>
12    1  0.1467288E-007  0.3146307E+04  0.7818608E-02  0.8203143E-01
          2   -1    0    0  501    0  0.00000000000E+00  0.00000000000E+00  0.23186657526E+04  0.23186657526E+04  0.00000000000E+00 0. -1.
         -2   -1    0    0    0  501 -0.00000000000E+00 -0.00000000000E+00 -0.10673430293E+04  0.10673430293E+04  0.00000000000E+00 0.  1.
         23    2    1    2    0    0 -0.11539859755E+04 -0.63951459601E+03 -0.52130596681E+02  0.13234846263E+04  0.90727100196E+02 0.  0.
        254    2    1    2    0    0  0.11539859755E+04  0.63951459601E+03  0.13034533200E+04  0.20625241557E+04  0.90241497403E+03 0.  0.
        -24    2    4    4    0    0  0.14585571392E+03  0.23217907775E+03  0.82246632680E+03  0.87052660198E+03  0.78642816615E+02 0.  0.
         24    2    4    4    0    0  0.10081302616E+04  0.40733551826E+03  0.48098699315E+03  0.11919975537E+04  0.85210514247E+02 0.  0.
         11    1    3    3    0    0 -0.92306050100E+03 -0.55162262330E+03 -0.38163977266E+02  0.10760040410E+04  0.00000000000E+00 0. -1.
        -11    1    3    3    0    0 -0.23092547448E+03 -0.87891972710E+02 -0.13966619414E+02  0.24748058528E+03  0.00000000000E+00 0.  1.
          4    1    6    6  502    0  0.71729131760E+03  0.24781649633E+03  0.33002018565E+03  0.82754647790E+03  0.00000000000E+00 0. -1.
          1    1    5    5  503    0  0.15287741795E+03  0.23026092656E+03  0.78190223366E+03  0.82931459786E+03  0.00000000000E+00 0. -1.
         -2    1    5    5    0  503 -0.70217040277E+01  0.19181511946E+01  0.40564093139E+02  0.41212004121E+02  0.00000000000E+00 0.  1.
         -3    1    6    6    0  502  0.29083894396E+03  0.15951902192E+03  0.15096680751E+03  0.36445107579E+03  0.00000000000E+00 0.  1.
<mgrwt>
<rscale>  0 0.31463069E+04</rscale>
<asrwt>0</asrwt>
<pdfrwt beam="1">  1        2 0.35671781E+00 0.31463069E+04</pdfrwt>
<pdfrwt beam="2">  1       -2 0.16420662E+00 0.31463069E+04</pdfrwt>
<totfact> 0.87784498E-01</totfact>
</mgrwt>
</event>
<event>
12    1  0.1467288E-007  0.2346741E+04  0.7818608E-02  0.8459716E-01
          1   -1    0    0  501    0  0.00000000000E+00  0.00000000000E+00  0.27941878162E+04  0.27941878162E+04  0.00000000000E+00 0.  1.
         -1   -1    0    0    0  501 -0.00000000000E+00 -0.00000000000E+00 -0.49273669925E+03  0.49273669925E+03  0.00000000000E+00 0. -1.
         23    2    1    2    0    0 -0.64533002601E+03 -0.47767809423E+02 -0.66005628378E+02  0.65625805466E+03  0.87093543031E+02 0.  0.
        254    2    1    2    0    0  0.64533002601E+03  0.47767809423E+02  0.23674567453E+04  0.26306664608E+04  0.94700685364E+03 0.  0.
        -24    2    4    4    0    0  0.54639307405E+03 -0.13007995093E+03  0.51586397788E+03  0.76609188152E+03  0.72903650511E+02 0.  0.
         24    2    4    4    0    0  0.98936951965E+02  0.17784776035E+03  0.18515927674E+04  0.18645745793E+04  0.82608951523E+02 0.  0.
         11    1    3    3    0    0 -0.38586697601E+03  0.13570391338E+02 -0.30861392791E+02  0.38733693893E+03  0.00000000000E+00 0.  1.
        -11    1    3    3    0    0 -0.25946305000E+03 -0.61338200761E+02 -0.35144235588E+02  0.26892111573E+03  0.00000000000E+00 0. -1.
          2    1    6    6  502    0  0.76416470110E+02  0.59906874982E+02  0.96873410462E+03  0.97358824768E+03  0.00000000000E+00 0. -1.
          3    1    5    5  503    0  0.41929877595E+03 -0.12509475160E+03  0.37464188176E+03  0.57603532874E+03  0.00000000000E+00 0. -1.
         -4    1    5    5    0  503  0.12709429810E+03 -0.49851993255E+01  0.14122209612E+03  0.19005655278E+03  0.00000000000E+00 0.  1.
         -1    1    6    6    0  502  0.22520481855E+02  0.11794088537E+03  0.88285866283E+03  0.89098633159E+03  0.00000000000E+00 0.  1.
<mgrwt>
<rscale>  0 0.23467415E+04</rscale>
<asrwt>0</asrwt>
<pdfrwt beam="1">  1        1 0.42987504E+00 0.23467415E+04</pdfrwt>
<pdfrwt beam="2">  1       -1 0.75805648E-01 0.23467415E+04</pdfrwt>
<totfact> 0.13243641E+00</totfact>
</mgrwt>
</event>
<event>
12    1  0.1467288E-007  0.1788991E+04  0.7818608E-02  0.8712176E-01
         -1   -1    0    0    0  501 -0.00000000000E+00  0.00000000000E+00  0.85109119226E+03  0.85109119226E+03  0.00000000000E+00 0.  1.
          1   -1    0    0  501    0  0.00000000000E+00 -0.00000000000E+00 -0.94011302907E+03  0.94011302907E+03  0.00000000000E+00 0. -1.
         23    2    1    2    0    0  0.40825683357E+03  0.47398849085E+03  0.18139216562E+03  0.65773078699E+03  0.91476438428E+02 0.  0.
        254    2    1    2    0    0 -0.40825683357E+03 -0.47398849085E+03 -0.27041400244E+03  0.11334734343E+04  0.90570390417E+03 0.  0.
        -24    2    4    4    0    0  0.25052547414E+03 -0.15066104656E+03  0.84435239890E+02  0.31431129650E+03  0.78743363082E+02 0.  0.
         24    2    4    4    0    0 -0.65878230771E+03 -0.32332744429E+03 -0.35484924233E+03  0.81916213784E+03  0.81079332125E+02 0.  0.
         11    1    3    3    0    0  0.32281164944E+01  0.28590459054E+02  0.17975802739E+02  0.33925868731E+02  0.00000000000E+00 0. -1.
        -11    1    3    3    0    0  0.40502871708E+03  0.44539803179E+03  0.16341636288E+03  0.62380491826E+03  0.00000000000E+00 0.  1.
          4    1    6    6  502    0 -0.23727944817E+03 -0.12335618130E+03 -0.17262308905E+03  0.31830333781E+03  0.00000000000E+00 0. -1.
          3    1    5    5  503    0  0.17268355464E+03 -0.73648376299E+02  0.81797557640E+02  0.20477923188E+03  0.00000000000E+00 0. -1.
         -4    1    5    5    0  503  0.77841919504E+02 -0.77012670258E+02  0.26376822497E+01  0.10953206462E+03  0.00000000000E+00 0.  1.
         -3    1    6    6    0  502 -0.42150285954E+03 -0.19997126300E+03 -0.18222615328E+03  0.50085880003E+03  0.00000000000E+00 0.  1.
<mgrwt>
<rscale>  0 0.17889907E+04</rscale>
<asrwt>0</asrwt>
<pdfrwt beam="1">  1        1 0.14463277E+00 0.17889907E+04</pdfrwt>
<pdfrwt beam="2">  1       -1 0.13093711E+00 0.17889907E+04</pdfrwt>
<totfact> 0.79411098E+00</totfact>
</mgrwt>
</event>
<event>
12    1  0.1747088E-007  0.1962565E+04  0.7818608E-02  0.8624326E-01
          2   -1    0    0  501    0  0.00000000000E+00  0.00000000000E+00  0.10699482813E+04  0.10699482813E+04  0.00000000000E+00 0. -1.
         -2   -1    0    0    0  501 -0.00000000000E+00 -0.00000000000E+00 -0.89996400354E+03  0.89996400354E+03  0.00000000000E+00 0.  1.
         23    2    1    2    0    0 -0.13044323167E+03  0.73157479813E+03 -0.13316384861E+03  0.76103500696E+03  0.96044517251E+02 0.  0.
        254    2    1    2    0    0  0.13044323167E+03 -0.73157479813E+03  0.30314812637E+03  0.12088772779E+04  0.90402896221E+03 0.  0.
        -24    2    4    4    0    0 -0.22789340255E+03 -0.68182176425E+03  0.39905883315E+03  0.82613563765E+03  0.80223552432E+02 0.  0.
         24    2    4    4    0    0  0.35833663422E+03 -0.49753033883E+02 -0.95910706778E+02  0.38274164023E+03  0.80073664118E+02 0.  0.
         13    1    3    3    0    0 -0.10337091394E+03  0.61832446593E+03 -0.14660788682E+03  0.64382028819E+03  0.00000000000E+00 0. -1.
        -13    1    3    3    0    0 -0.27072317729E+02  0.11325033220E+03  0.13444038217E+02  0.11721471876E+03  0.00000000000E+00 0.  1.
          4    1    6    6  502    0  0.52560926176E+02 -0.37270229228E+02 -0.19420827685E+02  0.67297024415E+02  0.00000000000E+00 0. -1.
          3    1    5    5  503    0 -0.10718218980E+02 -0.42161977524E+01  0.94364811859E+01  0.14889718559E+02  0.00000000000E+00 0. -1.
         -4    1    5    5    0  503 -0.21717518357E+03 -0.67760556649E+03  0.38962235196E+03  0.81124591910E+03  0.00000000000E+00 0.  1.
         -3    1    6    6    0  502  0.30577570804E+03 -0.12482804656E+02 -0.76489879093E+02  0.31544461581E+03  0.00000000000E+00 0.  1.
<mgrwt>
<rscale>  0 0.19625646E+04</rscale>
<asrwt>0</asrwt>
<pdfrwt beam="1">  1        2 0.16460743E+00 0.19625646E+04</pdfrwt>
<pdfrwt beam="2">  1       -2 0.13845600E+00 0.19625646E+04</pdfrwt>
<totfact> 0.78345930E+00</totfact>
</mgrwt>
</event>
<event>
12    1  0.1467288E-007  0.1209117E+04  0.7818608E-02  0.9104913E-01
         -1   -1    0    0    0  501 -0.00000000000E+00  0.00000000000E+00  0.63740323754E+03  0.63740323754E+03  0.00000000000E+00 0.  1.
          1   -1    0    0  501    0  0.00000000000E+00 -0.00000000000E+00 -0.57340658725E+03  0.57340658725E+03  0.00000000000E+00 0. -1.
         23    2    1    2    0    0 -0.71199542614E+02 -0.20745349642E+03 -0.11843159159E+03  0.26426963683E+03  0.87784229908E+02 0.  0.
        254    2    1    2    0    0  0.71199542614E+02  0.20745349642E+03  0.18242824188E+03  0.94654018796E+03  0.90252531042E+03 0.  0.
        -24    2    4    4    0    0  0.33614520796E+03 -0.19670150993E+03 -0.56347972992E+02  0.40138630931E+03  0.79061940264E+02 0.  0.
         24    2    4    4    0    0 -0.26494566535E+03  0.40415500635E+03  0.23877621487E+03  0.54515387864E+03  0.81493532699E+02 0.  0.
         11    1    3    3    0    0 -0.79326852292E+02 -0.19555432752E+03 -0.12814521008E+03  0.24689155388E+03  0.00000000000E+00 0. -1.
        -11    1    3    3    0    0  0.81273096779E+01 -0.11899168891E+02  0.97136184943E+01  0.17378082954E+02  0.00000000000E+00 0.  1.
          2    1    6    6  502    0 -0.40742682729E+02  0.54217171437E+02  0.67372270032E+02  0.95595453050E+02  0.00000000000E+00 0. -1.
          1    1    5    5  503    0  0.12744575315E+03 -0.35551190660E+02 -0.34916562646E+02  0.13684105196E+03  0.00000000000E+00 0. -1.
         -2    1    5    5    0  503  0.20869945481E+03 -0.16115031927E+03 -0.21431410347E+02  0.26454525735E+03  0.00000000000E+00 0.  1.
         -1    1    6    6    0  502 -0.22420298262E+03  0.34993783491E+03  0.17140394484E+03  0.44955842559E+03  0.00000000000E+00 0.  1.
<mgrwt>
<rscale>  0 0.12091174E+04</rscale>
<asrwt>0</asrwt>
<pdfrwt beam="1">  1        1 0.88216399E-01 0.12091174E+04</pdfrwt>
<pdfrwt beam="2">  1       -1 0.98062036E-01 0.12091174E+04</pdfrwt>
<totfact> 0.36056980E+01</totfact>
</mgrwt>
</event>
<event>
12    1  0.1467288E-007  0.1409353E+04  0.7818608E-02  0.8947076E-01
         -2   -1    0    0    0  501 -0.00000000000E+00  0.00000000000E+00  0.12170905051E+04  0.12170905051E+04  0.00000000000E+00 0.  1.
          2   -1    0    0  501    0  0.00000000000E+00 -0.00000000000E+00 -0.40799667063E+03  0.40799667063E+03  0.00000000000E+00 0. -1.
         23    2    1    2    0    0 -0.17693537735E+03 -0.34933508956E+03  0.10374547706E+03  0.41603195370E+03  0.94754049660E+02 0.  0.
        254    2    1    2    0    0  0.17693537735E+03  0.34933508956E+03  0.70534835743E+03  0.12090552221E+04  0.90053156085E+03 0.  0.
        -24    2    4    4    0    0 -0.26319802578E+03  0.31613584570E+03  0.60189929509E+02  0.42341533504E+03  0.80266086399E+02 0.  0.
         24    2    4    4    0    0  0.44013340313E+03  0.33199243864E+02  0.64515842792E+03  0.78563988701E+03  0.78619543410E+02 0.  0.
         13    1    3    3    0    0 -0.95568001875E+01 -0.86489257281E+02  0.48304462190E+02  0.99524093175E+02  0.00000000000E+00 0.  1.
        -13    1    3    3    0    0 -0.16737857717E+03 -0.26284583228E+03  0.55441014870E+02  0.31650786052E+03  0.00000000000E+00 0. -1.
          2    1    6    6  502    0  0.19480474159E+03  0.31245654881E+02  0.22637252195E+03  0.30028269512E+03  0.00000000000E+00 0. -1.
          1    1    5    5  503    0 -0.11013763883E+01  0.22343557812E+02  0.15412326963E+02  0.27165924023E+02  0.00000000000E+00 0. -1.
         -2    1    5    5    0  503 -0.26209664939E+03  0.29379228789E+03  0.44777602546E+02  0.39624941102E+03  0.00000000000E+00 0.  1.
         -1    1    6    6    0  502  0.24532866154E+03  0.19535889825E+01  0.41878590597E+03  0.48535719190E+03  0.00000000000E+00 0.  1.
<mgrwt>
<rscale>  0 0.14093529E+04</rscale>
<asrwt>0</asrwt>
<pdfrwt beam="1">  1        2 0.62768719E-01 0.14093529E+04</pdfrwt>
<pdfrwt beam="2">  1       -2 0.18724469E+00 0.14093529E+04</pdfrwt>
<totfact> 0.12221327E+01</totfact>
</mgrwt>
</event>
<event>
12    1  0.1467288E-007  0.2477751E+04  0.7818608E-02  0.8410955E-01
          1   -1    0    0  501    0  0.00000000000E+00  0.00000000000E+00  0.23123325697E+04  0.23123325697E+04  0.00000000000E+00 0. -1.
         -1   -1    0    0    0  501 -0.00000000000E+00 -0.00000000000E+00 -0.66375079707E+03  0.66375079707E+03  0.00000000000E+00 0.  1.
         23    2    1    2    0    0  0.74468455681E+03 -0.69118150366E+03  0.29756176722E+03  0.10626646254E+04  0.91794011719E+02 0.  0.
        254    2    1    2    0    0 -0.74468455681E+03  0.69118150366E+03  0.13510200054E+04  0.19134187414E+04  0.89645371585E+03 0.  0.
        -24    2    4    4    0    0 -0.69801394081E+03  0.46303721601E+02  0.71447977398E+03  0.10025989179E+04  0.73182966428E+02 0.  0.
         24    2    4    4    0    0 -0.46670616000E+02  0.64487778206E+03  0.63654023141E+03  0.91081982345E+03  0.79773331302E+02 0.  0.
         13    1    3    3    0    0  0.12153256950E+03 -0.97898041775E+02  0.13783308880E+02  0.15666579600E+03  0.00000000000E+00 0. -1.
        -13    1    3    3    0    0  0.62315198731E+03 -0.59328346189E+03  0.28377845834E+03  0.90599882939E+03  0.00000000000E+00 0.  1.
          4    1    6    6  502    0 -0.67379961544E+01  0.84739097429E+01  0.25302850672E+02  0.27521664024E+02  0.00000000000E+00 0. -1.
          1    1    5    5  503    0 -0.39533375744E+03  0.60640200511E+02  0.38994464245E+03  0.55859004455E+03  0.00000000000E+00 0. -1.
         -2    1    5    5    0  503 -0.30268018337E+03 -0.14336478910E+02  0.32453513153E+03  0.44400887336E+03  0.00000000000E+00 0.  1.
         -3    1    6    6    0  502 -0.39932619846E+02  0.63640387232E+03  0.61123738074E+03  0.88329815943E+03  0.00000000000E+00 0.  1.
<mgrwt>
<rscale>  0 0.24777511E+04</rscale>
<asrwt>0</asrwt>
<pdfrwt beam="1">  1        1 0.35574347E+00 0.24777511E+04</pdfrwt>
<pdfrwt beam="2">  1       -1 0.10211551E+00 0.24777511E+04</pdfrwt>
<totfact> 0.14752098E+00</totfact>
</mgrwt>
</event>
<event>
12    1  0.1467288E-007  0.1847122E+04  0.7818608E-02  0.8681634E-01
          1   -1    0    0  501    0  0.00000000000E+00  0.00000000000E+00  0.18412205079E+04  0.18412205079E+04  0.00000000000E+00 0. -1.
         -1   -1    0    0    0  501 -0.00000000000E+00 -0.00000000000E+00 -0.46326060532E+03  0.46326060532E+03  0.00000000000E+00 0.  1.
         23    2    1    2    0    0 -0.30278096118E+03 -0.23014152252E+03  0.12940009233E+04  0.13518324260E+04  0.91493647551E+02 0.  0.
        254    2    1    2    0    0  0.30278096118E+03  0.23014152252E+03  0.83958979240E+02  0.95264868721E+03  0.86939575580E+03 0.  0.
        -24    2    4    4    0    0  0.52584013794E+03  0.10035378046E+03 -0.18463859730E+03  0.57190088341E+03  0.80002980644E+02 0.  0.
         24    2    4    4    0    0 -0.22305917676E+03  0.12978774206E+03  0.26859757654E+03  0.38074780380E+03  0.78892190020E+02 0.  0.
         11    1    3    3    0    0 -0.17577569837E+03 -0.13690487647E+03  0.90755160533E+03  0.93449984359E+03  0.00000000000E+00 0. -1.
        -11    1    3    3    0    0 -0.12700526281E+03 -0.93236646055E+02  0.38644931800E+03  0.41733258240E+03  0.00000000000E+00 0.  1.
          2    1    6    6  502    0 -0.13549956413E+03  0.10578725254E+03  0.21515957161E+03  0.27539919378E+03  0.00000000000E+00 0. -1.
          1    1    5    5  503    0  0.42382854520E+03  0.11184817485E+03 -0.14233008064E+03  0.46086711946E+03  0.00000000000E+00 0. -1.
         -2    1    5    5    0  503  0.10201159274E+03 -0.11494394385E+02 -0.42308516657E+02  0.11103376395E+03  0.00000000000E+00 0.  1.
         -1    1    6    6    0  502 -0.87559612637E+02  0.24000489526E+02  0.53438004931E+02  0.10534861002E+03  0.00000000000E+00 0.  1.
<mgrwt>
<rscale>  0 0.18471220E+04</rscale>
<asrwt>0</asrwt>
<pdfrwt beam="1">  1        1 0.28326469E+00 0.18471220E+04</pdfrwt>
<pdfrwt beam="2">  1       -1 0.71270863E-01 0.18471220E+04</pdfrwt>
<totfact> 0.71361256E+00</totfact>
</mgrwt>
</event>
<event>
12    1  0.1467288E-007  0.1452963E+04  0.7818608E-02  0.8916349E-01
          1   -1    0    0  501    0  0.00000000000E+00  0.00000000000E+00  0.55862363845E+03  0.55862363845E+03  0.00000000000E+00 0. -1.
         -1   -1    0    0    0  501 -0.00000000000E+00 -0.00000000000E+00 -0.94477855789E+03  0.94477855789E+03  0.00000000000E+00 0.  1.
         23    2    1    2    0    0  0.43374238444E+03 -0.62351573252E+02 -0.20819268208E+03  0.49757643302E+03  0.11053478675E+03 0.  0.
        254    2    1    2    0    0 -0.43374238444E+03  0.62351573252E+02 -0.17796223735E+03  0.10058257633E+04  0.88769067444E+03 0.  0.
        -24    2    4    4    0    0 -0.37259971911E+03  0.38046906572E+03 -0.33764082053E+03  0.63564389257E+03  0.80340362302E+02 0.  0.
         24    2    4    4    0    0 -0.61142665323E+02 -0.31811749247E+03  0.15967858318E+03  0.37018187075E+03  0.81241633226E+02 0.  0.
         11    1    3    3    0    0  0.27531597910E+03 -0.47045044867E+01 -0.83019245113E+02  0.28759905384E+03  0.00000000000E+00 0. -1.
        -11    1    3    3    0    0  0.15842640533E+03 -0.57647068765E+02 -0.12517343697E+03  0.20997737918E+03  0.00000000000E+00 0.  1.
          4    1    6    6  502    0 -0.95557529646E+01 -0.16494864224E+03  0.11870620038E+03  0.20344662445E+03  0.00000000000E+00 0. -1.
          3    1    5    5  503    0 -0.30065303309E+03  0.34680371169E+03 -0.29289242173E+03  0.54447316872E+03  0.00000000000E+00 0. -1.
         -4    1    5    5    0  503 -0.71946686022E+02  0.33665354032E+02 -0.44748398801E+02  0.91170723848E+02  0.00000000000E+00 0.  1.
         -3    1    6    6    0  502 -0.51586912359E+02 -0.15316885023E+03  0.40972382800E+02  0.16673524630E+03  0.00000000000E+00 0.  1.
<mgrwt>
<rscale>  0 0.14529634E+04</rscale>
<asrwt>0</asrwt>
<pdfrwt beam="1">  1        1 0.85942100E-01 0.14529634E+04</pdfrwt>
<pdfrwt beam="2">  1       -1 0.14535054E+00 0.14529634E+04</pdfrwt>
<totfact> 0.13988954E+01</totfact>
</mgrwt>
</event>
<event>
12    1  0.1467288E-007  0.1659948E+04  0.7818608E-02  0.8784543E-01
         -4   -1    0    0    0  501 -0.00000000000E+00  0.00000000000E+00  0.64335563454E+03  0.64335563454E+03  0.00000000000E+00 0. -1.
          4   -1    0    0  501    0  0.00000000000E+00 -0.00000000000E+00 -0.10707242842E+04  0.10707242842E+04  0.00000000000E+00 0.  1.
         23    2    1    2    0    0 -0.17053982643E+03  0.45400054981E+03  0.18487199802E+03  0.52662498726E+03  0.89195795503E+02 0.  0.
        254    2    1    2    0    0  0.17053982643E+03 -0.45400054981E+03 -0.61224064764E+03  0.11874549314E+04  0.89443293317E+03 0.  0.
        -24    2    4    4    0    0  0.22052543156E+03 -0.60663215570E+02 -0.72741530446E+03  0.76692782389E+03  0.82059552799E+02 0.  0.
         24    2    4    4    0    0 -0.49985605123E+02 -0.39333733424E+03  0.11517465682E+03  0.42052710754E+03  0.79781121703E+02 0.  0.
         13    1    3    3    0    0 -0.14837665212E+03  0.44292105791E+03  0.16697726922E+03  0.49606058387E+03  0.00000000000E+00 0. -1.
        -13    1    3    3    0    0 -0.22163174308E+02  0.11079491902E+02  0.17894728798E+02  0.30564403396E+02  0.00000000000E+00 0.  1.
          2    1    6    6  502    0 -0.63023104510E+02 -0.37945982741E+03  0.10408196920E+03  0.39849056279E+03  0.00000000000E+00 0. -1.
          3    1    5    5  503    0  0.20499636228E+03 -0.35430048828E+02 -0.57067034208E+03  0.60740714207E+03  0.00000000000E+00 0. -1.
         -4    1    5    5    0  503  0.15529069278E+02 -0.25233166742E+02 -0.15674496239E+03  0.15952068182E+03  0.00000000000E+00 0.  1.
         -1    1    6    6    0  502  0.13037499387E+02 -0.13877506827E+02  0.11092687620E+02  0.22036544752E+02  0.00000000000E+00 0.  1.
<mgrwt>
<rscale>  0 0.16599476E+04</rscale>
<asrwt>0</asrwt>
<pdfrwt beam="1">  1        4 0.16472681E+00 0.16599476E+04</pdfrwt>
<pdfrwt beam="2">  1       -4 0.98977792E-01 0.16599476E+04</pdfrwt>
<totfact> 0.37307718E-01</totfact>
</mgrwt>
</event>
<event>
12    1  0.1467288E-007  0.1981686E+04  0.7818608E-02  0.8615231E-01
         -1   -1    0    0    0  501 -0.00000000000E+00  0.00000000000E+00  0.12917793033E+04  0.12917793033E+04  0.00000000000E+00 0.  1.
          1   -1    0    0  501    0  0.00000000000E+00 -0.00000000000E+00 -0.76001325344E+03  0.76001325344E+03  0.00000000000E+00 0. -1.
         23    2    1    2    0    0  0.74977518223E+03  0.27490350144E+02  0.46264442985E+03  0.88616364720E+03  0.91255673268E+02 0.  0.
        254    2    1    2    0    0 -0.74977518223E+03 -0.27490350144E+02  0.69121620059E+02  0.11656289096E+04  0.88937866697E+03 0.  0.
        -24    2    4    4    0    0  0.37031471347E+02  0.28889211114E+03 -0.48493806722E+02  0.30570421639E+03  0.79205030650E+02 0.  0.
         24    2    4    4    0    0 -0.78680665358E+03 -0.31638246128E+03  0.11761542678E+03  0.85992469320E+03  0.80464386114E+02 0.  0.
         13    1    3    3    0    0  0.98918189216E+02 -0.26232931542E+02  0.52980000247E+02  0.11523825442E+03  0.00000000000E+00 0. -1.
        -13    1    3    3    0    0  0.65085699302E+03  0.53723281686E+02  0.40966442960E+03  0.77092539278E+03  0.00000000000E+00 0.  1.
          2    1    6    6  502    0 -0.94850350237E+02 -0.11872877849E+02  0.65590059730E+01  0.95815315727E+02  0.00000000000E+00 0. -1.
          1    1    5    5  503    0  0.38791929870E+02  0.59591227650E+02  0.10173966527E+01  0.71112328973E+02  0.00000000000E+00 0. -1.
         -2    1    5    5    0  503 -0.17604585230E+01  0.22930088349E+03 -0.49511203374E+02  0.23459188742E+03  0.00000000000E+00 0.  1.
         -1    1    6    6    0  502 -0.69195630334E+03 -0.30450958343E+03  0.11105642081E+03  0.76410937747E+03  0.00000000000E+00 0.  1.
<mgrwt>
<rscale>  0 0.19816855E+04</rscale>
<asrwt>0</asrwt>
<pdfrwt beam="1">  1        1 0.11692512E+00 0.19816855E+04</pdfrwt>
<pdfrwt beam="2">  1       -1 0.19873528E+00 0.19816855E+04</pdfrwt>
<totfact> 0.34222202E+00</totfact>
</mgrwt>
</event>
<event>
12    1  0.1467288E-007  0.1216022E+04  0.7818608E-02  0.9098947E-01
         -2   -1    0    0    0  501 -0.00000000000E+00  0.00000000000E+00  0.17329986698E+04  0.17329986698E+04  0.00000000000E+00 0.  1.
          2   -1    0    0  501    0  0.00000000000E+00 -0.00000000000E+00 -0.21331666488E+03  0.21331666488E+03  0.00000000000E+00 0. -1.
         23    2    1    2    0    0 -0.19810755250E+03  0.17377738693E+03  0.29586422901E+03  0.40665665414E+03  0.91590445925E+02 0.  0.
        254    2    1    2    0    0  0.19810755250E+03 -0.17377738693E+03  0.12238177759E+04  0.15396586805E+04  0.89631117438E+03 0.  0.
        -24    2    4    4    0    0 -0.15578013975E+03  0.10720368100E+03  0.10156022051E+04  0.10360520994E+04  0.78714880206E+02 0.  0.
         24    2    4    4    0    0  0.35388769226E+03 -0.28098106792E+03  0.20821557074E+03  0.50360658113E+03  0.77967976763E+02 0.  0.
         11    1    3    3    0    0 -0.44856010290E+01  0.12311559965E+02 -0.50902889187E+01  0.14057246055E+02  0.00000000000E+00 0. -1.
        -11    1    3    3    0    0 -0.19362195147E+03  0.16146582696E+03  0.30095451793E+03  0.39259940809E+03  0.00000000000E+00 0.  1.
          4    1    6    6  502    0 -0.34666925138E+01 -0.68979766579E+01  0.66839121674E+01  0.10211499440E+02  0.00000000000E+00 0. -1.
          3    1    5    5  503    0 -0.85863058268E+02  0.78622824100E+02  0.42565832767E+03  0.44129244856E+03  0.00000000000E+00 0. -1.
         -4    1    5    5    0  503 -0.69917081486E+02  0.28580856895E+02  0.58994387746E+03  0.59475965080E+03  0.00000000000E+00 0.  1.
         -3    1    6    6    0  502  0.35735438477E+03 -0.27408309127E+03  0.20153165857E+03  0.49339508169E+03  0.00000000000E+00 0.  1.
<mgrwt>
<rscale>  0 0.12160222E+04</rscale>
<asrwt>0</asrwt>
<pdfrwt beam="1">  1        2 0.32817950E-01 0.12160222E+04</pdfrwt>
<pdfrwt beam="2">  1       -2 0.26661517E+00 0.12160222E+04</pdfrwt>
<totfact> 0.80951696E+00</totfact>
</mgrwt>
</event>
<event>
12    1  0.1467288E-007  0.1641209E+04  0.7818608E-02  0.8795624E-01
         -1   -1    0    0    0  501 -0.00000000000E+00  0.00000000000E+00  0.18075132088E+03  0.18075132088E+03  0.00000000000E+00 0.  1.
          1   -1    0    0  501    0  0.00000000000E+00 -0.00000000000E+00 -0.37255157504E+04  0.37255157504E+04  0.00000000000E+00 0. -1.
         23    2    1    2    0    0  0.51302166236E+03 -0.14126303308E+02 -0.18102409079E+04  0.18837493070E+04  0.90269200354E+02 0.  0.
        254    2    1    2    0    0 -0.51302166236E+03  0.14126303308E+02 -0.17345235216E+04  0.20225177643E+04  0.90477371824E+03 0.  0.
        -24    2    4    4    0    0  0.24710319180E+03  0.88359243070E+02 -0.46682606263E+03  0.54038495126E+03  0.72263265627E+02 0.  0.
         24    2    4    4    0    0 -0.76012485416E+03 -0.74232939762E+02 -0.12676974590E+04  0.14821328130E+04  0.79752771811E+02 0.  0.
         13    1    3    3    0    0  0.39614294702E+03  0.13543859733E+02 -0.12747366423E+04  0.13349405147E+04  0.00000000000E+00 0. -1.
        -13    1    3    3    0    0  0.11687871534E+03 -0.27670163041E+02 -0.53550426565E+03  0.54880879234E+03  0.00000000000E+00 0.  1.
          2    1    6    6  502    0 -0.74096609305E+03 -0.84006141448E+02 -0.12414272857E+04  0.14481814419E+04  0.00000000000E+00 0. -1.
          1    1    5    5  503    0  0.24802767590E+03  0.79131778271E+02 -0.46099666867E+03  0.52943129381E+03  0.00000000000E+00 0. -1.
         -2    1    5    5    0  503 -0.92448409795E+00  0.92274647989E+01 -0.58293939651E+01  0.10953657447E+02  0.00000000000E+00 0.  1.
         -1    1    6    6    0  502 -0.19158761115E+02  0.97732016860E+01 -0.26270173267E+02  0.33951371137E+02  0.00000000000E+00 0.  1.
<mgrwt>
<rscale>  0 0.16412092E+04</rscale>
<asrwt>0</asrwt>
<pdfrwt beam="1">  1        1 0.57315621E+00 0.16412092E+04</pdfrwt>
<pdfrwt beam="2">  1       -1 0.27807898E-01 0.16412092E+04</pdfrwt>
<totfact> 0.18530307E+00</totfact>
</mgrwt>
</event>
<event>
12    1  0.1467288E-007  0.1486892E+04  0.7818608E-02  0.8893216E-01
         -1   -1    0    0    0  501 -0.00000000000E+00  0.00000000000E+00  0.23085374983E+04  0.23085374983E+04  0.00000000000E+00 0.  1.
          1   -1    0    0  501    0  0.00000000000E+00 -0.00000000000E+00 -0.23942095216E+03  0.23942095216E+03  0.00000000000E+00 0. -1.
         23    2    1    2    0    0  0.47225574445E+02 -0.25534664193E+03  0.13252860057E+04  0.13536148948E+04  0.91968059538E+02 0.  0.
        254    2    1    2    0    0 -0.47225574445E+02  0.25534664193E+03  0.74383054037E+03  0.11943435556E+04  0.89763048837E+03 0.  0.
        -24    2    4    4    0    0  0.58523407751E+01 -0.20141659815E+03  0.69198410501E+03  0.72562041707E+03  0.84143283604E+02 0.  0.
         24    2    4    4    0    0 -0.53077915220E+02  0.45676324008E+03  0.51846435355E+02  0.46872313855E+03  0.74588237585E+02 0.  0.
         11    1    3    3    0    0 -0.26722122516E+01 -0.10867461887E+03  0.36268527035E+03  0.37862635782E+03  0.00000000000E+00 0. -1.
        -11    1    3    3    0    0  0.49897786697E+02 -0.14667202306E+03  0.96260073538E+03  0.97498853697E+03  0.00000000000E+00 0.  1.
          2    1    6    6  502    0 -0.31505220779E+02  0.28721187340E+03  0.68658060826E+02  0.29698008094E+03  0.00000000000E+00 0. -1.
          3    1    5    5  503    0 -0.11926289278E+01 -0.26751503386E+02  0.26934797995E+02  0.37980898360E+02  0.00000000000E+00 0. -1.
         -4    1    5    5    0  503  0.70449697029E+01 -0.17466509476E+03  0.66504930702E+03  0.68763951871E+03  0.00000000000E+00 0.  1.
         -1    1    6    6    0  502 -0.21572694442E+02  0.16955136668E+03 -0.16811625471E+02  0.17174305761E+03  0.00000000000E+00 0.  1.
<mgrwt>
<rscale>  0 0.14868924E+04</rscale>
<asrwt>0</asrwt>
<pdfrwt beam="1">  1        1 0.36833994E-01 0.14868924E+04</pdfrwt>
<pdfrwt beam="2">  1       -1 0.35515960E+00 0.14868924E+04</pdfrwt>
<totfact> 0.16450398E+00</totfact>
</mgrwt>
</event>
<event>
12    1  0.1467288E-007  0.1298542E+04  0.7818608E-02  0.9030722E-01
          1   -1    0    0  501    0  0.00000000000E+00  0.00000000000E+00  0.56227415470E+03  0.56227415470E+03  0.00000000000E+00 0. -1.
         -1   -1    0    0    0  501 -0.00000000000E+00 -0.00000000000E+00 -0.74972796506E+03  0.74972796506E+03  0.00000000000E+00 0.  1.
         23    2    1    2    0    0  0.24997621947E+03  0.64820884656E+02 -0.25781294309E+03  0.37643492271E+03  0.92443929080E+02 0.  0.
        254    2    1    2    0    0 -0.24997621947E+03 -0.64820884656E+02  0.70359132728E+02  0.93556719706E+03  0.89646289118E+03 0.  0.
        -24    2    4    4    0    0 -0.50361562560E+03  0.19906335653E+03 -0.28434035366E+02  0.54822585549E+03  0.80549214759E+02 0.  0.
         24    2    4    4    0    0  0.25363940613E+03 -0.26388424119E+03  0.98793168093E+02  0.38734134156E+03  0.79406446415E+02 0.  0.
         11    1    3    3    0    0  0.88456493454E+02  0.66489229434E+02 -0.12804846252E+03  0.16923881830E+03  0.00000000000E+00 0.  1.
        -11    1    3    3    0    0  0.16151972602E+03 -0.16683447779E+01 -0.12976448057E+03  0.20719610441E+03  0.00000000000E+00 0. -1.
          4    1    6    6  502    0  0.38920857473E+02 -0.88955344285E+02  0.34287110079E+02  0.10297326032E+03  0.00000000000E+00 0. -1.
          3    1    5    5  503    0 -0.14524544680E+02  0.90904424169E+01  0.13569564062E+02  0.21857072318E+02  0.00000000000E+00 0. -1.
         -4    1    5    5    0  503 -0.48909108092E+03  0.18997291411E+03 -0.42003599427E+02  0.52636878317E+03  0.00000000000E+00 0.  1.
         -3    1    6    6    0  502  0.21471854866E+03 -0.17492889690E+03  0.64506058014E+02  0.28436808124E+03  0.00000000000E+00 0.  1.
<mgrwt>
<rscale>  0 0.12985417E+04</rscale>
<asrwt>0</asrwt>
<pdfrwt beam="1">  1        1 0.86503716E-01 0.12985417E+04</pdfrwt>
<pdfrwt beam="2">  1       -1 0.11534276E+00 0.12985417E+04</pdfrwt>
<totfact> 0.25187051E+01</totfact>
</mgrwt>
</event>
<event>
12    1  0.1467288E-007  0.1288520E+04  0.7818608E-02  0.9038719E-01
         -2   -1    0    0    0  501 -0.00000000000E+00  0.00000000000E+00  0.29659899883E+03  0.29659899883E+03  0.00000000000E+00 0.  1.
          2   -1    0    0  501    0  0.00000000000E+00 -0.00000000000E+00 -0.13994352400E+04  0.13994352400E+04  0.00000000000E+00 0. -1.
         23    2    1    2    0    0 -0.18770671922E+03 -0.84324221481E+02  0.31075343335E+02  0.23490773438E+03  0.10895678015E+03 0.  0.
        254    2    1    2    0    0  0.18770671922E+03  0.84324221481E+02 -0.11339115845E+04  0.14611265045E+04  0.89821533820E+03 0.  0.
        -24    2    4    4    0    0  0.29097219207E+02  0.11680776087E+03  0.12234181249E+03  0.19194904271E+03  0.85943090178E+02 0.  0.
         24    2    4    4    0    0  0.15860950001E+03 -0.32483539389E+02 -0.12562533970E+04  0.12691774617E+04  0.80166564701E+02 0.  0.
         13    1    3    3    0    0 -0.42763359297E+02 -0.72959947954E+02 -0.62668997057E+01  0.84800547968E+02  0.00000000000E+00 0. -1.
        -13    1    3    3    0    0 -0.14494335992E+03 -0.11364273527E+02  0.37342243041E+02  0.15010718641E+03  0.00000000000E+00 0.  1.
          2    1    6    6  502    0  0.15552575730E+03 -0.48074640404E+02 -0.11878205898E+04  0.11989233444E+04  0.00000000000E+00 0. -1.
          1    1    5    5  503    0 -0.16911801919E+02  0.56295477337E+02  0.15439302544E+02  0.60774681207E+02  0.00000000000E+00 0. -1.
         -2    1    5    5    0  503  0.46009021126E+02  0.60512283533E+02  0.10690250995E+03  0.13117436151E+03  0.00000000000E+00 0.  1.
         -1    1    6    6    0  502  0.30837427064E+01  0.15591101014E+02 -0.68432807204E+02  0.70254117330E+02  0.00000000000E+00 0.  1.
<mgrwt>
<rscale>  0 0.12885202E+04</rscale>
<asrwt>0</asrwt>
<pdfrwt beam="1">  1        2 0.21529773E+00 0.12885202E+04</pdfrwt>
<pdfrwt beam="2">  1       -2 0.45630614E-01 0.12885202E+04</pdfrwt>
<totfact> 0.64671054E+01</totfact>
</mgrwt>
</event>
<event>
12    1  0.1467288E-007  0.5165329E+04  0.7818608E-02  0.7803498E-01
         -1   -1    0    0    0  501 -0.00000000000E+00  0.00000000000E+00  0.34458616214E+04  0.34458616214E+04  0.00000000000E+00 0.  1.
          1   -1    0    0  501    0  0.00000000000E+00 -0.00000000000E+00 -0.19357002002E+04  0.19357002002E+04  0.00000000000E+00 0. -1.
         23    2    1    2    0    0 -0.12770127255E+04 -0.10331533629E+04 -0.12370107274E+04  0.20583290140E+04  0.91407974346E+02 0.  0.
        254    2    1    2    0    0  0.12770127255E+04  0.10331533629E+04  0.27471721486E+04  0.33232328077E+04  0.89373044479E+03 0.  0.
        -24    2    4    4    0    0  0.49040837471E+02  0.24904865046E+03  0.69086683937E+02  0.27339778012E+03  0.74452281617E+02 0.  0.
         24    2    4    4    0    0  0.12279718880E+04  0.78410471240E+03  0.26780854647E+04  0.30498350276E+04  0.81343602851E+02 0.  0.
         11    1    3    3    0    0 -0.10304986319E+04 -0.87674602300E+03 -0.10297691386E+04  0.17003045310E+04  0.00000000000E+00 0. -1.
        -11    1    3    3    0    0 -0.24651409360E+03 -0.15640733986E+03 -0.20724158876E+03  0.35802448299E+03  0.00000000000E+00 0.  1.
          4    1    6    6  502    0  0.87942137377E+03  0.57855098843E+03  0.18628874381E+04  0.21397319472E+04  0.00000000000E+00 0. -1.
          1    1    5    5  503    0  0.30833825864E+02  0.17178823733E+03  0.10701903506E+02  0.17486124224E+03  0.00000000000E+00 0. -1.
         -2    1    5    5    0  503  0.18207011607E+02  0.77260413138E+02  0.58384780430E+02  0.98536537872E+02  0.00000000000E+00 0.  1.
         -3    1    6    6    0  502  0.34855051424E+03  0.20555372397E+03  0.81519802656E+03  0.91010308039E+03  0.00000000000E+00 0.  1.
<mgrwt>
<rscale>  0 0.51653287E+04</rscale>
<asrwt>0</asrwt>
<pdfrwt beam="1">  1        1 0.29780003E+00 0.51653287E+04</pdfrwt>
<pdfrwt beam="2">  1       -1 0.53013256E+00 0.51653287E+04</pdfrwt>
<totfact> 0.22999220E-03</totfact>
</mgrwt>
</event>
<event>
12    1  0.1467288E-007  0.1128032E+04  0.7818608E-02  0.9178293E-01
         -2   -1    0    0    0  501 -0.00000000000E+00  0.00000000000E+00  0.25151703030E+03  0.25151703030E+03  0.00000000000E+00 0.  1.
          2   -1    0    0  501    0  0.00000000000E+00 -0.00000000000E+00 -0.12647805564E+04  0.12647805564E+04  0.00000000000E+00 0. -1.
         23    2    1    2    0    0 -0.68193601960E+02 -0.16259911841E+03 -0.93523413102E+02  0.21968782640E+03  0.91800172179E+02 0.  0.
        254    2    1    2    0    0  0.68193601960E+02  0.16259911841E+03 -0.91974011295E+03  0.12966097603E+04  0.89676426911E+03 0.  0.
        -24    2    4    4    0    0 -0.40062825571E+03  0.89063233419E+02 -0.31788925072E+03  0.52610542842E+03  0.85428843321E+02 0.  0.
         24    2    4    4    0    0  0.46882185767E+03  0.73535884994E+02 -0.60185086223E+03  0.77050433183E+03  0.79063293555E+02 0.  0.
         13    1    3    3    0    0 -0.66755482384E+02 -0.12182446851E+03 -0.26797278468E+02  0.14147646338E+03  0.00000000000E+00 0.  1.
        -13    1    3    3    0    0 -0.14381195767E+01 -0.40774649903E+02 -0.66726134633E+02  0.78211363022E+02  0.00000000000E+00 0. -1.
          2    1    6    6  502    0  0.97170681715E+02  0.32010194468E+02 -0.87794673182E+02  0.13481356970E+03  0.00000000000E+00 0. -1.
          1    1    5    5  503    0 -0.43622105163E+02  0.10916824521E+02 -0.74493462718E+02  0.87013453582E+02  0.00000000000E+00 0. -1.
         -2    1    5    5    0  503 -0.35700615055E+03  0.78146408898E+02 -0.24339578801E+03  0.43909197484E+03  0.00000000000E+00 0.  1.
         -1    1    6    6    0  502  0.37165117596E+03  0.41525690526E+02 -0.51405618905E+03  0.63569076213E+03  0.00000000000E+00 0.  1.
<mgrwt>
<rscale>  0 0.11280316E+04</rscale>
<asrwt>0</asrwt>
<pdfrwt beam="1">  1        2 0.19458163E+00 0.11280316E+04</pdfrwt>
<pdfrwt beam="2">  1       -2 0.38694927E-01 0.11280316E+04</pdfrwt>
<totfact> 0.10835062E+02</totfact>
</mgrwt>
</event>
<event>
12    1  0.1467288E-007  0.1463055E+04  0.7818608E-02  0.8909400E-01
         -2   -1    0    0    0  501 -0.00000000000E+00  0.00000000000E+00  0.46224545358E+03  0.46224545358E+03  0.00000000000E+00 0.  1.
          2   -1    0    0  501    0  0.00000000000E+00 -0.00000000000E+00 -0.11576796589E+04  0.11576796589E+04  0.00000000000E+00 0. -1.
         23    2    1    2    0    0 -0.29701523647E+03 -0.89480189286E+01  0.15168302769E+03  0.34621146124E+03  0.92501444674E+02 0.  0.
        254    2    1    2    0    0  0.29701523647E+03  0.89480189286E+01 -0.84711723295E+03  0.12737136512E+04  0.90357110463E+03 0.  0.
        -24    2    4    4    0    0 -0.18042708943E+03  0.32027089968E+03 -0.34641587354E+03  0.51155807874E+03  0.80995843754E+02 0.  0.
         24    2    4    4    0    0  0.47744232590E+03 -0.31132288075E+03 -0.50070135942E+03  0.76215557245E+03  0.72843356967E+02 0.  0.
         11    1    3    3    0    0 -0.25338413248E+03  0.19833521554E+02  0.14730069175E+03  0.29375905256E+03  0.00000000000E+00 0.  1.
        -11    1    3    3    0    0 -0.43631103993E+02 -0.28781540483E+02  0.43823359324E+01  0.52452408681E+02  0.00000000000E+00 0. -1.
          4    1    6    6  502    0  0.12263909741E+03 -0.54671314605E+02 -0.88841715452E+02  0.16100357530E+03  0.00000000000E+00 0. -1.
          3    1    5    5  503    0 -0.26170530450E+02  0.35168656809E+02 -0.11201816973E+02  0.45246124577E+02  0.00000000000E+00 0. -1.
         -4    1    5    5    0  503 -0.15425655898E+03  0.28510224287E+03 -0.33521405657E+03  0.46631195417E+03  0.00000000000E+00 0.  1.
         -3    1    6    6    0  502  0.35480322849E+03 -0.25665156614E+03 -0.41185964396E+03  0.60115199715E+03  0.00000000000E+00 0.  1.
<mgrwt>
<rscale>  0 0.14630546E+04</rscale>
<asrwt>0</asrwt>
<pdfrwt beam="1">  1        2 0.17810456E+00 0.14630546E+04</pdfrwt>
<pdfrwt beam="2">  1       -2 0.71114687E-01 0.14630546E+04</pdfrwt>
<totfact> 0.34948429E+01</totfact>
</mgrwt>
</event>
<event>
12    1  0.1467288E-007  0.1466025E+04  0.7818608E-02  0.8907365E-01
          2   -1    0    0  501    0  0.00000000000E+00  0.00000000000E+00  0.12559068696E+04  0.12559068696E+04  0.00000000000E+00 0. -1.
         -2   -1    0    0    0  501 -0.00000000000E+00 -0.00000000000E+00 -0.42782434976E+03  0.42782434976E+03  0.00000000000E+00 0.  1.
         23    2    1    2    0    0 -0.40882321148E+03 -0.15454512708E+03  0.10621730394E+03  0.45959196338E+03  0.94456564601E+02 0.  0.
        254    2    1    2    0    0  0.40882321148E+03  0.15454512708E+03  0.72186521590E+03  0.12241392560E+04  0.88679586915E+03 0.  0.
        -24    2    4    4    0    0  0.12168479537E+03  0.43641972324E+03  0.66698743507E+03  0.81034517783E+03  0.80732301054E+02 0.  0.
         24    2    4    4    0    0  0.28713841612E+03 -0.28187459616E+03  0.54877780830E+02  0.41379407815E+03  0.79449419829E+02 0.  0.
         13    1    3    3    0    0 -0.24755835258E+03 -0.13554456083E+03  0.90792750131E+02  0.29648067286E+03  0.00000000000E+00 0. -1.
        -13    1    3    3    0    0 -0.16126485890E+03 -0.19000566244E+02  0.15424553807E+02  0.16311129052E+03  0.00000000000E+00 0.  1.
          2    1    6    6  502    0  0.20003431595E+03 -0.19582968257E+03  0.77224596584E+00  0.27993497191E+03  0.00000000000E+00 0. -1.
          3    1    5    5  503    0  0.67074443352E+02  0.34023766819E+03  0.54199058531E+03  0.64343954368E+03  0.00000000000E+00 0. -1.
         -4    1    5    5    0  503  0.54610352015E+02  0.96182055052E+02  0.12499684976E+03  0.16690563415E+03  0.00000000000E+00 0.  1.
         -1    1    6    6    0  502  0.87104100165E+02 -0.86044913593E+02  0.54105534864E+02  0.13385910624E+03  0.00000000000E+00 0.  1.
<mgrwt>
<rscale>  0 0.14660253E+04</rscale>
<asrwt>0</asrwt>
<pdfrwt beam="1">  1        2 0.19321644E+00 0.14660253E+04</pdfrwt>
<pdfrwt beam="2">  1       -2 0.65819131E-01 0.14660253E+04</pdfrwt>
<totfact> 0.36117201E+01</totfact>
</mgrwt>
</event>
<event>
12    1  0.1467288E-007  0.2778060E+04  0.7818608E-02  0.8310113E-01
          2   -1    0    0  501    0  0.00000000000E+00  0.00000000000E+00  0.10704129184E+04  0.10704129184E+04  0.00000000000E+00 0. -1.
         -2   -1    0    0    0  501 -0.00000000000E+00 -0.00000000000E+00 -0.18024855212E+04  0.18024855212E+04  0.00000000000E+00 0.  1.
         23    2    1    2    0    0  0.76791731361E+03  0.94695955552E+03 -0.49553820684E+03  0.13192323208E+04  0.91577297313E+02 0.  0.
        254    2    1    2    0    0 -0.76791731361E+03 -0.94695955552E+03 -0.23653439597E+03  0.15536661188E+04  0.93354190474E+03 0.  0.
        -24    2    4    4    0    0 -0.29931590397E+03 -0.44506787097E+03  0.35121769735E+03  0.64596601221E+03  0.79011378012E+02 0.  0.
         24    2    4    4    0    0 -0.46860140964E+03 -0.50189168456E+03 -0.58775209332E+03  0.90770010660E+03  0.83572819579E+02 0.  0.
         13    1    3    3    0    0  0.71462441820E+02  0.60798758164E+02 -0.57316729702E+02  0.10994806542E+03  0.00000000000E+00 0. -1.
        -13    1    3    3    0    0  0.69645487179E+03  0.88616079736E+03 -0.43822147714E+03  0.12092842554E+04  0.00000000000E+00 0.  1.
          2    1    6    6  502    0 -0.19074831097E+03 -0.15442696889E+03 -0.23685423856E+03  0.34107555935E+03  0.00000000000E+00 0. -1.
          3    1    5    5  503    0 -0.19460058204E+03 -0.35065504771E+03  0.25398659088E+03  0.47469731130E+03  0.00000000000E+00 0. -1.
         -4    1    5    5    0  503 -0.10471532193E+03 -0.94412823261E+02  0.97231106476E+02  0.17126870090E+03  0.00000000000E+00 0.  1.
         -1    1    6    6    0  502 -0.27785309866E+03 -0.34746471567E+03 -0.35089785476E+03  0.56662454725E+03  0.00000000000E+00 0.  1.
<mgrwt>
<rscale>  0 0.27780596E+04</rscale>
<asrwt>0</asrwt>
<pdfrwt beam="1">  1        2 0.16467891E+00 0.27780596E+04</pdfrwt>
<pdfrwt beam="2">  1       -2 0.27730546E+00 0.27780596E+04</pdfrwt>
<totfact> 0.86651932E-01</totfact>
</mgrwt>
</event>
<event>
12    1  0.1467288E-007  0.2329848E+04  0.7818608E-02  0.8466245E-01
         -1   -1    0    0    0  501 -0.00000000000E+00  0.00000000000E+00  0.11178749890E+04  0.11178749890E+04  0.00000000000E+00 0.  1.
          1   -1    0    0  501    0  0.00000000000E+00 -0.00000000000E+00 -0.12139528773E+04  0.12139528773E+04  0.00000000000E+00 0. -1.
         23    2    1    2    0    0  0.74041305016E+03 -0.64556511394E+03 -0.37429970153E+02  0.98745973376E+03  0.93326962572E+02 0.  0.
        254    2    1    2    0    0 -0.74041305016E+03  0.64556511394E+03 -0.58647918113E+02  0.13443681325E+04  0.91592592288E+03 0.  0.
        -24    2    4    4    0    0 -0.21102485149E+03 -0.22571330157E+03 -0.36709164198E+02  0.32119315698E+03  0.79620970252E+02 0.  0.
         24    2    4    4    0    0 -0.52938819867E+03  0.87127841551E+03 -0.21938753914E+02  0.10231749755E+04  0.83831851811E+02 0.  0.
         13    1    3    3    0    0  0.55890880069E+03 -0.49852851478E+03  0.10462601788E+02  0.74901214515E+03  0.00000000000E+00 0.  1.
        -13    1    3    3    0    0  0.18150424947E+03 -0.14703659916E+03 -0.47892571941E+02  0.23844758861E+03  0.00000000000E+00 0. -1.
          4    1    6    6  502    0 -0.99991467928E+02  0.13711299800E+03 -0.31521691857E+02  0.17260325877E+03  0.00000000000E+00 0. -1.
          3    1    5    5  503    0 -0.40203311526E+02 -0.76312915178E+01 -0.13978098333E+02  0.43242688410E+02  0.00000000000E+00 0. -1.
         -4    1    5    5    0  503 -0.17082153997E+03 -0.21808201005E+03 -0.22731065865E+02  0.27795046857E+03  0.00000000000E+00 0.  1.
         -3    1    6    6    0  502 -0.42939673074E+03  0.73416541751E+03  0.95829379423E+01  0.85057171675E+03  0.00000000000E+00 0.  1.
<mgrwt>
<rscale>  0 0.23298477E+04</rscale>
<asrwt>0</asrwt>
<pdfrwt beam="1">  1        1 0.18676198E+00 0.23298477E+04</pdfrwt>
<pdfrwt beam="2">  1       -1 0.17198077E+00 0.23298477E+04</pdfrwt>
<totfact> 0.22394161E+00</totfact>
</mgrwt>
</event>
<event>
12    1  0.1467288E-007  0.1620052E+04  0.7818608E-02  0.8808323E-01
          1   -1    0    0  501    0  0.00000000000E+00  0.00000000000E+00  0.91545175557E+03  0.91545175557E+03  0.00000000000E+00 0. -1.
         -1   -1    0    0    0  501 -0.00000000000E+00 -0.00000000000E+00 -0.71674098319E+03  0.71674098319E+03  0.00000000000E+00 0.  1.
         23    2    1    2    0    0  0.12994499395E+03  0.45217717919E+03  0.36722663185E+03  0.60379993501E+03  0.91482564160E+02 0.  0.
        254    2    1    2    0    0 -0.12994499395E+03 -0.45217717919E+03 -0.16851585946E+03  0.10283928037E+04  0.89880156936E+03 0.  0.
        -24    2    4    4    0    0  0.14446069654E+03  0.19486386110E+03  0.96926490253E+02  0.27303248937E+03  0.79442926249E+02 0.  0.
         24    2    4    4    0    0 -0.27440569048E+03 -0.64704104030E+03 -0.26544234972E+03  0.75536031438E+03  0.78415385716E+02 0.  0.
         13    1    3    3    0    0  0.91141967447E+02  0.16209447234E+03  0.15826311493E+03  0.24418986413E+03  0.00000000000E+00 0.  1.
        -13    1    3    3    0    0  0.38803026499E+02  0.29008270685E+03  0.20896351691E+03  0.35961007088E+03  0.00000000000E+00 0. -1.
          2    1    6    6  502    0 -0.41115294734E+02 -0.58466934682E+02 -0.47306847054E+02  0.85713404379E+02  0.00000000000E+00 0. -1.
          1    1    5    5  503    0  0.12946573135E+02  0.13972559172E+02 -0.13756183046E+02  0.23496355840E+02  0.00000000000E+00 0. -1.
         -2    1    5    5    0  503  0.13151412340E+03  0.18089130193E+03  0.11068267330E+03  0.24953613353E+03  0.00000000000E+00 0.  1.
         -1    1    6    6    0  502 -0.23329039575E+03 -0.58857410561E+03 -0.21813550266E+03  0.66964691000E+03  0.00000000000E+00 0.  1.
<mgrwt>
<rscale>  0 0.16200516E+04</rscale>
<asrwt>0</asrwt>
<pdfrwt beam="1">  1        1 0.14083873E+00 0.16200516E+04</pdfrwt>
<pdfrwt beam="2">  1       -1 0.11026784E+00 0.16200516E+04</pdfrwt>
<totfact> 0.12850852E+01</totfact>
</mgrwt>
</event>
<event>
12    1  0.1467288E-007  0.1393061E+04  0.7818608E-02  0.8958857E-01
         -2   -1    0    0    0  501 -0.00000000000E+00  0.00000000000E+00  0.10534174452E+04  0.10534174452E+04  0.00000000000E+00 0.  1.
          2   -1    0    0  501    0  0.00000000000E+00 -0.00000000000E+00 -0.46055296271E+03  0.46055296271E+03  0.00000000000E+00 0. -1.
         23    2    1    2    0    0 -0.11940353202E+03  0.39067917495E+03  0.21805808236E+03  0.47175312180E+03  0.90079184330E+02 0.  0.
        254    2    1    2    0    0  0.11940353202E+03 -0.39067917495E+03  0.37480640016E+03  0.10422172861E+04  0.88252456776E+03 0.  0.
        -24    2    4    4    0    0  0.27225836448E+03  0.20399281356E+03  0.95280606046E+02  0.36280602035E+03  0.82535625631E+02 0.  0.
         24    2    4    4    0    0 -0.15285483247E+03 -0.59467198851E+03  0.27952579411E+03  0.67941126577E+03  0.80409108718E+02 0.  0.
         13    1    3    3    0    0 -0.84179111756E+02  0.32652225907E+03  0.14104506451E+03  0.36550871227E+03  0.00000000000E+00 0.  1.
        -13    1    3    3    0    0 -0.35224420261E+02  0.64156915886E+02  0.77013017855E+02  0.10624440954E+03  0.00000000000E+00 0. -1.
          2    1    6    6  502    0  0.12813044128E+00 -0.22993952860E+01 -0.43734115488E+01  0.49427082320E+01  0.00000000000E+00 0. -1.
          3    1    5    5  503    0  0.17972004105E+03  0.92256633631E+02  0.78605905764E+02  0.21677054234E+03  0.00000000000E+00 0. -1.
         -4    1    5    5    0  503  0.92538323430E+02  0.11173617993E+03  0.16674700282E+02  0.14603547801E+03  0.00000000000E+00 0.  1.
         -1    1    6    6    0  502 -0.15298296291E+03 -0.59237259322E+03  0.28389920566E+03  0.67446855754E+03  0.00000000000E+00 0.  1.
<mgrwt>
<rscale>  0 0.13930607E+04</rscale>
<asrwt>0</asrwt>
<pdfrwt beam="1">  1        2 0.70854302E-01 0.13930607E+04</pdfrwt>
<pdfrwt beam="2">  1       -2 0.16206422E+00 0.13930607E+04</pdfrwt>
<totfact> 0.16022609E+01</totfact>
</mgrwt>
</event>
<event>
12    1  0.1467288E-007  0.2954457E+04  0.7818608E-02  0.8256857E-01
          2   -1    0    0  501    0  0.00000000000E+00  0.00000000000E+00  0.14152378824E+04  0.14152378824E+04  0.00000000000E+00 0. -1.
         -2   -1    0    0    0  501 -0.00000000000E+00 -0.00000000000E+00 -0.15419343096E+04  0.15419343096E+04  0.00000000000E+00 0.  1.
         23    2    1    2    0    0  0.35814741237E+03 -0.49625388574E+03  0.11348841305E+04  0.12925316309E+04  0.90213851713E+02 0.  0.
        254    2    1    2    0    0 -0.35814741237E+03  0.49625388574E+03 -0.12615805576E+04  0.16646405611E+04  0.89716509417E+03 0.  0.
        -24    2    4    4    0    0 -0.51702832829E+03  0.70511215852E+02 -0.10075093808E+04  0.11374132144E+04  0.79646368983E+02 0.  0.
         24    2    4    4    0    0  0.15888091592E+03  0.42574266989E+03 -0.25407117683E+03  0.52722734670E+03  0.83165773050E+02 0.  0.
         13    1    3    3    0    0  0.33095216287E+03 -0.40884388696E+03  0.99219539559E+03  0.11230023869E+04  0.00000000000E+00 0. -1.
        -13    1    3    3    0    0  0.27195249500E+02 -0.87409998779E+02  0.14268873491E+03  0.16952924395E+03  0.00000000000E+00 0.  1.
          4    1    6    6  502    0  0.52088403647E+02  0.54598283208E+02 -0.34526856751E+02  0.82983601759E+02  0.00000000000E+00 0. -1.
          1    1    5    5  503    0 -0.12059858649E+03 -0.56400217115E+01 -0.18069356339E+03  0.21731542227E+03  0.00000000000E+00 0. -1.
         -2    1    5    5    0  503 -0.39642974180E+03  0.76151237564E+02 -0.82681581742E+03  0.92009779214E+03  0.00000000000E+00 0.  1.
         -3    1    6    6    0  502  0.10679251227E+03  0.37114438668E+03 -0.21954432008E+03  0.44424374494E+03  0.00000000000E+00 0.  1.
<mgrwt>
<rscale>  0 0.29544569E+04</rscale>
<asrwt>0</asrwt>
<pdfrwt beam="1">  1        2 0.21772890E+00 0.29544569E+04</pdfrwt>
<pdfrwt beam="2">  1       -2 0.23722066E+00 0.29544569E+04</pdfrwt>
<totfact> 0.93929915E-01</totfact>
</mgrwt>
</event>
<event>
12    1  0.1467288E-007  0.2617090E+04  0.7818608E-02  0.8362419E-01
          2   -1    0    0  501    0  0.00000000000E+00  0.00000000000E+00  0.21547442279E+04  0.21547442279E+04  0.00000000000E+00 0. -1.
         -2   -1    0    0    0  501 -0.00000000000E+00 -0.00000000000E+00 -0.79466040453E+03  0.79466040453E+03  0.00000000000E+00 0.  1.
         23    2    1    2    0    0 -0.84528137858E+03  0.71403070608E+03  0.89234806049E+03  0.14232095824E+04  0.69999973174E+02 0.  0.
        254    2    1    2    0    0  0.84528137858E+03 -0.71403070608E+03  0.46773576287E+03  0.15261950500E+04  0.94135759867E+03 0.  0.
        -24    2    4    4    0    0  0.80315979342E+03 -0.80647123127E+02  0.22031602691E+03  0.84034870686E+03  0.77956303005E+02 0.  0.
         24    2    4    4    0    0  0.42121585157E+02 -0.63338358295E+03  0.24741973595E+03  0.68584634313E+03  0.78865008446E+02 0.  0.
         13    1    3    3    0    0 -0.63001722021E+03  0.49210129551E+03  0.63467969040E+03  0.10207368379E+04  0.00000000000E+00 0. -1.
        -13    1    3    3    0    0 -0.21526415837E+03  0.22192941056E+03  0.25766837008E+03  0.40247274453E+03  0.00000000000E+00 0.  1.
          2    1    6    6  502    0 -0.20799153577E+02 -0.17108194662E+03  0.81689095201E+02  0.19072164408E+03  0.00000000000E+00 0. -1.
          1    1    5    5  503    0  0.27219498448E+03 -0.69755733648E+01  0.42540647632E+02  0.27558750861E+03  0.00000000000E+00 0. -1.
         -2    1    5    5    0  503  0.53096480894E+03 -0.73671549763E+02  0.17777537928E+03  0.56476119825E+03  0.00000000000E+00 0.  1.
         -1    1    6    6    0  502  0.62920738734E+02 -0.46230163633E+03  0.16573064075E+03  0.49512469904E+03  0.00000000000E+00 0.  1.
<mgrwt>
<rscale>  0 0.26170899E+04</rscale>
<asrwt>0</asrwt>
<pdfrwt beam="1">  1        2 0.33149911E+00 0.26170899E+04</pdfrwt>
<pdfrwt beam="2">  1       -2 0.12225545E+00 0.26170899E+04</pdfrwt>
<totfact> 0.24514586E+00</totfact>
</mgrwt>
</event>
<event>
12    1  0.1467288E-007  0.1505539E+04  0.7818608E-02  0.8880778E-01
          2   -1    0    0  501    0  0.00000000000E+00  0.00000000000E+00  0.26910854116E+03  0.26910854116E+03  0.00000000000E+00 0. -1.
         -2   -1    0    0    0  501 -0.00000000000E+00 -0.00000000000E+00 -0.21056994507E+04  0.21056994507E+04  0.00000000000E+00 0.  1.
         23    2    1    2    0    0 -0.14201233500E+03  0.23755744835E+03  0.20426506897E+02  0.29176085614E+03  0.90033940426E+02 0.  0.
        254    2    1    2    0    0  0.14201233500E+03 -0.23755744835E+03 -0.18570174165E+04  0.20830471357E+04  0.90220321443E+03 0.  0.
        -24    2    4    4    0    0  0.37426230183E+03 -0.24550603973E+02 -0.28169517016E+03  0.47465397159E+03  0.72589400938E+02 0.  0.
         24    2    4    4    0    0 -0.23224996683E+03 -0.21300684438E+03 -0.15753222463E+04  0.16083931641E+04  0.77307360274E+02 0.  0.
         11    1    3    3    0    0 -0.13042572701E+02  0.92257692435E+01  0.24784329520E+02  0.29487056662E+02  0.00000000000E+00 0.  1.
        -11    1    3    3    0    0 -0.12896976230E+03  0.22833167911E+03 -0.43578226235E+01  0.26227379947E+03  0.00000000000E+00 0. -1.
          4    1    6    6  502    0 -0.20861597768E+03 -0.21374927471E+03 -0.14017350119E+04  0.14332028545E+04  0.00000000000E+00 0. -1.
          1    1    5    5  503    0  0.35933260642E+03 -0.95618559835E+01 -0.25564765246E+03  0.44109757802E+03  0.00000000000E+00 0. -1.
         -2    1    5    5    0  503  0.14929695416E+02 -0.14988747989E+02 -0.26047517697E+02  0.33556393574E+02  0.00000000000E+00 0.  1.
         -3    1    6    6    0  502 -0.23633989150E+02  0.74243033022E+00 -0.17358723443E+03  0.17519030967E+03  0.00000000000E+00 0.  1.
<mgrwt>
<rscale>  0 0.15055387E+04</rscale>
<asrwt>0</asrwt>
<pdfrwt beam="1">  1        2 0.41401314E-01 0.15055387E+04</pdfrwt>
<pdfrwt beam="2">  1       -2 0.32395376E+00 0.15055387E+04</pdfrwt>
<totfact> 0.27238207E+00</totfact>
</mgrwt>
</event>
<event>
12    1  0.1467288E-007  0.2098367E+04  0.7818608E-02  0.8561963E-01
          2   -1    0    0  501    0  0.00000000000E+00  0.00000000000E+00  0.23903023626E+04  0.23903023626E+04  0.00000000000E+00 0. -1.
         -2   -1    0    0    0  501 -0.00000000000E+00 -0.00000000000E+00 -0.46052168037E+03  0.46052168037E+03  0.00000000000E+00 0.  1.
         23    2    1    2    0    0  0.53290621066E+02 -0.26523868046E+03 -0.31039619913E+03  0.42176959822E+03  0.91391168303E+02 0.  0.
        254    2    1    2    0    0 -0.53290621066E+02  0.26523868046E+03  0.22401768814E+04  0.24290544448E+04  0.89928949060E+03 0.  0.
        -24    2    4    4    0    0  0.20403034558E+03  0.16313492306E+03  0.13642075674E+03  0.30568393628E+03  0.81182886080E+02 0.  0.
         24    2    4    4    0    0 -0.25732096665E+03  0.10210375740E+03  0.21037561247E+04  0.21233705085E+04  0.79203707056E+02 0.  0.
         13    1    3    3    0    0  0.78874962328E+02 -0.21120951266E+03 -0.23699115535E+03  0.32710170534E+03  0.00000000000E+00 0.  1.
        -13    1    3    3    0    0 -0.25584341262E+02 -0.54029167807E+02 -0.73405043777E+02  0.94667892886E+02  0.00000000000E+00 0. -1.
          4    1    6    6  502    0 -0.21589473790E+03  0.10092577645E+03  0.15672675767E+04  0.15852836362E+04  0.00000000000E+00 0. -1.
          1    1    5    5  503    0  0.14373473754E+03  0.15011689435E+03  0.12622666541E+03  0.24316234866E+03  0.00000000000E+00 0. -1.
         -2    1    5    5    0  503  0.60295608043E+02  0.13018028709E+02  0.10194091323E+02  0.62521587621E+02  0.00000000000E+00 0.  1.
         -3    1    6    6    0  502 -0.41426228745E+02  0.11779809508E+01  0.53648854795E+03  0.53808687231E+03  0.00000000000E+00 0.  1.
<mgrwt>
<rscale>  0 0.20983670E+04</rscale>
<asrwt>0</asrwt>
<pdfrwt beam="1">  1        2 0.36773882E+00 0.20983670E+04</pdfrwt>
<pdfrwt beam="2">  1       -2 0.70849491E-01 0.20983670E+04</pdfrwt>
<totfact> 0.67200697E+00</totfact>
</mgrwt>
</event>
<event>
12    1  0.1467288E-007  0.1580262E+04  0.7818608E-02  0.8832766E-01
          1   -1    0    0  501    0  0.00000000000E+00  0.00000000000E+00  0.93077301163E+03  0.93077301163E+03  0.00000000000E+00 0. -1.
         -1   -1    0    0    0  501 -0.00000000000E+00 -0.00000000000E+00 -0.67074024230E+03  0.67074024230E+03  0.00000000000E+00 0.  1.
         23    2    1    2    0    0 -0.44964638959E+03 -0.21441010173E+03  0.27742324475E+03  0.57697001668E+03  0.88188298691E+02 0.  0.
        254    2    1    2    0    0  0.44964638959E+03  0.21441010173E+03 -0.17390475423E+02  0.10245432372E+04  0.89511610921E+03 0.  0.
        -24    2    4    4    0    0  0.64461399401E+03  0.25721352980E+02  0.18773380005E+03  0.67588626655E+03  0.73413053069E+02 0.  0.
         24    2    4    4    0    0 -0.19496760442E+03  0.18868874875E+03 -0.20512427547E+03  0.34865697069E+03  0.76615299689E+02 0.  0.
         13    1    3    3    0    0  0.13460464014E+00  0.19548953951E+01  0.11048119746E+02  0.11220547417E+02  0.00000000000E+00 0.  1.
        -13    1    3    3    0    0 -0.44978099423E+03 -0.21636499712E+03  0.26637512500E+03  0.56574946926E+03  0.00000000000E+00 0. -1.
          2    1    6    6  502    0 -0.49515584752E+02  0.96647905494E+02 -0.95274459411E+02  0.14446395186E+03  0.00000000000E+00 0. -1.
          3    1    5    5  503    0  0.11854621912E+03 -0.22216541327E+02  0.25368524763E+02  0.12324910882E+03  0.00000000000E+00 0. -1.
         -4    1    5    5    0  503  0.52606777489E+03  0.47937894307E+02  0.16236527529E+03  0.55263715773E+03  0.00000000000E+00 0.  1.
         -1    1    6    6    0  502 -0.14545201967E+03  0.92040843252E+02 -0.10984981606E+03  0.20419301884E+03  0.00000000000E+00 0.  1.
<mgrwt>
<rscale>  0 0.15802619E+04</rscale>
<asrwt>0</asrwt>
<pdfrwt beam="1">  1        1 0.14319585E+00 0.15802619E+04</pdfrwt>
<pdfrwt beam="2">  1       -1 0.10319081E+00 0.15802619E+04</pdfrwt>
<totfact> 0.14637565E+01</totfact>
</mgrwt>
</event>
<event>
12    1  0.1467288E-007  0.1540074E+04  0.7818608E-02  0.8858233E-01
          2   -1    0    0  501    0  0.00000000000E+00  0.00000000000E+00  0.95618099328E+03  0.95618099328E+03  0.00000000000E+00 0. -1.
         -2   -1    0    0    0  501 -0.00000000000E+00 -0.00000000000E+00 -0.62013082676E+03  0.62013082676E+03  0.00000000000E+00 0.  1.
         23    2    1    2    0    0 -0.50314070533E+02  0.47789837131E+03 -0.55777930060E+02  0.49187853982E+03  0.88966069121E+02 0.  0.
        254    2    1    2    0    0  0.50314070533E+02 -0.47789837131E+03  0.39182809658E+03  0.10844332802E+04  0.88968979031E+03 0.  0.
        -24    2    4    4    0    0 -0.73684517500E+02 -0.23010909512E+03 -0.26498209584E+03  0.36721501711E+03  0.79068033346E+02 0.  0.
         24    2    4    4    0    0  0.12399858803E+03 -0.24778927619E+03  0.65681019242E+03  0.71721826311E+03  0.78912817984E+02 0.  0.
         11    1    3    3    0    0 -0.70239294044E+02  0.40382648362E+03 -0.63526768483E+02  0.41478312118E+03  0.00000000000E+00 0.  1.
        -11    1    3    3    0    0  0.19925223511E+02  0.74071887690E+02  0.77488384227E+01  0.77095418637E+02  0.00000000000E+00 0. -1.
          2    1    6    6  502    0  0.18245012044E+02 -0.11405558916E+03  0.22374713501E+03  0.25180218091E+03  0.00000000000E+00 0. -1.
          1    1    5    5  503    0 -0.75709628071E+02 -0.23573778627E+03 -0.25401279901E+03  0.35472066999E+03  0.00000000000E+00 0. -1.
         -2    1    5    5    0  503  0.20251105711E+01  0.56286911511E+01 -0.10969296828E+02  0.12494347114E+02  0.00000000000E+00 0.  1.
         -1    1    6    6    0  502  0.10575357599E+03 -0.13373368703E+03  0.43306305741E+03  0.46541608220E+03  0.00000000000E+00 0.  1.
<mgrwt>
<rscale>  0 0.15400744E+04</rscale>
<asrwt>0</asrwt>
<pdfrwt beam="1">  1        2 0.14710477E+00 0.15400744E+04</pdfrwt>
<pdfrwt beam="2">  1       -2 0.95404742E-01 0.15400744E+04</pdfrwt>
<totfact> 0.23914156E+01</totfact>
</mgrwt>
</event>
<event>
12    1  0.1467288E-007  0.3063692E+04  0.7818608E-02  0.8225774E-01
          3   -1    0    0  501    0  0.00000000000E+00  0.00000000000E+00  0.14479688685E+04  0.14479688685E+04  0.00000000000E+00 0. -1.
         -3   -1    0    0    0  501 -0.00000000000E+00 -0.00000000000E+00 -0.16205819744E+04  0.16205819744E+04  0.00000000000E+00 0.  1.
         23    2    1    2    0    0 -0.13508161282E+04 -0.17289866221E+03 -0.39386282971E+03  0.14203950153E+04  0.88294458758E+02 0.  0.
        254    2    1    2    0    0  0.13508161282E+04  0.17289866221E+03  0.22124972378E+03  0.16481558275E+04  0.90159194321E+03 0.  0.
        -24    2    4    4    0    0  0.12802826317E+04 -0.31889928080E+02 -0.59167992622E+02  0.12846608091E+04  0.81926544220E+02 0.  0.
         24    2    4    4    0    0  0.70533496512E+02  0.20478859029E+03  0.28041771640E+03  0.36349501844E+03  0.81124545703E+02 0.  0.
         11    1    3    3    0    0 -0.97186794056E+03 -0.11337324925E+03 -0.32236276906E+03  0.10301934490E+04  0.00000000000E+00 0.  1.
        -11    1    3    3    0    0 -0.37894818761E+03 -0.59525412960E+02 -0.71500060653E+02  0.39020156631E+03  0.00000000000E+00 0. -1.
          2    1    6    6  502    0 -0.32418729992E-01  0.12141530511E+03  0.13402091403E+03  0.18084048983E+03  0.00000000000E+00 0. -1.
          1    1    5    5  503    0  0.90923389060E+03 -0.50123969194E+02 -0.16940190736E+02  0.91077200779E+03  0.00000000000E+00 0. -1.
         -2    1    5    5    0  503  0.37104874105E+03  0.18234041115E+02 -0.42227801885E+02  0.37388880131E+03  0.00000000000E+00 0.  1.
         -1    1    6    6    0  502  0.70565915242E+02  0.83373285183E+02  0.14639680237E+03  0.18265452861E+03  0.00000000000E+00 0.  1.
<mgrwt>
<rscale>  0 0.30636921E+04</rscale>
<asrwt>0</asrwt>
<pdfrwt beam="1">  1        3 0.22276444E+00 0.30636921E+04</pdfrwt>
<pdfrwt beam="2">  1       -3 0.24932030E+00 0.30636921E+04</pdfrwt>
<totfact> 0.17384771E-02</totfact>
</mgrwt>
</event>
<event>
12    1  0.1467288E-007  0.1193239E+04  0.7818608E-02  0.9118795E-01
          2   -1    0    0  501    0  0.00000000000E+00  0.00000000000E+00  0.36335052951E+04  0.36335052951E+04  0.00000000000E+00 0. -1.
         -2   -1    0    0    0  501 -0.00000000000E+00 -0.00000000000E+00 -0.97964596344E+02  0.97964596344E+02  0.00000000000E+00 0.  1.
         23    2    1    2    0    0  0.19276995189E+03 -0.77210157992E+02  0.36291833717E+03  0.42657103668E+03  0.84448013772E+02 0.  0.
        254    2    1    2    0    0 -0.19276995189E+03  0.77210157992E+02  0.31726223616E+04  0.33048988548E+04  0.90205439312E+03 0.  0.
        -24    2    4    4    0    0  0.25172358192E+03 -0.24568137837E+03  0.14894825034E+04  0.15325752292E+04  0.80651124925E+02 0.  0.
         24    2    4    4    0    0 -0.44449353381E+03  0.32289153636E+03  0.16831398582E+04  0.17723236255E+04  0.79610335738E+02 0.  0.
         11    1    3    3    0    0  0.18539466431E+03 -0.78702348478E+02  0.36653201220E+03  0.41822357319E+03  0.00000000000E+00 0.  1.
        -11    1    3    3    0    0  0.73752875816E+01  0.14921904867E+01 -0.36136750300E+01  0.83474634820E+01  0.00000000000E+00 0. -1.
          2    1    6    6  502    0 -0.14765804393E+03  0.15475992283E+03  0.63347215566E+03  0.66861087611E+03  0.00000000000E+00 0. -1.
          3    1    5    5  503    0  0.64226474819E+02 -0.10685616454E+03  0.61486298801E+03  0.62737530553E+03  0.00000000000E+00 0. -1.
         -4    1    5    5    0  503  0.18749710710E+03 -0.13882521383E+03  0.87461951539E+03  0.90519992370E+03  0.00000000000E+00 0.  1.
         -1    1    6    6    0  502 -0.29683548988E+03  0.16813161353E+03  0.10496677025E+04  0.11037127494E+04  0.00000000000E+00 0.  1.
<mgrwt>
<rscale>  0 0.11932391E+04</rscale>
<asrwt>0</asrwt>
<pdfrwt beam="1">  1        2 0.55900071E+00 0.11932391E+04</pdfrwt>
<pdfrwt beam="2">  1       -2 0.15071479E-01 0.11932391E+04</pdfrwt>
<totfact> 0.23129872E+01</totfact>
</mgrwt>
</event>
<event>
12    1  0.1467288E-007  0.2310898E+04  0.7818608E-02  0.8473637E-01
          2   -1    0    0  501    0  0.00000000000E+00  0.00000000000E+00  0.34489688009E+04  0.34489688009E+04  0.00000000000E+00 0. -1.
         -2   -1    0    0    0  501 -0.00000000000E+00 -0.00000000000E+00 -0.38709021383E+03  0.38709021383E+03  0.00000000000E+00 0.  1.
         23    2    1    2    0    0  0.57285098909E+03 -0.42809579776E+03  0.24044171550E+04  0.25101892504E+04  0.91673058508E+02 0.  0.
        254    2    1    2    0    0 -0.57285098909E+03  0.42809579776E+03  0.65746143198E+03  0.13258697643E+04  0.90235848172E+03 0.  0.
        -24    2    4    4    0    0 -0.79745207032E+03  0.35455870164E+03  0.61895465686E+03  0.10724954719E+04  0.74161935084E+02 0.  0.
         24    2    4    4    0    0  0.22460108124E+03  0.73537096122E+02  0.38506775123E+02  0.25337429239E+03  0.82839665105E+02 0.  0.
         13    1    3    3    0    0  0.46070354852E+03 -0.37365248927E+03  0.20690433037E+04  0.21523949765E+04  0.00000000000E+00 0. -1.
        -13    1    3    3    0    0  0.11214744057E+03 -0.54443308494E+02  0.33537385131E+03  0.35779427386E+03  0.00000000000E+00 0.  1.
          2    1    6    6  502    0  0.19390758729E+03  0.32429990144E+02  0.44936953488E+02  0.20167098567E+03  0.00000000000E+00 0. -1.
          3    1    5    5  503    0 -0.35190014430E+03  0.18301115334E+03  0.24690790947E+03  0.46721548515E+03  0.00000000000E+00 0. -1.
         -4    1    5    5    0  503 -0.44555192602E+03  0.17154754830E+03  0.37204674738E+03  0.60527998674E+03  0.00000000000E+00 0.  1.
         -1    1    6    6    0  502  0.30693493942E+02  0.41107105977E+02 -0.64301783647E+01  0.51703306722E+02  0.00000000000E+00 0.  1.
<mgrwt>
<rscale>  0 0.23108977E+04</rscale>
<asrwt>0</asrwt>
<pdfrwt beam="1">  1        2 0.53061056E+00 0.23108977E+04</pdfrwt>
<pdfrwt beam="2">  1       -2 0.59552343E-01 0.23108977E+04</pdfrwt>
<totfact> 0.21078497E+00</totfact>
</mgrwt>
</event>
<event>
12    1  0.1467288E-007  0.1050839E+04  0.7818608E-02  0.9254478E-01
         -1   -1    0    0    0  501 -0.00000000000E+00  0.00000000000E+00  0.22765753641E+03  0.22765753641E+03  0.00000000000E+00 0.  1.
          1   -1    0    0  501    0  0.00000000000E+00 -0.00000000000E+00 -0.12126358235E+04  0.12126358235E+04  0.00000000000E+00 0. -1.
         23    2    1    2    0    0 -0.72640109430E+02 -0.81784876204E+02 -0.35022432146E+02  0.14689464978E+03  0.91575738641E+02 0.  0.
        254    2    1    2    0    0  0.72640109430E+02  0.81784876204E+02 -0.94995585492E+03  0.12933987101E+04  0.87091833460E+03 0.  0.
        -24    2    4    4    0    0 -0.17252186034E+03  0.37657061271E+03 -0.24743746669E+03  0.48917114463E+03  0.80584676938E+02 0.  0.
         24    2    4    4    0    0  0.24516196977E+03 -0.29478573651E+03 -0.70251838823E+03  0.80422756549E+03  0.79037139512E+02 0.  0.
         11    1    3    3    0    0 -0.49848272077E+02 -0.33325672781E+02 -0.62578690956E+02  0.86669159781E+02  0.00000000000E+00 0. -1.
        -11    1    3    3    0    0 -0.22791837353E+02 -0.48459203423E+02  0.27556258810E+02  0.60225490002E+02  0.00000000000E+00 0.  1.
          4    1    6    6  502    0  0.42434218452E+02 -0.14151464754E+02 -0.94602728857E+02  0.10464512964E+03  0.00000000000E+00 0. -1.
          3    1    5    5  503    0 -0.10626986388E+02  0.61757680216E+01 -0.24814411308E+02  0.27691658652E+02  0.00000000000E+00 0. -1.
         -4    1    5    5    0  503 -0.16189487395E+03  0.37039484469E+03 -0.22262305538E+03  0.46147948597E+03  0.00000000000E+00 0.  1.
         -3    1    6    6    0  502  0.20272775131E+03 -0.28063427176E+03 -0.60791565937E+03  0.69958243585E+03  0.00000000000E+00 0.  1.
<mgrwt>
<rscale>  0 0.10508391E+04</rscale>
<asrwt>0</asrwt>
<pdfrwt beam="1">  1        1 0.18655936E+00 0.10508391E+04</pdfrwt>
<pdfrwt beam="2">  1       -1 0.35024237E-01 0.10508391E+04</pdfrwt>
<totfact> 0.80965587E+01</totfact>
</mgrwt>
</event>
<event>
12    1  0.1467288E-007  0.1686231E+04  0.7818608E-02  0.8769256E-01
         -2   -1    0    0    0  501 -0.00000000000E+00  0.00000000000E+00  0.89001383515E+03  0.89001383515E+03  0.00000000000E+00 0.  1.
          2   -1    0    0  501    0  0.00000000000E+00 -0.00000000000E+00 -0.79868858782E+03  0.79868858782E+03  0.00000000000E+00 0. -1.
         23    2    1    2    0    0  0.38091630928E+03 -0.23101816180E+03  0.43207144268E+03  0.62732305365E+03  0.91552478413E+02 0.  0.
        254    2    1    2    0    0 -0.38091630928E+03  0.23101816180E+03 -0.34074619535E+03  0.10613793693E+04  0.90108355340E+03 0.  0.
        -24    2    4    4    0    0  0.27595017799E+02  0.48290976518E+03 -0.29574113524E+03  0.57246948637E+03  0.79342091228E+02 0.  0.
         24    2    4    4    0    0 -0.40851132708E+03 -0.25189160338E+03 -0.45005060110E+02  0.48890988294E+03  0.81710060559E+02 0.  0.
         11    1    3    3    0    0  0.37916373166E+03 -0.23348519278E+03  0.41079502546E+03  0.60583250457E+03  0.00000000000E+00 0.  1.
        -11    1    3    3    0    0  0.17525776243E+01  0.24670309757E+01  0.21276417215E+02  0.21490549077E+02  0.00000000000E+00 0. -1.
          4    1    6    6  502    0 -0.15005386018E+03 -0.13901997338E+03 -0.26661637916E+02  0.20628513492E+03  0.00000000000E+00 0. -1.
          3    1    5    5  503    0  0.17980879486E+02  0.46498567559E+03 -0.29709071247E+03  0.55208503147E+03  0.00000000000E+00 0. -1.
         -4    1    5    5    0  503  0.96141383128E+01  0.17924089591E+02  0.13495772322E+01  0.20384454908E+02  0.00000000000E+00 0.  1.
         -3    1    6    6    0  502 -0.25845746691E+03 -0.11287163000E+03 -0.18343422194E+02  0.28262474803E+03  0.00000000000E+00 0.  1.
<mgrwt>
<rscale>  0 0.16862312E+04</rscale>
<asrwt>0</asrwt>
<pdfrwt beam="1">  1        2 0.12287517E+00 0.16862312E+04</pdfrwt>
<pdfrwt beam="2">  1       -2 0.13692521E+00 0.16862312E+04</pdfrwt>
<totfact> 0.12507296E+01</totfact>
</mgrwt>
</event>
<event>
12    1  0.1467288E-007  0.2316530E+04  0.7818608E-02  0.8471432E-01
          2   -1    0    0  501    0  0.00000000000E+00  0.00000000000E+00  0.15784465686E+04  0.15784465686E+04  0.00000000000E+00 0. -1.
         -2   -1    0    0    0  501 -0.00000000000E+00 -0.00000000000E+00 -0.84993516999E+03  0.84993516999E+03  0.00000000000E+00 0.  1.
         23    2    1    2    0    0  0.83832632412E+03 -0.77873866233E+02 -0.23397311461E+03  0.87824942604E+03  0.87882143969E+02 0.  0.
        254    2    1    2    0    0 -0.83832632412E+03  0.77873866233E+02  0.96248451324E+03  0.15501323126E+04  0.87617257633E+03 0.  0.
        -24    2    4    4    0    0 -0.39087251991E+03  0.28257202277E+03  0.26055724111E+02  0.48931367684E+03  0.78234894470E+02 0.  0.
         24    2    4    4    0    0 -0.44745380422E+03 -0.20469815653E+03  0.93642878913E+03  0.10608186357E+04  0.79505085573E+02 0.  0.
         13    1    3    3    0    0  0.54048516555E+02  0.72183249054E+01 -0.34550954925E+02  0.64553193898E+02  0.00000000000E+00 0. -1.
        -13    1    3    3    0    0  0.78427780757E+03 -0.85092191139E+02 -0.19942215968E+03  0.81369623215E+03  0.00000000000E+00 0.  1.
          4    1    6    6  502    0 -0.66833726345E+02 -0.53935259683E+02  0.12087254250E+03  0.14827653470E+03  0.00000000000E+00 0. -1.
          3    1    5    5  503    0  0.23100821195E+01  0.98116362423E+01  0.99139703629E-01  0.10080402464E+02  0.00000000000E+00 0. -1.
         -2    1    5    5    0  503 -0.39318260203E+03  0.27276038652E+03  0.25956584407E+02  0.47923327437E+03  0.00000000000E+00 0.  1.
         -3    1    6    6    0  502 -0.38062007787E+03 -0.15076289685E+03  0.81555624664E+03  0.91254210104E+03  0.00000000000E+00 0.  1.
<mgrwt>
<rscale>  0 0.23165295E+04</rscale>
<asrwt>0</asrwt>
<pdfrwt beam="1">  1        2 0.24283793E+00 0.23165295E+04</pdfrwt>
<pdfrwt beam="2">  1       -2 0.13075926E+00 0.23165295E+04</pdfrwt>
<totfact> 0.44433767E+00</totfact>
</mgrwt>
</event>
<event>
12    1  0.1467288E-007  0.1424468E+04  0.7818608E-02  0.8936296E-01
          2   -1    0    0  501    0  0.00000000000E+00  0.00000000000E+00  0.27552288609E+04  0.27552288609E+04  0.00000000000E+00 0.  1.
         -2   -1    0    0    0  501 -0.00000000000E+00 -0.00000000000E+00 -0.18411426423E+03  0.18411426423E+03  0.00000000000E+00 0. -1.
         23    2    1    2    0    0  0.31009404960E+03 -0.16109369221E+03  0.12453181825E+04  0.12966329690E+04  0.91269837724E+02 0.  0.
        254    2    1    2    0    0 -0.31009404960E+03  0.16109369221E+03  0.13257964141E+04  0.16427101561E+04  0.90479336208E+03 0.  0.
        -24    2    4    4    0    0 -0.60393079314E+03  0.57219501407E+02  0.64614134290E+03  0.88985628264E+03  0.79618430661E+02 0.  0.
         24    2    4    4    0    0  0.29383674354E+03  0.10387419080E+03  0.67965507122E+03  0.75285387348E+03  0.87909382993E+02 0.  0.
         13    1    3    3    0    0  0.24342668170E+03 -0.15776685961E+03  0.10817564592E+04  0.11199749856E+04  0.00000000000E+00 0.  1.
        -13    1    3    3    0    0  0.66667367898E+02 -0.33268325979E+01  0.16356172334E+03  0.17665798340E+03  0.00000000000E+00 0. -1.
          4    1    6    6  502    0  0.17793561697E+03  0.67775300277E+02  0.50883357570E+03  0.54329198676E+03  0.00000000000E+00 0. -1.
          1    1    5    5  503    0 -0.59468820922E+03  0.54212394624E+02  0.61492358906E+03  0.85716046940E+03  0.00000000000E+00 0. -1.
         -2    1    5    5    0  503 -0.92425839251E+01  0.30071067826E+01  0.31217753840E+02  0.32695813243E+02  0.00000000000E+00 0.  1.
         -3    1    6    6    0  502  0.11590112657E+03  0.36098890523E+02  0.17082149552E+03  0.20956188673E+03  0.00000000000E+00 0.  1.
<mgrwt>
<rscale>  0 0.14244675E+04</rscale>
<asrwt>0</asrwt>
<pdfrwt beam="1">  1        2 0.42388133E+00 0.14244675E+04</pdfrwt>
<pdfrwt beam="2">  1       -2 0.28325273E-01 0.14244675E+04</pdfrwt>
<totfact> 0.27441025E+01</totfact>
</mgrwt>
</event>
<event>
12    1  0.1467288E-007  0.1351814E+04  0.7818608E-02  0.8989456E-01
         -1   -1    0    0    0  501 -0.00000000000E+00  0.00000000000E+00  0.13629280881E+04  0.13629280881E+04  0.00000000000E+00 0.  1.
          1   -1    0    0  501    0  0.00000000000E+00 -0.00000000000E+00 -0.33519748767E+03  0.33519748767E+03  0.00000000000E+00 0. -1.
         23    2    1    2    0    0  0.12393645835E+03 -0.26945157171E+03  0.56722697024E+03  0.64664322414E+03  0.91851120601E+02 0.  0.
        254    2    1    2    0    0 -0.12393645835E+03  0.26945157171E+03  0.46050363020E+03  0.10514823516E+04  0.89754506693E+03 0.  0.
        -24    2    4    4    0    0 -0.30005235267E+03  0.17590992647E+02 -0.16387550028E+03  0.35101728324E+03  0.77569943753E+02 0.  0.
         24    2    4    4    0    0  0.17611589432E+03  0.25186057906E+03  0.62437913048E+03  0.70046506840E+03  0.79696009631E+02 0.  0.
         11    1    3    3    0    0  0.81969134845E+02 -0.25146814023E+03  0.47261121450E+03  0.54158704258E+03  0.00000000000E+00 0.  1.
        -11    1    3    3    0    0  0.41967323510E+02 -0.17983431476E+02  0.94615755731E+02  0.10505618155E+03  0.00000000000E+00 0. -1.
          2    1    6    6  502    0  0.47764692263E+02  0.12092612342E+03  0.20496140503E+03  0.24272159093E+03  0.00000000000E+00 0. -1.
          1    1    5    5  503    0 -0.52488339607E+02 -0.19840201285E+01 -0.65367796223E+02  0.83856489991E+02  0.00000000000E+00 0. -1.
         -2    1    5    5    0  503 -0.24756401307E+03  0.19575012775E+02 -0.98507704056E+02  0.26716079325E+03  0.00000000000E+00 0.  1.
         -1    1    6    6    0  502  0.12835120206E+03  0.13093445565E+03  0.41941772545E+03  0.45774347747E+03  0.00000000000E+00 0.  1.
<mgrwt>
<rscale>  0 0.13518137E+04</rscale>
<asrwt>0</asrwt>
<pdfrwt beam="1">  1        1 0.51568845E-01 0.13518137E+04</pdfrwt>
<pdfrwt beam="2">  1       -1 0.20968124E+00 0.13518137E+04</pdfrwt>
<totfact> 0.95872959E+00</totfact>
</mgrwt>
</event>
<event>
12    1  0.1467288E-007  0.2767307E+04  0.7818608E-02  0.8313491E-01
         -1   -1    0    0    0  501 -0.00000000000E+00  0.00000000000E+00  0.10586601206E+04  0.10586601206E+04  0.00000000000E+00 0.  1.
          1   -1    0    0  501    0  0.00000000000E+00 -0.00000000000E+00 -0.18084155305E+04  0.18084155305E+04  0.00000000000E+00 0. -1.
         23    2    1    2    0    0 -0.11006818230E+04 -0.39134274652E+03  0.74267482013E+02  0.11741390610E+04  0.91854531111E+02 0.  0.
        254    2    1    2    0    0  0.11006818230E+04  0.39134274652E+03 -0.82402289194E+03  0.16929365902E+04  0.90684670766E+03 0.  0.
        -24    2    4    4    0    0  0.34725384977E+03  0.66588590040E+02  0.17127117066E+03  0.40075875491E+03  0.79085328862E+02 0.  0.
         24    2    4    4    0    0  0.75342797325E+03  0.32475415648E+03 -0.99529406259E+03  0.12921778353E+04  0.77422954759E+02 0.  0.
         11    1    3    3    0    0  0.12805846682E+01 -0.54772580948E+00 -0.20128258960E+01  0.24477272606E+01  0.00000000000E+00 0. -1.
        -11    1    3    3    0    0 -0.11019624077E+04 -0.39079502071E+03  0.76280307909E+02  0.11716913337E+04  0.00000000000E+00 0.  1.
          2    1    6    6  502    0  0.47601298590E+03  0.19413716894E+03 -0.67896188613E+03  0.85162600121E+03  0.00000000000E+00 0. -1.
          1    1    5    5  503    0  0.56753313443E+02  0.39490508023E+02  0.19265819757E+02  0.71774721327E+02  0.00000000000E+00 0. -1.
         -2    1    5    5    0  503  0.29050053632E+03  0.27098082017E+02  0.15200535090E+03  0.32898403359E+03  0.00000000000E+00 0.  1.
         -1    1    6    6    0  502  0.27741498734E+03  0.13061698754E+03 -0.31633217646E+03  0.44055183407E+03  0.00000000000E+00 0.  1.
<mgrwt>
<rscale>  0 0.27673073E+04</rscale>
<asrwt>0</asrwt>
<pdfrwt beam="1">  1        1 0.27821777E+00 0.27673073E+04</pdfrwt>
<pdfrwt beam="2">  1       -1 0.16287079E+00 0.27673073E+04</pdfrwt>
<totfact> 0.97041295E-01</totfact>
</mgrwt>
</event>
<event>
12    1  0.1467288E-007  0.3455126E+04  0.7818608E-02  0.8124508E-01
          2   -1    0    0  501    0  0.00000000000E+00  0.00000000000E+00  0.11863303421E+04  0.11863303421E+04  0.00000000000E+00 0. -1.
         -2   -1    0    0    0  501 -0.00000000000E+00 -0.00000000000E+00 -0.25157195939E+04  0.25157195939E+04  0.00000000000E+00 0.  1.
         23    2    1    2    0    0 -0.54464019297E+03  0.97573617303E+03 -0.18588673612E+04  0.21706197804E+04  0.86650710444E+02 0.  0.
        254    2    1    2    0    0  0.54464019297E+03 -0.97573617303E+03  0.52947810935E+03  0.15314301555E+04  0.90345848480E+03 0.  0.
        -24    2    4    4    0    0  0.73721314263E+03 -0.44561285817E+03  0.36456210369E+03  0.93835740469E+03  0.74532237733E+02 0.  0.
         24    2    4    4    0    0 -0.19257294966E+03 -0.53012331487E+03  0.16491600566E+03  0.59307275082E+03  0.80143177703E+02 0.  0.
         13    1    3    3    0    0 -0.33642170521E+03  0.52075735408E+03 -0.99734165337E+03  0.11743330699E+04  0.00000000000E+00 0. -1.
        -13    1    3    3    0    0 -0.20821848776E+03  0.45497881895E+03 -0.86152570780E+03  0.99628671051E+03  0.00000000000E+00 0.  1.
          2    1    6    6  502    0 -0.14552606889E+02 -0.49997362102E+02 -0.78204627356E+01  0.52656188828E+02  0.00000000000E+00 0. -1.
          1    1    5    5  503    0  0.31983970050E+02 -0.20604664117E+02  0.45369733909E+00  0.38049078370E+02  0.00000000000E+00 0. -1.
         -2    1    5    5    0  503  0.70522917258E+03 -0.42500819405E+03  0.36410840635E+03  0.90030832632E+03  0.00000000000E+00 0.  1.
         -1    1    6    6    0  502 -0.17802034277E+03 -0.48012595276E+03  0.17273646839E+03  0.54041656199E+03  0.00000000000E+00 0.  1.
<mgrwt>
<rscale>  0 0.34551263E+04</rscale>
<asrwt>0</asrwt>
<pdfrwt beam="1">  1        2 0.18251236E+00 0.34551263E+04</pdfrwt>
<pdfrwt beam="2">  1       -2 0.38703378E+00 0.34551263E+04</pdfrwt>
<totfact> 0.14341362E-01</totfact>
</mgrwt>
</event>
<event>
12    1  0.1467288E-007  0.1275814E+04  0.7818608E-02  0.9048968E-01
         -2   -1    0    0    0  501 -0.00000000000E+00  0.00000000000E+00  0.53970929645E+03  0.53970929645E+03  0.00000000000E+00 0.  1.
          2   -1    0    0  501    0  0.00000000000E+00 -0.00000000000E+00 -0.75397170173E+03  0.75397170173E+03  0.00000000000E+00 0. -1.
         23    2    1    2    0    0  0.19591669297E+03 -0.17160019123E+03  0.12528494295E+03  0.30341511114E+03  0.92382014057E+02 0.  0.
        254    2    1    2    0    0 -0.19591669297E+03  0.17160019123E+03 -0.33954734822E+03  0.99026588705E+03  0.89303087805E+03 0.  0.
        -24    2    4    4    0    0 -0.42662964402E+03 -0.26697863651E+02 -0.47729154334E+03  0.64592207186E+03  0.81746415755E+02 0.  0.
         24    2    4    4    0    0  0.23071295105E+03  0.19829805488E+03  0.13774419512E+03  0.34434381519E+03  0.83956032653E+02 0.  0.
         11    1    3    3    0    0  0.51164705301E+02 -0.98848562054E+02  0.73298630547E+02  0.13327248226E+03  0.00000000000E+00 0. -1.
        -11    1    3    3    0    0  0.14475198767E+03 -0.72751629175E+02  0.51986312399E+02  0.17014262887E+03  0.00000000000E+00 0.  1.
          2    1    6    6  502    0  0.20619763595E+03  0.18179585421E+03  0.14905006332E+03  0.31270292460E+03  0.00000000000E+00 0. -1.
          1    1    5    5  503    0 -0.41935183089E+03 -0.20355583273E+02 -0.47804778492E+03  0.63623894294E+03  0.00000000000E+00 0. -1.
         -2    1    5    5    0  503 -0.72778131345E+01 -0.63422803782E+01  0.75624158193E+00  0.96831289234E+01  0.00000000000E+00 0.  1.
         -1    1    6    6    0  502  0.24515315103E+02  0.16502200670E+02 -0.11305868200E+02  0.31640890589E+02  0.00000000000E+00 0.  1.
<mgrwt>
<rscale>  0 0.12758143E+04</rscale>
<asrwt>0</asrwt>
<pdfrwt beam="1">  1        2 0.11599565E+00 0.12758143E+04</pdfrwt>
<pdfrwt beam="2">  1       -2 0.83032200E-01 0.12758143E+04</pdfrwt>
<totfact> 0.46487651E+01</totfact>
</mgrwt>
</event>
<event>
12    1  0.1467288E-007  0.3534146E+04  0.7818608E-02  0.8105745E-01
         -2   -1    0    0    0  501 -0.00000000000E+00  0.00000000000E+00  0.16563148776E+04  0.16563148776E+04  0.00000000000E+00 0. -1.
          2   -1    0    0  501    0  0.00000000000E+00 -0.00000000000E+00 -0.18852379613E+04  0.18852379613E+04  0.00000000000E+00 0.  1.
         23    2    1    2    0    0  0.43146644484E+03  0.14161153699E+04 -0.85141031134E+03  0.17101996331E+04  0.91308449764E+02 0.  0.
        254    2    1    2    0    0 -0.43146644484E+03 -0.14161153699E+04  0.62248722767E+03  0.18313532058E+04  0.88023757129E+03 0.  0.
        -24    2    4    4    0    0  0.24914819175E+03 -0.39896323822E+03  0.29909475678E+03  0.56311187714E+03  0.79942640283E+02 0.  0.
         24    2    4    4    0    0 -0.68061463659E+03 -0.10171521316E+04  0.32339247089E+03  0.12682413286E+04  0.77579862064E+02 0.  0.
         11    1    3    3    0    0  0.77127668188E+02  0.25120542542E+03 -0.11189424624E+03  0.28561016316E+03  0.00000000000E+00 0. -1.
        -11    1    3    3    0    0  0.35433877665E+03  0.11649099444E+04 -0.73951606510E+03  0.14245894699E+04  0.00000000000E+00 0.  1.
          2    1    6    6  502    0 -0.35423115087E+03 -0.51629315917E+03  0.12602987724E+03  0.63868761097E+03  0.00000000000E+00 0. -1.
          3    1    5    5  503    0  0.18476161354E+03 -0.32371191110E+03  0.26880599127E+03  0.45954642439E+03  0.00000000000E+00 0. -1.
         -4    1    5    5    0  503  0.64386578209E+02 -0.75251327124E+02  0.30288765515E+02  0.10356545275E+03  0.00000000000E+00 0.  1.
         -1    1    6    6    0  502 -0.32638348572E+03 -0.50085897247E+03  0.19736259365E+03  0.62955371767E+03  0.00000000000E+00 0.  1.
<mgrwt>
<rscale>  0 0.35341464E+04</rscale>
<asrwt>0</asrwt>
<pdfrwt beam="1">  1        2 0.29003661E+00 0.35341464E+04</pdfrwt>
<pdfrwt beam="2">  1       -2 0.25481768E+00 0.35341464E+04</pdfrwt>
<totfact> 0.38063545E-01</totfact>
</mgrwt>
</event>
<event>
12    1  0.1467288E-007  0.4199039E+04  0.7818608E-02  0.7965555E-01
         -2   -1    0    0    0  501 -0.00000000000E+00  0.00000000000E+00  0.17819237817E+04  0.17819237817E+04  0.00000000000E+00 0.  1.
          2   -1    0    0  501    0  0.00000000000E+00 -0.00000000000E+00 -0.24737211935E+04  0.24737211935E+04  0.00000000000E+00 0. -1.
         23    2    1    2    0    0 -0.37483737958E+03  0.31342505709E+03  0.16265123533E+04  0.17010136767E+04  0.95743226054E+02 0.  0.
        254    2    1    2    0    0  0.37483737958E+03 -0.31342505709E+03 -0.23183097651E+04  0.25546312985E+04  0.95542795462E+03 0.  0.
        -24    2    4    4    0    0  0.77746645659E+02  0.26409692291E+03 -0.13842747508E+04  0.14141205740E+04  0.87912948619E+02 0.  0.
         24    2    4    4    0    0  0.29709073392E+03 -0.57752198000E+03 -0.93403501429E+03  0.11405107244E+04  0.80924427881E+02 0.  0.
         11    1    3    3    0    0 -0.30221251890E+03  0.23551347364E+03  0.11294488188E+04  0.11926666077E+04  0.00000000000E+00 0.  1.
        -11    1    3    3    0    0 -0.72624860686E+02  0.77911583441E+02  0.49706353451E+03  0.50834706900E+03  0.00000000000E+00 0. -1.
          2    1    6    6  502    0  0.18222983886E+02 -0.14872877020E+02 -0.58560117996E+02  0.63107583001E+02  0.00000000000E+00 0. -1.
          3    1    5    5  503    0  0.11483652405E+02  0.16117296035E+03 -0.65448016601E+03  0.67413120765E+03  0.00000000000E+00 0. -1.
         -2    1    5    5    0  503  0.66262993254E+02  0.10292396256E+03 -0.72979458482E+03  0.73998936639E+03  0.00000000000E+00 0.  1.
         -1    1    6    6    0  502  0.27886775004E+03 -0.56264910298E+03 -0.87547489630E+03  0.10774031414E+04  0.00000000000E+00 0.  1.
<mgrwt>
<rscale>  0 0.41990392E+04</rscale>
<asrwt>0</asrwt>
<pdfrwt beam="1">  1        2 0.38057249E+00 0.41990392E+04</pdfrwt>
<pdfrwt beam="2">  1       -2 0.27414212E+00 0.41990392E+04</pdfrwt>
<totfact> 0.12798124E-01</totfact>
</mgrwt>
</event>
<event>
12    1  0.1467288E-007  0.1513497E+04  0.7818608E-02  0.8875527E-01
         -3   -1    0    0    0  501 -0.00000000000E+00  0.00000000000E+00  0.30570712548E+04  0.30570712548E+04  0.00000000000E+00 0.  1.
          3   -1    0    0  501    0  0.00000000000E+00 -0.00000000000E+00 -0.18732580025E+03  0.18732580025E+03  0.00000000000E+00 0. -1.
         23    2    1    2    0    0  0.38399608827E+03  0.30576845927E+03  0.79811393166E+03  0.94109421710E+03  0.87892724711E+02 0.  0.
        254    2    1    2    0    0 -0.38399608827E+03 -0.30576845927E+03  0.20716315229E+04  0.23033028379E+04  0.87897636499E+03 0.  0.
        -24    2    4    4    0    0 -0.64818327891E+03 -0.32340797535E+03  0.15413615516E+04  0.17049857103E+04  0.80290460311E+02 0.  0.
         24    2    4    4    0    0  0.26418719064E+03  0.17639516086E+02  0.53026997127E+03  0.59831712763E+03  0.81799257696E+02 0.  0.
         13    1    3    3    0    0  0.13298122313E+03  0.15709530022E+03  0.29957081431E+03  0.36346335695E+03  0.00000000000E+00 0.  1.
        -13    1    3    3    0    0  0.25101486515E+03  0.14867315905E+03  0.49854311735E+03  0.57763086016E+03  0.00000000000E+00 0. -1.
          2    1    6    6  502    0  0.18439863489E+03 -0.23573203216E+02  0.32823342878E+03  0.37722107076E+03  0.00000000000E+00 0. -1.
          1    1    5    5  503    0 -0.50701024940E+03 -0.21458096260E+03  0.11700643208E+04  0.12931182844E+04  0.00000000000E+00 0. -1.
         -2    1    5    5    0  503 -0.14117302952E+03 -0.10882701275E+03  0.37129723078E+03  0.41186742594E+03  0.00000000000E+00 0.  1.
         -1    1    6    6    0  502  0.79788555747E+02  0.41212719302E+02  0.20203654249E+03  0.22109605686E+03  0.00000000000E+00 0.  1.
<mgrwt>
<rscale>  0 0.15134970E+04</rscale>
<asrwt>0</asrwt>
<pdfrwt beam="1">  1        3 0.28819356E-01 0.15134970E+04</pdfrwt>
<pdfrwt beam="2">  1       -3 0.47031862E+00 0.15134970E+04</pdfrwt>
<totfact> 0.13114648E-01</totfact>
</mgrwt>
</event>
<event>
12    1  0.1467288E-007  0.2414355E+04  0.7818608E-02  0.8434149E-01
         -1   -1    0    0    0  501 -0.00000000000E+00  0.00000000000E+00  0.11612544131E+04  0.11612544131E+04  0.00000000000E+00 0.  1.
          1   -1    0    0  501    0  0.00000000000E+00 -0.00000000000E+00 -0.12549165670E+04  0.12549165670E+04  0.00000000000E+00 0. -1.
         23    2    1    2    0    0  0.50209095802E+03 -0.76025595946E+03 -0.53976558892E+03  0.10652153244E+04  0.11511881834E+03 0.  0.
        254    2    1    2    0    0 -0.50209095802E+03  0.76025595946E+03  0.44610343501E+03  0.13509556557E+04  0.89218185074E+03 0.  0.
        -24    2    4    4    0    0  0.10163021925E+03 -0.34550697725E+02 -0.13738286806E+03  0.19196926596E+03  0.80347336351E+02 0.  0.
         24    2    4    4    0    0 -0.60372117727E+03  0.79480665719E+03  0.58348630307E+03  0.11589863897E+04  0.81217630073E+02 0.  0.
         11    1    3    3    0    0  0.44993601399E+03 -0.65520128952E+03 -0.42583787761E+03  0.90170341270E+03  0.00000000000E+00 0. -1.
        -11    1    3    3    0    0  0.52154944030E+02 -0.10505466994E+03 -0.11392771130E+03  0.16351191170E+03  0.00000000000E+00 0.  1.
          2    1    6    6  502    0 -0.23539809741E+03  0.32580150448E+03  0.28002430141E+03  0.48986987452E+03  0.00000000000E+00 0. -1.
          3    1    5    5  503    0  0.88832808497E+02 -0.37507162462E+02 -0.14692023158E+03  0.17573733112E+03  0.00000000000E+00 0. -1.
         -4    1    5    5    0  503  0.12797410754E+02  0.29564647375E+01  0.95373635206E+01  0.16231934841E+02  0.00000000000E+00 0.  1.
         -1    1    6    6    0  502 -0.36832307986E+03  0.46900515271E+03  0.30346200166E+03  0.66911651517E+03  0.00000000000E+00 0.  1.
<mgrwt>
<rscale>  0 0.24143549E+04</rscale>
<asrwt>0</asrwt>
<pdfrwt beam="1">  1        1 0.19306409E+00 0.24143549E+04</pdfrwt>
<pdfrwt beam="2">  1       -1 0.17865453E+00 0.24143549E+04</pdfrwt>
<totfact> 0.18565006E+00</totfact>
</mgrwt>
</event>
<event>
12    1  0.1467288E-007  0.1500332E+04  0.7818608E-02  0.8884232E-01
         -1   -1    0    0    0  501 -0.00000000000E+00  0.00000000000E+00  0.24056018439E+03  0.24056018439E+03  0.00000000000E+00 0.  1.
          1   -1    0    0  501    0  0.00000000000E+00 -0.00000000000E+00 -0.23393263948E+04  0.23393263948E+04  0.00000000000E+00 0. -1.
         23    2    1    2    0    0  0.17709880408E+03 -0.43288341176E+03 -0.50050102904E+03  0.69060589945E+03  0.87653828796E+02 0.  0.
        254    2    1    2    0    0 -0.17709880408E+03  0.43288341176E+03 -0.15982651814E+04  0.18892806798E+04  0.89228799291E+03 0.  0.
        -24    2    4    4    0    0  0.12037064915E+02 -0.24483369518E+03 -0.21706182127E+03  0.33713876802E+03  0.80363458247E+02 0.  0.
         24    2    4    4    0    0 -0.18913586900E+03  0.67771710694E+03 -0.13812033601E+04  0.15521419118E+04  0.79680224568E+02 0.  0.
         11    1    3    3    0    0  0.16744654576E+03 -0.37098660069E+03 -0.39072040768E+03  0.56420903977E+03  0.00000000000E+00 0.  1.
        -11    1    3    3    0    0  0.96522583171E+01 -0.61896811071E+02 -0.10978062136E+03  0.12639685968E+03  0.00000000000E+00 0. -1.
          2    1    6    6  502    0 -0.15291731655E+01  0.26512046000E+02 -0.27211422972E+02  0.38022210533E+02  0.00000000000E+00 0. -1.
          1    1    5    5  503    0  0.15566575092E+02 -0.22859537843E+02 -0.14942355199E+01  0.27696741149E+02  0.00000000000E+00 0. -1.
         -2    1    5    5    0  503 -0.35295101769E+01 -0.22197415734E+03 -0.21556758575E+03  0.30944202687E+03  0.00000000000E+00 0.  1.
         -1    1    6    6    0  502 -0.18760669583E+03  0.65120506094E+03 -0.13539919372E+04  0.15141197012E+04  0.00000000000E+00 0.  1.
<mgrwt>
<rscale>  0 0.15003317E+04</rscale>
<asrwt>0</asrwt>
<pdfrwt beam="1">  1        1 0.35989637E+00 0.15003317E+04</pdfrwt>
<pdfrwt beam="2">  1       -1 0.37009259E-01 0.15003317E+04</pdfrwt>
<totfact> 0.11893700E+01</totfact>
</mgrwt>
</event>
<event>
12    1  0.1467288E-007  0.1151677E+04  0.7818608E-02  0.9156238E-01
         -2   -1    0    0    0  501 -0.00000000000E+00  0.00000000000E+00  0.15816052452E+04  0.15816052452E+04  0.00000000000E+00 0.  1.
          2   -1    0    0  501    0  0.00000000000E+00 -0.00000000000E+00 -0.20965394605E+03  0.20965394605E+03  0.00000000000E+00 0. -1.
         23    2    1    2    0    0 -0.15153292892E+02 -0.99812983952E+02 -0.25499715676E+01  0.14087101667E+03  0.98213476327E+02 0.  0.
        254    2    1    2    0    0  0.15153292892E+02  0.99812983952E+02  0.13745012707E+04  0.16503881746E+04  0.90792903332E+03 0.  0.
        -24    2    4    4    0    0  0.44985341412E+03  0.50335665959E+02  0.58123226761E+03  0.74102767660E+03  0.79933066478E+02 0.  0.
         24    2    4    4    0    0 -0.43470012123E+03  0.49477317993E+02  0.79326900311E+03  0.90936049798E+03  0.79048109369E+02 0.  0.
         11    1    3    3    0    0 -0.19746307473E+02 -0.11924611306E+03 -0.27567499124E+01  0.12090141359E+03  0.00000000000E+00 0. -1.
        -11    1    3    3    0    0  0.45930145807E+01  0.19433129108E+02  0.20677834482E+00  0.19969603079E+02  0.00000000000E+00 0.  1.
          2    1    6    6  502    0 -0.61019932578E+02 -0.11561609098E+02  0.74755276167E+02  0.97187727063E+02  0.00000000000E+00 0. -1.
          3    1    5    5  503    0  0.13646217140E+03  0.39415065884E+02  0.22860239992E+03  0.26913663610E+03  0.00000000000E+00 0. -1.
         -4    1    5    5    0  503  0.31339124272E+03  0.10920600075E+02  0.35262986768E+03  0.47189104050E+03  0.00000000000E+00 0.  1.
         -1    1    6    6    0  502 -0.37368018865E+03  0.61038927091E+02  0.71851372694E+03  0.81217277091E+03  0.00000000000E+00 0.  1.
<mgrwt>
<rscale>  0 0.11516767E+04</rscale>
<asrwt>0</asrwt>
<pdfrwt beam="1">  1        2 0.32254454E-01 0.11516767E+04</pdfrwt>
<pdfrwt beam="2">  1       -2 0.24332388E+00 0.11516767E+04</pdfrwt>
<totfact> 0.11504555E+01</totfact>
</mgrwt>
</event>
<event>
12    1  0.1467288E-007  0.1493181E+04  0.7818608E-02  0.8889000E-01
         -1   -1    0    0    0  501 -0.00000000000E+00  0.00000000000E+00  0.48334594718E+03  0.48334594718E+03  0.00000000000E+00 0.  1.
          1   -1    0    0  501    0  0.00000000000E+00 -0.00000000000E+00 -0.11532051425E+04  0.11532051425E+04  0.00000000000E+00 0. -1.
         23    2    1    2    0    0 -0.93826105645E+02  0.30411748138E+03  0.17113206343E+03  0.37288299605E+03  0.92004157684E+02 0.  0.
        254    2    1    2    0    0  0.93826105645E+02 -0.30411748138E+03 -0.84099125875E+03  0.12636680936E+04  0.88786258678E+03 0.  0.
        -24    2    4    4    0    0 -0.43668921697E+01 -0.39021008297E+03  0.11040815338E+02  0.39798887644E+03  0.77396818856E+02 0.  0.
         24    2    4    4    0    0  0.98192997814E+02  0.86092601587E+02 -0.85203207408E+03  0.86567921720E+03  0.79925283562E+02 0.  0.
         11    1    3    3    0    0 -0.60635654084E+02  0.23826068571E+03  0.86501928332E+02  0.26062889422E+03  0.00000000000E+00 0.  1.
        -11    1    3    3    0    0 -0.33190451560E+02  0.65856795675E+02  0.84630135095E+02  0.11225410183E+03  0.00000000000E+00 0. -1.
          2    1    6    6  502    0  0.74711145182E+02  0.10065888760E+03 -0.68457308659E+03  0.69595565789E+03  0.00000000000E+00 0. -1.
          3    1    5    5  503    0 -0.76128436610E+01 -0.23393259360E+03  0.44215130453E+02  0.23819611983E+03  0.00000000000E+00 0. -1.
         -4    1    5    5    0  503  0.32459514913E+01 -0.15627748936E+03 -0.33174315115E+02  0.15979275661E+03  0.00000000000E+00 0.  1.
         -1    1    6    6    0  502  0.23481852633E+02 -0.14566286013E+02 -0.16745898750E+03  0.16972355931E+03  0.00000000000E+00 0.  1.
<mgrwt>
<rscale>  0 0.14931805E+04</rscale>
<asrwt>0</asrwt>
<pdfrwt beam="1">  1        1 0.17741618E+00 0.14931805E+04</pdfrwt>
<pdfrwt beam="2">  1       -1 0.74360915E-01 0.14931805E+04</pdfrwt>
<totfact> 0.20383358E+01</totfact>
</mgrwt>
</event>
<event>
12    1  0.1467288E-007  0.2251041E+04  0.7818608E-02  0.8497479E-01
         -2   -1    0    0    0  501 -0.00000000000E+00  0.00000000000E+00  0.94226482776E+03  0.94226482776E+03  0.00000000000E+00 0. -1.
          2   -1    0    0  501    0  0.00000000000E+00 -0.00000000000E+00 -0.13444167082E+04  0.13444167082E+04  0.00000000000E+00 0.  1.
         23    2    1    2    0    0  0.26410177238E+03  0.31427144229E+03  0.69023856524E+03  0.80829041455E+03  0.91585106259E+02 0.  0.
        254    2    1    2    0    0 -0.26410177238E+03 -0.31427144229E+03 -0.10923904457E+04  0.14783911214E+04  0.90763821891E+03 0.  0.
        -24    2    4    4    0    0 -0.42071017481E+03 -0.21481355100E+03 -0.11682420484E+04  0.12626114003E+04  0.79095838644E+02 0.  0.
         24    2    4    4    0    0  0.15660840244E+03 -0.99457891291E+02  0.75851602750E+02  0.21577972106E+03  0.79933463120E+02 0.  0.
         11    1    3    3    0    0  0.15504047069E+03  0.14275832817E+03  0.42244954286E+03  0.47210285328E+03  0.00000000000E+00 0.  1.
        -11    1    3    3    0    0  0.10906130168E+03  0.17151311412E+03  0.26778902238E+03  0.33618756126E+03  0.00000000000E+00 0. -1.
          4    1    6    6  502    0  0.61507496022E+02  0.36282041469E+01  0.26884393109E+02  0.67224300109E+02  0.00000000000E+00 0. -1.
          3    1    5    5  503    0 -0.22917080973E+02 -0.10871136020E+02 -0.27520013924E+02  0.37426265710E+02  0.00000000000E+00 0. -1.
         -4    1    5    5    0  503 -0.39779309384E+03 -0.20394241498E+03 -0.11407220345E+04  0.12251851346E+04  0.00000000000E+00 0.  1.
         -3    1    6    6    0  502  0.95100906414E+02 -0.10308609544E+03  0.48967209641E+02  0.14855542095E+03  0.00000000000E+00 0.  1.
<mgrwt>
<rscale>  0 0.22510412E+04</rscale>
<asrwt>0</asrwt>
<pdfrwt beam="1">  1        2 0.20683334E+00 0.22510412E+04</pdfrwt>
<pdfrwt beam="2">  1       -2 0.14496382E+00 0.22510412E+04</pdfrwt>
<totfact> 0.46499354E+00</totfact>
</mgrwt>
</event>
<event>
12    1  0.1467288E-007  0.2788880E+04  0.7818608E-02  0.8306729E-01
          2   -1    0    0  501    0  0.00000000000E+00  0.00000000000E+00  0.10231756318E+04  0.10231756318E+04  0.00000000000E+00 0. -1.
         -2   -1    0    0    0  501 -0.00000000000E+00 -0.00000000000E+00 -0.19004194333E+04  0.19004194333E+04  0.00000000000E+00 0.  1.
         23    2    1    2    0    0  0.17091034750E+03  0.10814079851E+04 -0.10101909654E+04  0.14924095413E+04  0.90260041755E+02 0.  0.
        254    2    1    2    0    0 -0.17091034750E+03 -0.10814079851E+04  0.13294716393E+03  0.14311855239E+04  0.91212032016E+03 0.  0.
        -24    2    4    4    0    0 -0.50837767611E+02 -0.91567153082E+03 -0.27974754775E+03  0.96209212517E+03  0.79521920684E+02 0.  0.
         24    2    4    4    0    0 -0.12007257989E+03 -0.16573645423E+03  0.41269471168E+03  0.46909339875E+03  0.88575927856E+02 0.  0.
         13    1    3    3    0    0 -0.88081728058E+01  0.38356927493E+02 -0.47295069383E+02  0.61527728569E+02  0.00000000000E+00 0. -1.
        -13    1    3    3    0    0  0.17971852031E+03  0.10430510576E+04 -0.96289589605E+03  0.14308818127E+04  0.00000000000E+00 0.  1.
          4    1    6    6  502    0  0.88358137475E+01 -0.45956679011E+02  0.78085393854E+02  0.91035249676E+02  0.00000000000E+00 0. -1.
          3    1    5    5  503    0 -0.58355105320E+01 -0.81728214473E+02 -0.49698241951E+02  0.95830420416E+02  0.00000000000E+00 0. -1.
         -4    1    5    5    0  503 -0.45002257079E+02 -0.83394331635E+03 -0.23004930580E+03  0.86626170475E+03  0.00000000000E+00 0.  1.
         -3    1    6    6    0  502 -0.12890839364E+03 -0.11977977522E+03  0.33460931783E+03  0.37805814907E+03  0.00000000000E+00 0.  1.
<mgrwt>
<rscale>  0 0.27888800E+04</rscale>
<asrwt>0</asrwt>
<pdfrwt beam="1">  1        2 0.15741164E+00 0.27888800E+04</pdfrwt>
<pdfrwt beam="2">  1       -2 0.29237222E+00 0.27888800E+04</pdfrwt>
<totfact> 0.75025720E-01</totfact>
</mgrwt>
</event>
<event>
12    1  0.1467288E-007  0.2351972E+04  0.7818608E-02  0.8457706E-01
         -3   -1    0    0    0  501 -0.00000000000E+00  0.00000000000E+00  0.10089746779E+04  0.10089746779E+04  0.00000000000E+00 0.  1.
          3   -1    0    0  501    0  0.00000000000E+00 -0.00000000000E+00 -0.13706423295E+04  0.13706423295E+04  0.00000000000E+00 0. -1.
         23    2    1    2    0    0 -0.90074577611E+03 -0.35093394089E+03  0.32743569949E+02  0.97188263470E+03  0.94795201476E+02 0.  0.
        254    2    1    2    0    0  0.90074577611E+03  0.35093394089E+03 -0.39441122158E+03  0.14077343727E+04  0.94427658469E+03 0.  0.
        -24    2    4    4    0    0  0.81399301068E+03 -0.52667379360E+02  0.16574245095E+02  0.81974597143E+03  0.79688630270E+02 0.  0.
         24    2    4    4    0    0  0.86752765426E+02  0.40360132025E+03 -0.41098546667E+03  0.58798840129E+03  0.80007738509E+02 0.  0.
         13    1    3    3    0    0 -0.98544471913E+02 -0.71120946700E+02  0.10647169053E+02  0.12199411548E+03  0.00000000000E+00 0.  1.
        -13    1    3    3    0    0 -0.80220130419E+03 -0.27981299419E+03  0.22096400896E+02  0.84988851922E+03  0.00000000000E+00 0. -1.
          2    1    6    6  502    0  0.66023341907E+02  0.17160033863E+03 -0.14301426623E+03  0.23293526621E+03  0.00000000000E+00 0. -1.
          3    1    5    5  503    0  0.52841679855E+03  0.23102167746E+01  0.21928099031E+02  0.52887663176E+03  0.00000000000E+00 0. -1.
         -4    1    5    5    0  503  0.28557621213E+03 -0.54977596134E+02 -0.53538539362E+01  0.29086933968E+03  0.00000000000E+00 0.  1.
         -1    1    6    6    0  502  0.20729423519E+02  0.23200098162E+03 -0.26797120044E+03  0.35505313509E+03  0.00000000000E+00 0.  1.
<mgrwt>
<rscale>  0 0.23519723E+04</rscale>
<asrwt>0</asrwt>
<pdfrwt beam="1">  1        3 0.21086805E+00 0.23519723E+04</pdfrwt>
<pdfrwt beam="2">  1       -3 0.15522687E+00 0.23519723E+04</pdfrwt>
<totfact> 0.87504542E-02</totfact>
</mgrwt>
</event>
<event>
12    1  0.1467288E-007  0.1274147E+04  0.7818608E-02  0.9050322E-01
         -2   -1    0    0    0  501 -0.00000000000E+00  0.00000000000E+00  0.34852273592E+03  0.34852273592E+03  0.00000000000E+00 0.  1.
          2   -1    0    0  501    0  0.00000000000E+00 -0.00000000000E+00 -0.11645226508E+04  0.11645226508E+04  0.00000000000E+00 0. -1.
         23    2    1    2    0    0  0.16176353553E+03 -0.13487527185E+03 -0.47204688303E+03  0.52508140996E+03  0.92322515812E+02 0.  0.
        254    2    1    2    0    0 -0.16176353553E+03  0.13487527185E+03 -0.34395303183E+03  0.98796397674E+03  0.90189264929E+03 0.  0.
        -24    2    4    4    0    0  0.13940840617E+03 -0.12074596341E+03  0.21782587675E+03  0.29667896367E+03  0.80969151602E+02 0.  0.
         24    2    4    4    0    0 -0.30117194170E+03  0.25562123526E+03 -0.56177890858E+03  0.69128501307E+03  0.78947278517E+02 0.  0.
         13    1    3    3    0    0  0.79296657002E+01 -0.54683390749E+02 -0.92113619752E+02  0.10741541680E+03  0.00000000000E+00 0.  1.
        -13    1    3    3    0    0  0.15383386983E+03 -0.80191881100E+02 -0.37993326328E+03  0.41766599317E+03  0.00000000000E+00 0. -1.
          2    1    6    6  502    0 -0.73498371859E+02  0.32457796674E+02 -0.15374451330E+03  0.17347303710E+03  0.00000000000E+00 0. -1.
          3    1    5    5  503    0  0.37280130455E+02  0.49068596497E+01  0.58302340646E+02  0.69376136554E+02  0.00000000000E+00 0. -1.
         -4    1    5    5    0  503  0.10212827572E+03 -0.12565282306E+03  0.15952353610E+03  0.22730282711E+03  0.00000000000E+00 0.  1.
         -1    1    6    6    0  502 -0.22767356984E+03  0.22316343858E+03 -0.40803439528E+03  0.51781197597E+03  0.00000000000E+00 0.  1.
<mgrwt>
<rscale>  0 0.12741470E+04</rscale>
<asrwt>0</asrwt>
<pdfrwt beam="1">  1        2 0.17915733E+00 0.12741470E+04</pdfrwt>
<pdfrwt beam="2">  1       -2 0.53618882E-01 0.12741470E+04</pdfrwt>
<totfact> 0.64018314E+01</totfact>
</mgrwt>
</event>
<event>
12    1  0.1467288E-007  0.1230738E+04  0.7818608E-02  0.9086369E-01
         -1   -1    0    0    0  501 -0.00000000000E+00  0.00000000000E+00  0.45554756619E+03  0.45554756619E+03  0.00000000000E+00 0.  1.
          1   -1    0    0  501    0  0.00000000000E+00 -0.00000000000E+00 -0.83126123403E+03  0.83126123403E+03  0.00000000000E+00 0. -1.
         23    2    1    2    0    0  0.27853743814E+03  0.10269030287E+03 -0.16064695720E+03  0.34982354889E+03  0.91873106789E+02 0.  0.
        254    2    1    2    0    0 -0.27853743814E+03 -0.10269030287E+03 -0.21506671063E+03  0.93698525133E+03  0.86229882781E+03 0.  0.
        -24    2    4    4    0    0  0.91101171277E+02  0.21043254805E+02 -0.45569845061E+03  0.47190044024E+03  0.79288748493E+02 0.  0.
         24    2    4    4    0    0 -0.36963860941E+03 -0.12373355768E+03  0.24063173997E+03  0.46508481108E+03  0.80358897176E+02 0.  0.
         11    1    3    3    0    0  0.20773743103E+03  0.50901612952E+02 -0.73462481192E+02  0.22614718790E+03  0.00000000000E+00 0. -1.
        -11    1    3    3    0    0  0.70800007104E+02  0.51788689919E+02 -0.87184476013E+02  0.12367636099E+03  0.00000000000E+00 0.  1.
          4    1    6    6  502    0 -0.30021234254E+03 -0.10593083379E+03  0.15705884807E+03  0.35498770953E+03  0.00000000000E+00 0. -1.
          1    1    5    5  503    0  0.60269608485E+02 -0.13094065136E+02 -0.14156210716E+03  0.15441408754E+03  0.00000000000E+00 0. -1.
         -2    1    5    5    0  503  0.30831562792E+02  0.34137319941E+02 -0.31413634345E+03  0.31748635270E+03  0.00000000000E+00 0.  1.
         -3    1    6    6    0  502 -0.69426266870E+02 -0.17802723887E+02  0.83572891899E+02  0.11009710155E+03  0.00000000000E+00 0.  1.
<mgrwt>
<rscale>  0 0.12307380E+04</rscale>
<asrwt>0</asrwt>
<pdfrwt beam="1">  1        1 0.12788634E+00 0.12307380E+04</pdfrwt>
<pdfrwt beam="2">  1       -1 0.70084241E-01 0.12307380E+04</pdfrwt>
<totfact> 0.42239365E+01</totfact>
</mgrwt>
</event>
<event>
12    1  0.1467288E-007  0.1293048E+04  0.7818608E-02  0.9035096E-01
          2   -1    0    0  501    0  0.00000000000E+00  0.00000000000E+00  0.19295615925E+04  0.19295615925E+04  0.00000000000E+00 0. -1.
         -2   -1    0    0    0  501 -0.00000000000E+00 -0.00000000000E+00 -0.21662619544E+03  0.21662619544E+03  0.00000000000E+00 0.  1.
         23    2    1    2    0    0  0.13939364581E+03  0.28329321290E+02  0.92486011609E+03  0.94066508547E+03  0.96184352874E+02 0.  0.
        254    2    1    2    0    0 -0.13939364581E+03 -0.28329321290E+02  0.78807528093E+03  0.12055227024E+04  0.90110443275E+03 0.  0.
        -24    2    4    4    0    0 -0.10852586014E+03 -0.73779537071E+02 -0.17788226468E+03  0.23476209121E+03  0.79056036927E+02 0.  0.
         24    2    4    4    0    0 -0.30867785679E+02  0.45450215781E+02  0.96595754561E+03  0.97076061122E+03  0.79269427125E+02 0.  0.
         13    1    3    3    0    0  0.62232278167E+02  0.48408231764E+02  0.64064327200E+03  0.64547657999E+03  0.00000000000E+00 0. -1.
        -13    1    3    3    0    0  0.77161367646E+02 -0.20078910474E+02  0.28421684409E+03  0.29518850548E+03  0.00000000000E+00 0.  1.
          4    1    6    6  502    0 -0.45676029121E+02  0.56557326201E+02  0.60905797354E+03  0.61338132178E+03  0.00000000000E+00 0. -1.
          1    1    5    5  503    0 -0.83439129915E+01 -0.40188093602E+02 -0.83675849202E+02  0.93200598126E+02  0.00000000000E+00 0. -1.
         -2    1    5    5    0  503 -0.10018194714E+03 -0.33591443469E+02 -0.94206415475E+02  0.14156149309E+03  0.00000000000E+00 0.  1.
         -1    1    6    6    0  502  0.14808243442E+02 -0.11107110421E+02  0.35689957207E+03  0.35737928944E+03  0.00000000000E+00 0.  1.
<mgrwt>
<rscale>  0 0.12930485E+04</rscale>
<asrwt>0</asrwt>
<pdfrwt beam="1">  1        2 0.29685562E+00 0.12930485E+04</pdfrwt>
<pdfrwt beam="2">  1       -2 0.33327108E-01 0.12930485E+04</pdfrwt>
<totfact> 0.60344795E+01</totfact>
</mgrwt>
</event>
<event>
12    1  0.1467288E-007  0.1267834E+04  0.7818608E-02  0.9055470E-01
         -2   -1    0    0    0  501 -0.00000000000E+00  0.00000000000E+00  0.10419510106E+04  0.10419510106E+04  0.00000000000E+00 0.  1.
          2   -1    0    0  501    0  0.00000000000E+00 -0.00000000000E+00 -0.38567120014E+03  0.38567120014E+03  0.00000000000E+00 0. -1.
         23    2    1    2    0    0 -0.53212058202E+02 -0.25327718654E+01 -0.17042654075E+03  0.20065194354E+03  0.91531735394E+02 0.  0.
        254    2    1    2    0    0  0.53212058202E+02  0.25327718654E+01  0.82670635123E+03  0.12269702672E+04  0.90508270749E+03 0.  0.
        -24    2    4    4    0    0  0.21446895161E+03 -0.13802002840E+03 -0.90168980674E+02  0.28205818002E+03  0.79874353794E+02 0.  0.
         24    2    4    4    0    0 -0.16125689341E+03  0.14055280026E+03  0.91687533190E+03  0.94491208719E+03  0.80247136678E+02 0.  0.
         11    1    3    3    0    0 -0.94001947922E+01  0.17766527482E+02  0.32739308621E+01  0.20364964625E+02  0.00000000000E+00 0.  1.
        -11    1    3    3    0    0 -0.43811863410E+02 -0.20299299347E+02 -0.17370047161E+03  0.18028697892E+03  0.00000000000E+00 0. -1.
          2    1    6    6  502    0 -0.15581584787E+03  0.95057304085E+02  0.74523842482E+03  0.76726447808E+03  0.00000000000E+00 0. -1.
          1    1    5    5  503    0  0.15725303685E+03 -0.13331845294E+03 -0.89227613600E+02  0.22464170254E+03  0.00000000000E+00 0. -1.
         -2    1    5    5    0  503  0.57215914759E+02 -0.47015754615E+01 -0.94136707469E+00  0.57416477473E+02  0.00000000000E+00 0.  1.
         -1    1    6    6    0  502 -0.54410455373E+01  0.45495496178E+02  0.17163690708E+03  0.17764760911E+03  0.00000000000E+00 0.  1.
<mgrwt>
<rscale>  0 0.12678336E+04</rscale>
<asrwt>0</asrwt>
<pdfrwt beam="1">  1        2 0.59334031E-01 0.12678336E+04</pdfrwt>
<pdfrwt beam="2">  1       -2 0.16030015E+00 0.12678336E+04</pdfrwt>
<totfact> 0.20374774E+01</totfact>
</mgrwt>
</event>
<event>
12    1  0.1467288E-007  0.1491452E+04  0.7818608E-02  0.8890157E-01
          1   -1    0    0  501    0  0.00000000000E+00  0.00000000000E+00  0.80458415101E+03  0.80458415101E+03  0.00000000000E+00 0. -1.
         -1   -1    0    0    0  501 -0.00000000000E+00 -0.00000000000E+00 -0.69117316102E+03  0.69117316102E+03  0.00000000000E+00 0.  1.
         23    2    1    2    0    0 -0.38440206675E+03 -0.47068093229E+02  0.29134673147E+03  0.49302690652E+03  0.90621511186E+02 0.  0.
        254    2    1    2    0    0  0.38440206675E+03  0.47068093229E+02 -0.17793574148E+03  0.10027304055E+04  0.90764904216E+03 0.  0.
        -24    2    4    4    0    0  0.40980111165E+02 -0.40416749993E+03 -0.46992487198E+02  0.41541857071E+03  0.73031209243E+02 0.  0.
         24    2    4    4    0    0  0.34342195559E+03  0.45123559316E+03 -0.13094325429E+03  0.58731183481E+03  0.78973763664E+02 0.  0.
         11    1    3    3    0    0 -0.36394446658E+03 -0.21507397773E+02  0.26087437317E+03  0.44830077123E+03  0.00000000000E+00 0. -1.
        -11    1    3    3    0    0 -0.20457600171E+02 -0.25560695456E+02  0.30472358303E+02  0.44726135285E+02  0.00000000000E+00 0.  1.
          4    1    6    6  502    0  0.33528164841E+03  0.44535480224E+03 -0.13890169864E+03  0.57449835989E+03  0.00000000000E+00 0. -1.
          1    1    5    5  503    0  0.51840194452E+02 -0.25973882675E+03 -0.61470578251E+01  0.26493291642E+03  0.00000000000E+00 0. -1.
         -2    1    5    5    0  503 -0.10860083287E+02 -0.14442867319E+03 -0.40845429373E+02  0.15048565429E+03  0.00000000000E+00 0.  1.
         -3    1    6    6    0  502  0.81403071765E+01  0.58807909257E+01  0.79584443541E+01  0.12813474914E+02  0.00000000000E+00 0.  1.
<mgrwt>
<rscale>  0 0.14914516E+04</rscale>
<asrwt>0</asrwt>
<pdfrwt beam="1">  1        1 0.12378218E+00 0.14914516E+04</pdfrwt>
<pdfrwt beam="2">  1       -1 0.10633433E+00 0.14914516E+04</pdfrwt>
<totfact> 0.17535354E+01</totfact>
</mgrwt>
</event>
<event>
12    1  0.1467288E-007  0.1142002E+04  0.7818608E-02  0.9165193E-01
         -2   -1    0    0    0  501 -0.00000000000E+00  0.00000000000E+00  0.55398547731E+03  0.55398547731E+03  0.00000000000E+00 0.  1.
          2   -1    0    0  501    0  0.00000000000E+00 -0.00000000000E+00 -0.58853963429E+03  0.58853963429E+03  0.00000000000E+00 0. -1.
         23    2    1    2    0    0 -0.16897365045E+03  0.66880215480E+02  0.78891741477E+02  0.21927427986E+03  0.93980025365E+02 0.  0.
        254    2    1    2    0    0  0.16897365045E+03 -0.66880215480E+02 -0.11344589846E+03  0.92325083174E+03  0.89805181848E+03 0.  0.
        -24    2    4    4    0    0  0.11268809847E+03  0.12532374426E+02 -0.49859333188E+03  0.51813634646E+03  0.83751387949E+02 0.  0.
         24    2    4    4    0    0  0.56285551981E+02 -0.79412589907E+02  0.38514743342E+03  0.40511448529E+03  0.79402631703E+02 0.  0.
         11    1    3    3    0    0 -0.13467420416E+03  0.13095021342E+02  0.76501594251E+02  0.15543845976E+03  0.00000000000E+00 0.  1.
        -11    1    3    3    0    0 -0.34299446286E+02  0.53785194138E+02  0.23901472261E+01  0.63835820099E+02  0.00000000000E+00 0. -1.
          2    1    6    6  502    0  0.33332111259E+02  0.38739987561E+01  0.16980423756E+03  0.17308817580E+03  0.00000000000E+00 0. -1.
          1    1    5    5  503    0  0.89286345272E+02 -0.13387988314E+02 -0.44571668955E+03  0.45476879513E+03  0.00000000000E+00 0. -1.
         -2    1    5    5    0  503  0.23401753195E+02  0.25920362740E+02 -0.52876642329E+02  0.63367551327E+02  0.00000000000E+00 0.  1.
         -1    1    6    6    0  502  0.22953440722E+02 -0.83286588663E+02  0.21534319586E+03  0.23202630949E+03  0.00000000000E+00 0.  1.
<mgrwt>
<rscale>  0 0.11420025E+04</rscale>
<asrwt>0</asrwt>
<pdfrwt beam="1">  1        2 0.90544558E-01 0.11420025E+04</pdfrwt>
<pdfrwt beam="2">  1       -2 0.85228536E-01 0.11420025E+04</pdfrwt>
<totfact> 0.60241534E+01</totfact>
</mgrwt>
</event>
<event>
12    1  0.1467288E-007  0.2014604E+04  0.7818608E-02  0.8599823E-01
          2   -1    0    0  501    0  0.00000000000E+00  0.00000000000E+00  0.11659271256E+04  0.11659271256E+04  0.00000000000E+00 0. -1.
         -2   -1    0    0    0  501 -0.00000000000E+00 -0.00000000000E+00 -0.87025815246E+03  0.87025815246E+03  0.00000000000E+00 0.  1.
         23    2    1    2    0    0 -0.44039323843E+03 -0.63905546229E+03 -0.92792987013E+02  0.78707878614E+03  0.92435863234E+02 0.  0.
        254    2    1    2    0    0  0.44039323843E+03  0.63905546229E+03  0.38846196013E+03  0.12491064919E+04  0.89834639493E+03 0.  0.
        -24    2    4    4    0    0  0.47612527088E+03 -0.10968105520E+01  0.35866947922E+03  0.60224671068E+03  0.85795271637E+02 0.  0.
         24    2    4    4    0    0 -0.35732032450E+02  0.64015227285E+03  0.29792480910E+02  0.64685978121E+03  0.80425580878E+02 0.  0.
         11    1    3    3    0    0 -0.31526792357E+03 -0.39221017936E+03 -0.35496700472E+02  0.50446278770E+03  0.00000000000E+00 0.  1.
        -11    1    3    3    0    0 -0.12512531486E+03 -0.24684528293E+03 -0.57296286541E+02  0.28261599844E+03  0.00000000000E+00 0. -1.
          4    1    6    6  502    0 -0.40645548758E+02  0.63992038353E+03  0.28902820969E+02  0.64186099036E+03  0.00000000000E+00 0. -1.
          1    1    5    5  503    0  0.47441733874E+03  0.61292847238E+01  0.34479105669E+03  0.58650682196E+03  0.00000000000E+00 0. -1.
         -4    1    5    5    0  503  0.17079321447E+01 -0.72260952758E+01  0.13878422533E+02  0.15739888727E+02  0.00000000000E+00 0.  1.
         -3    1    6    6    0  502  0.49135163074E+01  0.23188931742E+00  0.88965994123E+00  0.49987908508E+01  0.00000000000E+00 0.  1.
<mgrwt>
<rscale>  0 0.20146043E+04</rscale>
<asrwt>0</asrwt>
<pdfrwt beam="1">  1        2 0.17937340E+00 0.20146043E+04</pdfrwt>
<pdfrwt beam="2">  1       -2 0.13388587E+00 0.20146043E+04</pdfrwt>
<totfact> 0.74255956E+00</totfact>
</mgrwt>
</event>
<event>
12    1  0.1467288E-007  0.1934461E+04  0.7818608E-02  0.8637891E-01
         -1   -1    0    0    0  501 -0.00000000000E+00  0.00000000000E+00  0.51859185492E+03  0.51859185492E+03  0.00000000000E+00 0.  1.
          1   -1    0    0  501    0  0.00000000000E+00 -0.00000000000E+00 -0.18039907732E+04  0.18039907732E+04  0.00000000000E+00 0. -1.
         23    2    1    2    0    0 -0.47851771069E+03 -0.37537994115E+03 -0.10026798061E+04  0.11762548686E+04  0.91210869333E+02 0.  0.
        254    2    1    2    0    0  0.47851771069E+03  0.37537994115E+03 -0.28271911219E+03  0.11463277595E+04  0.92964936198E+03 0.  0.
        -24    2    4    4    0    0  0.73531541838E+03  0.35947844424E+03 -0.11949691124E+03  0.83101479528E+03  0.79953497671E+02 0.  0.
         24    2    4    4    0    0 -0.25679770770E+03  0.15901496911E+02 -0.16322220095E+03  0.31531296426E+03  0.81134815354E+02 0.  0.
         11    1    3    3    0    0 -0.19959753789E+03 -0.19832096847E+03 -0.52171730086E+03  0.59275570489E+03  0.00000000000E+00 0. -1.
        -11    1    3    3    0    0 -0.27892017280E+03 -0.17705897268E+03 -0.48096250526E+03  0.58349916372E+03  0.00000000000E+00 0.  1.
          4    1    6    6  502    0 -0.59366916093E+02  0.34762918819E+02 -0.62159672583E+02  0.92718477914E+02  0.00000000000E+00 0. -1.
          3    1    5    5  503    0  0.96425892163E+02  0.19569702732E+02 -0.70087653272E+01  0.98641009402E+02  0.00000000000E+00 0. -1.
         -4    1    5    5    0  503  0.63888952622E+03  0.33990874150E+03 -0.11248814591E+03  0.73237378587E+03  0.00000000000E+00 0.  1.
         -3    1    6    6    0  502 -0.19743079160E+03 -0.18861421908E+02 -0.10106252837E+03  0.22259448634E+03  0.00000000000E+00 0.  1.
<mgrwt>
<rscale>  0 0.19344611E+04</rscale>
<asrwt>0</asrwt>
<pdfrwt beam="1">  1        1 0.27753704E+00 0.19344611E+04</pdfrwt>
<pdfrwt beam="2">  1       -1 0.79783364E-01 0.19344611E+04</pdfrwt>
<totfact> 0.59251366E+00</totfact>
</mgrwt>
</event>
<event>
12    1  0.1467288E-007  0.1540504E+04  0.7818608E-02  0.8857956E-01
          2   -1    0    0  501    0  0.00000000000E+00  0.00000000000E+00  0.80797226256E+03  0.80797226256E+03  0.00000000000E+00 0. -1.
         -2   -1    0    0    0  501 -0.00000000000E+00 -0.00000000000E+00 -0.73429278854E+03  0.73429278854E+03  0.00000000000E+00 0.  1.
         23    2    1    2    0    0 -0.25806699373E+03  0.27487678387E+02  0.45289660748E+03  0.53170120469E+03  0.10117652040E+03 0.  0.
        254    2    1    2    0    0  0.25806699373E+03 -0.27487678387E+02 -0.37921713346E+03  0.10105638464E+04  0.90004416983E+03 0.  0.
        -24    2    4    4    0    0 -0.21205612004E+02 -0.37202767210E+03 -0.40999908043E+03  0.55891352435E+03  0.73694063295E+02 0.  0.
         24    2    4    4    0    0  0.27927260574E+03  0.34453999371E+03  0.30781946963E+02  0.45165032206E+03  0.79620911707E+02 0.  0.
         13    1    3    3    0    0 -0.20405894432E+02 -0.26438352504E+02  0.74145725779E+02  0.81320204513E+02  0.00000000000E+00 0.  1.
        -13    1    3    3    0    0 -0.23766109930E+03  0.53926030892E+02  0.37875088170E+03  0.45038100018E+03  0.00000000000E+00 0. -1.
          4    1    6    6  502    0 -0.13407949174E+01  0.21537857003E+02 -0.54198934900E+01  0.22249769903E+02  0.00000000000E+00 0. -1.
          1    1    5    5  503    0  0.13879831348E+02 -0.22836477419E+03 -0.21305269338E+03  0.31262528683E+03  0.00000000000E+00 0. -1.
         -2    1    5    5    0  503 -0.35085443353E+02 -0.14366289790E+03 -0.19694638704E+03  0.24628823752E+03  0.00000000000E+00 0.  1.
         -3    1    6    6    0  502  0.28061340066E+03  0.32300213671E+03  0.36201840453E+02  0.42940055216E+03  0.00000000000E+00 0.  1.
<mgrwt>
<rscale>  0 0.15405041E+04</rscale>
<asrwt>0</asrwt>
<pdfrwt beam="1">  1        2 0.12430343E+00 0.15405041E+04</pdfrwt>
<pdfrwt beam="2">  1       -2 0.11296812E+00 0.15405041E+04</pdfrwt>
<totfact> 0.20166771E+01</totfact>
</mgrwt>
</event>
<event>
12    1  0.1467288E-007  0.1061211E+04  0.7818608E-02  0.9243845E-01
         -2   -1    0    0    0  501 -0.00000000000E+00  0.00000000000E+00  0.31366904606E+03  0.31366904606E+03  0.00000000000E+00 0.  1.
          2   -1    0    0  501    0  0.00000000000E+00 -0.00000000000E+00 -0.89757745353E+03  0.89757745353E+03  0.00000000000E+00 0. -1.
         23    2    1    2    0    0  0.75522331729E+02 -0.14353208588E+02  0.27464350800E+02  0.12659252589E+03  0.96756084358E+02 0.  0.
        254    2    1    2    0    0 -0.75522331729E+02  0.14353208588E+02 -0.61137275828E+03  0.10846539737E+04  0.89262979779E+03 0.  0.
        -24    2    4    4    0    0  0.13485732488E+03  0.23209270982E+03  0.10808185527E+03  0.30004033281E+03  0.79303151554E+02 0.  0.
         24    2    4    4    0    0 -0.21037965661E+03 -0.21773950123E+03 -0.71945461354E+03  0.78461364089E+03  0.79583504635E+02 0.  0.
         13    1    3    3    0    0 -0.50296292059E+01  0.32448787636E+01 -0.27078970973E+02  0.27732599537E+02  0.00000000000E+00 0. -1.
        -13    1    3    3    0    0  0.80551960935E+02 -0.17598087352E+02  0.54543321773E+02  0.98859926355E+02  0.00000000000E+00 0.  1.
          2    1    6    6  502    0 -0.16261173286E+03 -0.11352666988E+03 -0.44648310207E+03  0.48854686660E+03  0.00000000000E+00 0. -1.
          3    1    5    5  503    0  0.11492680963E+03  0.14178236608E+03  0.97588298315E+02  0.20696349164E+03  0.00000000000E+00 0. -1.
         -4    1    5    5    0  503  0.19930515253E+02  0.90310343737E+02  0.10493556953E+02  0.93076841168E+02  0.00000000000E+00 0.  1.
         -1    1    6    6    0  502 -0.47767923747E+02 -0.10421283135E+03 -0.27297151148E+03  0.29606677429E+03  0.00000000000E+00 0.  1.
<mgrwt>
<rscale>  0 0.10612111E+04</rscale>
<asrwt>0</asrwt>
<pdfrwt beam="1">  1        2 0.13808884E+00 0.10612111E+04</pdfrwt>
<pdfrwt beam="2">  1       -2 0.48256777E-01 0.10612111E+04</pdfrwt>
<totfact> 0.11911408E+02</totfact>
</mgrwt>
</event>
<event>
12    1  0.1467288E-007  0.1402884E+04  0.7818608E-02  0.8951734E-01
         -2   -1    0    0    0  501 -0.00000000000E+00  0.00000000000E+00  0.25073711081E+03  0.25073711081E+03  0.00000000000E+00 0.  1.
          2   -1    0    0  501    0  0.00000000000E+00 -0.00000000000E+00 -0.19622978273E+04  0.19622978273E+04  0.00000000000E+00 0. -1.
         23    2    1    2    0    0  0.10906918983E+02  0.30270439526E+03 -0.94719605327E+03  0.99859756875E+03  0.90927604168E+02 0.  0.
        254    2    1    2    0    0 -0.10906918983E+02 -0.30270439526E+03 -0.76436466322E+03  0.12144373694E+04  0.89378737624E+03 0.  0.
        -24    2    4    4    0    0  0.20737260479E+03 -0.16790458183E+03  0.11059056567E+03  0.29929447452E+03  0.78431903276E+02 0.  0.
         24    2    4    4    0    0 -0.21827952377E+03 -0.13479981343E+03 -0.87495522889E+03  0.91514289484E+03  0.78249122774E+02 0.  0.
         13    1    3    3    0    0  0.28400030100E+02  0.24529187313E+02 -0.11380355345E+03  0.11983109579E+03  0.00000000000E+00 0.  1.
        -13    1    3    3    0    0 -0.17493111117E+02  0.27817520794E+03 -0.83339249982E+03  0.87876647296E+03  0.00000000000E+00 0. -1.
          2    1    6    6  502    0 -0.53444479339E+02  0.10941128506E+01 -0.21098567459E+03  0.21765216364E+03  0.00000000000E+00 0. -1.
          1    1    5    5  503    0  0.10444819354E+03 -0.10353829847E+03  0.21313198256E+02  0.14860638211E+03  0.00000000000E+00 0. -1.
         -4    1    5    5    0  503  0.10292441125E+03 -0.64366283357E+02  0.89277367410E+02  0.15068809242E+03  0.00000000000E+00 0.  1.
         -1    1    6    6    0  502 -0.16483504443E+03 -0.13589392628E+03 -0.66396955430E+03  0.69749073120E+03  0.00000000000E+00 0.  1.
<mgrwt>
<rscale>  0 0.14028840E+04</rscale>
<asrwt>0</asrwt>
<pdfrwt beam="1">  1        2 0.30189197E+00 0.14028840E+04</pdfrwt>
<pdfrwt beam="2">  1       -2 0.38574940E-01 0.14028840E+04</pdfrwt>
<totfact> 0.43339077E+01</totfact>
</mgrwt>
</event>
<event>
12    1  0.1467288E-007  0.2935970E+04  0.7818608E-02  0.8262255E-01
         -1   -1    0    0    0  501 -0.00000000000E+00  0.00000000000E+00  0.95614112724E+03  0.95614112724E+03  0.00000000000E+00 0.  1.
          1   -1    0    0  501    0  0.00000000000E+00 -0.00000000000E+00 -0.22538297091E+04  0.22538297091E+04  0.00000000000E+00 0. -1.
         23    2    1    2    0    0  0.14801343180E+03  0.29555199855E+03  0.81491094053E+03  0.88402866919E+03  0.90376363679E+02 0.  0.
        254    2    1    2    0    0 -0.14801343180E+03 -0.29555199855E+03 -0.21125995224E+04  0.23259421671E+04  0.91524382712E+03 0.  0.
        -24    2    4    4    0    0  0.33183302115E+03 -0.59662726970E+02 -0.13345956796E+04  0.13788552936E+04  0.80146727854E+02 0.  0.
         24    2    4    4    0    0 -0.47984645295E+03 -0.23588927158E+03 -0.77800384283E+03  0.94708687351E+03  0.76073646288E+02 0.  0.
         13    1    3    3    0    0  0.13464200361E+03  0.17666733463E+03  0.55981603902E+03  0.60227386944E+03  0.00000000000E+00 0. -1.
        -13    1    3    3    0    0  0.13371428185E+02  0.11888466391E+03  0.25509490151E+03  0.28175479975E+03  0.00000000000E+00 0.  1.
          2    1    6    6  502    0 -0.43086321815E+03 -0.23560697846E+03 -0.70971068255E+03  0.86304288073E+03  0.00000000000E+00 0. -1.
          1    1    5    5  503    0  0.26646594561E+03 -0.59720942608E+02 -0.11765591601E+04  0.12078336592E+04  0.00000000000E+00 0. -1.
         -2    1    5    5    0  503  0.65367075544E+02  0.58215638174E-01 -0.15803651950E+03  0.17102163445E+03  0.00000000000E+00 0.  1.
         -1    1    6    6    0  502 -0.48983234799E+02 -0.28229311339E+00 -0.68293160275E+02  0.84043992772E+02  0.00000000000E+00 0.  1.
<mgrwt>
<rscale>  0 0.29359695E+04</rscale>
<asrwt>0</asrwt>
<pdfrwt beam="1">  1        1 0.34674303E+00 0.29359695E+04</pdfrwt>
<pdfrwt beam="2">  1       -1 0.14709863E+00 0.29359695E+04</pdfrwt>
<totfact> 0.62970688E-01</totfact>
</mgrwt>
</event>
<event>
12    1  0.1467288E-007  0.1401606E+04  0.7818608E-02  0.8952657E-01
          1   -1    0    0  501    0  0.00000000000E+00  0.00000000000E+00  0.21451724224E+04  0.21451724224E+04  0.00000000000E+00 0. -1.
         -1   -1    0    0    0  501 -0.00000000000E+00 -0.00000000000E+00 -0.22894419036E+03  0.22894419036E+03  0.00000000000E+00 0.  1.
         23    2    1    2    0    0  0.23345324557E+03  0.43066725429E+02  0.86464122411E+01  0.25412970609E+03  0.90288351217E+02 0.  0.
        254    2    1    2    0    0 -0.23345324557E+03 -0.43066725429E+02  0.19075818198E+04  0.21199869067E+04  0.89393563779E+03 0.  0.
        -24    2    4    4    0    0 -0.31269174040E+03  0.37337580718E+03  0.10188855915E+04  0.11320479295E+04  0.78860943164E+02 0.  0.
         24    2    4    4    0    0  0.79238494832E+02 -0.41644253261E+03  0.88869622834E+03  0.98793897715E+03  0.80866026636E+02 0.  0.
         13    1    3    3    0    0  0.11224551160E+03 -0.21241845919E+02  0.21765550396E+02  0.11629277740E+03  0.00000000000E+00 0. -1.
        -13    1    3    3    0    0  0.12120773397E+03  0.64308571348E+02 -0.13119138155E+02  0.13783692868E+03  0.00000000000E+00 0.  1.
          4    1    6    6  502    0  0.80435781837E+02 -0.41144895388E+03  0.88889576073E+03  0.98279999496E+03  0.00000000000E+00 0. -1.
          1    1    5    5  503    0 -0.29381177181E+03  0.37250422665E+03  0.97741650529E+03  0.10864749334E+04  0.00000000000E+00 0. -1.
         -2    1    5    5    0  503 -0.18879968593E+02  0.87158052736E+00  0.41469086186E+02  0.45572996124E+02  0.00000000000E+00 0.  1.
         -3    1    6    6    0  502 -0.11972870041E+01 -0.49935787326E+01 -0.19953238966E+00  0.51389821855E+01  0.00000000000E+00 0.  1.
<mgrwt>
<rscale>  0 0.14016059E+04</rscale>
<asrwt>0</asrwt>
<pdfrwt beam="1">  1        1 0.33002651E+00 0.14016059E+04</pdfrwt>
<pdfrwt beam="2">  1       -1 0.35222185E-01 0.14016059E+04</pdfrwt>
<totfact> 0.17785991E+01</totfact>
</mgrwt>
</event>
<event>
12    1  0.1467288E-007  0.1234004E+04  0.7818608E-02  0.9083603E-01
         -1   -1    0    0    0  501 -0.00000000000E+00  0.00000000000E+00  0.18246309267E+03  0.18246309267E+03  0.00000000000E+00 0.  1.
          1   -1    0    0  501    0  0.00000000000E+00 -0.00000000000E+00 -0.20864010977E+04  0.20864010977E+04  0.00000000000E+00 0. -1.
         23    2    1    2    0    0  0.49138541777E+02 -0.14791135839E+03 -0.10768897338E+04  0.10921482259E+04  0.93829004933E+02 0.  0.
        254    2    1    2    0    0 -0.49138541777E+02  0.14791135839E+03 -0.82704827122E+03  0.11767159646E+04  0.82241063470E+03 0.  0.
        -24    2    4    4    0    0 -0.10724890465E+03  0.45218591786E+03 -0.29465463993E+03  0.55574273029E+03  0.77808698566E+02 0.  0.
         24    2    4    4    0    0  0.58110362873E+02 -0.30427455947E+03 -0.53239363129E+03  0.62097323426E+03  0.78771550806E+02 0.  0.
         13    1    3    3    0    0  0.35259783355E+01 -0.74907162629E+01 -0.40858388604E+01  0.92324120655E+01  0.00000000000E+00 0.  1.
        -13    1    3    3    0    0  0.45612563441E+02 -0.14042064213E+03 -0.10728038950E+04  0.10829158138E+04  0.00000000000E+00 0. -1.
          4    1    6    6  502    0  0.71776224815E+02 -0.18089785268E+03 -0.30223162372E+03  0.35947157597E+03  0.00000000000E+00 0. -1.
          1    1    5    5  503    0 -0.14092307959E+02  0.39292716633E+02 -0.55934762743E+02  0.69794042777E+02  0.00000000000E+00 0. -1.
         -2    1    5    5    0  503 -0.93156596691E+02  0.41289320123E+03 -0.23871987719E+03  0.48594868751E+03  0.00000000000E+00 0.  1.
         -3    1    6    6    0  502 -0.13665861942E+02 -0.12337670679E+03 -0.23016200757E+03  0.26150165830E+03  0.00000000000E+00 0.  1.
<mgrwt>
<rscale>  0 0.12340036E+04</rscale>
<asrwt>0</asrwt>
<pdfrwt beam="1">  1        1 0.32098479E+00 0.12340036E+04</pdfrwt>
<pdfrwt beam="2">  1       -1 0.28071245E-01 0.12340036E+04</pdfrwt>
<totfact> 0.29526443E+01</totfact>
</mgrwt>
</event>
<event>
12    1  0.1467288E-007  0.4583281E+04  0.7818608E-02  0.7896217E-01
          1   -1    0    0  501    0  0.00000000000E+00  0.00000000000E+00  0.30459543569E+04  0.30459543569E+04  0.00000000000E+00 0. -1.
         -1   -1    0    0    0  501 -0.00000000000E+00 -0.00000000000E+00 -0.17241286718E+04  0.17241286718E+04  0.00000000000E+00 0.  1.
         23    2    1    2    0    0 -0.34781759589E+03  0.21745304960E+04  0.66367061973E+03  0.23018465764E+04  0.92081547940E+02 0.  0.
        254    2    1    2    0    0  0.34781759589E+03 -0.21745304960E+04  0.65815506543E+03  0.24682364523E+04  0.89970169297E+03 0.  0.
        -24    2    4    4    0    0 -0.20863607902E+03 -0.34389136776E+03  0.32873083067E+03  0.52502242995E+03  0.76120343124E+02 0.  0.
         24    2    4    4    0    0  0.55645367491E+03 -0.18306391283E+04  0.32942423476E+03  0.19432140224E+04  0.81731879185E+02 0.  0.
         13    1    3    3    0    0 -0.88697921863E+02  0.47414545913E+03  0.18315778203E+03  0.51597287804E+03  0.00000000000E+00 0. -1.
        -13    1    3    3    0    0 -0.25911967403E+03  0.17003850369E+04  0.48051283770E+03  0.17858736983E+04  0.00000000000E+00 0.  1.
          4    1    6    6  502    0  0.28832913132E+03 -0.81493522089E+03  0.13652954274E+03  0.87515336842E+03  0.00000000000E+00 0. -1.
          3    1    5    5  503    0 -0.13609542448E+03 -0.23104586033E+03  0.17133252657E+03  0.31821217577E+03  0.00000000000E+00 0. -1.
         -4    1    5    5    0  503 -0.72540654532E+02 -0.11284550742E+03  0.15739830409E+03  0.20681025419E+03  0.00000000000E+00 0.  1.
         -3    1    6    6    0  502  0.26812454359E+03 -0.10157039074E+04  0.19289469201E+03  0.10680606540E+04  0.00000000000E+00 0.  1.
<mgrwt>
<rscale>  0 0.45832815E+04</rscale>
<asrwt>0</asrwt>
<pdfrwt beam="1">  1        1 0.46860836E+00 0.45832815E+04</pdfrwt>
<pdfrwt beam="2">  1       -1 0.26525056E+00 0.45832815E+04</pdfrwt>
<totfact> 0.22895122E-02</totfact>
</mgrwt>
</event>
<event>
12    1  0.1467288E-007  0.1337980E+04  0.7818608E-02  0.8999978E-01
         -2   -1    0    0    0  501 -0.00000000000E+00  0.00000000000E+00  0.23227352669E+03  0.23227352669E+03  0.00000000000E+00 0.  1.
          2   -1    0    0  501    0  0.00000000000E+00 -0.00000000000E+00 -0.19268118743E+04  0.19268118743E+04  0.00000000000E+00 0. -1.
         23    2    1    2    0    0  0.17745636035E+03 -0.10675805826E+03 -0.11530602403E+02  0.22690234581E+03  0.91998244078E+02 0.  0.
        254    2    1    2    0    0 -0.17745636035E+03  0.10675805826E+03 -0.16830077452E+04  0.19321830552E+04  0.92624416082E+03 0.  0.
        -24    2    4    4    0    0 -0.30080473289E+03 -0.93968818803E+02 -0.11531885429E+03  0.34491789675E+03  0.79726351382E+02 0.  0.
         24    2    4    4    0    0  0.12334837255E+03  0.20072687706E+03 -0.15676888909E+04  0.15872651584E+04  0.79095665334E+02 0.  0.
         11    1    3    3    0    0  0.87281805775E+02 -0.77580891317E+02  0.34181683177E+02  0.12167701419E+03  0.00000000000E+00 0.  1.
        -11    1    3    3    0    0  0.90174554570E+02 -0.29177166942E+02 -0.45712285580E+02  0.10522533163E+03  0.00000000000E+00 0. -1.
          4    1    6    6  502    0  0.11292439445E+02  0.24230104257E+02 -0.40855072647E+03  0.40942436816E+03  0.00000000000E+00 0. -1.
          1    1    5    5  503    0 -0.44201006094E+02 -0.26279734692E+01  0.95279193206E+01  0.45292564852E+02  0.00000000000E+00 0. -1.
         -2    1    5    5    0  503 -0.25660372680E+03 -0.91340845334E+02 -0.12484677361E+03  0.29962533190E+03  0.00000000000E+00 0.  1.
         -3    1    6    6    0  502  0.11205593310E+03  0.17649677281E+03 -0.11591381644E+04  0.11778407903E+04  0.00000000000E+00 0.  1.
<mgrwt>
<rscale>  0 0.13379797E+04</rscale>
<asrwt>0</asrwt>
<pdfrwt beam="1">  1        2 0.29643260E+00 0.13379797E+04</pdfrwt>
<pdfrwt beam="2">  1       -2 0.35734389E-01 0.13379797E+04</pdfrwt>
<totfact> 0.52830327E+01</totfact>
</mgrwt>
</event>
<event>
12    1  0.1467288E-007  0.1489430E+04  0.7818608E-02  0.8891513E-01
         -1   -1    0    0    0  501 -0.00000000000E+00  0.00000000000E+00  0.72237961965E+03  0.72237961965E+03  0.00000000000E+00 0.  1.
          1   -1    0    0  501    0  0.00000000000E+00 -0.00000000000E+00 -0.76774061388E+03  0.76774061388E+03  0.00000000000E+00 0. -1.
         23    2    1    2    0    0 -0.47470633085E+02  0.28523323676E+03  0.35184189030E+03  0.46429425343E+03  0.90360265869E+02 0.  0.
        254    2    1    2    0    0  0.47470633085E+02 -0.28523323676E+03 -0.39720288452E+03  0.10258259801E+04  0.90052059922E+03 0.  0.
        -24    2    4    4    0    0  0.19074538836E+03  0.20863034389E+03 -0.41124200066E+03  0.50537190163E+03  0.79814486653E+02 0.  0.
         24    2    4    4    0    0 -0.14327475527E+03 -0.49386358064E+03  0.14039116145E+02  0.52045407847E+03  0.79034544525E+02 0.  0.
         13    1    3    3    0    0 -0.50572378076E+01  0.24266692298E+03  0.27636009946E+03  0.36781478456E+03  0.00000000000E+00 0.  1.
        -13    1    3    3    0    0 -0.42413395278E+02  0.42566313777E+02  0.75481790831E+02  0.96479468876E+02  0.00000000000E+00 0. -1.
          4    1    6    6  502    0 -0.14909228378E+03 -0.42959782122E+03  0.15948186019E+01  0.45473656168E+03  0.00000000000E+00 0. -1.
          3    1    5    5  503    0  0.99135940269E+02  0.14978566903E+03 -0.30035080717E+03  0.34996326760E+03  0.00000000000E+00 0. -1.
         -4    1    5    5    0  503  0.91609448091E+02  0.58844674851E+02 -0.11089119350E+03  0.15540863404E+03  0.00000000000E+00 0.  1.
         -3    1    6    6    0  502  0.58175285020E+01 -0.64265759420E+02  0.12444297543E+02  0.65717516790E+02  0.00000000000E+00 0.  1.
<mgrwt>
<rscale>  0 0.14894297E+04</rscale>
<asrwt>0</asrwt>
<pdfrwt beam="1">  1        1 0.11811394E+00 0.14894297E+04</pdfrwt>
<pdfrwt beam="2">  1       -1 0.11113533E+00 0.14894297E+04</pdfrwt>
<totfact> 0.17030995E+01</totfact>
</mgrwt>
</event>
<event>
12    1  0.1467288E-007  0.3900183E+04  0.7818608E-02  0.8024991E-01
          1   -1    0    0  501    0  0.00000000000E+00  0.00000000000E+00  0.43937938934E+04  0.43937938934E+04  0.00000000000E+00 0. -1.
         -1   -1    0    0    0  501 -0.00000000000E+00 -0.00000000000E+00 -0.86550651342E+03  0.86550651342E+03  0.00000000000E+00 0.  1.
         23    2    1    2    0    0 -0.15087902008E+04  0.10466930935E+04  0.18694450426E+04  0.26223047879E+04  0.98200465193E+02 0.  0.
        254    2    1    2    0    0  0.15087902008E+04 -0.10466930935E+04  0.16588423374E+04  0.26369956189E+04  0.91102891932E+03 0.  0.
        -24    2    4    4    0    0 -0.61889379674E+02 -0.70660262647E+02  0.34572576071E+03  0.36752687690E+03  0.82015459486E+02 0.  0.
         24    2    4    4    0    0  0.15706795805E+04 -0.97603283083E+03  0.13131165767E+04  0.22694687420E+04  0.80862819541E+02 0.  0.
         13    1    3    3    0    0 -0.11587181356E+04  0.75957558569E+03  0.13778476244E+04  0.19539823090E+04  0.00000000000E+00 0. -1.
        -13    1    3    3    0    0 -0.35007206526E+03  0.28711750779E+03  0.49159741821E+03  0.66832247885E+03  0.00000000000E+00 0.  1.
          4    1    6    6  502    0  0.46076245189E+03 -0.29333542095E+03  0.34370260468E+03  0.64535198668E+03  0.00000000000E+00 0. -1.
          1    1    5    5  503    0 -0.11976930310E+02  0.15874151083E+02  0.27135183839E+02  0.33641547738E+02  0.00000000000E+00 0. -1.
         -2    1    5    5    0  503 -0.49912449364E+02 -0.86534413730E+02  0.31859057687E+03  0.33388532916E+03  0.00000000000E+00 0.  1.
         -3    1    6    6    0  502  0.11099171286E+04 -0.68269740989E+03  0.96941397201E+03  0.16241167553E+04  0.00000000000E+00 0.  1.
<mgrwt>
<rscale>  0 0.39001832E+04</rscale>
<asrwt>0</asrwt>
<pdfrwt beam="1">  1        1 0.67596828E+00 0.39001832E+04</pdfrwt>
<pdfrwt beam="2">  1       -1 0.13315485E+00 0.39001832E+04</pdfrwt>
<totfact> 0.15442689E-02</totfact>
</mgrwt>
</event>
<event>
12    1  0.1467288E-007  0.1601617E+04  0.7818608E-02  0.8819555E-01
         -2   -1    0    0    0  501 -0.00000000000E+00  0.00000000000E+00  0.71179349697E+03  0.71179349697E+03  0.00000000000E+00 0.  1.
          2   -1    0    0  501    0  0.00000000000E+00 -0.00000000000E+00 -0.90095560828E+03  0.90095560828E+03  0.00000000000E+00 0. -1.
         23    2    1    2    0    0  0.21377668304E+03 -0.46622370290E+03 -0.14573451464E+03  0.54109072587E+03  0.92063095279E+02 0.  0.
        254    2    1    2    0    0 -0.21377668304E+03  0.46622370290E+03 -0.43427596682E+02  0.10716583794E+04  0.93994718711E+03 0.  0.
        -24    2    4    4    0    0 -0.32638262494E+02 -0.23732181250E+03 -0.20242025347E+03  0.32372112873E+03  0.80215405667E+02 0.  0.
         24    2    4    4    0    0 -0.18113842054E+03  0.70354551540E+03  0.15899265678E+03  0.74793725064E+03  0.79649521966E+02 0.  0.
         11    1    3    3    0    0  0.87117762837E+02 -0.26771027144E+03 -0.11294874073E+03  0.30334091723E+03  0.00000000000E+00 0.  1.
        -11    1    3    3    0    0  0.12665892020E+03 -0.19851343146E+03 -0.32785773903E+02  0.23774980864E+03  0.00000000000E+00 0. -1.
          4    1    6    6  502    0 -0.13172955038E+03  0.60540489036E+03  0.15138909663E+03  0.63779809838E+03  0.00000000000E+00 0. -1.
          3    1    5    5  503    0 -0.47281705450E+02 -0.93489921170E+02 -0.11117134360E+03  0.15275795452E+03  0.00000000000E+00 0. -1.
         -2    1    5    5    0  503  0.14643442956E+02 -0.14383189133E+03 -0.91248909866E+02  0.17096317421E+03  0.00000000000E+00 0.  1.
         -3    1    6    6    0  502 -0.49408870168E+02  0.98140625037E+02  0.76035601512E+01  0.11013915226E+03  0.00000000000E+00 0.  1.
<mgrwt>
<rscale>  0 0.16016171E+04</rscale>
<asrwt>0</asrwt>
<pdfrwt beam="1">  1        2 0.13860855E+00 0.16016171E+04</pdfrwt>
<pdfrwt beam="2">  1       -2 0.10950669E+00 0.16016171E+04</pdfrwt>
<totfact> 0.18647987E+01</totfact>
</mgrwt>
</event>
<event>
12    1  0.1467288E-007  0.2712729E+04  0.7818608E-02  0.8330887E-01
         -2   -1    0    0    0  501 -0.00000000000E+00  0.00000000000E+00  0.15578235572E+04  0.15578235572E+04  0.00000000000E+00 0.  1.
          2   -1    0    0  501    0  0.00000000000E+00 -0.00000000000E+00 -0.11809586651E+04  0.11809586651E+04  0.00000000000E+00 0. -1.
         23    2    1    2    0    0 -0.81550989688E+03  0.59705236931E+03 -0.51751864920E+03  0.11391529909E+04  0.91192437632E+02 0.  0.
        254    2    1    2    0    0  0.81550989688E+03 -0.59705236931E+03  0.89438354130E+03  0.15996292314E+04  0.85869892002E+03 0.  0.
        -24    2    4    4    0    0  0.37190147433E+03 -0.36304964926E+03 -0.49063377483E+02  0.52811985269E+03  0.79922520969E+02 0.  0.
         24    2    4    4    0    0  0.44360842255E+03 -0.23400272005E+03  0.94344691878E+03  0.10715093787E+04  0.80588798564E+02 0.  0.
         11    1    3    3    0    0 -0.60492775517E+03  0.42666378355E+03 -0.42093899202E+03  0.85156867496E+03  0.00000000000E+00 0. -1.
        -11    1    3    3    0    0 -0.21058214172E+03  0.17038858576E+03 -0.96579657180E+02  0.28758431590E+03  0.00000000000E+00 0.  1.
          2    1    6    6  502    0  0.23850559108E+02  0.30257826780E+01  0.28064300004E+02  0.36954153560E+02  0.00000000000E+00 0. -1.
          1    1    5    5  503    0  0.11258260439E+02 -0.32379323418E+02 -0.15662857019E+02  0.37689442860E+02  0.00000000000E+00 0. -1.
         -2    1    5    5    0  503  0.36064321389E+03 -0.33067032584E+03 -0.33400520464E+02  0.49043040983E+03  0.00000000000E+00 0.  1.
         -3    1    6    6    0  502  0.41975786344E+03 -0.23702850273E+03  0.91538261877E+03  0.10345552251E+04  0.00000000000E+00 0.  1.
<mgrwt>
<rscale>  0 0.27127294E+04</rscale>
<asrwt>0</asrwt>
<pdfrwt beam="1">  1        2 0.18168595E+00 0.27127294E+04</pdfrwt>
<pdfrwt beam="2">  1       -2 0.23966516E+00 0.27127294E+04</pdfrwt>
<totfact> 0.12684070E+00</totfact>
</mgrwt>
</event>
<event>
12    1  0.1467288E-007  0.1329828E+04  0.7818608E-02  0.9006240E-01
          2   -1    0    0  501    0  0.00000000000E+00  0.00000000000E+00  0.26121262925E+04  0.26121262925E+04  0.00000000000E+00 0. -1.
         -2   -1    0    0    0  501 -0.00000000000E+00 -0.00000000000E+00 -0.16925304839E+03  0.16925304839E+03  0.00000000000E+00 0.  1.
         23    2    1    2    0    0 -0.22194650773E+03 -0.51161505005E+02  0.64220156707E+03  0.68740906352E+03  0.90722742318E+02 0.  0.
        254    2    1    2    0    0  0.22194650773E+03  0.51161505005E+02  0.18006716770E+04  0.20939702774E+04  0.10442295160E+04 0.  0.
        -24    2    4    4    0    0 -0.40115477446E+03 -0.70210694467E+02  0.55041353899E+03  0.68947783714E+03  0.81055100493E+02 0.  0.
         24    2    4    4    0    0  0.62310128219E+03  0.12137219947E+03  0.12502581380E+04  0.14044924402E+04  0.80418805230E+02 0.  0.
         13    1    3    3    0    0 -0.12721272769E+03 -0.19093096685E+02  0.47923903112E+03  0.49620325812E+03  0.00000000000E+00 0. -1.
        -13    1    3    3    0    0 -0.94733780036E+02 -0.32068408321E+02  0.16296253595E+03  0.19120580539E+03  0.00000000000E+00 0.  1.
          4    1    6    6  502    0  0.19558596225E+03  0.19787950354E+02  0.46079838191E+03  0.50097962072E+03  0.00000000000E+00 0. -1.
          1    1    5    5  503    0 -0.22095522426E+03 -0.27088937571E+02  0.23521861554E+03  0.32385616987E+03  0.00000000000E+00 0. -1.
         -2    1    5    5    0  503 -0.18019955020E+03 -0.43121756897E+02  0.31519492345E+03  0.36562166727E+03  0.00000000000E+00 0.  1.
         -3    1    6    6    0  502  0.42751531993E+03  0.10158424912E+03  0.78945975613E+03  0.90351281949E+03  0.00000000000E+00 0.  1.
<mgrwt>
<rscale>  0 0.13298276E+04</rscale>
<asrwt>0</asrwt>
<pdfrwt beam="1">  1        2 0.40186556E+00 0.13298276E+04</pdfrwt>
<pdfrwt beam="2">  1       -2 0.26038932E-01 0.13298276E+04</pdfrwt>
<totfact> 0.39225559E+01</totfact>
</mgrwt>
</event>
<event>
12    1  0.1467288E-007  0.1635533E+04  0.7818608E-02  0.8799011E-01
         -2   -1    0    0    0  501 -0.00000000000E+00  0.00000000000E+00  0.16961178434E+03  0.16961178434E+03  0.00000000000E+00 0.  1.
          2   -1    0    0  501    0  0.00000000000E+00 -0.00000000000E+00 -0.39427822986E+04  0.39427822986E+04  0.00000000000E+00 0. -1.
         23    2    1    2    0    0 -0.53684078524E+03 -0.14737498001E+03 -0.14020842983E+04  0.15114166734E+04  0.92857781309E+02 0.  0.
        254    2    1    2    0    0  0.53684078524E+03  0.14737498001E+03 -0.23710862159E+04  0.26009774095E+04  0.91275200803E+03 0.  0.
        -24    2    4    4    0    0  0.30561425663E+03  0.14216609632E+03 -0.23254624884E+04  0.23511302634E+04  0.80165192027E+02 0.  0.
         24    2    4    4    0    0  0.23122652862E+03  0.52088836969E+01 -0.45623727567E+02  0.24984714612E+03  0.82760086415E+02 0.  0.
         13    1    3    3    0    0 -0.46019439000E+03 -0.15446849837E+03 -0.11628133939E+04  0.12600691976E+04  0.00000000000E+00 0. -1.
        -13    1    3    3    0    0 -0.76646395240E+02  0.70935183592E+01 -0.23927090441E+03  0.25134747582E+03  0.00000000000E+00 0.  1.
          4    1    6    6  502    0  0.19244979627E+03  0.19494763224E+02 -0.74326038377E+01  0.19357740953E+03  0.00000000000E+00 0. -1.
          1    1    5    5  503    0  0.28679938473E+03  0.12533010828E+03 -0.22473129700E+04  0.22690035496E+04  0.00000000000E+00 0. -1.
         -2    1    5    5    0  503  0.18814871900E+02  0.16835988034E+02 -0.78149518365E+02  0.82126713792E+02  0.00000000000E+00 0.  1.
         -3    1    6    6    0  502  0.38776732344E+02 -0.14285879528E+02 -0.38191123729E+02  0.56269736598E+02  0.00000000000E+00 0.  1.
<mgrwt>
<rscale>  0 0.16355334E+04</rscale>
<asrwt>0</asrwt>
<pdfrwt beam="1">  1        2 0.60658182E+00 0.16355334E+04</pdfrwt>
<pdfrwt beam="2">  1       -2 0.26094124E-01 0.16355334E+04</pdfrwt>
<totfact> 0.49139353E+00</totfact>
</mgrwt>
</event>
<event>
12    1  0.1467288E-007  0.1817372E+04  0.7818608E-02  0.8697115E-01
          2   -1    0    0  501    0  0.00000000000E+00  0.00000000000E+00  0.11203998600E+04  0.11203998600E+04  0.00000000000E+00 0.  1.
         -2   -1    0    0    0  501 -0.00000000000E+00 -0.00000000000E+00 -0.73697816853E+03  0.73697816853E+03  0.00000000000E+00 0. -1.
         23    2    1    2    0    0  0.34894946234E+03 -0.58536149995E+03  0.94504625517E+02  0.69404611117E+03  0.91406057239E+02 0.  0.
        254    2    1    2    0    0 -0.34894946234E+03  0.58536149995E+03  0.28891706598E+03  0.11633319174E+04  0.89747103914E+03 0.  0.
        -24    2    4    4    0    0 -0.16662059731E+03  0.74204272211E+03 -0.18515218604E+02  0.76489298553E+03  0.79552756708E+02 0.  0.
         24    2    4    4    0    0 -0.18232886503E+03 -0.15668122216E+03  0.30743228459E+03  0.39843893186E+03  0.80287934412E+02 0.  0.
         11    1    3    3    0    0  0.58999954536E+02 -0.14479298665E+03 -0.88207567050E+01  0.15660079619E+03  0.00000000000E+00 0. -1.
        -11    1    3    3    0    0  0.28994950781E+03 -0.44056851330E+03  0.10332538222E+03  0.53744531499E+03  0.00000000000E+00 0.  1.
          4    1    6    6  502    0 -0.15903842519E+03 -0.11725067116E+03  0.28664402075E+03  0.34814614059E+03  0.00000000000E+00 0. -1.
          1    1    5    5  503    0 -0.56688595415E+02  0.40994156815E+03 -0.29546316473E+02  0.41489597607E+03  0.00000000000E+00 0. -1.
         -2    1    5    5    0  503 -0.10993200190E+03  0.33210115396E+03  0.11031097868E+02  0.34999700945E+03  0.00000000000E+00 0.  1.
         -3    1    6    6    0  502 -0.23290439847E+02 -0.39430551004E+02  0.20788263837E+02  0.50292791273E+02  0.00000000000E+00 0.  1.
<mgrwt>
<rscale>  0 0.18173720E+04</rscale>
<asrwt>0</asrwt>
<pdfrwt beam="1">  1        2 0.17236921E+00 0.18173720E+04</pdfrwt>
<pdfrwt beam="2">  1       -2 0.11338126E+00 0.18173720E+04</pdfrwt>
<totfact> 0.12181673E+01</totfact>
</mgrwt>
</event>
<event>
12    1  0.1467288E-007  0.1417290E+04  0.7818608E-02  0.8941397E-01
          2   -1    0    0  501    0  0.00000000000E+00  0.00000000000E+00  0.10359073670E+04  0.10359073670E+04  0.00000000000E+00 0. -1.
         -2   -1    0    0    0  501 -0.00000000000E+00 -0.00000000000E+00 -0.48477118968E+03  0.48477118968E+03  0.00000000000E+00 0.  1.
         23    2    1    2    0    0  0.17501829244E+03 -0.10910534784E+03  0.54427888668E+03  0.58934385614E+03  0.92473210561E+02 0.  0.
        254    2    1    2    0    0 -0.17501829244E+03  0.10910534784E+03  0.68572906224E+01  0.93133470052E+03  0.90818606152E+03 0.  0.
        -24    2    4    4    0    0  0.29171542186E+03 -0.18487943176E+03  0.94205622020E+02  0.36718854682E+03  0.81697234080E+02 0.  0.
         24    2    4    4    0    0 -0.46673371430E+03  0.29398477959E+03 -0.87348331398E+02  0.56414615370E+03  0.79773059577E+02 0.  0.
         11    1    3    3    0    0  0.57566306190E+02 -0.51256576617E+02  0.10049819653E+03  0.12665308429E+03  0.00000000000E+00 0.  1.
        -11    1    3    3    0    0  0.11745198625E+03 -0.57848771218E+02  0.44378069015E+03  0.46269077185E+03  0.00000000000E+00 0. -1.
          2    1    6    6  502    0 -0.36711248686E+03  0.26674828225E+03 -0.64243706959E+02  0.45831591503E+03  0.00000000000E+00 0. -1.
          1    1    5    5  503    0  0.18248702801E+03 -0.14464869327E+03  0.93094720378E+02  0.25078155199E+03  0.00000000000E+00 0. -1.
         -2    1    5    5    0  503  0.10922839386E+03 -0.40230738493E+02  0.11109016426E+01  0.11640699483E+03  0.00000000000E+00 0.  1.
         -1    1    6    6    0  502 -0.99621227443E+02  0.27236497346E+02 -0.23104624439E+02  0.10583023866E+03  0.00000000000E+00 0.  1.
<mgrwt>
<rscale>  0 0.14172904E+04</rscale>
<asrwt>0</asrwt>
<pdfrwt beam="1">  1        2 0.15937036E+00 0.14172904E+04</pdfrwt>
<pdfrwt beam="2">  1       -2 0.74580184E-01 0.14172904E+04</pdfrwt>
<totfact> 0.37561245E+01</totfact>
</mgrwt>
</event>
<event>
12    1  0.1467288E-007  0.1123348E+04  0.7818608E-02  0.9182730E-01
         -2   -1    0    0    0  501 -0.00000000000E+00  0.00000000000E+00  0.15452059579E+03  0.15452059579E+03  0.00000000000E+00 0.  1.
          2   -1    0    0  501    0  0.00000000000E+00 -0.00000000000E+00 -0.20416542880E+04  0.20416542880E+04  0.00000000000E+00 0. -1.
         23    2    1    2    0    0 -0.14295714323E+03  0.15144989022E+03 -0.39897665862E+03  0.45418078389E+03  0.61024554781E+02 0.  0.
        254    2    1    2    0    0  0.14295714323E+03 -0.15144989022E+03 -0.14881570336E+04  0.17419940999E+04  0.88122543845E+03 0.  0.
        -24    2    4    4    0    0  0.49627645581E+03 -0.25660927816E+02 -0.10156992071E+04  0.11336416867E+04  0.80930777323E+02 0.  0.
         24    2    4    4    0    0 -0.35331931258E+03 -0.12578896240E+03 -0.47245782648E+03  0.60835241318E+03  0.78859755980E+02 0.  0.
         11    1    3    3    0    0 -0.47010400094E+02  0.67381444238E+02 -0.21623936050E+03  0.23132163274E+03  0.00000000000E+00 0. -1.
        -11    1    3    3    0    0 -0.95946743132E+02  0.84068445978E+02 -0.18273729812E+03  0.22285915115E+03  0.00000000000E+00 0.  1.
          4    1    6    6  502    0 -0.34516742446E+03 -0.13258311114E+03 -0.44295503840E+03  0.57699913198E+03  0.00000000000E+00 0. -1.
          1    1    5    5  503    0  0.49531873321E+03 -0.31811079542E+02 -0.99345191638E+03  0.11105400949E+04  0.00000000000E+00 0. -1.
         -2    1    5    5    0  503  0.95772259528E+00  0.61501517264E+01 -0.22247290687E+02  0.23101591757E+02  0.00000000000E+00 0.  1.
         -3    1    6    6    0  502 -0.81518881171E+01  0.67941487360E+01 -0.29502788086E+02  0.31353281196E+02  0.00000000000E+00 0.  1.
<mgrwt>
<rscale>  0 0.11233479E+04</rscale>
<asrwt>0</asrwt>
<pdfrwt beam="1">  1        2 0.31410065E+00 0.11233479E+04</pdfrwt>
<pdfrwt beam="2">  1       -2 0.23772400E-01 0.11233479E+04</pdfrwt>
<totfact> 0.98910373E+01</totfact>
</mgrwt>
</event>
<event>
12    1  0.1467288E-007  0.1395390E+04  0.7818608E-02  0.8957162E-01
         -1   -1    0    0    0  501 -0.00000000000E+00  0.00000000000E+00  0.31355290768E+03  0.31355290768E+03  0.00000000000E+00 0.  1.
          1   -1    0    0  501    0  0.00000000000E+00 -0.00000000000E+00 -0.15524609871E+04  0.15524609871E+04  0.00000000000E+00 0. -1.
         23    2    1    2    0    0  0.17131899920E+03  0.27785491630E+03 -0.68034302720E+03  0.76303582947E+03  0.11315250063E+03 0.  0.
        254    2    1    2    0    0 -0.17131899920E+03 -0.27785491630E+03 -0.55856505222E+03  0.11029780653E+04  0.89331525287E+03 0.  0.
        -24    2    4    4    0    0  0.58963426320E+02 -0.39551583947E+03 -0.69031985497E+03  0.80188989101E+03  0.81095192393E+02 0.  0.
         24    2    4    4    0    0 -0.23028242552E+03  0.11766092317E+03  0.13175480275E+03  0.30108817430E+03  0.80129097790E+02 0.  0.
         13    1    3    3    0    0  0.30568719195E+02  0.21906539629E+02 -0.17811956636E+03  0.18204648580E+03  0.00000000000E+00 0.  1.
        -13    1    3    3    0    0  0.14075028000E+03  0.25594837667E+03 -0.50222346084E+03  0.58098934367E+03  0.00000000000E+00 0. -1.
          2    1    6    6  502    0 -0.15782438525E+03  0.59983135075E+02  0.46293674357E+02  0.17507032118E+03  0.00000000000E+00 0. -1.
          3    1    5    5  503    0  0.46615904627E+02 -0.84335607328E+02 -0.17502984617E+03  0.19980236304E+03  0.00000000000E+00 0. -1.
         -2    1    5    5    0  503  0.12347521693E+02 -0.31118023214E+03 -0.51529000880E+03  0.60208752797E+03  0.00000000000E+00 0.  1.
         -3    1    6    6    0  502 -0.72458040270E+02  0.57677788096E+02  0.85461128392E+02  0.12601785312E+03  0.00000000000E+00 0.  1.
<mgrwt>
<rscale>  0 0.13953905E+04</rscale>
<asrwt>0</asrwt>
<pdfrwt beam="1">  1        1 0.23884015E+00 0.13953905E+04</pdfrwt>
<pdfrwt beam="2">  1       -1 0.48238910E-01 0.13953905E+04</pdfrwt>
<totfact> 0.25217981E+01</totfact>
</mgrwt>
</event>
<event>
12    1  0.1467288E-007  0.1728076E+04  0.7818608E-02  0.8745512E-01
          1   -1    0    0  501    0  0.00000000000E+00  0.00000000000E+00  0.11459282373E+04  0.11459282373E+04  0.00000000000E+00 0. -1.
         -1   -1    0    0    0  501 -0.00000000000E+00 -0.00000000000E+00 -0.65149045856E+03  0.65149045856E+03  0.00000000000E+00 0.  1.
         23    2    1    2    0    0 -0.11761067668E+03  0.46395503145E+03 -0.23561618790E+03  0.54443095792E+03  0.10864408619E+03 0.  0.
        254    2    1    2    0    0  0.11761067668E+03 -0.46395503145E+03  0.73005396666E+03  0.12529877380E+04  0.89883977147E+03 0.  0.
        -24    2    4    4    0    0 -0.20839640451E+03 -0.52256845780E+02 -0.11350201123E+03  0.25616624811E+03  0.81108573995E+02 0.  0.
         24    2    4    4    0    0  0.32600708119E+03 -0.41169818567E+03  0.84355597789E+03  0.99682148985E+03  0.79311926748E+02 0.  0.
         11    1    3    3    0    0 -0.56973256691E+02  0.20746228830E+03 -0.46694601119E+02  0.22015208111E+03  0.00000000000E+00 0.  1.
        -11    1    3    3    0    0 -0.60637419991E+02  0.25649274315E+03 -0.18892158678E+03  0.32427887680E+03  0.00000000000E+00 0. -1.
          4    1    6    6  502    0  0.32358925980E+02 -0.34613724600E+02  0.12650969882E+03  0.13509224225E+03  0.00000000000E+00 0. -1.
          3    1    5    5  503    0 -0.10493077750E+03 -0.34286332753E+01 -0.16714160273E+02  0.10630892129E+03  0.00000000000E+00 0. -1.
         -4    1    5    5    0  503 -0.10346562701E+03 -0.48828212504E+02 -0.96787850954E+02  0.14985732682E+03  0.00000000000E+00 0.  1.
         -3    1    6    6    0  502  0.29364815521E+03 -0.37708446107E+03  0.71704627907E+03  0.86172924760E+03  0.00000000000E+00 0.  1.
<mgrwt>
<rscale>  0 0.17280756E+04</rscale>
<asrwt>0</asrwt>
<pdfrwt beam="1">  1        1 0.17629665E+00 0.17280756E+04</pdfrwt>
<pdfrwt beam="2">  1       -1 0.10022930E+00 0.17280756E+04</pdfrwt>
<totfact> 0.10545240E+01</totfact>
</mgrwt>
</event>
<event>
12    1  0.1467288E-007  0.2265350E+04  0.7818608E-02  0.8491710E-01
          1   -1    0    0  501    0  0.00000000000E+00  0.00000000000E+00  0.20813743791E+04  0.20813743791E+04  0.00000000000E+00 0. -1.
         -1   -1    0    0    0  501 -0.00000000000E+00 -0.00000000000E+00 -0.61639681932E+03  0.61639681932E+03  0.00000000000E+00 0.  1.
         23    2    1    2    0    0  0.73282104702E+03  0.28850307805E+03  0.12354270039E+04  0.14678820193E+04  0.90205475082E+02 0.  0.
        254    2    1    2    0    0 -0.73282104702E+03 -0.28850307805E+03  0.22955055595E+03  0.12298891791E+04  0.91633684976E+03 0.  0.
        -24    2    4    4    0    0 -0.24780808849E+03 -0.96189120282E+02  0.54791970914E+03  0.61405775326E+03  0.78674780523E+02 0.  0.
         24    2    4    4    0    0 -0.48501295853E+03 -0.19231395777E+03 -0.31836915319E+03  0.61583142588E+03  0.75280801730E+02 0.  0.
         11    1    3    3    0    0  0.33148491627E+03  0.96481227467E+02  0.48174960374E+03  0.59268335363E+03  0.00000000000E+00 0.  1.
        -11    1    3    3    0    0  0.40133613075E+03  0.19202185058E+03  0.75367740013E+03  0.87519866568E+03  0.00000000000E+00 0. -1.
          4    1    6    6  502    0 -0.88621820749E+02 -0.60867666283E+02 -0.44103948960E+02  0.11620610236E+03  0.00000000000E+00 0. -1.
          1    1    5    5  503    0  0.23527765777E+01  0.55900124162E+01  0.58084708031E+01  0.83977455015E+01  0.00000000000E+00 0. -1.
         -2    1    5    5    0  503 -0.25016086507E+03 -0.10177913270E+03  0.54211123833E+03  0.60566000775E+03  0.00000000000E+00 0.  1.
         -3    1    6    6    0  502 -0.39639113778E+03 -0.13144629149E+03 -0.27426520423E+03  0.49962532352E+03  0.00000000000E+00 0.  1.
<mgrwt>
<rscale>  0 0.22653499E+04</rscale>
<asrwt>0</asrwt>
<pdfrwt beam="1">  1        1 0.32021144E+00 0.22653499E+04</pdfrwt>
<pdfrwt beam="2">  1       -1 0.94830281E-01 0.22653499E+04</pdfrwt>
<totfact> 0.25568410E+00</totfact>
</mgrwt>
</event>
<event>
12    1  0.1467288E-007  0.1187990E+04  0.7818608E-02  0.9123434E-01
          3   -1    0    0  501    0  0.00000000000E+00  0.00000000000E+00  0.42026619822E+03  0.42026619822E+03  0.00000000000E+00 0. -1.
         -3   -1    0    0    0  501 -0.00000000000E+00 -0.00000000000E+00 -0.83953948119E+03  0.83953948119E+03  0.00000000000E+00 0.  1.
         23    2    1    2    0    0 -0.47427903901E+02 -0.22528149421E+03 -0.14764062040E+03  0.28814690769E+03  0.90717858890E+02 0.  0.
        254    2    1    2    0    0  0.47427903901E+02  0.22528149421E+03 -0.27163266257E+03  0.97165877171E+03  0.90406598629E+03 0.  0.
        -24    2    4    4    0    0  0.29133101132E+03  0.47050845907E+03 -0.68293534887E+02  0.56307614435E+03  0.78350298080E+02 0.  0.
         24    2    4    4    0    0 -0.24390310742E+03 -0.24522696487E+03 -0.20333912769E+03  0.40858262736E+03  0.77252653194E+02 0.  0.
         13    1    3    3    0    0 -0.71683390671E+02 -0.15310358465E+03 -0.11925350034E+03  0.20688309131E+03  0.00000000000E+00 0.  1.
        -13    1    3    3    0    0  0.24255486770E+02 -0.72177909560E+02 -0.28387120059E+02  0.81263816377E+02  0.00000000000E+00 0. -1.
          4    1    6    6  502    0 -0.49314880275E+01 -0.86204177978E+01  0.68005619021E+01  0.12036561775E+02  0.00000000000E+00 0. -1.
          1    1    5    5  503    0  0.85651110387E+02  0.82455464888E+02 -0.27227924285E+02  0.12196875117E+03  0.00000000000E+00 0. -1.
         -2    1    5    5    0  503  0.20567990094E+03  0.38805299419E+03 -0.41065610601E+02  0.44110739318E+03  0.00000000000E+00 0.  1.
         -3    1    6    6    0  502 -0.23897161939E+03 -0.23660654707E+03 -0.21013968959E+03  0.39654606559E+03  0.00000000000E+00 0.  1.
<mgrwt>
<rscale>  0 0.11879900E+04</rscale>
<asrwt>0</asrwt>
<pdfrwt beam="1">  1        3 0.64656339E-01 0.11879900E+04</pdfrwt>
<pdfrwt beam="2">  1       -3 0.12915992E+00 0.11879900E+04</pdfrwt>
<totfact> 0.28273552E+00</totfact>
</mgrwt>
</event>
<event>
12    1  0.1467288E-007  0.1528131E+04  0.7818608E-02  0.8865959E-01
         -2   -1    0    0    0  501 -0.00000000000E+00  0.00000000000E+00  0.59470038333E+03  0.59470038333E+03  0.00000000000E+00 0.  1.
          2   -1    0    0  501    0  0.00000000000E+00 -0.00000000000E+00 -0.98166440366E+03  0.98166440366E+03  0.00000000000E+00 0. -1.
         23    2    1    2    0    0  0.32388254628E+03 -0.24906915112E+03  0.15232934347E+03  0.44510606701E+03  0.89329928809E+02 0.  0.
        254    2    1    2    0    0 -0.32388254628E+03  0.24906915112E+03 -0.53929336380E+03  0.11312587200E+04  0.90662760463E+03 0.  0.
        -24    2    4    4    0    0  0.14423698079E+03  0.42172972063E+03 -0.40892633979E+03  0.60997558879E+03  0.78671492009E+02 0.  0.
         24    2    4    4    0    0 -0.46811952707E+03 -0.17266056951E+03 -0.13036702401E+03  0.52128313119E+03  0.76111615588E+02 0.  0.
         11    1    3    3    0    0  0.19011251415E+03 -0.18337094867E+03  0.13005571213E+03  0.29441834371E+03  0.00000000000E+00 0.  1.
        -11    1    3    3    0    0  0.13377003213E+03 -0.65698202451E+02  0.22273631337E+02  0.15068772330E+03  0.00000000000E+00 0. -1.
          2    1    6    6  502    0 -0.23419282881E+03 -0.11243618365E+03 -0.37433830472E+02  0.26246803257E+03  0.00000000000E+00 0. -1.
          1    1    5    5  503    0  0.23844704527E+02  0.18001225100E+03 -0.14493446829E+03  0.23233376970E+03  0.00000000000E+00 0. -1.
         -2    1    5    5    0  503  0.12039227626E+03  0.24171746963E+03 -0.26399187150E+03  0.37764181909E+03  0.00000000000E+00 0.  1.
         -1    1    6    6    0  502 -0.23392669826E+03 -0.60224385863E+02 -0.92933193535E+02  0.25881509862E+03  0.00000000000E+00 0.  1.
<mgrwt>
<rscale>  0 0.15281311E+04</rscale>
<asrwt>0</asrwt>
<pdfrwt beam="1">  1        2 0.15102529E+00 0.15281311E+04</pdfrwt>
<pdfrwt beam="2">  1       -2 0.91492367E-01 0.15281311E+04</pdfrwt>
<totfact> 0.25396469E+01</totfact>
</mgrwt>
</event>
<event>
12    1  0.1467288E-007  0.2018399E+04  0.7818608E-02  0.8598066E-01
          2   -1    0    0  501    0  0.00000000000E+00  0.00000000000E+00  0.35321978265E+04  0.35321978265E+04  0.00000000000E+00 0. -1.
         -2   -1    0    0    0  501 -0.00000000000E+00 -0.00000000000E+00 -0.28834280756E+03  0.28834280756E+03  0.00000000000E+00 0.  1.
         23    2    1    2    0    0 -0.22964270037E+03  0.63676292539E+03  0.47668341623E+03  0.83386734012E+03  0.99523206470E+02 0.  0.
        254    2    1    2    0    0  0.22964270037E+03 -0.63676292539E+03  0.27671716027E+04  0.29866732940E+04  0.89709302352E+03 0.  0.
        -24    2    4    4    0    0  0.11234417300E+03 -0.47130428307E+03  0.47367426241E+03  0.68276999173E+03  0.84015559766E+02 0.  0.
         24    2    4    4    0    0  0.11729852736E+03 -0.16545864232E+03  0.22934973403E+04  0.23039033022E+04  0.81883265029E+02 0.  0.
         11    1    3    3    0    0  0.24618604263E+01  0.13983292535E+02 -0.26244411634E+01  0.14438868318E+02  0.00000000000E+00 0. -1.
        -11    1    3    3    0    0 -0.23210456079E+03  0.62277963286E+03  0.47930785739E+03  0.81942847180E+03  0.00000000000E+00 0.  1.
          2    1    6    6  502    0  0.12750207444E+03 -0.15208786914E+03  0.19706979542E+04  0.19806660308E+04  0.00000000000E+00 0. -1.
          1    1    5    5  503    0  0.64200225779E+02 -0.38024872932E+03  0.34073461644E+03  0.51459774968E+03  0.00000000000E+00 0. -1.
         -2    1    5    5    0  503  0.48143947223E+02 -0.91055553758E+02  0.13293964597E+03  0.16817224204E+03  0.00000000000E+00 0.  1.
         -1    1    6    6    0  502 -0.10203547079E+02 -0.13370773180E+02  0.32279938610E+03  0.32323727139E+03  0.00000000000E+00 0.  1.
<mgrwt>
<rscale>  0 0.20183992E+04</rscale>
<asrwt>0</asrwt>
<pdfrwt beam="1">  1        2 0.54341502E+00 0.20183992E+04</pdfrwt>
<pdfrwt beam="2">  1       -2 0.44360434E-01 0.20183992E+04</pdfrwt>
<totfact> 0.34695302E+00</totfact>
</mgrwt>
</event>
<event>
12    1  0.1467288E-007  0.2504424E+04  0.7818608E-02  0.8401411E-01
         -1   -1    0    0    0  501 -0.00000000000E+00  0.00000000000E+00  0.84773532126E+03  0.84773532126E+03  0.00000000000E+00 0.  1.
          1   -1    0    0  501    0  0.00000000000E+00 -0.00000000000E+00 -0.18496751554E+04  0.18496751554E+04  0.00000000000E+00 0. -1.
         23    2    1    2    0    0 -0.93516675481E+03 -0.32801173600E+03 -0.92273004061E+03  0.13571943232E+04  0.91744998357E+02 0.  0.
        254    2    1    2    0    0  0.93516675481E+03  0.32801173600E+03 -0.79209793518E+02  0.13402161535E+04  0.89876392253E+03 0.  0.
        -24    2    4    4    0    0 -0.11833560465E+03  0.31461731957E+02  0.16010039991E+03  0.21705193721E+03  0.80537255271E+02 0.  0.
         24    2    4    4    0    0  0.10535023595E+04  0.29655000404E+03 -0.23931019343E+03  0.11231642163E+04  0.80120919758E+02 0.  0.
         11    1    3    3    0    0 -0.69172905869E+03 -0.28006167246E+03 -0.71669461616E+03  0.10346858479E+04  0.00000000000E+00 0. -1.
        -11    1    3    3    0    0 -0.24343769612E+03 -0.47950063535E+02 -0.20603542445E+03  0.32250847526E+03  0.00000000000E+00 0.  1.
          2    1    6    6  502    0  0.93460946768E+03  0.24022025748E+03 -0.19630611220E+03  0.98475211037E+03  0.00000000000E+00 0. -1.
          1    1    5    5  503    0 -0.80467643352E+02  0.18331519411E+02  0.42541622593E+02  0.92848671953E+02  0.00000000000E+00 0. -1.
         -2    1    5    5    0  503 -0.37867961298E+02  0.13130212546E+02  0.11755877732E+03  0.12420326525E+03  0.00000000000E+00 0.  1.
         -1    1    6    6    0  502  0.11889289178E+03  0.56329746556E+02 -0.43004081232E+02  0.13841210592E+03  0.00000000000E+00 0.  1.
<mgrwt>
<rscale>  0 0.25044241E+04</rscale>
<asrwt>0</asrwt>
<pdfrwt beam="1">  1        1 0.28456541E+00 0.25044241E+04</pdfrwt>
<pdfrwt beam="2">  1       -1 0.13042082E+00 0.25044241E+04</pdfrwt>
<totfact> 0.16836134E+00</totfact>
</mgrwt>
</event>
<event>
12    1  0.1467288E-007  0.1854790E+04  0.7818608E-02  0.8677693E-01
         -2   -1    0    0    0  501 -0.00000000000E+00  0.00000000000E+00  0.48696443185E+03  0.48696443185E+03  0.00000000000E+00 0.  1.
          2   -1    0    0  501    0  0.00000000000E+00 -0.00000000000E+00 -0.17661691714E+04  0.17661691714E+04  0.00000000000E+00 0. -1.
         23    2    1    2    0    0  0.19098866792E+03  0.53352461919E+03  0.20499768960E+02  0.57496888877E+03  0.95098853685E+02 0.  0.
        254    2    1    2    0    0 -0.19098866792E+03 -0.53352461919E+03 -0.12997045085E+04  0.16781647144E+04  0.89770808670E+03 0.  0.
        -24    2    4    4    0    0 -0.95787683345E+02  0.15359764347E+03  0.41668297234E+01  0.19915334920E+03  0.82928750540E+02 0.  0.
         24    2    4    4    0    0 -0.95200984577E+02 -0.68712226265E+03 -0.13038713382E+04  0.14790113653E+04  0.78701465618E+02 0.  0.
         11    1    3    3    0    0 -0.28541078908E+01  0.95486291459E+02  0.65621136480E+01  0.95754055392E+02  0.00000000000E+00 0. -1.
        -11    1    3    3    0    0  0.19384277581E+03  0.43803832773E+03  0.13937655312E+02  0.47921483338E+03  0.00000000000E+00 0.  1.
          2    1    6    6  502    0 -0.84835506237E+02 -0.50564577759E+03 -0.10258635489E+04  0.11468525347E+04  0.00000000000E+00 0. -1.
          1    1    5    5  503    0 -0.95484177782E+02  0.12451657524E+03  0.30582017079E+02  0.15986514782E+03  0.00000000000E+00 0. -1.
         -2    1    5    5    0  503 -0.30350556324E+00  0.29081068224E+02 -0.26415187355E+02  0.39288201380E+02  0.00000000000E+00 0.  1.
         -1    1    6    6    0  502 -0.10365478340E+02 -0.18147648506E+03 -0.27800778933E+03  0.33215883053E+03  0.00000000000E+00 0.  1.
<mgrwt>
<rscale>  0 0.18547901E+04</rscale>
<asrwt>0</asrwt>
<pdfrwt beam="1">  1        2 0.27171833E+00 0.18547901E+04</pdfrwt>
<pdfrwt beam="2">  1       -2 0.74917605E-01 0.18547901E+04</pdfrwt>
<totfact> 0.13555364E+01</totfact>
</mgrwt>
</event>
<event>
12    1  0.1467288E-007  0.2982819E+04  0.7818608E-02  0.8248654E-01
         -2   -1    0    0    0  501 -0.00000000000E+00  0.00000000000E+00  0.18919657609E+04  0.18919657609E+04  0.00000000000E+00 0. -1.
          2   -1    0    0  501    0  0.00000000000E+00 -0.00000000000E+00 -0.11756564186E+04  0.11756564186E+04  0.00000000000E+00 0.  1.
         23    2    1    2    0    0  0.69751340765E+03 -0.11568239049E+04  0.22006341356E+03  0.13717039426E+04  0.91527588031E+02 0.  0.
        254    2    1    2    0    0 -0.69751340765E+03  0.11568239049E+04  0.49624592880E+03  0.16959182369E+04  0.89728041516E+03 0.  0.
        -24    2    4    4    0    0 -0.46417976470E+02 -0.70794446364E+02  0.25818932057E+03  0.28385536947E+03  0.82131987353E+02 0.  0.
         24    2    4    4    0    0 -0.65109543118E+03  0.12276183513E+04  0.23805660824E+03  0.14120628674E+04  0.79237086223E+02 0.  0.
         13    1    3    3    0    0  0.68887260141E+03 -0.11549038876E+04  0.22105762547E+03  0.13627967289E+04  0.00000000000E+00 0.  1.
        -13    1    3    3    0    0  0.86408062416E+01 -0.19200173475E+01 -0.99421190607E+00  0.89072137301E+01  0.00000000000E+00 0. -1.
          4    1    6    6  502    0 -0.60077721598E+03  0.10936257180E+04  0.22924974142E+03  0.12686630436E+04  0.00000000000E+00 0. -1.
          1    1    5    5  503    0 -0.67195179713E+02 -0.66327281327E+02  0.18583597416E+03  0.20844545982E+03  0.00000000000E+00 0. -1.
         -2    1    5    5    0  503  0.20777203243E+02 -0.44671650366E+01  0.72353346405E+02  0.75409909654E+02  0.00000000000E+00 0.  1.
         -3    1    6    6    0  502 -0.50318215202E+02  0.13399263325E+03  0.88068668179E+01  0.14339982374E+03  0.00000000000E+00 0.  1.
<mgrwt>
<rscale>  0 0.29828186E+04</rscale>
<asrwt>0</asrwt>
<pdfrwt beam="1">  1        2 0.18087022E+00 0.29828186E+04</pdfrwt>
<pdfrwt beam="2">  1       -2 0.29107166E+00 0.29828186E+04</pdfrwt>
<totfact> 0.60520802E-01</totfact>
</mgrwt>
</event>
<event>
12    1  0.1467288E-007  0.1641864E+04  0.7818608E-02  0.8795234E-01
          2   -1    0    0  501    0  0.00000000000E+00  0.00000000000E+00  0.15134266683E+04  0.15134266683E+04  0.00000000000E+00 0. -1.
         -2   -1    0    0    0  501 -0.00000000000E+00 -0.00000000000E+00 -0.44530020675E+03  0.44530020675E+03  0.00000000000E+00 0.  1.
         23    2    1    2    0    0 -0.10039753227E+03 -0.52925516158E+03  0.11413678721E+03  0.55805884907E+03  0.90618884827E+02 0.  0.
        254    2    1    2    0    0  0.10039753227E+03  0.52925516158E+03  0.95398967433E+03  0.14006680260E+04  0.87268776185E+03 0.  0.
        -24    2    4    4    0    0 -0.22894979793E+03  0.60950696149E+03  0.47982085779E+03  0.81255391413E+03  0.78096489856E+02 0.  0.
         24    2    4    4    0    0  0.32934733020E+03 -0.80251799903E+02  0.47416881654E+03  0.58811411183E+03  0.78307896528E+02 0.  0.
         11    1    3    3    0    0 -0.11406911025E+03 -0.50036438779E+03  0.98875857252E+02  0.52264014162E+03  0.00000000000E+00 0.  1.
        -11    1    3    3    0    0  0.13671577977E+02 -0.28890773791E+02  0.15260929962E+02  0.35418707458E+02  0.00000000000E+00 0. -1.
          4    1    6    6  502    0  0.21938343279E+03 -0.72978953838E+02  0.37105652804E+03  0.43719328138E+03  0.00000000000E+00 0. -1.
          1    1    5    5  503    0 -0.10291384518E+03  0.38235769939E+03  0.29265795714E+03  0.49237927423E+03  0.00000000000E+00 0. -1.
         -2    1    5    5    0  503 -0.12603595276E+03  0.22714926209E+03  0.18716290065E+03  0.32017463990E+03  0.00000000000E+00 0.  1.
         -3    1    6    6    0  502  0.10996389741E+03 -0.72728460654E+01  0.10311228850E+03  0.15092083045E+03  0.00000000000E+00 0.  1.
<mgrwt>
<rscale>  0 0.16418638E+04</rscale>
<asrwt>0</asrwt>
<pdfrwt beam="1">  1        2 0.23283487E+00 0.16418638E+04</pdfrwt>
<pdfrwt beam="2">  1       -2 0.68507725E-01 0.16418638E+04</pdfrwt>
<totfact> 0.23229706E+01</totfact>
</mgrwt>
</event>
<event>
12    1  0.1467288E-007  0.1207471E+04  0.7818608E-02  0.9106342E-01
         -2   -1    0    0    0  501 -0.00000000000E+00  0.00000000000E+00  0.76019894797E+03  0.76019894797E+03  0.00000000000E+00 0.  1.
          2   -1    0    0  501    0  0.00000000000E+00 -0.00000000000E+00 -0.47947534451E+03  0.47947534451E+03  0.00000000000E+00 0. -1.
         23    2    1    2    0    0 -0.10470570411E+03  0.21552035093E+03 -0.22165021595E+02  0.25766417020E+03  0.92126165031E+02 0.  0.
        254    2    1    2    0    0  0.10470570411E+03 -0.21552035093E+03  0.30288862506E+03  0.98201012228E+03  0.90287875982E+03 0.  0.
        -24    2    4    4    0    0  0.10811927526E+00 -0.22511981585E+02 -0.31298623475E+03  0.32344926343E+03  0.78436227986E+02 0.  0.
         24    2    4    4    0    0  0.10459758484E+03 -0.19300836935E+03  0.61587485981E+03  0.65856085886E+03  0.78788809342E+02 0.  0.
         11    1    3    3    0    0 -0.33203928571E+02  0.34805462367E+02 -0.39918070475E+02  0.62508986822E+02  0.00000000000E+00 0. -1.
        -11    1    3    3    0    0 -0.71501775541E+02  0.18071488856E+03  0.17753048880E+02  0.19515518338E+03  0.00000000000E+00 0.  1.
          2    1    6    6  502    0  0.10995110489E+03 -0.17808681471E+03  0.60250897150E+03  0.63782538346E+03  0.00000000000E+00 0. -1.
          3    1    5    5  503    0 -0.22341749753E+02 -0.19421225673E+02 -0.28876995816E+03  0.29028335557E+03  0.00000000000E+00 0. -1.
         -4    1    5    5    0  503  0.22449869029E+02 -0.30907559118E+01 -0.24216276598E+02  0.33165907854E+02  0.00000000000E+00 0.  1.
         -1    1    6    6    0  502 -0.53535200566E+01 -0.14921554634E+02  0.13365888308E+02  0.20735475397E+02  0.00000000000E+00 0.  1.
<mgrwt>
<rscale>  0 0.12074712E+04</rscale>
<asrwt>0</asrwt>
<pdfrwt beam="1">  1        2 0.73765438E-01 0.12074712E+04</pdfrwt>
<pdfrwt beam="2">  1       -2 0.11695368E+00 0.12074712E+04</pdfrwt>
<totfact> 0.36069781E+01</totfact>
</mgrwt>
</event>
<event>
12    1  0.1467288E-007  0.1752078E+04  0.7818608E-02  0.8732207E-01
          2   -1    0    0  501    0  0.00000000000E+00  0.00000000000E+00  0.12123234894E+04  0.12123234894E+04  0.00000000000E+00 0.  1.
         -2   -1    0    0    0  501 -0.00000000000E+00 -0.00000000000E+00 -0.63303593751E+03  0.63303593751E+03  0.00000000000E+00 0. -1.
         23    2    1    2    0    0 -0.18653679042E+03 -0.53465221175E+03 -0.10151293789E+03  0.58280818682E+03  0.93335654270E+02 0.  0.
        254    2    1    2    0    0  0.18653679042E+03  0.53465221175E+03  0.68080048976E+03  0.12625512401E+04  0.89994297889E+03 0.  0.
        -24    2    4    4    0    0  0.46153744481E+03  0.12706236222E+03  0.96383345900E+02  0.49442693161E+03  0.77502157892E+02 0.  0.
         24    2    4    4    0    0 -0.27500065439E+03  0.40758984953E+03  0.58441714386E+03  0.76812430847E+03  0.81955535946E+02 0.  0.
         13    1    3    3    0    0 -0.15631901242E+03 -0.37913419027E+03 -0.10857255930E+03  0.42422443177E+03  0.00000000000E+00 0. -1.
        -13    1    3    3    0    0 -0.30217777994E+02 -0.15551802148E+03  0.70596214087E+01  0.15858375505E+03  0.00000000000E+00 0.  1.
          4    1    6    6  502    0 -0.26222384129E+03  0.39514102156E+03  0.58098076056E+03  0.74995760814E+03  0.00000000000E+00 0. -1.
          3    1    5    5  503    0  0.38532125924E+03  0.76339607231E+02  0.87559124032E+02  0.40245100156E+03  0.00000000000E+00 0. -1.
         -4    1    5    5    0  503  0.76216185564E+02  0.50722754993E+02  0.88242218676E+01  0.91975930044E+02  0.00000000000E+00 0.  1.
         -3    1    6    6    0  502 -0.12776813101E+02  0.12448827960E+02  0.34363832947E+01  0.18166700326E+02  0.00000000000E+00 0.  1.
<mgrwt>
<rscale>  0 0.17520780E+04</rscale>
<asrwt>0</asrwt>
<pdfrwt beam="1">  1        2 0.18651131E+00 0.17520780E+04</pdfrwt>
<pdfrwt beam="2">  1       -2 0.97390144E-01 0.17520780E+04</pdfrwt>
<totfact> 0.15519041E+01</totfact>
</mgrwt>
</event>
<event>
12    1  0.1467288E-007  0.2240073E+04  0.7818608E-02  0.8501932E-01
          1   -1    0    0  501    0  0.00000000000E+00  0.00000000000E+00  0.18429477777E+04  0.18429477777E+04  0.00000000000E+00 0. -1.
         -1   -1    0    0    0  501 -0.00000000000E+00 -0.00000000000E+00 -0.68069303399E+03  0.68069303399E+03  0.00000000000E+00 0.  1.
         23    2    1    2    0    0 -0.45446249688E+03 -0.67998915937E+03  0.10045145185E+04  0.12984205502E+04  0.89022970731E+02 0.  0.
        254    2    1    2    0    0  0.45446249688E+03  0.67998915937E+03  0.15774022521E+03  0.12252202615E+04  0.89853285564E+03 0.  0.
        -24    2    4    4    0    0  0.38764782326E+03  0.57418125255E+03 -0.28872564675E+03  0.75441349501E+03  0.76303844565E+02 0.  0.
         24    2    4    4    0    0  0.66814673620E+02  0.10580790682E+03  0.44646587197E+03  0.47080676652E+03  0.81656125373E+02 0.  0.
         11    1    3    3    0    0 -0.23002753196E+03 -0.27481668632E+03  0.40439415337E+03  0.54034387923E+03  0.00000000000E+00 0. -1.
        -11    1    3    3    0    0 -0.22443496492E+03 -0.40517247304E+03  0.60012036514E+03  0.75807667095E+03  0.00000000000E+00 0.  1.
          4    1    6    6  502    0  0.41372291752E+02  0.10988085429E+03  0.40761632115E+03  0.42418926664E+03  0.00000000000E+00 0. -1.
          1    1    5    5  503    0  0.28327666742E+03  0.41122268100E+03 -0.17057588155E+03  0.52767972772E+03  0.00000000000E+00 0. -1.
         -2    1    5    5    0  503  0.10437115584E+03  0.16295857154E+03 -0.11814976520E+03  0.22673376729E+03  0.00000000000E+00 0.  1.
         -1    1    6    6    0  502  0.25442381869E+02 -0.40729474670E+01  0.38849550811E+02  0.46617499874E+02  0.00000000000E+00 0.  1.
<mgrwt>
<rscale>  0 0.22400730E+04</rscale>
<asrwt>0</asrwt>
<pdfrwt beam="1">  1        1 0.28353043E+00 0.22400730E+04</pdfrwt>
<pdfrwt beam="2">  1       -1 0.10472201E+00 0.22400730E+04</pdfrwt>
<totfact> 0.29642923E+00</totfact>
</mgrwt>
</event>
<event>
12    1  0.1467288E-007  0.1752482E+04  0.7818608E-02  0.8731986E-01
          1   -1    0    0  501    0  0.00000000000E+00  0.00000000000E+00  0.22550140317E+04  0.22550140317E+04  0.00000000000E+00 0. -1.
         -1   -1    0    0    0  501 -0.00000000000E+00 -0.00000000000E+00 -0.34048473421E+03  0.34048473421E+03  0.00000000000E+00 0.  1.
         23    2    1    2    0    0 -0.26896613272E+03  0.46814270971E+03  0.12100114456E+04  0.13283037596E+04  0.93609840477E+02 0.  0.
        254    2    1    2    0    0  0.26896613272E+03 -0.46814270971E+03  0.70451785191E+03  0.12671950063E+04  0.90439891809E+03 0.  0.
        -24    2    4    4    0    0  0.55557217289E+03 -0.17027054580E+03  0.58813453754E+03  0.83062344796E+03  0.79878532694E+02 0.  0.
         24    2    4    4    0    0 -0.28660604017E+03 -0.29787216392E+03  0.11638331437E+03  0.43657155831E+03  0.78605351999E+02 0.  0.
         13    1    3    3    0    0 -0.26508988512E+03  0.45685491156E+03  0.12043693732E+04  0.13151025225E+04  0.00000000000E+00 0. -1.
        -13    1    3    3    0    0 -0.38762476008E+01  0.11287798156E+02  0.56420723475E+01  0.13201237179E+02  0.00000000000E+00 0.  1.
          2    1    6    6  502    0  0.23687055689E+01 -0.35728745612E+01  0.96074668886E+01  0.10520438143E+02  0.00000000000E+00 0. -1.
          3    1    5    5  503    0  0.12347165163E+03 -0.72657102407E+02  0.13262297371E+03  0.19522591129E+03  0.00000000000E+00 0. -1.
         -2    1    5    5    0  503  0.43210052126E+03 -0.97613443391E+02  0.45551156384E+03  0.63539753666E+03  0.00000000000E+00 0.  1.
         -1    1    6    6    0  502 -0.28897474574E+03 -0.29429928935E+03  0.10677584748E+03  0.42605112017E+03  0.00000000000E+00 0.  1.
<mgrwt>
<rscale>  0 0.17524815E+04</rscale>
<asrwt>0</asrwt>
<pdfrwt beam="1">  1        1 0.34692523E+00 0.17524815E+04</pdfrwt>
<pdfrwt beam="2">  1       -1 0.52382268E-01 0.17524815E+04</pdfrwt>
<totfact> 0.69541468E+00</totfact>
</mgrwt>
</event>
<event>
12    1  0.1467288E-007  0.2217853E+04  0.7818608E-02  0.8511034E-01
          2   -1    0    0  501    0  0.00000000000E+00  0.00000000000E+00  0.29896242424E+04  0.29896242424E+04  0.00000000000E+00 0.  1.
         -2   -1    0    0    0  501 -0.00000000000E+00 -0.00000000000E+00 -0.41132877026E+03  0.41132877026E+03  0.00000000000E+00 0. -1.
         23    2    1    2    0    0 -0.30666765315E+03 -0.42302348290E+03 -0.86540773256E+02  0.53898619879E+03  0.10011443690E+03 0.  0.
        254    2    1    2    0    0  0.30666765315E+03  0.42302348290E+03  0.26648362454E+04  0.28619668139E+04  0.90360827376E+03 0.  0.
        -24    2    4    4    0    0 -0.10327021202E+03  0.42365158907E+03  0.21686450639E+04  0.22134688153E+04  0.79229902784E+02 0.  0.
         24    2    4    4    0    0  0.40993786516E+03 -0.62810616738E+00  0.49619118156E+03  0.64849799865E+03  0.79337997094E+02 0.  0.
         11    1    3    3    0    0 -0.13561907653E+03 -0.27147801011E+03 -0.49089160954E+02  0.30741273496E+03  0.00000000000E+00 0. -1.
        -11    1    3    3    0    0 -0.17104857661E+03 -0.15154547279E+03 -0.37451612302E+02  0.23157346383E+03  0.00000000000E+00 0.  1.
          4    1    6    6  502    0  0.22453171781E+03 -0.33826691545E+02  0.23845080261E+03  0.32926816219E+03  0.00000000000E+00 0. -1.
          3    1    5    5  503    0 -0.20104572783E+02  0.17572396395E+03  0.10393135611E+04  0.10542560332E+04  0.00000000000E+00 0. -1.
         -4    1    5    5    0  503 -0.83165639232E+02  0.24792762511E+03  0.11293315028E+04  0.11592127821E+04  0.00000000000E+00 0.  1.
         -3    1    6    6    0  502  0.18540614735E+03  0.33198585378E+02  0.25774037895E+03  0.31922983646E+03  0.00000000000E+00 0.  1.
<mgrwt>
<rscale>  0 0.22178534E+04</rscale>
<asrwt>0</asrwt>
<pdfrwt beam="1">  1        2 0.45994218E+00 0.22178534E+04</pdfrwt>
<pdfrwt beam="2">  1       -2 0.63281351E-01 0.22178534E+04</pdfrwt>
<totfact> 0.37343309E+00</totfact>
</mgrwt>
</event>
<event>
12    1  0.1467288E-007  0.2258404E+04  0.7818608E-02  0.8494505E-01
          1   -1    0    0  501    0  0.00000000000E+00  0.00000000000E+00  0.13614330470E+04  0.13614330470E+04  0.00000000000E+00 0. -1.
         -1   -1    0    0    0  501 -0.00000000000E+00 -0.00000000000E+00 -0.93658485772E+03  0.93658485772E+03  0.00000000000E+00 0.  1.
         23    2    1    2    0    0 -0.63660669729E+03  0.23210705331E+03  0.84987384437E+03  0.10903046165E+04  0.85655321717E+02 0.  0.
        254    2    1    2    0    0  0.63660669729E+03 -0.23210705331E+03 -0.42502565504E+03  0.12077132883E+04  0.90486618238E+03 0.  0.
        -24    2    4    4    0    0 -0.21258212170E+03 -0.11842445755E+03 -0.18023282541E+03  0.31312168904E+03  0.79660593622E+02 0.  0.
         24    2    4    4    0    0  0.84918881899E+03 -0.11368259575E+03 -0.24479282963E+03  0.89459159924E+03  0.79531233571E+02 0.  0.
         11    1    3    3    0    0 -0.76607130492E+02  0.15833827145E+02  0.62152193845E+02  0.99911249237E+02  0.00000000000E+00 0.  1.
        -11    1    3    3    0    0 -0.55999956680E+03  0.21627322616E+03  0.78772165053E+03  0.99039336724E+03  0.00000000000E+00 0. -1.
          2    1    6    6  502    0  0.75552329561E+03 -0.77142181762E+02 -0.20671271500E+03  0.78708100788E+03  0.00000000000E+00 0. -1.
          1    1    5    5  503    0 -0.20167006876E+03 -0.10333493457E+03 -0.13394926378E+03  0.26323246494E+03  0.00000000000E+00 0. -1.
         -2    1    5    5    0  503 -0.10912052948E+02 -0.15089522988E+02 -0.46283561630E+02  0.49889224094E+02  0.00000000000E+00 0.  1.
         -1    1    6    6    0  502  0.93665523385E+02 -0.36540413991E+02 -0.38080114634E+02  0.10751059137E+03  0.00000000000E+00 0.  1.
<mgrwt>
<rscale>  0 0.22584044E+04</rscale>
<asrwt>0</asrwt>
<pdfrwt beam="1">  1        1 0.20945124E+00 0.22584044E+04</pdfrwt>
<pdfrwt beam="2">  1       -1 0.14408998E+00 0.22584044E+04</pdfrwt>
<totfact> 0.28829723E+00</totfact>
</mgrwt>
</event>
<event>
12    1  0.1467288E-007  0.2447486E+04  0.7818608E-02  0.8421936E-01
          2   -1    0    0  501    0  0.00000000000E+00  0.00000000000E+00  0.22496313950E+04  0.22496313950E+04  0.00000000000E+00 0. -1.
         -2   -1    0    0    0  501 -0.00000000000E+00 -0.00000000000E+00 -0.66568546120E+03  0.66568546120E+03  0.00000000000E+00 0.  1.
         23    2    1    2    0    0  0.50332762853E+03 -0.35550210887E+03  0.17161738746E+04  0.18256729512E+04  0.90047241513E+02 0.  0.
        254    2    1    2    0    0 -0.50332762853E+03  0.35550210887E+03 -0.13222794078E+03  0.10896439051E+04  0.88888647220E+03 0.  0.
        -24    2    4    4    0    0 -0.43648228792E+02  0.40528967562E+03  0.24957457315E+03  0.48516434518E+03  0.83259144978E+02 0.  0.
         24    2    4    4    0    0 -0.45967939974E+03 -0.49787566757E+02 -0.38180251394E+03  0.60447955988E+03  0.76409595727E+02 0.  0.
         13    1    3    3    0    0  0.10184070702E+03 -0.56443327507E+02  0.43050006581E+03  0.44596825615E+03  0.00000000000E+00 0.  1.
        -13    1    3    3    0    0  0.40148692150E+03 -0.29905878136E+03  0.12856738088E+04  0.13797046950E+04  0.00000000000E+00 0. -1.
          2    1    6    6  502    0 -0.96998543518E+02  0.18566387097E+02 -0.95523370816E+02  0.13739775306E+03  0.00000000000E+00 0. -1.
          3    1    5    5  503    0  0.12920298138E+01  0.12004577843E+03  0.11623619872E+03  0.16710329785E+03  0.00000000000E+00 0. -1.
         -4    1    5    5    0  503 -0.44940258606E+02  0.28524389719E+03  0.13333837443E+03  0.31806104733E+03  0.00000000000E+00 0.  1.
         -3    1    6    6    0  502 -0.36268085622E+03 -0.68353953854E+02 -0.28627914312E+03  0.46708180682E+03  0.00000000000E+00 0.  1.
<mgrwt>
<rscale>  0 0.24474860E+04</rscale>
<asrwt>0</asrwt>
<pdfrwt beam="1">  1        2 0.34609713E+00 0.24474860E+04</pdfrwt>
<pdfrwt beam="2">  1       -2 0.10241315E+00 0.24474860E+04</pdfrwt>
<totfact> 0.33837257E+00</totfact>
</mgrwt>
</event>
<event>
12    1  0.1554559E-007  0.1459283E+04  0.7818608E-02  0.8911990E-01
          1   -1    0    0  501    0  0.00000000000E+00  0.00000000000E+00  0.14560774273E+04  0.14560774273E+04  0.00000000000E+00 0. -1.
         -1   -1    0    0    0  501 -0.00000000000E+00 -0.00000000000E+00 -0.36562385695E+03  0.36562385695E+03  0.00000000000E+00 0.  1.
         23    2    1    2    0    0 -0.10860504669E+03  0.33491623362E+03 -0.14284230579E+01  0.36308624857E+03  0.88688464879E+02 0.  0.
        254    2    1    2    0    0  0.10860504669E+03 -0.33491623362E+03  0.10918819934E+04  0.14586150357E+04  0.90077055629E+03 0.  0.
        -24    2    4    4    0    0 -0.34320950075E+03  0.64956584760E+02  0.39523484193E+03  0.53347542613E+03  0.79833142909E+02 0.  0.
         24    2    4    4    0    0  0.45181454744E+03 -0.39987281838E+03  0.69664715148E+03  0.92513960955E+03  0.80816999047E+02 0.  0.
         11    1    3    3    0    0 -0.57344485831E+01 -0.50402369424E+01 -0.20527474537E+01  0.79057992067E+01  0.00000000000E+00 0. -1.
        -11    1    3    3    0    0 -0.10287059810E+03  0.33995647056E+03  0.62432439586E+00  0.35518044936E+03  0.00000000000E+00 0.  1.
          4    1    6    6  502    0 -0.34099001123E+01 -0.13799830343E+01  0.53089084165E+01  0.64588141733E+01  0.00000000000E+00 0. -1.
          3    1    5    5  503    0 -0.53824908219E+02  0.35449758535E+02  0.10034857210E+03  0.11926291145E+03  0.00000000000E+00 0. -1.
         -4    1    5    5    0  503 -0.28938459253E+03  0.29506826225E+02  0.29488626983E+03  0.41421251468E+03  0.00000000000E+00 0.  1.
         -3    1    6    6    0  502  0.45522444755E+03 -0.39849283534E+03  0.69133824306E+03  0.91868079537E+03  0.00000000000E+00 0.  1.
<mgrwt>
<rscale>  0 0.14592829E+04</rscale>
<asrwt>0</asrwt>
<pdfrwt beam="1">  1        1 0.22401191E+00 0.14592829E+04</pdfrwt>
<pdfrwt beam="2">  1       -1 0.56249825E-01 0.14592829E+04</pdfrwt>
<totfact> 0.21781900E+01</totfact>
</mgrwt>
</event>
<event>
12    1  0.1467288E-007  0.1268548E+04  0.7818608E-02  0.9054886E-01
         -3   -1    0    0    0  501 -0.00000000000E+00  0.00000000000E+00  0.68631100378E+03  0.68631100378E+03  0.00000000000E+00 0.  1.
          3   -1    0    0  501    0  0.00000000000E+00 -0.00000000000E+00 -0.58618219543E+03  0.58618219543E+03  0.00000000000E+00 0. -1.
         23    2    1    2    0    0  0.26960483542E+03 -0.19572082376E+02  0.98939520820E+02  0.30202001343E+03  0.91417864980E+02 0.  0.
        254    2    1    2    0    0 -0.26960483542E+03  0.19572082376E+02  0.11892875295E+01  0.97047318578E+03  0.93206596131E+03 0.  0.
        -24    2    4    4    0    0 -0.96211700428E+02 -0.34044540561E+03 -0.29366037620E+03  0.46737912476E+03  0.83946793929E+02 0.  0.
         24    2    4    4    0    0 -0.17339313500E+03  0.36001748798E+03  0.29484966373E+03  0.50309406102E+03  0.80557675724E+02 0.  0.
         13    1    3    3    0    0  0.10949444328E+03  0.12562606887E+02 -0.16454456077E+01  0.11022504113E+03  0.00000000000E+00 0. -1.
        -13    1    3    3    0    0  0.16011039214E+03 -0.32134689262E+02  0.10058496643E+03  0.19179497229E+03  0.00000000000E+00 0.  1.
          4    1    6    6  502    0 -0.10380323794E+03  0.20430867198E+03  0.11938541249E+03  0.25839895969E+03  0.00000000000E+00 0. -1.
          3    1    5    5  503    0  0.64799195745E+00 -0.14143705428E+03 -0.99193096853E+02  0.17275453881E+03  0.00000000000E+00 0. -1.
         -4    1    5    5    0  503 -0.96859692385E+02 -0.19900835133E+03 -0.19446727935E+03  0.29462458595E+03  0.00000000000E+00 0.  1.
         -3    1    6    6    0  502 -0.69589897055E+02  0.15570881600E+03  0.17546425125E+03  0.24469510134E+03  0.00000000000E+00 0.  1.
<mgrwt>
<rscale>  0 0.12685477E+04</rscale>
<asrwt>0</asrwt>
<pdfrwt beam="1">  1        3 0.90181876E-01 0.12685477E+04</pdfrwt>
<pdfrwt beam="2">  1       -3 0.10558631E+00 0.12685477E+04</pdfrwt>
<totfact> 0.21979518E+00</totfact>
</mgrwt>
</event>
<event>
12    1  0.1467288E-007  0.2025733E+04  0.7818608E-02  0.8594683E-01
         -2   -1    0    0    0  501 -0.00000000000E+00  0.00000000000E+00  0.63020081992E+03  0.63020081992E+03  0.00000000000E+00 0.  1.
          2   -1    0    0  501    0  0.00000000000E+00 -0.00000000000E+00 -0.16278912402E+04  0.16278912402E+04  0.00000000000E+00 0. -1.
         23    2    1    2    0    0 -0.75505470008E+03 -0.24762060036E+03 -0.56323391604E+03  0.97899637047E+03  0.98883200609E+02 0.  0.
        254    2    1    2    0    0  0.75505470008E+03  0.24762060036E+03 -0.43445650420E+03  0.12790956896E+04  0.90327723723E+03 0.  0.
        -24    2    4    4    0    0  0.81436695350E+03  0.15301999655E+03 -0.99282420306E+01  0.83284953491E+03  0.83253369331E+02 0.  0.
         24    2    4    4    0    0 -0.59312253421E+02  0.94600603803E+02 -0.42452826216E+03  0.44624615470E+03  0.80275572629E+02 0.  0.
         11    1    3    3    0    0 -0.24507507427E+03 -0.10286819410E+03 -0.23992300674E+03  0.35805964105E+03  0.00000000000E+00 0.  1.
        -11    1    3    3    0    0 -0.50997962581E+03 -0.14475240626E+03 -0.32331090930E+03  0.62093672941E+03  0.00000000000E+00 0. -1.
          4    1    6    6  502    0  0.15704504385E+02  0.21133019235E+02 -0.15058373483E+03  0.15286823462E+03  0.00000000000E+00 0. -1.
          3    1    5    5  503    0  0.11743362233E+03  0.36444126739E+02  0.24580502669E+02  0.12539151143E+03  0.00000000000E+00 0. -1.
         -4    1    5    5    0  503  0.69693333118E+03  0.11657586982E+03 -0.34508744700E+02  0.70745802348E+03  0.00000000000E+00 0.  1.
         -3    1    6    6    0  502 -0.75016757806E+02  0.73467584568E+02 -0.27394452733E+03  0.29337792008E+03  0.00000000000E+00 0.  1.
<mgrwt>
<rscale>  0 0.20257328E+04</rscale>
<asrwt>0</asrwt>
<pdfrwt beam="1">  1        2 0.25044480E+00 0.20257328E+04</pdfrwt>
<pdfrwt beam="2">  1       -2 0.96953973E-01 0.20257328E+04</pdfrwt>
<totfact> 0.88633171E+00</totfact>
</mgrwt>
</event>
<event>
12    1  0.1467288E-007  0.2609353E+04  0.7818608E-02  0.8365031E-01
          2   -1    0    0  501    0  0.00000000000E+00  0.00000000000E+00  0.11754573898E+04  0.11754573898E+04  0.00000000000E+00 0. -1.
         -2   -1    0    0    0  501 -0.00000000000E+00 -0.00000000000E+00 -0.14481005448E+04  0.14481005448E+04  0.00000000000E+00 0.  1.
         23    2    1    2    0    0 -0.90589946367E+03  0.56172725973E+03 -0.51376925281E+03  0.11869248948E+04  0.92954333406E+02 0.  0.
        254    2    1    2    0    0  0.90589946367E+03 -0.56172725973E+03  0.24112609790E+03  0.14366330398E+04  0.93251345484E+03 0.  0.
        -24    2    4    4    0    0  0.22723460122E+03  0.10323395361E+03 -0.25254074248E+03  0.36298275233E+03  0.75411131189E+02 0.  0.
         24    2    4    4    0    0  0.67866486245E+03 -0.66496121334E+03  0.49366684038E+03  0.10736502875E+04  0.79111186154E+02 0.  0.
         11    1    3    3    0    0 -0.13015955780E+03  0.87732218644E+02 -0.40907521167E+02  0.16220936460E+03  0.00000000000E+00 0.  1.
        -11    1    3    3    0    0 -0.77573990587E+03  0.47399504109E+03 -0.47286173164E+03  0.10247155302E+04  0.00000000000E+00 0. -1.
          4    1    6    6  502    0  0.58447539457E+03 -0.60763620658E+03  0.44015798868E+03  0.95109005956E+03  0.00000000000E+00 0. -1.
          1    1    5    5  503    0  0.20392567370E+03  0.11538256804E+03 -0.23053539483E+03  0.32870257935E+03  0.00000000000E+00 0. -1.
         -2    1    5    5    0  503  0.23308927520E+02 -0.12148614424E+02 -0.22005347654E+02  0.34280172986E+02  0.00000000000E+00 0.  1.
         -3    1    6    6    0  502  0.94189467887E+02 -0.57325006760E+02  0.53508851708E+02  0.12256022794E+03  0.00000000000E+00 0.  1.
<mgrwt>
<rscale>  0 0.26093528E+04</rscale>
<asrwt>0</asrwt>
<pdfrwt beam="1">  1        2 0.18083960E+00 0.26093528E+04</pdfrwt>
<pdfrwt beam="2">  1       -2 0.22278470E+00 0.26093528E+04</pdfrwt>
<totfact> 0.16436490E+00</totfact>
</mgrwt>
</event>
<event>
12    1  0.1467288E-007  0.1991420E+04  0.7818608E-02  0.8610643E-01
         -1   -1    0    0    0  501 -0.00000000000E+00  0.00000000000E+00  0.35236122784E+03  0.35236122784E+03  0.00000000000E+00 0.  1.
          1   -1    0    0  501    0  0.00000000000E+00 -0.00000000000E+00 -0.28136986693E+04  0.28136986693E+04  0.00000000000E+00 0. -1.
         23    2    1    2    0    0  0.22561985899E+02 -0.39682732518E+03  0.10300598644E+03  0.42049144965E+03  0.90674454879E+02 0.  0.
        254    2    1    2    0    0 -0.22561985899E+02  0.39682732518E+03 -0.25643434279E+04  0.27455684475E+04  0.89683215513E+03 0.  0.
        -24    2    4    4    0    0  0.28778162126E+02  0.66761634728E+03 -0.15155618137E+04  0.16582372010E+04  0.79266852554E+02 0.  0.
         24    2    4    4    0    0 -0.51340148025E+02 -0.27078902210E+03 -0.10487816142E+04  0.10873312465E+04  0.79899061353E+02 0.  0.
         11    1    3    3    0    0 -0.34110342760E+02 -0.14551846824E+03  0.48828459790E+02  0.15723663240E+03  0.00000000000E+00 0. -1.
        -11    1    3    3    0    0  0.56672328659E+02 -0.25130885694E+03  0.54177526652E+02  0.26325481725E+03  0.00000000000E+00 0.  1.
          2    1    6    6  502    0 -0.23445302442E+02 -0.21123293736E+03 -0.67054932909E+03  0.70342408174E+03  0.00000000000E+00 0. -1.
          1    1    5    5  503    0 -0.82951626276E+00  0.57140637469E+03 -0.12574206622E+04  0.13811635149E+04  0.00000000000E+00 0. -1.
         -2    1    5    5    0  503  0.29607678389E+02  0.96209972591E+02 -0.25814115153E+03  0.27707368615E+03  0.00000000000E+00 0.  1.
         -1    1    6    6    0  502 -0.27894845582E+02 -0.59556084746E+02 -0.37823228513E+03  0.38390716476E+03  0.00000000000E+00 0.  1.
<mgrwt>
<rscale>  0 0.19914199E+04</rscale>
<asrwt>0</asrwt>
<pdfrwt beam="1">  1        1 0.43287672E+00 0.19914199E+04</pdfrwt>
<pdfrwt beam="2">  1       -1 0.54209419E-01 0.19914199E+04</pdfrwt>
<totfact> 0.26026944E+00</totfact>
</mgrwt>
</event>
<event>
12    1  0.1467288E-007  0.1610182E+04  0.7818608E-02  0.8814317E-01
         -1   -1    0    0    0  501 -0.00000000000E+00  0.00000000000E+00  0.26171166562E+03  0.26171166562E+03  0.00000000000E+00 0.  1.
          1   -1    0    0  501    0  0.00000000000E+00 -0.00000000000E+00 -0.24766638689E+04  0.24766638689E+04  0.00000000000E+00 0. -1.
         23    2    1    2    0    0  0.28433882437E+03  0.43162847610E+02  0.25070621519E+02  0.30294808324E+03  0.91855357044E+02 0.  0.
        254    2    1    2    0    0 -0.28433882437E+03 -0.43162847610E+02 -0.22400228248E+04  0.24354274513E+04  0.91153333257E+03 0.  0.
        -24    2    4    4    0    0  0.15991219764E+03 -0.88958272579E+01 -0.32676653886E+02  0.18220939971E+03  0.80507483731E+02 0.  0.
         24    2    4    4    0    0 -0.44425102201E+03 -0.34267020352E+02 -0.22073461709E+04  0.22532180516E+04  0.77982500930E+02 0.  0.
         13    1    3    3    0    0  0.15633529374E+03 -0.22415632197E+02  0.83441856891E+01  0.15815438682E+03  0.00000000000E+00 0.  1.
        -13    1    3    3    0    0  0.12800353063E+03  0.65578479807E+02  0.16726435829E+02  0.14479369642E+03  0.00000000000E+00 0. -1.
          4    1    6    6  502    0 -0.27095473179E+03 -0.41221734287E+02 -0.11864262373E+04  0.12176711028E+04  0.00000000000E+00 0. -1.
          1    1    5    5  503    0  0.10407173967E+03 -0.94296387981E+01 -0.59508844111E+02  0.12025451182E+03  0.00000000000E+00 0. -1.
         -2    1    5    5    0  503  0.55840457967E+02  0.53381154022E+00  0.26832190225E+02  0.61954887886E+02  0.00000000000E+00 0.  1.
         -3    1    6    6    0  502 -0.17329629022E+03  0.69547139348E+01 -0.10209199336E+04  0.10355469488E+04  0.00000000000E+00 0.  1.
<mgrwt>
<rscale>  0 0.16101824E+04</rscale>
<asrwt>0</asrwt>
<pdfrwt beam="1">  1        1 0.38102522E+00 0.16101824E+04</pdfrwt>
<pdfrwt beam="2">  1       -1 0.40263332E-01 0.16101824E+04</pdfrwt>
<totfact> 0.81284872E+00</totfact>
</mgrwt>
</event>
<event>
12    1  0.1467288E-007  0.1508457E+04  0.7818608E-02  0.8878848E-01
          2   -1    0    0  501    0  0.00000000000E+00  0.00000000000E+00  0.10052035589E+04  0.10052035589E+04  0.00000000000E+00 0. -1.
         -2   -1    0    0    0  501 -0.00000000000E+00 -0.00000000000E+00 -0.56591606198E+03  0.56591606198E+03  0.00000000000E+00 0.  1.
         23    2    1    2    0    0 -0.12222244790E+03 -0.87752255155E+01  0.62042054160E+03  0.63899181815E+03  0.91507179337E+02 0.  0.
        254    2    1    2    0    0  0.12222244790E+03  0.87752255155E+01 -0.18113304470E+03  0.93212780271E+03  0.90611132282E+03 0.  0.
        -24    2    4    4    0    0  0.38544417046E+03  0.17226935303E+03  0.16465660719E+03  0.46047424948E+03  0.81736146279E+02 0.  0.
         24    2    4    4    0    0 -0.26322172256E+03 -0.16349412751E+03 -0.34578965188E+03  0.47165355323E+03  0.82888997886E+02 0.  0.
         11    1    3    3    0    0 -0.12519155228E+02  0.27320814197E+02  0.63896919932E+02  0.70611419139E+02  0.00000000000E+00 0.  1.
        -11    1    3    3    0    0 -0.10970329267E+03 -0.36096039712E+02  0.55652362167E+03  0.56838039902E+03  0.00000000000E+00 0. -1.
          4    1    6    6  502    0 -0.38908079211E+02 -0.43459231761E+02 -0.28380287118E+02  0.64868976792E+02  0.00000000000E+00 0. -1.
          3    1    5    5  503    0  0.29028868916E+03  0.12772942076E+03  0.84175424107E+02  0.32812776476E+03  0.00000000000E+00 0. -1.
         -4    1    5    5    0  503  0.95155481298E+02  0.44539932268E+02  0.80481183079E+02  0.13234648472E+03  0.00000000000E+00 0.  1.
         -3    1    6    6    0  502 -0.22431364335E+03 -0.12003489575E+03 -0.31740936476E+03  0.40678457644E+03  0.00000000000E+00 0.  1.
<mgrwt>
<rscale>  0 0.15084573E+04</rscale>
<asrwt>0</asrwt>
<pdfrwt beam="1">  1        2 0.15464670E+00 0.15084573E+04</pdfrwt>
<pdfrwt beam="2">  1       -2 0.87064009E-01 0.15084573E+04</pdfrwt>
<totfact> 0.27535167E+01</totfact>
</mgrwt>
</event>
<event>
12    1  0.1467288E-007  0.1571800E+04  0.7818608E-02  0.8838062E-01
          1   -1    0    0  501    0  0.00000000000E+00  0.00000000000E+00  0.13379220758E+04  0.13379220758E+04  0.00000000000E+00 0. -1.
         -1   -1    0    0    0  501 -0.00000000000E+00 -0.00000000000E+00 -0.46164010557E+03  0.46164010557E+03  0.00000000000E+00 0.  1.
         23    2    1    2    0    0  0.26652325693E+03  0.25076018337E+03  0.47083915227E+03  0.60289811860E+03  0.88776787810E+02 0.  0.
        254    2    1    2    0    0 -0.26652325693E+03 -0.25076018337E+03  0.40544281793E+03  0.11966640627E+04  0.10647561619E+04 0.  0.
        -24    2    4    4    0    0  0.17387262321E+03 -0.27228905580E+03  0.61717718266E+03  0.70108566639E+03  0.78996315200E+02 0.  0.
         24    2    4    4    0    0 -0.44039588014E+03  0.21528872428E+02 -0.21173436473E+03  0.49557839634E+03  0.79715005588E+02 0.  0.
         13    1    3    3    0    0  0.26696304649E+03  0.22903963562E+03  0.45859588564E+03  0.57796073327E+03  0.00000000000E+00 0. -1.
        -13    1    3    3    0    0 -0.43978956259E+00  0.21720547750E+02  0.12243266637E+02  0.24937385335E+02  0.00000000000E+00 0.  1.
          2    1    6    6  502    0 -0.37091777466E+03 -0.10010955123E+02 -0.18593763046E+03  0.41503375430E+03  0.00000000000E+00 0. -1.
          1    1    5    5  503    0  0.85745166068E+02 -0.15408172780E+03  0.41452919679E+03  0.45047515729E+03  0.00000000000E+00 0. -1.
         -2    1    5    5    0  503  0.88127457143E+02 -0.11820732800E+03  0.20264798588E+03  0.25061050911E+03  0.00000000000E+00 0.  1.
         -1    1    6    6    0  502 -0.69478105480E+02  0.31539827550E+02 -0.25796734270E+02  0.80544642044E+02  0.00000000000E+00 0.  1.
<mgrwt>
<rscale>  0 0.15717996E+04</rscale>
<asrwt>0</asrwt>
<pdfrwt beam="1">  1        1 0.20583416E+00 0.15717996E+04</pdfrwt>
<pdfrwt beam="2">  1       -1 0.71021555E-01 0.15717996E+04</pdfrwt>
<totfact> 0.16369419E+01</totfact>
</mgrwt>
</event>
<event>
12    1  0.1467288E-007  0.2057549E+04  0.7818608E-02  0.8580177E-01
          2   -1    0    0  501    0  0.00000000000E+00  0.00000000000E+00  0.19194953118E+04  0.19194953118E+04  0.00000000000E+00 0. -1.
         -2   -1    0    0    0  501 -0.00000000000E+00 -0.00000000000E+00 -0.55138295548E+03  0.55138295548E+03  0.00000000000E+00 0.  1.
         23    2    1    2    0    0 -0.12293068104E+03  0.98751501079E+02  0.15358356759E+04  0.15464692868E+04  0.88950662311E+02 0.  0.
        254    2    1    2    0    0  0.12293068104E+03 -0.98751501079E+02 -0.16772331954E+03  0.92440898052E+03  0.89528601019E+03 0.  0.
        -24    2    4    4    0    0  0.22823093111E+03 -0.45821735387E+03 -0.15595546266E+03  0.54095585591E+03  0.79111506151E+02 0.  0.
         24    2    4    4    0    0 -0.10530025007E+03  0.35946585279E+03 -0.11767856884E+02  0.38345312461E+03  0.81203290145E+02 0.  0.
         11    1    3    3    0    0 -0.95047764698E+02  0.72707322756E+02  0.14076051784E+04  0.14126828274E+04  0.00000000000E+00 0. -1.
        -11    1    3    3    0    0 -0.27882916346E+02  0.26044178323E+02  0.12823049747E+03  0.13378645944E+03  0.00000000000E+00 0.  1.
          2    1    6    6  502    0  0.94452340377E+01  0.86310243652E+02  0.21010265871E+01  0.86850935044E+02  0.00000000000E+00 0. -1.
          1    1    5    5  503    0  0.10543580350E+02 -0.86791950085E+02 -0.28879136099E+02  0.92076132564E+02  0.00000000000E+00 0. -1.
         -2    1    5    5    0  503  0.21768735076E+03 -0.37142540379E+03 -0.12707632656E+03  0.44887972335E+03  0.00000000000E+00 0.  1.
         -1    1    6    6    0  502 -0.11474548410E+03  0.27315560914E+03 -0.13868883471E+02  0.29660218957E+03  0.00000000000E+00 0.  1.
<mgrwt>
<rscale>  0 0.20575490E+04</rscale>
<asrwt>0</asrwt>
<pdfrwt beam="1">  1        2 0.29530697E+00 0.20575490E+04</pdfrwt>
<pdfrwt beam="2">  1       -2 0.84828148E-01 0.20575490E+04</pdfrwt>
<totfact> 0.82900099E+00</totfact>
</mgrwt>
</event>
<event>
12    1  0.1467288E-007  0.2032063E+04  0.7818608E-02  0.8591775E-01
         -2   -1    0    0    0  501 -0.00000000000E+00  0.00000000000E+00  0.63043797875E+03  0.63043797875E+03  0.00000000000E+00 0.  1.
          2   -1    0    0  501    0  0.00000000000E+00 -0.00000000000E+00 -0.16374641309E+04  0.16374641309E+04  0.00000000000E+00 0. -1.
         23    2    1    2    0    0  0.23879651399E+03  0.76383052642E+03 -0.39235026031E+03  0.89609209652E+03  0.92636226735E+02 0.  0.
        254    2    1    2    0    0 -0.23879651399E+03 -0.76383052642E+03 -0.61467589180E+03  0.13718100131E+04  0.92928758298E+03 0.  0.
        -24    2    4    4    0    0 -0.15428042458E+02 -0.93221014084E+03 -0.47122303903E+03  0.10474495325E+04  0.76456519391E+02 0.  0.
         24    2    4    4    0    0 -0.22336847153E+03  0.16837961443E+03 -0.14345285276E+03  0.32436048062E+03  0.79911399668E+02 0.  0.
         11    1    3    3    0    0  0.72564131771E+02  0.20498158250E+03 -0.15273089711E+03  0.26572491286E+03  0.00000000000E+00 0. -1.
        -11    1    3    3    0    0  0.16623238222E+03  0.55884894391E+03 -0.23961936320E+03  0.63036718366E+03  0.00000000000E+00 0.  1.
          4    1    6    6  502    0 -0.34796828247E+02  0.61925282795E+02 -0.15051695518E+02  0.72609320636E+02  0.00000000000E+00 0. -1.
          1    1    5    5  503    0  0.17509557383E+02 -0.17431824632E+03 -0.11334517004E+03  0.20866375625E+03  0.00000000000E+00 0. -1.
         -2    1    5    5    0  503 -0.32937599841E+02 -0.75789189452E+03 -0.35787786899E+03  0.83878577621E+03  0.00000000000E+00 0.  1.
         -3    1    6    6    0  502 -0.18857164328E+03  0.10645433163E+03 -0.12840115724E+03  0.25175115999E+03  0.00000000000E+00 0.  1.
<mgrwt>
<rscale>  0 0.20320626E+04</rscale>
<asrwt>0</asrwt>
<pdfrwt beam="1">  1        2 0.25191756E+00 0.20320626E+04</pdfrwt>
<pdfrwt beam="2">  1       -2 0.96990458E-01 0.20320626E+04</pdfrwt>
<totfact> 0.87425892E+00</totfact>
</mgrwt>
</event>
<event>
12    1  0.1467288E-007  0.2406612E+04  0.7818608E-02  0.8437032E-01
          1   -1    0    0  501    0  0.00000000000E+00  0.00000000000E+00  0.21598119499E+04  0.21598119499E+04  0.00000000000E+00 0. -1.
         -1   -1    0    0    0  501 -0.00000000000E+00 -0.00000000000E+00 -0.67040354172E+03  0.67040354172E+03  0.00000000000E+00 0.  1.
         23    2    1    2    0    0  0.98908517168E+03  0.11211248988E+03  0.35326353844E+03  0.10603484043E+04  0.93192938426E+02 0.  0.
        254    2    1    2    0    0 -0.98908517168E+03 -0.11211248988E+03  0.11361448698E+04  0.17698670873E+04  0.92235874498E+03 0.  0.
        -24    2    4    4    0    0 -0.19622170322E+01 -0.18529902790E+03 -0.64095974492E+02  0.21196785320E+03  0.80513954111E+02 0.  0.
         24    2    4    4    0    0 -0.98712295465E+03  0.73186538015E+02  0.12002408442E+04  0.15578992341E+04  0.81877606908E+02 0.  0.
         13    1    3    3    0    0  0.17019291465E+02 -0.10066722655E+02  0.10616544837E+02  0.22443400172E+02  0.00000000000E+00 0. -1.
        -13    1    3    3    0    0  0.97206588021E+03  0.12217921254E+03  0.34264699361E+03  0.10379050042E+04  0.00000000000E+00 0.  1.
          2    1    6    6  502    0 -0.58600622791E+03  0.43558583848E+02  0.64868457343E+03  0.87526700222E+03  0.00000000000E+00 0. -1.
          3    1    5    5  503    0  0.38158668120E+02 -0.80199028461E+02 -0.37262291291E+02  0.96314310832E+02  0.00000000000E+00 0. -1.
         -4    1    5    5    0  503 -0.40120885152E+02 -0.10509999944E+03 -0.26833683201E+02  0.11565354236E+03  0.00000000000E+00 0.  1.
         -1    1    6    6    0  502 -0.40111672674E+03  0.29627954167E+02  0.55155627081E+03  0.68263223189E+03  0.00000000000E+00 0.  1.
<mgrwt>
<rscale>  0 0.24066122E+04</rscale>
<asrwt>0</asrwt>
<pdfrwt beam="1">  1        1 0.33227876E+00 0.24066122E+04</pdfrwt>
<pdfrwt beam="2">  1       -1 0.10313901E+00 0.24066122E+04</pdfrwt>
<totfact> 0.18439865E+00</totfact>
</mgrwt>
</event>
<event>
12    1  0.1467288E-007  0.1241285E+04  0.7818608E-02  0.9077468E-01
          2   -1    0    0  501    0  0.00000000000E+00  0.00000000000E+00  0.19789097421E+04  0.19789097421E+04  0.00000000000E+00 0. -1.
         -2   -1    0    0    0  501 -0.00000000000E+00 -0.00000000000E+00 -0.19465117420E+03  0.19465117420E+03  0.00000000000E+00 0.  1.
         23    2    1    2    0    0  0.42019071496E+02 -0.21282815608E+03  0.70076175574E+03  0.73757759928E+03  0.76760994425E+02 0.  0.
        254    2    1    2    0    0 -0.42019071496E+02  0.21282815608E+03  0.10834968122E+04  0.14359833170E+04  0.91707214461E+03 0.  0.
        -24    2    4    4    0    0 -0.40197080712E+03  0.31524524249E+03  0.40370063642E+03  0.65606862095E+03  0.80571327798E+02 0.  0.
         24    2    4    4    0    0  0.35995173563E+03 -0.10241708641E+03  0.67979617574E+03  0.77991469606E+03  0.78035767560E+02 0.  0.
         13    1    3    3    0    0  0.43387597792E+02 -0.15811546772E+03  0.60945264418E+03  0.63112242099E+03  0.00000000000E+00 0. -1.
        -13    1    3    3    0    0 -0.13685262962E+01 -0.54712688363E+02  0.91309111560E+02  0.10645517830E+03  0.00000000000E+00 0.  1.
          2    1    6    6  502    0  0.33591156789E+03 -0.10459616188E+03  0.59002186554E+03  0.68695177439E+03  0.00000000000E+00 0. -1.
          1    1    5    5  503    0 -0.24591175846E+03  0.22226152120E+03  0.22076339241E+03  0.39825777103E+03  0.00000000000E+00 0. -1.
         -2    1    5    5    0  503 -0.15605904866E+03  0.92983721292E+02  0.18293724401E+03  0.25781084993E+03  0.00000000000E+00 0.  1.
         -1    1    6    6    0  502  0.24040167739E+02  0.21790754692E+01  0.89774310196E+02  0.92962921673E+02  0.00000000000E+00 0.  1.
<mgrwt>
<rscale>  0 0.12412850E+04</rscale>
<asrwt>0</asrwt>
<pdfrwt beam="1">  1        2 0.30444764E+00 0.12412850E+04</pdfrwt>
<pdfrwt beam="2">  1       -2 0.29946336E-01 0.12412850E+04</pdfrwt>
<totfact> 0.69569698E+01</totfact>
</mgrwt>
</event>
<event>
12    1  0.1467288E-007  0.1635731E+04  0.7818608E-02  0.8798893E-01
         -2   -1    0    0    0  501 -0.00000000000E+00  0.00000000000E+00  0.44887205707E+03  0.44887205707E+03  0.00000000000E+00 0.  1.
          2   -1    0    0  501    0  0.00000000000E+00 -0.00000000000E+00 -0.14901892598E+04  0.14901892598E+04  0.00000000000E+00 0. -1.
         23    2    1    2    0    0 -0.34620737118E+03  0.24667978677E+03  0.77700539769E+02  0.44163747287E+03  0.91081405885E+02 0.  0.
        254    2    1    2    0    0  0.34620737118E+03 -0.24667978677E+03 -0.11190177425E+04  0.14974238440E+04  0.89964826432E+03 0.  0.
        -24    2    4    4    0    0 -0.11989073285E+03  0.22443337808E+03 -0.58413561354E+03  0.64215588156E+03  0.80035193503E+02 0.  0.
         24    2    4    4    0    0  0.46609810403E+03 -0.47111316485E+03 -0.53488212898E+03  0.85526796245E+03  0.78672352361E+02 0.  0.
         13    1    3    3    0    0 -0.63360575017E+02  0.47726133277E+02  0.52051097331E+02  0.94877094166E+02  0.00000000000E+00 0. -1.
        -13    1    3    3    0    0 -0.28284679617E+03  0.19895365349E+03  0.25649442437E+02  0.34676037870E+03  0.00000000000E+00 0.  1.
          4    1    6    6  502    0  0.16867804299E+02 -0.45514776471E+02 -0.37792367134E+02  0.61517320429E+02  0.00000000000E+00 0. -1.
          1    1    5    5  503    0 -0.52273214996E+02  0.14732132940E+03 -0.42497891483E+03  0.45281689583E+03  0.00000000000E+00 0. -1.
         -2    1    5    5    0  503 -0.67617517856E+02  0.77112048676E+02 -0.15915669871E+03  0.18933898573E+03  0.00000000000E+00 0.  1.
         -3    1    6    6    0  502  0.44923029973E+03 -0.42559838838E+03 -0.49708976184E+03  0.79375064203E+03  0.00000000000E+00 0.  1.
<mgrwt>
<rscale>  0 0.16357314E+04</rscale>
<asrwt>0</asrwt>
<pdfrwt beam="1">  1        2 0.22925988E+00 0.16357314E+04</pdfrwt>
<pdfrwt beam="2">  1       -2 0.69057242E-01 0.16357314E+04</pdfrwt>
<totfact> 0.23541139E+01</totfact>
</mgrwt>
</event>
<event>
12    1  0.1467288E-007  0.1431001E+04  0.7818608E-02  0.8931679E-01
         -1   -1    0    0    0  501 -0.00000000000E+00  0.00000000000E+00  0.39898728459E+03  0.39898728459E+03  0.00000000000E+00 0.  1.
          1   -1    0    0  501    0  0.00000000000E+00 -0.00000000000E+00 -0.12831010418E+04  0.12831010418E+04  0.00000000000E+00 0. -1.
         23    2    1    2    0    0  0.15446887502E+03  0.40374220056E+01  0.19838478520E+03  0.26744112412E+03  0.91056563451E+02 0.  0.
        254    2    1    2    0    0 -0.15446887502E+03 -0.40374220056E+01 -0.10824985425E+04  0.14146472023E+04  0.89752252255E+03 0.  0.
        -24    2    4    4    0    0  0.12377593063E+03  0.38848345330E+03 -0.58343426126E+03  0.71601867065E+03  0.77764548594E+02 0.  0.
         24    2    4    4    0    0 -0.27824480565E+03 -0.39252087530E+03 -0.49906428119E+03  0.69862853166E+03  0.86740181408E+02 0.  0.
         13    1    3    3    0    0  0.78440262966E+02  0.46050052227E+02  0.11887349093E+03  0.14968095741E+03  0.00000000000E+00 0.  1.
        -13    1    3    3    0    0  0.76028612053E+02 -0.42012630221E+02  0.79511294271E+02  0.11776016672E+03  0.00000000000E+00 0. -1.
          2    1    6    6  502    0 -0.87268656935E+02 -0.15215225607E+03 -0.12861918587E+03  0.21750637343E+03  0.00000000000E+00 0. -1.
          1    1    5    5  503    0  0.79003684945E+02  0.14254477590E+03 -0.19554648285E+03  0.25455652088E+03  0.00000000000E+00 0. -1.
         -2    1    5    5    0  503  0.44772245689E+02  0.24593867740E+03 -0.38788777842E+03  0.46146214977E+03  0.00000000000E+00 0.  1.
         -1    1    6    6    0  502 -0.19097614872E+03 -0.24036861924E+03 -0.37044509533E+03  0.48112215823E+03  0.00000000000E+00 0.  1.
<mgrwt>
<rscale>  0 0.14310010E+04</rscale>
<asrwt>0</asrwt>
<pdfrwt beam="1">  1        1 0.19740016E+00 0.14310010E+04</pdfrwt>
<pdfrwt beam="2">  1       -1 0.61382660E-01 0.14310010E+04</pdfrwt>
<totfact> 0.24353371E+01</totfact>
</mgrwt>
</event>
<event>
12    1  0.1467288E-007  0.1556553E+04  0.7818608E-02  0.8847693E-01
         -2   -1    0    0    0  501 -0.00000000000E+00  0.00000000000E+00  0.30106248261E+03  0.30106248261E+03  0.00000000000E+00 0.  1.
          2   -1    0    0  501    0  0.00000000000E+00 -0.00000000000E+00 -0.20119221865E+04  0.20119221865E+04  0.00000000000E+00 0. -1.
         23    2    1    2    0    0  0.19706640556E+03 -0.21566785861E+03  0.61866041198E+02  0.31249963039E+03  0.92091359537E+02 0.  0.
        254    2    1    2    0    0 -0.19706640556E+03  0.21566785861E+03 -0.17727257451E+04  0.20004850387E+04  0.87979317421E+03 0.  0.
        -24    2    4    4    0    0  0.17847517462E+03 -0.22457509449E+03 -0.91849759038E+03  0.96559971851E+03  0.80359391745E+02 0.  0.
         24    2    4    4    0    0 -0.37554158017E+03  0.44024295310E+03 -0.85422815468E+03  0.10348853202E+04  0.80228108987E+02 0.  0.
         13    1    3    3    0    0  0.83104837251E+01 -0.49015615919E+02 -0.98653300487E+01  0.50684509277E+02  0.00000000000E+00 0. -1.
        -13    1    3    3    0    0  0.18875592183E+03 -0.16665224269E+03  0.71731371246E+02  0.26181512111E+03  0.00000000000E+00 0.  1.
          4    1    6    6  502    0 -0.59150194360E+02  0.31422999582E+02 -0.10821357589E+03  0.12726479640E+03  0.00000000000E+00 0. -1.
          3    1    5    5  503    0  0.13064997713E+03 -0.10488411718E+03 -0.47107850781E+03  0.49998505486E+03  0.00000000000E+00 0. -1.
         -4    1    5    5    0  503  0.47825197487E+02 -0.11969097731E+03 -0.44741908257E+03  0.46561466366E+03  0.00000000000E+00 0.  1.
         -3    1    6    6    0  502 -0.31639138581E+03  0.40881995352E+03 -0.74601457879E+03  0.90762052378E+03  0.00000000000E+00 0.  1.
<mgrwt>
<rscale>  0 0.15565530E+04</rscale>
<asrwt>0</asrwt>
<pdfrwt beam="1">  1        2 0.30952648E+00 0.15565530E+04</pdfrwt>
<pdfrwt beam="2">  1       -2 0.46317306E-01 0.15565530E+04</pdfrwt>
<totfact> 0.27986474E+01</totfact>
</mgrwt>
</event>
<event>
12    1  0.1467288E-007  0.2664777E+04  0.7818608E-02  0.8346525E-01
          2   -1    0    0  501    0  0.00000000000E+00  0.00000000000E+00  0.14300909352E+04  0.14300909352E+04  0.00000000000E+00 0. -1.
         -2   -1    0    0    0  501 -0.00000000000E+00 -0.00000000000E+00 -0.12413608085E+04  0.12413608085E+04  0.00000000000E+00 0.  1.
         23    2    1    2    0    0  0.35461109114E+03 -0.82589325782E+03 -0.68091731014E+03  0.11312024212E+04  0.90121225102E+02 0.  0.
        254    2    1    2    0    0 -0.35461109114E+03  0.82589325782E+03  0.86964743677E+03  0.15402493225E+04  0.89901758156E+03 0.  0.
        -24    2    4    4    0    0 -0.63823700073E+03  0.46341111241E+03  0.64453173131E+03  0.10217019355E+04  0.79733080505E+02 0.  0.
         24    2    4    4    0    0  0.28362590959E+03  0.36248214540E+03  0.22511570546E+03  0.51854738701E+03  0.79858308335E+02 0.  0.
         11    1    3    3    0    0  0.21600013853E+03 -0.45120431551E+03 -0.42815545000E+03  0.65845158026E+03  0.00000000000E+00 0. -1.
        -11    1    3    3    0    0  0.13861095261E+03 -0.37468894230E+03 -0.25276186014E+03  0.47275084094E+03  0.00000000000E+00 0.  1.
          4    1    6    6  502    0  0.99957772889E+02  0.14364356928E+03  0.44588318642E+02  0.18059111140E+03  0.00000000000E+00 0. -1.
          3    1    5    5  503    0 -0.53136511873E+03  0.40244115017E+03  0.57543872868E+03  0.88058929088E+03  0.00000000000E+00 0. -1.
         -4    1    5    5    0  503 -0.10687188200E+03  0.60969962248E+02  0.69093002631E+02  0.14111264462E+03  0.00000000000E+00 0.  1.
         -3    1    6    6    0  502  0.18366813670E+03  0.21883857612E+03  0.18052738682E+03  0.33795627561E+03  0.00000000000E+00 0.  1.
<mgrwt>
<rscale>  0 0.26647768E+04</rscale>
<asrwt>0</asrwt>
<pdfrwt beam="1">  1        2 0.22001399E+00 0.26647768E+04</pdfrwt>
<pdfrwt beam="2">  1       -2 0.19097859E+00 0.26647768E+04</pdfrwt>
<totfact> 0.18685495E+00</totfact>
</mgrwt>
</event>
<event>
12    1  0.1507345E-007  0.2434613E+04  0.7818608E-02  0.8426657E-01
         -2   -1    0    0    0  501 -0.00000000000E+00  0.00000000000E+00  0.62948182774E+03  0.62948182774E+03  0.00000000000E+00 0.  1.
          2   -1    0    0  501    0  0.00000000000E+00 -0.00000000000E+00 -0.23540562367E+04  0.23540562367E+04  0.00000000000E+00 0. -1.
         23    2    1    2    0    0 -0.83838711681E+02  0.47654309880E+03  0.39412212459E+03  0.63037518024E+03  0.88985190814E+02 0.  0.
        254    2    1    2    0    0  0.83838711681E+02 -0.47654309880E+03 -0.21186965336E+04  0.23531628842E+04  0.90242911286E+03 0.  0.
        -24    2    4    4    0    0 -0.58339403761E+02 -0.26769301095E+03 -0.20625630281E+04  0.20822725043E+04  0.81421761155E+02 0.  0.
         24    2    4    4    0    0  0.14217811544E+03 -0.20885008785E+03 -0.56133505528E+02  0.27089037997E+03  0.79985322471E+02 0.  0.
         13    1    3    3    0    0 -0.15400484816E+02  0.20062531145E+02  0.31945988893E+01  0.25492852931E+02  0.00000000000E+00 0. -1.
        -13    1    3    3    0    0 -0.68438226866E+02  0.45648056765E+03  0.39092752571E+03  0.60488232731E+03  0.00000000000E+00 0.  1.
          2    1    6    6  502    0  0.12771288186E+03 -0.20560895557E+03 -0.34245979981E+02  0.24445533324E+03  0.00000000000E+00 0. -1.
          1    1    5    5  503    0 -0.55772848319E+01 -0.11814482509E+03 -0.11464649176E+04  0.11525498311E+04  0.00000000000E+00 0. -1.
         -2    1    5    5    0  503 -0.52762118929E+02 -0.14954818586E+03 -0.91609811044E+03  0.92972267319E+03  0.00000000000E+00 0.  1.
         -1    1    6    6    0  502  0.14465233579E+02 -0.32411322790E+01 -0.21887525547E+02  0.26435046728E+02  0.00000000000E+00 0.  1.
<mgrwt>
<rscale>  0 0.24346134E+04</rscale>
<asrwt>0</asrwt>
<pdfrwt beam="1">  1        2 0.36216250E+00 0.24346134E+04</pdfrwt>
<pdfrwt beam="2">  1       -2 0.96843357E-01 0.24346134E+04</pdfrwt>
<totfact> 0.33736348E+00</totfact>
</mgrwt>
</event>
<event>
12    1  0.1467288E-007  0.2026584E+04  0.7818608E-02  0.8594291E-01
         -2   -1    0    0    0  501 -0.00000000000E+00  0.00000000000E+00  0.41626301001E+03  0.41626301001E+03  0.00000000000E+00 0.  1.
          2   -1    0    0  501    0  0.00000000000E+00 -0.00000000000E+00 -0.24666161977E+04  0.24666161977E+04  0.00000000000E+00 0. -1.
         23    2    1    2    0    0  0.57112658589E+03 -0.21968187189E+03 -0.76475265298E+02  0.62331770315E+03  0.90723706419E+02 0.  0.
        254    2    1    2    0    0 -0.57112658589E+03  0.21968187189E+03 -0.19738779224E+04  0.22595615045E+04  0.91377154608E+03 0.  0.
        -24    2    4    4    0    0  0.18422915124E+02 -0.19741025205E+03 -0.11135221618E+04  0.11333229194E+04  0.71965431664E+02 0.  0.
         24    2    4    4    0    0 -0.58954950102E+03  0.41709212393E+03 -0.86035576059E+03  0.11262385852E+04  0.81650854109E+02 0.  0.
         13    1    3    3    0    0  0.36347307037E+03 -0.10359891136E+03 -0.75510206835E+02  0.38541821267E+03  0.00000000000E+00 0. -1.
        -13    1    3    3    0    0  0.20765351552E+03 -0.11608296052E+03 -0.96505846289E+00  0.23789949048E+03  0.00000000000E+00 0.  1.
          4    1    6    6  502    0 -0.30196931257E+03  0.25233428453E+03 -0.42713205976E+03  0.58077521759E+03  0.00000000000E+00 0. -1.
          3    1    5    5  503    0  0.15509335677E+02 -0.20128001967E+03 -0.11066651368E+04  0.11249275136E+04  0.00000000000E+00 0. -1.
         -4    1    5    5    0  503  0.29135794472E+01  0.38697676202E+01 -0.68570250088E+01  0.83954058032E+01  0.00000000000E+00 0.  1.
         -3    1    6    6    0  502 -0.28758018844E+03  0.16475783940E+03 -0.43322370083E+03  0.54546336760E+03  0.00000000000E+00 0.  1.
<mgrwt>
<rscale>  0 0.20265844E+04</rscale>
<asrwt>0</asrwt>
<pdfrwt beam="1">  1        2 0.37947941E+00 0.20265844E+04</pdfrwt>
<pdfrwt beam="2">  1       -2 0.64040464E-01 0.20265844E+04</pdfrwt>
<totfact> 0.76084836E+00</totfact>
</mgrwt>
</event>
<event>
12    1  0.1467288E-007  0.1219437E+04  0.7818608E-02  0.9096012E-01
         -1   -1    0    0    0  501 -0.00000000000E+00  0.00000000000E+00  0.24223178993E+03  0.24223178993E+03  0.00000000000E+00 0.  1.
          1   -1    0    0  501    0  0.00000000000E+00 -0.00000000000E+00 -0.15347141320E+04  0.15347141320E+04  0.00000000000E+00 0. -1.
         23    2    1    2    0    0  0.13446201405E+02 -0.25751935833E+03 -0.38748201532E+03  0.47833859916E+03  0.11031084715E+03 0.  0.
        254    2    1    2    0    0 -0.13446201405E+02  0.25751935833E+03 -0.90500032677E+03  0.12986073228E+04  0.89490690417E+03 0.  0.
        -24    2    4    4    0    0  0.28426470800E+03  0.16318213062E+02 -0.85439340033E+03  0.90397378007E+03  0.78152442278E+02 0.  0.
         24    2    4    4    0    0 -0.29771090941E+03  0.24120114527E+03 -0.50606926440E+02  0.39463354273E+03  0.79779658986E+02 0.  0.
         13    1    3    3    0    0  0.51952215472E+01 -0.17620760228E+03 -0.16553600590E+03  0.24182282497E+03  0.00000000000E+00 0.  1.
        -13    1    3    3    0    0  0.82509798576E+01 -0.81311756051E+02 -0.22194600942E+03  0.23651577419E+03  0.00000000000E+00 0. -1.
          4    1    6    6  502    0 -0.28356831217E+03  0.22049477737E+03 -0.27040768101E+02  0.36022234474E+03  0.00000000000E+00 0. -1.
          1    1    5    5  503    0  0.18163388279E+03  0.42132530031E+02 -0.48106225703E+03  0.51593305051E+03  0.00000000000E+00 0. -1.
         -2    1    5    5    0  503  0.10263082521E+03 -0.25814316969E+02 -0.37333114330E+03  0.38804072957E+03  0.00000000000E+00 0.  1.
         -3    1    6    6    0  502 -0.14142597239E+02  0.20706367898E+02 -0.23566158339E+02  0.34411197989E+02  0.00000000000E+00 0.  1.
<mgrwt>
<rscale>  0 0.12194368E+04</rscale>
<asrwt>0</asrwt>
<pdfrwt beam="1">  1        1 0.23610987E+00 0.12194368E+04</pdfrwt>
<pdfrwt beam="2">  1       -1 0.37266429E-01 0.12194368E+04</pdfrwt>
<totfact> 0.42383035E+01</totfact>
</mgrwt>
</event>
<event>
12    1  0.1467288E-007  0.1256797E+04  0.7818608E-02  0.9064545E-01
          2   -1    0    0  501    0  0.00000000000E+00  0.00000000000E+00  0.80870998661E+03  0.80870998661E+03  0.00000000000E+00 0. -1.
         -2   -1    0    0    0  501 -0.00000000000E+00 -0.00000000000E+00 -0.48828922393E+03  0.48828922393E+03  0.00000000000E+00 0.  1.
         23    2    1    2    0    0 -0.18913560784E+03 -0.10828634548E+02  0.31208439118E+03  0.37641061999E+03  0.91644695134E+02 0.  0.
        254    2    1    2    0    0  0.18913560784E+03  0.10828634548E+02  0.83363715076E+01  0.92058859055E+03  0.90084644667E+03 0.  0.
        -24    2    4    4    0    0 -0.24471423097E+03  0.19748577243E+02  0.29716438346E+03  0.39361991276E+03  0.79717650395E+02 0.  0.
         24    2    4    4    0    0  0.43384983881E+03 -0.89199426952E+01 -0.28882801195E+03  0.52696867779E+03  0.77260072946E+02 0.  0.
         11    1    3    3    0    0 -0.88338083062E+02  0.36403824344E+02  0.11004188388E+03  0.14573287740E+03  0.00000000000E+00 0.  1.
        -11    1    3    3    0    0 -0.10079752478E+03 -0.47232458892E+02  0.20204250730E+03  0.23067774260E+03  0.00000000000E+00 0. -1.
          4    1    6    6  502    0  0.31381565119E+03 -0.40801241662E+02 -0.21275459539E+03  0.38132600503E+03  0.00000000000E+00 0. -1.
          1    1    5    5  503    0 -0.87101312114E+02  0.32520327914E+02  0.15622163577E+03  0.18179496633E+03  0.00000000000E+00 0. -1.
         -2    1    5    5    0  503 -0.15761291885E+03 -0.12771750671E+02  0.14094274768E+03  0.21182494643E+03  0.00000000000E+00 0.  1.
         -3    1    6    6    0  502  0.12003418762E+03  0.31881298967E+02 -0.76073416560E+02  0.14564267276E+03  0.00000000000E+00 0.  1.
<mgrwt>
<rscale>  0 0.12567965E+04</rscale>
<asrwt>0</asrwt>
<pdfrwt beam="1">  1        2 0.12441692E+00 0.12567965E+04</pdfrwt>
<pdfrwt beam="2">  1       -2 0.75121419E-01 0.12567965E+04</pdfrwt>
<totfact> 0.53127043E+01</totfact>
</mgrwt>
</event>
<event>
12    1  0.1467288E-007  0.1964434E+04  0.7818608E-02  0.8623432E-01
         -2   -1    0    0    0  501 -0.00000000000E+00  0.00000000000E+00  0.94985768276E+03  0.94985768276E+03  0.00000000000E+00 0.  1.
          2   -1    0    0  501    0  0.00000000000E+00 -0.00000000000E+00 -0.10156789685E+04  0.10156789685E+04  0.00000000000E+00 0. -1.
         23    2    1    2    0    0  0.12309320880E+03 -0.68548454180E+03 -0.36594158366E+03  0.79196680607E+03  0.90869049512E+02 0.  0.
        254    2    1    2    0    0 -0.12309320880E+03  0.68548454180E+03  0.30012029789E+03  0.11735698452E+04  0.89562994217E+03 0.  0.
        -24    2    4    4    0    0 -0.93128752237E+02  0.26085357981E+03  0.58683368802E+03  0.65362120672E+03  0.78290164646E+02 0.  0.
         24    2    4    4    0    0 -0.29964456560E+02  0.42463096199E+03 -0.28671339013E+03  0.51994863851E+03  0.83262813228E+02 0.  0.
         13    1    3    3    0    0  0.92277661386E+02 -0.63290006686E+03 -0.34943463558E+03  0.72882249277E+03  0.00000000000E+00 0. -1.
        -13    1    3    3    0    0  0.30815547411E+02 -0.52584474942E+02 -0.16506948083E+02  0.63144313300E+02  0.00000000000E+00 0.  1.
          4    1    6    6  502    0 -0.25531069821E+02  0.20853645866E+03 -0.18958746692E+03  0.28298886503E+03  0.00000000000E+00 0. -1.
          3    1    5    5  503    0 -0.43600940003E+02  0.18460803373E+03  0.32322881373E+03  0.37477731270E+03  0.00000000000E+00 0. -1.
         -4    1    5    5    0  503 -0.49527812234E+02  0.76245546075E+02  0.26360487429E+03  0.27884389402E+03  0.00000000000E+00 0.  1.
         -3    1    6    6    0  502 -0.44333867394E+01  0.21609450333E+03 -0.97125923208E+02  0.23695977348E+03  0.00000000000E+00 0.  1.
<mgrwt>
<rscale>  0 0.19644342E+04</rscale>
<asrwt>0</asrwt>
<pdfrwt beam="1">  1        2 0.15625830E+00 0.19644342E+04</pdfrwt>
<pdfrwt beam="2">  1       -2 0.14613195E+00 0.19644342E+04</pdfrwt>
<totfact> 0.73615372E+00</totfact>
</mgrwt>
</event>
<event>
12    1  0.1467288E-007  0.1204338E+04  0.7818608E-02  0.9109068E-01
          2   -1    0    0  501    0  0.00000000000E+00  0.00000000000E+00  0.14176083645E+04  0.14176083645E+04  0.00000000000E+00 0. -1.
         -2   -1    0    0    0  501 -0.00000000000E+00 -0.00000000000E+00 -0.25578821864E+03  0.25578821864E+03  0.00000000000E+00 0.  1.
         23    2    1    2    0    0  0.20647563004E+03 -0.12345404017E+03  0.39693433033E+03  0.47298608682E+03  0.91026863633E+02 0.  0.
        254    2    1    2    0    0 -0.20647563004E+03  0.12345404017E+03  0.76488581557E+03  0.12004104964E+04  0.89334313847E+03 0.  0.
        -24    2    4    4    0    0  0.21030856830E+03  0.12323967597E+03 -0.69881628370E+02  0.26399756231E+03  0.73440855742E+02 0.  0.
         24    2    4    4    0    0 -0.41678419833E+03  0.21436419934E+00  0.83476744394E+03  0.93641293404E+03  0.79519705975E+02 0.  0.
         11    1    3    3    0    0  0.24176898839E+02 -0.28386926537E+02  0.13468683049E+03  0.13975293322E+03  0.00000000000E+00 0. -1.
        -11    1    3    3    0    0  0.18229873120E+03 -0.95067113634E+02  0.26224749984E+03  0.33323315361E+03  0.00000000000E+00 0.  1.
          4    1    6    6  502    0 -0.38297098140E+03 -0.61613731446E+01  0.80259998283E+03  0.88930954541E+03  0.00000000000E+00 0. -1.
          1    1    5    5  503    0  0.21518174913E+03  0.11401023327E+03 -0.70569012279E+02  0.25353797338E+03  0.00000000000E+00 0. -1.
         -2    1    5    5    0  503 -0.48731808375E+01  0.92294427057E+01  0.68738390883E+00  0.10459588939E+02  0.00000000000E+00 0.  1.
         -3    1    6    6    0  502 -0.33813216936E+02  0.63757373440E+01  0.32167461107E+02  0.47103388629E+02  0.00000000000E+00 0.  1.
<mgrwt>
<rscale>  0 0.12043380E+04</rscale>
<asrwt>0</asrwt>
<pdfrwt beam="1">  1        2 0.21809359E+00 0.12043380E+04</pdfrwt>
<pdfrwt beam="2">  1       -2 0.39352034E-01 0.12043380E+04</pdfrwt>
<totfact> 0.85117590E+01</totfact>
</mgrwt>
</event>
<event>
12    1  0.1467288E-007  0.2422058E+04  0.7818608E-02  0.8431291E-01
         -2   -1    0    0    0  501 -0.00000000000E+00  0.00000000000E+00  0.53257487903E+03  0.53257487903E+03  0.00000000000E+00 0. -1.
          2   -1    0    0  501    0  0.00000000000E+00 -0.00000000000E+00 -0.27537748777E+04  0.27537748777E+04  0.00000000000E+00 0.  1.
         23    2    1    2    0    0 -0.66165000533E+03  0.25643410167E+03 -0.19949765230E+04  0.21194032769E+04  0.91650122984E+02 0.  0.
        254    2    1    2    0    0  0.66165000533E+03 -0.25643410167E+03 -0.22622347567E+03  0.11669464797E+04  0.89835841822E+03 0.  0.
        -24    2    4    4    0    0 -0.11123303566E+03 -0.19898159801E+03 -0.29907561844E+03  0.38469258029E+03  0.81090635809E+02 0.  0.
         24    2    4    4    0    0  0.77288304099E+03 -0.57452503659E+02  0.72852142767E+02  0.78225389946E+03  0.77231750519E+02 0.  0.
         13    1    3    3    0    0 -0.36420517214E+03  0.13202772556E+03 -0.95455557939E+03  0.10301713847E+04  0.00000000000E+00 0. -1.
        -13    1    3    3    0    0 -0.29744483319E+03  0.12440637611E+03 -0.10404209436E+04  0.10892318922E+04  0.00000000000E+00 0.  1.
          2    1    6    6  502    0  0.25741726518E+03  0.12515453809E+02  0.42252604971E+02  0.26116195669E+03  0.00000000000E+00 0. -1.
          3    1    5    5  503    0  0.48671825546E+01 -0.53239843116E+02 -0.46719219231E+02  0.70998984547E+02  0.00000000000E+00 0. -1.
         -4    1    5    5    0  503 -0.11610021821E+03 -0.14574175490E+03 -0.25235639921E+03  0.31369359574E+03  0.00000000000E+00 0.  1.
         -1    1    6    6    0  502  0.51546577581E+03 -0.69967957468E+02  0.30599537796E+02  0.52109194277E+03  0.00000000000E+00 0.  1.
<mgrwt>
<rscale>  0 0.24220581E+04</rscale>
<asrwt>0</asrwt>
<pdfrwt beam="1">  1        2 0.42365768E+00 0.24220581E+04</pdfrwt>
<pdfrwt beam="2">  1       -2 0.81934596E-01 0.24220581E+04</pdfrwt>
<totfact> 0.28989485E+00</totfact>
</mgrwt>
</event>
<event>
12    1  0.1467288E-007  0.2239768E+04  0.7818608E-02  0.8502056E-01
         -1   -1    0    0    0  501 -0.00000000000E+00  0.00000000000E+00  0.93549947882E+03  0.93549947882E+03  0.00000000000E+00 0.  1.
          1   -1    0    0  501    0  0.00000000000E+00 -0.00000000000E+00 -0.13406106846E+04  0.13406106846E+04  0.00000000000E+00 0. -1.
         23    2    1    2    0    0 -0.18808948973E+02 -0.89616095319E+03  0.49480451751E+02  0.90276182143E+03  0.95248939787E+02 0.  0.
        254    2    1    2    0    0  0.18808948973E+02  0.89616095319E+03 -0.45459165749E+03  0.13733483420E+04  0.93593475345E+03 0.  0.
        -24    2    4    4    0    0 -0.10416661159E+03 -0.93282605613E+02  0.13648236820E+03  0.21151228648E+03  0.80979522260E+02 0.  0.
         24    2    4    4    0    0  0.12297556056E+03  0.98944355881E+03 -0.59107402569E+03  0.11618360555E+04  0.79830892525E+02 0.  0.
         11    1    3    3    0    0 -0.44758384896E+02 -0.34888826708E+03  0.46960630384E+02  0.35486847807E+03  0.00000000000E+00 0. -1.
        -11    1    3    3    0    0  0.25949435923E+02 -0.54727268612E+03  0.25198213668E+01  0.54789334335E+03  0.00000000000E+00 0.  1.
          2    1    6    6  502    0  0.44831806442E+02  0.15017527260E+03 -0.10785802731E+03  0.19025208915E+03  0.00000000000E+00 0. -1.
          3    1    5    5  503    0 -0.39323486081E+02 -0.43858697367E+02  0.81445728918E+01  0.59466427166E+02  0.00000000000E+00 0. -1.
         -4    1    5    5    0  503 -0.64843125505E+02 -0.49423908245E+02  0.12833779531E+03  0.15204585932E+03  0.00000000000E+00 0.  1.
         -1    1    6    6    0  502  0.78143754117E+02  0.83926828620E+03 -0.48321599837E+03  0.97158396632E+03  0.00000000000E+00 0.  1.
<mgrwt>
<rscale>  0 0.22397684E+04</rscale>
<asrwt>0</asrwt>
<pdfrwt beam="1">  1        1 0.20624780E+00 0.22397684E+04</pdfrwt>
<pdfrwt beam="2">  1       -1 0.14392300E+00 0.22397684E+04</pdfrwt>
<totfact> 0.29966408E+00</totfact>
</mgrwt>
</event>
<event>
12    1  0.1467288E-007  0.1399425E+04  0.7818608E-02  0.8954235E-01
          2   -1    0    0  501    0  0.00000000000E+00  0.00000000000E+00  0.61598682596E+03  0.61598682596E+03  0.00000000000E+00 0. -1.
         -2   -1    0    0    0  501 -0.00000000000E+00 -0.00000000000E+00 -0.79481844498E+03  0.79481844498E+03  0.00000000000E+00 0.  1.
         23    2    1    2    0    0 -0.60831377310E+02 -0.39158590506E+03 -0.12445455578E+03  0.42545587179E+03  0.92107463715E+02 0.  0.
        254    2    1    2    0    0  0.60831377310E+02  0.39158590506E+03 -0.54377063237E+02  0.98534939916E+03  0.90050907597E+03 0.  0.
        -24    2    4    4    0    0  0.13465026078E+03 -0.26233727364E+03  0.63772266751E+02  0.31209880368E+03  0.79920106232E+02 0.  0.
         24    2    4    4    0    0 -0.73818883475E+02  0.65392317871E+03 -0.11814932999E+03  0.67325059548E+03  0.79008537083E+02 0.  0.
         11    1    3    3    0    0 -0.21128570425E+02 -0.15912418684E+03 -0.38241089406E+01  0.16056633251E+03  0.00000000000E+00 0. -1.
        -11    1    3    3    0    0 -0.39702806884E+02 -0.23246171822E+03 -0.12063044684E+03  0.26488953928E+03  0.00000000000E+00 0.  1.
          4    1    6    6  502    0 -0.74832902513E+02  0.46607098349E+03 -0.11274472061E+03  0.48531793391E+03  0.00000000000E+00 0. -1.
          1    1    5    5  503    0  0.99636590364E+02 -0.15598680866E+03  0.74705670212E+02  0.19960028000E+03  0.00000000000E+00 0. -1.
         -2    1    5    5    0  503  0.35013670421E+02 -0.10635046498E+03 -0.10933403461E+02  0.11249852367E+03  0.00000000000E+00 0.  1.
         -3    1    6    6    0  502  0.10140190380E+01  0.18785219521E+03 -0.54046093751E+01  0.18793266157E+03  0.00000000000E+00 0.  1.
<mgrwt>
<rscale>  0 0.13994252E+04</rscale>
<asrwt>0</asrwt>
<pdfrwt beam="1">  1        2 0.94767205E-01 0.13994252E+04</pdfrwt>
<pdfrwt beam="2">  1       -2 0.12227976E+00 0.13994252E+04</pdfrwt>
<totfact> 0.23682927E+01</totfact>
</mgrwt>
</event>
<event>
12    1  0.1467288E-007  0.1835656E+04  0.7818608E-02  0.8687565E-01
         -2   -1    0    0    0  501 -0.00000000000E+00  0.00000000000E+00  0.64557326379E+03  0.64557326379E+03  0.00000000000E+00 0.  1.
          2   -1    0    0  501    0  0.00000000000E+00 -0.00000000000E+00 -0.13048995619E+04  0.13048995619E+04  0.00000000000E+00 0. -1.
         23    2    1    2    0    0  0.19492242297E+02 -0.39933628396E+03 -0.87475469168E+03  0.96621076495E+03  0.92293317701E+02 0.  0.
        254    2    1    2    0    0 -0.19492242297E+02  0.39933628396E+03  0.21542839357E+03  0.98426206074E+03  0.87321990143E+03 0.  0.
        -24    2    4    4    0    0  0.39939656942E+03  0.24445090120E+03  0.23307121224E+03  0.52895598572E+03  0.78729804281E+02 0.  0.
         24    2    4    4    0    0 -0.41888881172E+03  0.15488538276E+03 -0.17642818671E+02  0.45530607503E+03  0.86804576636E+02 0.  0.
         11    1    3    3    0    0  0.10914268559E+02 -0.35084535010E+03 -0.82321744235E+03  0.89492934824E+03  0.00000000000E+00 0. -1.
        -11    1    3    3    0    0  0.85779737381E+01 -0.48490933860E+02 -0.51537249323E+02  0.71281416708E+02  0.00000000000E+00 0.  1.
          2    1    6    6  502    0 -0.28766235546E+03  0.67685528269E+02  0.82627243869E+01  0.29563361464E+03  0.00000000000E+00 0. -1.
          1    1    5    5  503    0  0.39684352576E+03  0.24439089787E+03  0.21952778900E+03  0.51517389786E+03  0.00000000000E+00 0. -1.
         -2    1    5    5    0  503  0.25530436688E+01  0.60003329448E-01  0.13543423246E+02  0.13782087854E+02  0.00000000000E+00 0.  1.
         -1    1    6    6    0  502 -0.13122645626E+03  0.87199854495E+02 -0.25905543058E+02  0.15967246039E+03  0.00000000000E+00 0.  1.
<mgrwt>
<rscale>  0 0.18356560E+04</rscale>
<asrwt>0</asrwt>
<pdfrwt beam="1">  1        2 0.20075378E+00 0.18356560E+04</pdfrwt>
<pdfrwt beam="2">  1       -2 0.99318965E-01 0.18356560E+04</pdfrwt>
<totfact> 0.12980661E+01</totfact>
</mgrwt>
</event>
<event>
12    1  0.1467288E-007  0.1584324E+04  0.7818608E-02  0.8830236E-01
         -2   -1    0    0    0  501 -0.00000000000E+00  0.00000000000E+00  0.23755263088E+03  0.23755263088E+03  0.00000000000E+00 0. -1.
          2   -1    0    0  501    0  0.00000000000E+00 -0.00000000000E+00 -0.26416083741E+04  0.26416083741E+04  0.00000000000E+00 0.  1.
         23    2    1    2    0    0  0.63037882143E+02  0.49119010881E+03 -0.49219506453E+03  0.70631594658E+03  0.10669928429E+03 0.  0.
        254    2    1    2    0    0 -0.63037882143E+02 -0.49119010881E+03 -0.19118606787E+04  0.21728450584E+04  0.90598173025E+03 0.  0.
        -24    2    4    4    0    0  0.34140602492E+03 -0.42773372111E+03 -0.70181205616E+03  0.89276867988E+03  0.70580050856E+02 0.  0.
         24    2    4    4    0    0 -0.40444390706E+03 -0.63456387692E+02 -0.12100486226E+04  0.12800763786E+04  0.82318156327E+02 0.  0.
         13    1    3    3    0    0  0.38314474693E+02  0.34678446342E+03 -0.40989264831E+03  0.53827450820E+03  0.00000000000E+00 0. -1.
        -13    1    3    3    0    0  0.24723407450E+02  0.14440564539E+03 -0.82302416214E+02  0.16804143837E+03  0.00000000000E+00 0.  1.
          4    1    6    6  502    0 -0.23590262579E+03 -0.12098490107E+01 -0.62393817785E+03  0.66704599719E+03  0.00000000000E+00 0. -1.
          1    1    5    5  503    0  0.25156360473E+03 -0.35465191732E+03 -0.57719176645E+03  0.72264276440E+03  0.00000000000E+00 0. -1.
         -4    1    5    5    0  503  0.89842420187E+02 -0.73081803797E+02 -0.12462028971E+03  0.17012591548E+03  0.00000000000E+00 0.  1.
         -3    1    6    6    0  502 -0.16854128128E+03 -0.62246538681E+02 -0.58611044472E+03  0.61303038137E+03  0.00000000000E+00 0.  1.
<mgrwt>
<rscale>  0 0.15843245E+04</rscale>
<asrwt>0</asrwt>
<pdfrwt beam="1">  1        2 0.40640127E+00 0.15843245E+04</pdfrwt>
<pdfrwt beam="2">  1       -2 0.36546561E-01 0.15843245E+04</pdfrwt>
<totfact> 0.19527928E+01</totfact>
</mgrwt>
</event>
<event>
12    1  0.1691697E-007  0.1693734E+04  0.7818608E-02  0.8764946E-01
          2   -1    0    0  501    0  0.00000000000E+00  0.00000000000E+00  0.59796649549E+03  0.59796649549E+03  0.00000000000E+00 0. -1.
         -2   -1    0    0    0  501 -0.00000000000E+00 -0.00000000000E+00 -0.11993704591E+04  0.11993704591E+04  0.00000000000E+00 0.  1.
         23    2    1    2    0    0 -0.36907849099E+03  0.44422156235E+03 -0.31001954072E+03  0.66182710592E+03  0.91385302603E+02 0.  0.
        254    2    1    2    0    0  0.36907849099E+03 -0.44422156235E+03 -0.29138442288E+03  0.11355098487E+04  0.93323416436E+03 0.  0.
        -24    2    4    4    0    0 -0.49493652542E+02 -0.60210717047E+02 -0.50981381832E+03  0.52176809335E+03  0.79100327410E+02 0.  0.
         24    2    4    4    0    0  0.41857214354E+03 -0.38401084530E+03  0.21842939544E+03  0.61374175531E+03  0.79376147310E+02 0.  0.
         11    1    3    3    0    0 -0.10993266531E+03  0.13617532398E+03 -0.14298626160E+03  0.22599553263E+03  0.00000000000E+00 0. -1.
        -11    1    3    3    0    0 -0.25914582568E+03  0.30804623837E+03 -0.16703327913E+03  0.43583157329E+03  0.00000000000E+00 0.  1.
          2    1    6    6  502    0  0.22293239086E+02 -0.83474072883E+00  0.77241998552E+01  0.23608230862E+02  0.00000000000E+00 0. -1.
          3    1    5    5  503    0  0.16080538976E+02  0.37241395101E+01 -0.43085286795E+02  0.46138865256E+02  0.00000000000E+00 0. -1.
         -4    1    5    5    0  503 -0.65574191518E+02 -0.63934856557E+02 -0.46672853153E+03  0.47562922810E+03  0.00000000000E+00 0.  1.
         -1    1    6    6    0  502  0.39627890445E+03 -0.38317610457E+03  0.21070519559E+03  0.59013352444E+03  0.00000000000E+00 0.  1.
<mgrwt>
<rscale>  0 0.16937336E+04</rscale>
<asrwt>0</asrwt>
<pdfrwt beam="1">  1        2 0.91994845E-01 0.16937336E+04</pdfrwt>
<pdfrwt beam="2">  1       -2 0.18451853E+00 0.16937336E+04</pdfrwt>
<totfact> 0.79967362E+00</totfact>
</mgrwt>
</event>
<event>
12    1  0.1467288E-007  0.1828153E+04  0.7818608E-02  0.8691470E-01
          1   -1    0    0  501    0  0.00000000000E+00  0.00000000000E+00  0.82889151034E+03  0.82889151034E+03  0.00000000000E+00 0. -1.
         -1   -1    0    0    0  501 -0.00000000000E+00 -0.00000000000E+00 -0.10080162924E+04  0.10080162924E+04  0.00000000000E+00 0.  1.
         23    2    1    2    0    0 -0.64706045860E+03  0.24626676429E+03 -0.69302729395E+02  0.70116922065E+03  0.86607455873E+02 0.  0.
        254    2    1    2    0    0  0.64706045860E+03 -0.24626676429E+03 -0.10982205267E+03  0.11357385821E+04  0.89359201390E+03 0.  0.
        -24    2    4    4    0    0  0.56691742925E+03 -0.19136672338E+03  0.32305153727E+03  0.68466590085E+03  0.79928128015E+02 0.  0.
         24    2    4    4    0    0  0.80143029353E+02 -0.54900040906E+02 -0.43287358994E+03  0.45107268124E+03  0.81548140677E+02 0.  0.
         13    1    3    3    0    0 -0.35358061348E+03  0.13844651176E+03 -0.81118252541E+02  0.38828708161E+03  0.00000000000E+00 0.  1.
        -13    1    3    3    0    0 -0.29347984512E+03  0.10782025253E+03  0.11815523146E+02  0.31288213905E+03  0.00000000000E+00 0. -1.
          2    1    6    6  502    0 -0.92062901326E+01 -0.20550196415E+02 -0.33342707236E+02  0.40234344490E+02  0.00000000000E+00 0. -1.
          1    1    5    5  503    0  0.77691347516E+02 -0.58996326336E+01  0.64072081164E+02  0.10087607610E+03  0.00000000000E+00 0. -1.
         -2    1    5    5    0  503  0.48922608173E+03 -0.18546709075E+03  0.25897945611E+03  0.58378982475E+03  0.00000000000E+00 0.  1.
         -1    1    6    6    0  502  0.89349319486E+02 -0.34349844491E+02 -0.39953088270E+03  0.41083833675E+03  0.00000000000E+00 0.  1.
<mgrwt>
<rscale>  0 0.18281533E+04</rscale>
<asrwt>0</asrwt>
<pdfrwt beam="1">  1        1 0.12752177E+00 0.18281533E+04</pdfrwt>
<pdfrwt beam="2">  1       -1 0.15507943E+00 0.18281533E+04</pdfrwt>
<totfact> 0.62620530E+00</totfact>
</mgrwt>
</event>
<event>
12    1  0.1467288E-007  0.1391524E+04  0.7818608E-02  0.8959977E-01
          2   -1    0    0  501    0  0.00000000000E+00  0.00000000000E+00  0.23714815986E+04  0.23714815986E+04  0.00000000000E+00 0. -1.
         -2   -1    0    0    0  501 -0.00000000000E+00 -0.00000000000E+00 -0.20412747821E+03  0.20412747821E+03  0.00000000000E+00 0.  1.
         23    2    1    2    0    0 -0.15298438069E+03 -0.59401175516E+02 -0.31414205938E+02  0.19061627387E+03  0.91733260829E+02 0.  0.
        254    2    1    2    0    0  0.15298438069E+03  0.59401175516E+02  0.21987683263E+04  0.23849928029E+04  0.90921713404E+03 0.  0.
        -24    2    4    4    0    0  0.68273195754E+02  0.23418914175E+03  0.21552569043E+04  0.21704654575E+04  0.79260299318E+02 0.  0.
         24    2    4    4    0    0  0.84711184936E+02 -0.17478796623E+03  0.43511422020E+02  0.21452734549E+03  0.80011999878E+02 0.  0.
         13    1    3    3    0    0 -0.66005914004E+02 -0.34482278847E+02  0.31036248105E+02  0.80678726654E+02  0.00000000000E+00 0. -1.
        -13    1    3    3    0    0 -0.86978466685E+02 -0.24918896668E+02 -0.62450454043E+02  0.10993754722E+03  0.00000000000E+00 0.  1.
          2    1    6    6  502    0  0.52566612068E+01  0.42199687871E+01  0.15219225841E+02  0.16645283380E+02  0.00000000000E+00 0. -1.
          1    1    5    5  503    0 -0.18738279085E+01  0.13338131893E+03  0.10709338464E+04  0.10792096140E+04  0.00000000000E+00 0. -1.
         -2    1    5    5    0  503  0.70147023662E+02  0.10080782282E+03  0.10843230579E+04  0.10912558435E+04  0.00000000000E+00 0.  1.
         -1    1    6    6    0  502  0.79454523729E+02 -0.17900793502E+03  0.28292196180E+02  0.19788206211E+03  0.00000000000E+00 0.  1.
<mgrwt>
<rscale>  0 0.13915237E+04</rscale>
<asrwt>0</asrwt>
<pdfrwt beam="1">  1        2 0.36484330E+00 0.13915237E+04</pdfrwt>
<pdfrwt beam="2">  1       -2 0.31404229E-01 0.13915237E+04</pdfrwt>
<totfact> 0.37938406E+01</totfact>
</mgrwt>
</event>
<event>
12    1  0.1467288E-007  0.1460433E+04  0.7818608E-02  0.8911200E-01
          1   -1    0    0  501    0  0.00000000000E+00  0.00000000000E+00  0.21530231285E+04  0.21530231285E+04  0.00000000000E+00 0. -1.
         -1   -1    0    0    0  501 -0.00000000000E+00 -0.00000000000E+00 -0.24765912584E+03  0.24765912584E+03  0.00000000000E+00 0.  1.
         23    2    1    2    0    0 -0.25236880165E+03 -0.29776251698E+02 -0.11198365974E+02  0.26982588314E+03  0.90022033981E+02 0.  0.
        254    2    1    2    0    0  0.25236880165E+03  0.29776251698E+02  0.19165623686E+04  0.21308563712E+04  0.89596926543E+03 0.  0.
        -24    2    4    4    0    0  0.30232633110E+03 -0.34449286999E+03  0.60166797668E+03  0.76048774634E+03  0.79124649843E+02 0.  0.
         24    2    4    4    0    0 -0.49957529456E+02  0.37426912169E+03  0.13148943919E+04  0.13703686249E+04  0.79936073275E+02 0.  0.
         11    1    3    3    0    0 -0.23679180645E+03 -0.34788049323E+02 -0.34024924426E+02  0.24174007417E+03  0.00000000000E+00 0.  1.
        -11    1    3    3    0    0 -0.15576995200E+02  0.50117976249E+01  0.22826558452E+02  0.28085808973E+02  0.00000000000E+00 0. -1.
          4    1    6    6  502    0 -0.67160534972E+02  0.34429382190E+03  0.12173837177E+04  0.12669143181E+04  0.00000000000E+00 0. -1.
          1    1    5    5  503    0  0.22320219629E+03 -0.19754396245E+03  0.37611891798E+03  0.47990444674E+03  0.00000000000E+00 0. -1.
         -2    1    5    5    0  503  0.79124134810E+02 -0.14694890754E+03  0.22554905869E+03  0.28058329960E+03  0.00000000000E+00 0.  1.
         -3    1    6    6    0  502  0.17203005516E+02  0.29975299794E+02  0.97510674261E+02  0.10345430678E+03  0.00000000000E+00 0.  1.
<mgrwt>
<rscale>  0 0.14604326E+04</rscale>
<asrwt>0</asrwt>
<pdfrwt beam="1">  1        1 0.33123432E+00 0.14604326E+04</pdfrwt>
<pdfrwt beam="2">  1       -1 0.38101405E-01 0.14604326E+04</pdfrwt>
<totfact> 0.15168277E+01</totfact>
</mgrwt>
</event>
<event>
12    1  0.1467288E-007  0.1399794E+04  0.7818608E-02  0.8953968E-01
          2   -1    0    0  501    0  0.00000000000E+00  0.00000000000E+00  0.29745337374E+04  0.29745337374E+04  0.00000000000E+00 0.  1.
         -2   -1    0    0    0  501 -0.00000000000E+00 -0.00000000000E+00 -0.16468321162E+03  0.16468321162E+03  0.00000000000E+00 0. -1.
         23    2    1    2    0    0  0.30979491211E+02 -0.31853822116E+03  0.32436834069E+03  0.46588940390E+03  0.97014375246E+02 0.  0.
        254    2    1    2    0    0 -0.30979491211E+02  0.31853822116E+03  0.24854821851E+04  0.26733275452E+04  0.93093079437E+03 0.  0.
        -24    2    4    4    0    0  0.28143861672E+03 -0.17994785479E+03  0.54587272309E+03  0.64491432547E+03  0.79677675389E+02 0.  0.
         24    2    4    4    0    0 -0.31241810793E+03  0.49848607595E+03  0.19396094620E+04  0.20284132197E+04  0.79258327640E+02 0.  0.
         13    1    3    3    0    0  0.52645616402E+02 -0.21751829034E+03  0.17416238194E+03  0.28358121031E+03  0.00000000000E+00 0. -1.
        -13    1    3    3    0    0 -0.21666125191E+02 -0.10101993082E+03  0.15020595875E+03  0.18230819359E+03  0.00000000000E+00 0.  1.
          2    1    6    6  502    0 -0.28817033009E+02  0.14387607533E+02  0.90513498312E+02  0.96073503208E+02  0.00000000000E+00 0. -1.
          3    1    5    5  503    0 -0.36181056135E+01  0.19490571592E+01  0.22003337526E+01  0.46616499937E+01  0.00000000000E+00 0. -1.
         -4    1    5    5    0  503  0.28505672234E+03 -0.18189691195E+03  0.54367238934E+03  0.64025267548E+03  0.00000000000E+00 0.  1.
         -1    1    6    6    0  502 -0.28360107492E+03  0.48409846842E+03  0.18490959637E+04  0.19323397165E+04  0.00000000000E+00 0.  1.
<mgrwt>
<rscale>  0 0.13997939E+04</rscale>
<asrwt>0</asrwt>
<pdfrwt beam="1">  1        2 0.45762054E+00 0.13997939E+04</pdfrwt>
<pdfrwt beam="2">  1       -2 0.25335881E-01 0.13997939E+04</pdfrwt>
<totfact> 0.24834831E+01</totfact>
</mgrwt>
</event>
<event>
12    1  0.1467288E-007  0.1322267E+04  0.7818608E-02  0.9012091E-01
         -2   -1    0    0    0  501 -0.00000000000E+00  0.00000000000E+00  0.11326579063E+04  0.11326579063E+04  0.00000000000E+00 0.  1.
          2   -1    0    0  501    0  0.00000000000E+00 -0.00000000000E+00 -0.38590412510E+03  0.38590412510E+03  0.00000000000E+00 0. -1.
         23    2    1    2    0    0  0.11897305977E+03 -0.72089848263E+02  0.56474837304E+03  0.58965661768E+03  0.96967348893E+02 0.  0.
        254    2    1    2    0    0 -0.11897305977E+03  0.72089848263E+02  0.18200540814E+03  0.92890541370E+03  0.90021539857E+03 0.  0.
        -24    2    4    4    0    0 -0.11622896925E+02  0.24085272084E+02  0.53848961408E+03  0.54518950463E+03  0.80903272038E+02 0.  0.
         24    2    4    4    0    0 -0.10735016285E+03  0.48004576179E+02 -0.35648420594E+03  0.38371590906E+03  0.79551322974E+02 0.  0.
         13    1    3    3    0    0  0.29673065732E+02 -0.14552624673E+02  0.33397969552E+03  0.33561094549E+03  0.00000000000E+00 0.  1.
        -13    1    3    3    0    0  0.89299994041E+02 -0.57537223590E+02  0.23076867752E+03  0.25404567219E+03  0.00000000000E+00 0. -1.
          2    1    6    6  502    0 -0.58348752976E+02  0.59795871836E+02 -0.27934596061E+03  0.29157209910E+03  0.00000000000E+00 0. -1.
          1    1    5    5  503    0 -0.36605271163E+02  0.73998620711E+01  0.45371165801E+03  0.45524605703E+03  0.00000000000E+00 0. -1.
         -2    1    5    5    0  503  0.24982374237E+02  0.16685410013E+02  0.84777956075E+02  0.89943447599E+02  0.00000000000E+00 0.  1.
         -1    1    6    6    0  502 -0.49001409872E+02 -0.11791295657E+02 -0.77138245324E+02  0.92143809962E+02  0.00000000000E+00 0.  1.
<mgrwt>
<rscale>  0 0.13222668E+04</rscale>
<asrwt>0</asrwt>
<pdfrwt beam="1">  1        2 0.59369866E-01 0.13222668E+04</pdfrwt>
<pdfrwt beam="2">  1       -2 0.17425506E+00 0.13222668E+04</pdfrwt>
<totfact> 0.16096198E+01</totfact>
</mgrwt>
</event>
<event>
12    1  0.1467288E-007  0.2707572E+04  0.7818608E-02  0.8332552E-01
          2   -1    0    0  501    0  0.00000000000E+00  0.00000000000E+00  0.16284689954E+04  0.16284689954E+04  0.00000000000E+00 0. -1.
         -2   -1    0    0    0  501 -0.00000000000E+00 -0.00000000000E+00 -0.11254355844E+04  0.11254355844E+04  0.00000000000E+00 0.  1.
         23    2    1    2    0    0 -0.66895063519E+03 -0.66744505390E+03 -0.52925092373E+03  0.10871460456E+04  0.93819677658E+02 0.  0.
        254    2    1    2    0    0  0.66895063519E+03  0.66744505390E+03  0.10322843348E+04  0.16667585342E+04  0.90525974786E+03 0.  0.
        -24    2    4    4    0    0  0.19149889188E+03 -0.17346164562E+03  0.35520305515E+02  0.27569247443E+03  0.89352561595E+02 0.  0.
         24    2    4    4    0    0  0.47745174331E+03  0.84090669952E+03  0.99676402931E+03  0.13910660598E+04  0.80262120705E+02 0.  0.
         13    1    3    3    0    0 -0.48043317184E+03 -0.41720589924E+03 -0.35787781152E+03  0.73003652166E+03  0.00000000000E+00 0.  1.
        -13    1    3    3    0    0 -0.18851746334E+03 -0.25023915465E+03 -0.17137311221E+03  0.35710952395E+03  0.00000000000E+00 0. -1.
          2    1    6    6  502    0  0.51040806070E+02  0.12253162230E+03  0.17048627410E+03  0.21606649903E+03  0.00000000000E+00 0. -1.
          1    1    5    5  503    0  0.11559797079E+03 -0.46616945547E+02  0.27590145763E+02  0.12766066977E+03  0.00000000000E+00 0. -1.
         -2    1    5    5    0  503  0.75900921091E+02 -0.12684470007E+03  0.79301597529E+01  0.14803180466E+03  0.00000000000E+00 0.  1.
         -1    1    6    6    0  502  0.42641093724E+03  0.71837507722E+03  0.82627775521E+03  0.11749995607E+04  0.00000000000E+00 0.  1.
<mgrwt>
<rscale>  0 0.27075723E+04</rscale>
<asrwt>0</asrwt>
<pdfrwt beam="1">  1        2 0.25053369E+00 0.27075723E+04</pdfrwt>
<pdfrwt beam="2">  1       -2 0.17314394E+00 0.27075723E+04</pdfrwt>
<totfact> 0.19088004E+00</totfact>
</mgrwt>
</event>
<event>
12    1  0.1467288E-007  0.2922194E+04  0.7818608E-02  0.8266304E-01
         -2   -1    0    0    0  501 -0.00000000000E+00  0.00000000000E+00  0.15215626019E+04  0.15215626019E+04  0.00000000000E+00 0.  1.
          2   -1    0    0  501    0  0.00000000000E+00 -0.00000000000E+00 -0.14030345717E+04  0.14030345717E+04  0.00000000000E+00 0. -1.
         23    2    1    2    0    0 -0.22093467721E+03 -0.27259939688E+03  0.13440342609E+04  0.13920118184E+04  0.90256551774E+02 0.  0.
        254    2    1    2    0    0  0.22093467721E+03  0.27259939688E+03 -0.12255062307E+04  0.15325853552E+04  0.85078186793E+03 0.  0.
        -24    2    4    4    0    0 -0.17681558009E+03  0.43935981944E+03 -0.61574531586E+03  0.78091603718E+03  0.79917224740E+02 0.  0.
         24    2    4    4    0    0  0.39775025731E+03 -0.16676042257E+03 -0.60976091487E+03  0.75166931807E+03  0.84758980114E+02 0.  0.
         13    1    3    3    0    0 -0.80226260516E+02 -0.12008777656E+03  0.72127014569E+03  0.73558680658E+03  0.00000000000E+00 0.  1.
        -13    1    3    3    0    0 -0.14070841670E+03 -0.15251162031E+03  0.62276411524E+03  0.65642501178E+03  0.00000000000E+00 0. -1.
          4    1    6    6  502    0  0.72886003142E+02 -0.62303480212E+02 -0.10299852090E+03  0.14072238062E+03  0.00000000000E+00 0. -1.
          3    1    5    5  503    0 -0.34499140756E+02  0.10061994488E+03 -0.89034987094E+02  0.13871478994E+03  0.00000000000E+00 0. -1.
         -4    1    5    5    0  503 -0.14231643934E+03  0.33873987456E+03 -0.52671032877E+03  0.64220124724E+03  0.00000000000E+00 0.  1.
         -3    1    6    6    0  502  0.32486425416E+03 -0.10445694236E+03 -0.50676239397E+03  0.61094693745E+03  0.00000000000E+00 0.  1.
<mgrwt>
<rscale>  0 0.29221943E+04</rscale>
<asrwt>0</asrwt>
<pdfrwt beam="1">  1        2 0.21585147E+00 0.29221943E+04</pdfrwt>
<pdfrwt beam="2">  1       -2 0.23408655E+00 0.29221943E+04</pdfrwt>
<totfact> 0.10010181E+00</totfact>
</mgrwt>
</event>
<event>
12    1  0.1467288E-007  0.1352016E+04  0.7818608E-02  0.8989303E-01
          1   -1    0    0  501    0  0.00000000000E+00  0.00000000000E+00  0.10487862086E+04  0.10487862086E+04  0.00000000000E+00 0. -1.
         -1   -1    0    0    0  501 -0.00000000000E+00 -0.00000000000E+00 -0.43572932016E+03  0.43572932016E+03  0.00000000000E+00 0.  1.
         23    2    1    2    0    0  0.59669859360E+02 -0.20846373365E+03  0.52538722041E+03  0.57597509888E+03  0.93262869354E+02 0.  0.
        254    2    1    2    0    0 -0.59669859360E+02  0.20846373365E+03  0.87669668005E+02  0.90854042986E+03  0.87791919994E+03 0.  0.
        -24    2    4    4    0    0 -0.43008576014E+03  0.25165692930E+03 -0.39459383974E+02  0.50628693617E+03  0.80401788598E+02 0.  0.
         24    2    4    4    0    0  0.37041590078E+03 -0.43193195653E+02  0.12712905198E+03  0.40225349369E+03  0.81070867944E+02 0.  0.
         13    1    3    3    0    0  0.47267895888E+02 -0.20793842336E+03  0.43197441698E+03  0.48174115334E+03  0.00000000000E+00 0. -1.
        -13    1    3    3    0    0  0.12401963472E+02 -0.52531028829E+00  0.93412803430E+02  0.94233945548E+02  0.00000000000E+00 0.  1.
          4    1    6    6  502    0  0.32567820825E+03 -0.56444637514E+02  0.89841552011E+02  0.34252561496E+03  0.00000000000E+00 0. -1.
          1    1    5    5  503    0 -0.41791954256E+03  0.22328315757E+03 -0.38710450942E+02  0.47540573357E+03  0.00000000000E+00 0. -1.
         -2    1    5    5    0  503 -0.12166217580E+02  0.28373771737E+02 -0.74893303216E+00  0.30881202591E+02  0.00000000000E+00 0.  1.
         -3    1    6    6    0  502  0.44737692523E+02  0.13251441861E+02  0.37287499968E+02  0.59727878730E+02  0.00000000000E+00 0.  1.
<mgrwt>
<rscale>  0 0.13520161E+04</rscale>
<asrwt>0</asrwt>
<pdfrwt beam="1">  1        1 0.16135172E+00 0.13520161E+04</pdfrwt>
<pdfrwt beam="2">  1       -1 0.67035280E-01 0.13520161E+04</pdfrwt>
<totfact> 0.30600935E+01</totfact>
</mgrwt>
</event>
<event>
12    1  0.1467288E-007  0.1089726E+04  0.7818608E-02  0.9215263E-01
         -1   -1    0    0    0  501 -0.00000000000E+00  0.00000000000E+00  0.11610249144E+04  0.11610249144E+04  0.00000000000E+00 0.  1.
          1   -1    0    0  501    0  0.00000000000E+00 -0.00000000000E+00 -0.25570157679E+03  0.25570157679E+03  0.00000000000E+00 0. -1.
         23    2    1    2    0    0 -0.66474705393E+02 -0.11973003806E+03  0.69765046188E+02  0.17772369422E+03  0.89243382649E+02 0.  0.
        254    2    1    2    0    0  0.66474705393E+02  0.11973003806E+03  0.83555829147E+03  0.12390027970E+04  0.90455298579E+03 0.  0.
        -24    2    4    4    0    0 -0.29996255765E+01  0.49145457688E+03  0.62842498622E+03  0.80161644837E+03  0.78322206962E+02 0.  0.
         24    2    4    4    0    0  0.69474330969E+02 -0.37172453882E+03  0.20713330525E+03  0.43738634865E+03  0.73462891443E+02 0.  0.
         13    1    3    3    0    0  0.21873951144E+01 -0.87601223411E+02  0.38868240039E+02  0.95861875238E+02  0.00000000000E+00 0. -1.
        -13    1    3    3    0    0 -0.68662100507E+02 -0.32128814649E+02  0.30896806149E+02  0.81861818982E+02  0.00000000000E+00 0.  1.
          2    1    6    6  502    0  0.39200997989E+02 -0.29115222018E+03  0.12795564517E+03  0.32043561084E+03  0.00000000000E+00 0. -1.
          3    1    5    5  503    0  0.19357568162E+02  0.10815077869E+03  0.18398059051E+03  0.21428990657E+03  0.00000000000E+00 0. -1.
         -4    1    5    5    0  503 -0.22357193739E+02  0.38330379818E+03  0.44444439572E+03  0.58732654179E+03  0.00000000000E+00 0.  1.
         -1    1    6    6    0  502  0.30273332980E+02 -0.80572318634E+02  0.79177660076E+02  0.11695073781E+03  0.00000000000E+00 0.  1.
<mgrwt>
<rscale>  0 0.10897264E+04</rscale>
<asrwt>0</asrwt>
<pdfrwt beam="1">  1        1 0.39338705E-01 0.10897264E+04</pdfrwt>
<pdfrwt beam="2">  1       -1 0.17861921E+00 0.10897264E+04</pdfrwt>
<totfact> 0.22935960E+01</totfact>
</mgrwt>
</event>
<event>
12    1  0.1467288E-007  0.1762969E+04  0.7818608E-02  0.8726244E-01
          1   -1    0    0  501    0  0.00000000000E+00  0.00000000000E+00  0.74978352580E+03  0.74978352580E+03  0.00000000000E+00 0. -1.
         -1   -1    0    0    0  501 -0.00000000000E+00 -0.00000000000E+00 -0.10363193484E+04  0.10363193484E+04  0.00000000000E+00 0.  1.
         23    2    1    2    0    0 -0.51267775523E+03  0.39657813767E+03 -0.22403505737E+02  0.65502014035E+03  0.91851876429E+02 0.  0.
        254    2    1    2    0    0  0.51267775523E+03 -0.39657813767E+03 -0.26413231682E+03  0.11310827338E+04  0.88852100139E+03 0.  0.
        -24    2    4    4    0    0  0.15766709647E+02 -0.31126894957E+03  0.24955302846E+03  0.40716228600E+03  0.79796397357E+02 0.  0.
         24    2    4    4    0    0  0.49691104559E+03 -0.85309188098E+02 -0.51368534527E+03  0.72392044779E+03  0.77394676689E+02 0.  0.
         11    1    3    3    0    0 -0.43754891454E+02  0.12274983805E+02 -0.17560739134E+02  0.48719044659E+02  0.00000000000E+00 0.  1.
        -11    1    3    3    0    0 -0.46892286378E+03  0.38430315387E+03 -0.48427666030E+01  0.60630109569E+03  0.00000000000E+00 0. -1.
          2    1    6    6  502    0  0.14986274096E+03 -0.96860804163E+01 -0.10958700647E+03  0.18590850779E+03  0.00000000000E+00 0. -1.
          1    1    5    5  503    0 -0.62058664528E-01 -0.24663961235E+03  0.15415788116E+03  0.29085349329E+03  0.00000000000E+00 0. -1.
         -2    1    5    5    0  503  0.15828768311E+02 -0.64629337219E+02  0.95395147298E+02  0.11630879272E+03  0.00000000000E+00 0.  1.
         -1    1    6    6    0  502  0.34704830463E+03 -0.75623107682E+02 -0.40409833880E+03  0.53801194000E+03  0.00000000000E+00 0.  1.
<mgrwt>
<rscale>  0 0.17629693E+04</rscale>
<asrwt>0</asrwt>
<pdfrwt beam="1">  1        1 0.11535131E+00 0.17629693E+04</pdfrwt>
<pdfrwt beam="2">  1       -1 0.15943375E+00 0.17629693E+04</pdfrwt>
<totfact> 0.68459681E+00</totfact>
</mgrwt>
</event>
<event>
12    1  0.1467288E-007  0.1369064E+04  0.7818608E-02  0.8976521E-01
         -2   -1    0    0    0  501 -0.00000000000E+00  0.00000000000E+00  0.18252884728E+03  0.18252884728E+03  0.00000000000E+00 0.  1.
          2   -1    0    0  501    0  0.00000000000E+00 -0.00000000000E+00 -0.25671792090E+04  0.25671792090E+04  0.00000000000E+00 0. -1.
         23    2    1    2    0    0  0.25273167483E+03 -0.14924520455E+03 -0.21651317616E+03  0.37598394524E+03  0.91315612521E+02 0.  0.
        254    2    1    2    0    0 -0.25273167483E+03  0.14924520455E+03 -0.21681371855E+04  0.23737241110E+04  0.92065187195E+03 0.  0.
        -24    2    4    4    0    0 -0.36223296982E+03  0.31967550404E+02 -0.21625216305E+04  0.21943406062E+04  0.79976527278E+02 0.  0.
         24    2    4    4    0    0  0.10950129500E+03  0.11727765415E+03 -0.56155550603E+01  0.17938350483E+03  0.80014533547E+02 0.  0.
         11    1    3    3    0    0  0.15044432628E+03 -0.65595273989E+02 -0.16896401364E+03  0.23555269725E+03  0.00000000000E+00 0. -1.
        -11    1    3    3    0    0  0.10228734855E+03 -0.83649930562E+02 -0.47549162520E+02  0.14043124799E+03  0.00000000000E+00 0.  1.
          2    1    6    6  502    0  0.10305136503E+03  0.66344401625E+02  0.16149905063E+02  0.12362031748E+03  0.00000000000E+00 0. -1.
          3    1    5    5  503    0 -0.32197154219E+03  0.51909810539E+02 -0.18356698841E+04  0.18644152504E+04  0.00000000000E+00 0. -1.
         -4    1    5    5    0  503 -0.40261427638E+02 -0.19942260135E+02 -0.32685174637E+03  0.32992535580E+03  0.00000000000E+00 0.  1.
         -1    1    6    6    0  502  0.64499299714E+01  0.50933252521E+02 -0.21765460123E+02  0.55763187349E+02  0.00000000000E+00 0.  1.
<mgrwt>
<rscale>  0 0.13690643E+04</rscale>
<asrwt>0</asrwt>
<pdfrwt beam="1">  1        2 0.39495066E+00 0.13690643E+04</pdfrwt>
<pdfrwt beam="2">  1       -2 0.28081360E-01 0.13690643E+04</pdfrwt>
<totfact> 0.36145748E+01</totfact>
</mgrwt>
</event>
<event>
12    1  0.1467288E-007  0.1710571E+04  0.7818608E-02  0.8755358E-01
          2   -1    0    0  501    0  0.00000000000E+00  0.00000000000E+00  0.97071020879E+03  0.97071020879E+03  0.00000000000E+00 0. -1.
         -2   -1    0    0    0  501 -0.00000000000E+00 -0.00000000000E+00 -0.75358571282E+03  0.75358571282E+03  0.00000000000E+00 0.  1.
         23    2    1    2    0    0 -0.26546771687E+03 -0.40980891423E+03  0.46708170052E+03  0.68193567319E+03  0.91948314395E+02 0.  0.
        254    2    1    2    0    0  0.26546771687E+03  0.40980891423E+03 -0.24995720456E+03  0.10423602484E+04  0.88635197777E+03 0.  0.
        -24    2    4    4    0    0  0.27486096430E+03  0.43998844687E+03  0.21738175581E+03  0.56825363019E+03  0.80740184497E+02 0.  0.
         24    2    4    4    0    0 -0.93932474274E+01 -0.30179532635E+02 -0.46733896038E+03  0.47410661823E+03  0.73296277366E+02 0.  0.
         13    1    3    3    0    0 -0.21571590474E+03 -0.31936388267E+03  0.41487933280E+03  0.56626098391E+03  0.00000000000E+00 0. -1.
        -13    1    3    3    0    0 -0.49751812130E+02 -0.90445031560E+02  0.52202367723E+02  0.11567468928E+03  0.00000000000E+00 0.  1.
          2    1    6    6  502    0  0.48641368460E+00 -0.62763581276E+01 -0.42092908765E+03  0.42097615859E+03  0.00000000000E+00 0. -1.
          3    1    5    5  503    0  0.15403481697E+03  0.17385886012E+03  0.84241355592E+02  0.24708345568E+03  0.00000000000E+00 0. -1.
         -4    1    5    5    0  503  0.12082614733E+03  0.26612958675E+03  0.13314040022E+03  0.32117017451E+03  0.00000000000E+00 0.  1.
         -1    1    6    6    0  502 -0.98796611120E+01 -0.23903174507E+02 -0.46409872728E+02  0.53130459643E+02  0.00000000000E+00 0.  1.
<mgrwt>
<rscale>  0 0.17105711E+04</rscale>
<asrwt>0</asrwt>
<pdfrwt beam="1">  1        2 0.14934003E+00 0.17105711E+04</pdfrwt>
<pdfrwt beam="2">  1       -2 0.11593626E+00 0.17105711E+04</pdfrwt>
<totfact> 0.14463384E+01</totfact>
</mgrwt>
</event>
<event>
12    1  0.1467288E-007  0.1337638E+04  0.7818608E-02  0.9000239E-01
          1   -1    0    0  501    0  0.00000000000E+00  0.00000000000E+00  0.16324920195E+03  0.16324920195E+03  0.00000000000E+00 0. -1.
         -1   -1    0    0    0  501 -0.00000000000E+00 -0.00000000000E+00 -0.27400971620E+04  0.27400971620E+04  0.00000000000E+00 0.  1.
         23    2    1    2    0    0 -0.28329931700E+03  0.22005010368E+03 -0.74784494878E+03  0.83439178985E+03  0.90868258575E+02 0.  0.
        254    2    1    2    0    0  0.28329931700E+03 -0.22005010368E+03 -0.18290030113E+04  0.20689545741E+04  0.89813165145E+03 0.  0.
        -24    2    4    4    0    0  0.28510940307E+03  0.15636720057E+03 -0.15702141995E+04  0.16053517264E+04  0.76442527460E+02 0.  0.
         24    2    4    4    0    0 -0.18100860749E+01 -0.37641730425E+03 -0.25878881176E+03  0.46360284770E+03  0.79137146459E+02 0.  0.
         13    1    3    3    0    0 -0.10395858604E+03  0.10401842485E+03 -0.40023199526E+03  0.42639520442E+03  0.00000000000E+00 0.  1.
        -13    1    3    3    0    0 -0.17934073096E+03  0.11603167883E+03 -0.34761295352E+03  0.40799658543E+03  0.00000000000E+00 0. -1.
          4    1    6    6  502    0 -0.16510756652E+02 -0.13630491761E+02 -0.11474178035E+02  0.24290989120E+02  0.00000000000E+00 0. -1.
          3    1    5    5  503    0  0.19799197117E+03  0.89737988365E+02 -0.87841191052E+03  0.90490950473E+03  0.00000000000E+00 0. -1.
         -4    1    5    5    0  503  0.87117431903E+02  0.66629212201E+02 -0.69180228900E+03  0.70044222169E+03  0.00000000000E+00 0.  1.
         -3    1    6    6    0  502  0.14700670577E+02 -0.36278681249E+03 -0.24731463373E+03  0.43931185858E+03  0.00000000000E+00 0.  1.
<mgrwt>
<rscale>  0 0.13376377E+04</rscale>
<asrwt>0</asrwt>
<pdfrwt beam="1">  1        1 0.25115262E-01 0.13376377E+04</pdfrwt>
<pdfrwt beam="2">  1       -1 0.42155340E+00 0.13376377E+04</pdfrwt>
<totfact> 0.97842519E-01</totfact>
</mgrwt>
</event>
<event>
12    1  0.1467288E-007  0.1171561E+04  0.7818608E-02  0.9138120E-01
          2   -1    0    0  501    0  0.00000000000E+00  0.00000000000E+00  0.59862366837E+03  0.59862366837E+03  0.00000000000E+00 0. -1.
         -2   -1    0    0    0  501 -0.00000000000E+00 -0.00000000000E+00 -0.57321320238E+03  0.57321320238E+03  0.00000000000E+00 0.  1.
         23    2    1    2    0    0 -0.99030189567E+02  0.58466302351E+02 -0.18920095264E+03  0.23950866358E+03  0.91335165693E+02 0.  0.
        254    2    1    2    0    0  0.99030189567E+02 -0.58466302351E+02  0.21461141863E+03  0.93232820716E+03  0.89997363179E+03 0.  0.
        -24    2    4    4    0    0  0.23336126427E+03  0.31119022632E+03 -0.11475234875E+03  0.41316961664E+03  0.79020212307E+02 0.  0.
         24    2    4    4    0    0 -0.13433107470E+03 -0.36965652867E+03  0.32936376738E+03  0.51915859053E+03  0.79714264955E+02 0.  0.
         13    1    3    3    0    0 -0.65135246682E+02  0.18701351829E+02 -0.34139427642E+02  0.75880441751E+02  0.00000000000E+00 0.  1.
        -13    1    3    3    0    0 -0.33894942885E+02  0.39764950523E+02 -0.15506152500E+03  0.16362822183E+03  0.00000000000E+00 0. -1.
          4    1    6    6  502    0  0.61026125923E+01 -0.11030119405E+02  0.25980238774E+02  0.28876949653E+02  0.00000000000E+00 0. -1.
          1    1    5    5  503    0  0.11244341658E+03  0.87743343726E+02 -0.34655245630E+02  0.14677670915E+03  0.00000000000E+00 0. -1.
         -2    1    5    5    0  503  0.12091784769E+03  0.22344688259E+03 -0.80097103119E+02  0.26639290748E+03  0.00000000000E+00 0.  1.
         -3    1    6    6    0  502 -0.14043368729E+03 -0.35862640926E+03  0.30338352861E+03  0.49028164088E+03  0.00000000000E+00 0.  1.
<mgrwt>
<rscale>  0 0.11715613E+04</rscale>
<asrwt>0</asrwt>
<pdfrwt beam="1">  1        2 0.92095949E-01 0.11715613E+04</pdfrwt>
<pdfrwt beam="2">  1       -2 0.88186646E-01 0.11715613E+04</pdfrwt>
<totfact> 0.54478072E+01</totfact>
</mgrwt>
</event>
<event>
12    1  0.1467288E-007  0.3410531E+04  0.7818608E-02  0.8135327E-01
          2   -1    0    0  501    0  0.00000000000E+00  0.00000000000E+00  0.43528724665E+04  0.43528724665E+04  0.00000000000E+00 0. -1.
         -2   -1    0    0    0  501 -0.00000000000E+00 -0.00000000000E+00 -0.66804860826E+03  0.66804860826E+03  0.00000000000E+00 0.  1.
         23    2    1    2    0    0  0.12986622657E+04  0.82215577919E+03  0.22861424062E+04  0.27562883977E+04  0.90635667541E+02 0.  0.
        254    2    1    2    0    0 -0.12986622657E+04 -0.82215577919E+03  0.13986814521E+04  0.22646326771E+04  0.89988196580E+03 0.  0.
        -24    2    4    4    0    0 -0.11865306184E+04 -0.36078358425E+03  0.12468192188E+04  0.17604076128E+04  0.80356057638E+02 0.  0.
         24    2    4    4    0    0 -0.11213164730E+03 -0.46137219494E+03  0.15186223329E+03  0.50422506429E+03  0.75782378997E+02 0.  0.
         11    1    3    3    0    0  0.10693955318E+03  0.48695286131E+02  0.20863052980E+03  0.23944518556E+03  0.00000000000E+00 0. -1.
        -11    1    3    3    0    0  0.11917227125E+04  0.77346049306E+03  0.20775118764E+04  0.25168432121E+04  0.00000000000E+00 0.  1.
          2    1    6    6  502    0 -0.92434410921E+02 -0.40182603892E+03  0.15721786401E+03  0.44127739874E+03  0.00000000000E+00 0. -1.
          3    1    5    5  503    0 -0.79822702542E+03 -0.20657506837E+03  0.80517391842E+03  0.11524515963E+04  0.00000000000E+00 0. -1.
         -4    1    5    5    0  503 -0.38830359295E+03 -0.15420851588E+03  0.44164530036E+03  0.60795601650E+03  0.00000000000E+00 0.  1.
         -1    1    6    6    0  502 -0.19697236379E+02 -0.59546156023E+02 -0.53556307118E+01  0.62947665552E+02  0.00000000000E+00 0.  1.
<mgrwt>
<rscale>  0 0.34105310E+04</rscale>
<asrwt>0</asrwt>
<pdfrwt beam="1">  1        2 0.66967267E+00 0.34105310E+04</pdfrwt>
<pdfrwt beam="2">  1       -2 0.10277671E+00 0.34105310E+04</pdfrwt>
<totfact> 0.10834104E-01</totfact>
</mgrwt>
</event>
<event>
12    1  0.1467288E-007  0.4022970E+04  0.7818608E-02  0.7999929E-01
         -2   -1    0    0    0  501 -0.00000000000E+00  0.00000000000E+00  0.22943356178E+04  0.22943356178E+04  0.00000000000E+00 0.  1.
          2   -1    0    0  501    0  0.00000000000E+00 -0.00000000000E+00 -0.17635047053E+04  0.17635047053E+04  0.00000000000E+00 0. -1.
         23    2    1    2    0    0  0.17010528117E+04  0.36738556030E+03  0.10475189840E+04  0.20329049342E+04  0.82786661970E+02 0.  0.
        254    2    1    2    0    0 -0.17010528117E+04 -0.36738556030E+03 -0.51668807144E+03  0.20249353889E+04  0.89713095345E+03 0.  0.
        -24    2    4    4    0    0 -0.49338800733E+03 -0.43743027307E+02 -0.58445581454E+03  0.77028857722E+03  0.80066939754E+02 0.  0.
         24    2    4    4    0    0 -0.12076648044E+04 -0.32364253299E+03  0.67767743096E+02  0.12546468116E+04  0.79670483646E+02 0.  0.
         13    1    3    3    0    0  0.27600523335E+03  0.48030241243E+02  0.20227353614E+03  0.34554359542E+03  0.00000000000E+00 0. -1.
        -13    1    3    3    0    0  0.14250475784E+04  0.31935531906E+03  0.84524544783E+03  0.16873613388E+04  0.00000000000E+00 0.  1.
          2    1    6    6  502    0 -0.11713250352E+04 -0.30145025099E+03  0.57572271991E+02  0.12108629808E+04  0.00000000000E+00 0. -1.
          1    1    5    5  503    0 -0.36555167226E+03 -0.16530427514E+02 -0.47633490014E+03  0.60066314788E+03  0.00000000000E+00 0. -1.
         -2    1    5    5    0  503 -0.12783633506E+03 -0.27212599793E+02 -0.10812091440E+03  0.16962542934E+03  0.00000000000E+00 0.  1.
         -1    1    6    6    0  502 -0.36339769238E+02 -0.22192282002E+02  0.10195471105E+02  0.43783830803E+02  0.00000000000E+00 0.  1.
<mgrwt>
<rscale>  0 0.40229699E+04</rscale>
<asrwt>0</asrwt>
<pdfrwt beam="1">  1        2 0.27130841E+00 0.40229699E+04</pdfrwt>
<pdfrwt beam="2">  1       -2 0.35297471E+00 0.40229699E+04</pdfrwt>
<totfact> 0.10604476E-01</totfact>
</mgrwt>
</event>
<event>
12    1  0.1467288E-007  0.2261283E+04  0.7818608E-02  0.8493345E-01
         -2   -1    0    0    0  501 -0.00000000000E+00  0.00000000000E+00  0.13740264199E+04  0.13740264199E+04  0.00000000000E+00 0. -1.
          2   -1    0    0  501    0  0.00000000000E+00 -0.00000000000E+00 -0.93036812129E+03  0.93036812129E+03  0.00000000000E+00 0.  1.
         23    2    1    2    0    0 -0.30198649879E+03 -0.76440911524E+03  0.59417520892E+03  0.10181437175E+04  0.89751376520E+02 0.  0.
        254    2    1    2    0    0  0.30198649879E+03  0.76440911524E+03 -0.15051691031E+03  0.12862508237E+04  0.97788992240E+03 0.  0.
        -24    2    4    4    0    0 -0.37516592647E+02  0.89498363960E+03 -0.16294590372E+03  0.91398204728E+03  0.80053765245E+02 0.  0.
         24    2    4    4    0    0  0.33950309144E+03 -0.13057452436E+03  0.12428993403E+02  0.37226877645E+03  0.78214490588E+02 0.  0.
         13    1    3    3    0    0 -0.68264982394E+02 -0.89614298527E+02  0.79597055797E+02  0.13793665797E+03  0.00000000000E+00 0.  1.
        -13    1    3    3    0    0 -0.23372151640E+03 -0.67479481672E+03  0.51457815312E+03  0.88020705948E+03  0.00000000000E+00 0. -1.
          2    1    6    6  502    0  0.17086551562E+03 -0.10607194358E+03  0.16719627398E+02  0.20180641115E+03  0.00000000000E+00 0. -1.
          1    1    5    5  503    0 -0.33853148263E+02  0.82862987797E+03 -0.17183275284E+03  0.84693565591E+03  0.00000000000E+00 0. -1.
         -2    1    5    5    0  503 -0.36634443839E+01  0.66353761634E+02  0.88868491233E+01  0.67046391365E+02  0.00000000000E+00 0.  1.
         -1    1    6    6    0  502  0.16863757582E+03 -0.24502580774E+02 -0.42906339945E+01  0.17046236530E+03  0.00000000000E+00 0.  1.
<mgrwt>
<rscale>  0 0.22612832E+04</rscale>
<asrwt>0</asrwt>
<pdfrwt beam="1">  1        2 0.14313356E+00 0.22612832E+04</pdfrwt>
<pdfrwt beam="2">  1       -2 0.21138868E+00 0.22612832E+04</pdfrwt>
<totfact> 0.28532863E+00</totfact>
</mgrwt>
</event>
<event>
12    1  0.1467288E-007  0.2201381E+04  0.7818608E-02  0.8517854E-01
          1   -1    0    0  501    0  0.00000000000E+00  0.00000000000E+00  0.30511066513E+04  0.30511066513E+04  0.00000000000E+00 0. -1.
         -1   -1    0    0    0  501 -0.00000000000E+00 -0.00000000000E+00 -0.39707530262E+03  0.39707530262E+03  0.00000000000E+00 0.  1.
         23    2    1    2    0    0 -0.26806840258E+03 -0.54697377303E+02 -0.25488105752E+03  0.38459402712E+03  0.89976333937E+02 0.  0.
        254    2    1    2    0    0  0.26806840258E+03  0.54697377303E+02  0.29089124062E+04  0.30635879268E+04  0.92138326806E+03 0.  0.
        -24    2    4    4    0    0  0.29574991990E+03 -0.39318031197E+03  0.13362025431E+04  0.14260539989E+04  0.78319849940E+02 0.  0.
         24    2    4    4    0    0 -0.27681517329E+02  0.44787768927E+03  0.15727098631E+04  0.16375339279E+04  0.82099697734E+02 0.  0.
         11    1    3    3    0    0 -0.58084741107E+01 -0.16869579403E+02 -0.13926805198E+01  0.17895827440E+02  0.00000000000E+00 0. -1.
        -11    1    3    3    0    0 -0.26225992846E+03 -0.37827797900E+02 -0.25348837701E+03  0.36669819968E+03  0.00000000000E+00 0.  1.
          4    1    6    6  502    0 -0.41423994215E+02  0.35574386684E+03  0.13354850165E+04  0.13826748987E+04  0.00000000000E+00 0. -1.
          1    1    5    5  503    0  0.21131808541E+03 -0.23687686206E+03  0.77813013998E+03  0.84038830058E+03  0.00000000000E+00 0. -1.
         -2    1    5    5    0  503  0.84431834496E+02 -0.15630344991E+03  0.55807240308E+03  0.58566569834E+03  0.00000000000E+00 0.  1.
         -3    1    6    6    0  502  0.13742476886E+02  0.92133822429E+02  0.23722484660E+03  0.25485902917E+03  0.00000000000E+00 0.  1.
<mgrwt>
<rscale>  0 0.22013806E+04</rscale>
<asrwt>0</asrwt>
<pdfrwt beam="1">  1        1 0.46940101E+00 0.22013806E+04</pdfrwt>
<pdfrwt beam="2">  1       -1 0.61088510E-01 0.22013806E+04</pdfrwt>
<totfact> 0.13599801E+00</totfact>
</mgrwt>
</event>
<event>
12    1  0.1467288E-007  0.1465177E+04  0.7818608E-02  0.8907946E-01
          2   -1    0    0  501    0  0.00000000000E+00  0.00000000000E+00  0.18802415981E+04  0.18802415981E+04  0.00000000000E+00 0. -1.
         -2   -1    0    0    0  501 -0.00000000000E+00 -0.00000000000E+00 -0.28543447931E+03  0.28543447931E+03  0.00000000000E+00 0.  1.
         23    2    1    2    0    0  0.32817796437E+03 -0.29486690214E+03  0.58249803706E+03  0.73647546440E+03  0.91896029313E+02 0.  0.
        254    2    1    2    0    0 -0.32817796437E+03  0.29486690214E+03  0.10123090817E+04  0.14292006130E+04  0.90730229196E+03 0.  0.
        -24    2    4    4    0    0 -0.49206170321E+02  0.37125873582E+03  0.10184248402E+02  0.38301666092E+03  0.79647645957E+02 0.  0.
         24    2    4    4    0    0 -0.27897179405E+03 -0.76391833678E+02  0.10021248333E+04  0.10461839521E+04  0.81152362417E+02 0.  0.
         13    1    3    3    0    0  0.27293983903E+03 -0.21939219034E+03  0.50749421284E+03  0.61658694843E+03  0.00000000000E+00 0. -1.
        -13    1    3    3    0    0  0.55238125349E+02 -0.75474711802E+02  0.75003824227E+02  0.11988851597E+03  0.00000000000E+00 0.  1.
          4    1    6    6  502    0 -0.10511349279E+03 -0.53824187617E+02  0.51805925250E+03  0.53134854723E+03  0.00000000000E+00 0. -1.
          1    1    5    5  503    0 -0.15075516833E+02  0.22488336064E+02  0.17968031449E+02  0.32493793575E+02  0.00000000000E+00 0. -1.
         -2    1    5    5    0  503 -0.34130653488E+02  0.34877039975E+03 -0.77837830475E+01  0.35052286734E+03  0.00000000000E+00 0.  1.
         -3    1    6    6    0  502 -0.17385830126E+03 -0.22567646061E+02  0.48406558081E+03  0.51483540486E+03  0.00000000000E+00 0.  1.
<mgrwt>
<rscale>  0 0.14651768E+04</rscale>
<asrwt>0</asrwt>
<pdfrwt beam="1">  1        2 0.28926793E+00 0.14651768E+04</pdfrwt>
<pdfrwt beam="2">  1       -2 0.43912998E-01 0.14651768E+04</pdfrwt>
<totfact> 0.37104010E+01</totfact>
</mgrwt>
</event>
<event>
12    1  0.1467288E-007  0.1454304E+04  0.7818608E-02  0.8915422E-01
         -2   -1    0    0    0  501 -0.00000000000E+00  0.00000000000E+00  0.68009999686E+03  0.68009999686E+03  0.00000000000E+00 0.  1.
          2   -1    0    0  501    0  0.00000000000E+00 -0.00000000000E+00 -0.77745924668E+03  0.77745924668E+03  0.00000000000E+00 0. -1.
         23    2    1    2    0    0  0.26511216827E+03  0.78617502023E+02 -0.37467917001E+03  0.47434637453E+03  0.90304092931E+02 0.  0.
        254    2    1    2    0    0 -0.26511216827E+03 -0.78617502023E+02  0.27731992019E+03  0.98321286902E+03  0.90185144801E+03 0.  0.
        -24    2    4    4    0    0  0.31921812539E+03 -0.90497132722E+02  0.27051888378E+02  0.34286468409E+03  0.82063660168E+02 0.  0.
         24    2    4    4    0    0 -0.58433029366E+03  0.11879630699E+02  0.25026803181E+03  0.64034818493E+03  0.76345874071E+02 0.  0.
         11    1    3    3    0    0 -0.32427682487E+01  0.13765589878E+02 -0.26051421697E+02  0.29642597441E+02  0.00000000000E+00 0.  1.
        -11    1    3    3    0    0  0.26835493651E+03  0.64851912145E+02 -0.34862774831E+03  0.44470377709E+03  0.00000000000E+00 0. -1.
          2    1    6    6  502    0 -0.11719040865E+03 -0.17186067918E+02  0.76949949405E+02  0.14124534514E+03  0.00000000000E+00 0. -1.
          3    1    5    5  503    0  0.20728723706E+02  0.13194598438E+02 -0.55785631568E+01  0.25197178042E+02  0.00000000000E+00 0. -1.
         -4    1    5    5    0  503  0.29848940169E+03 -0.10369173116E+03  0.32630451534E+02  0.31766750604E+03  0.00000000000E+00 0.  1.
         -1    1    6    6    0  502 -0.46713988500E+03  0.29065698616E+02  0.17331808241E+03  0.49910283979E+03  0.00000000000E+00 0.  1.
<mgrwt>
<rscale>  0 0.14543040E+04</rscale>
<asrwt>0</asrwt>
<pdfrwt beam="1">  1        2 0.11960911E+00 0.14543040E+04</pdfrwt>
<pdfrwt beam="2">  1       -2 0.10463077E+00 0.14543040E+04</pdfrwt>
<totfact> 0.25716468E+01</totfact>
</mgrwt>
</event>
<event>
12    1  0.1467288E-007  0.1666760E+04  0.7818608E-02  0.8780553E-01
          2   -1    0    0  501    0  0.00000000000E+00  0.00000000000E+00  0.27998010965E+04  0.27998010965E+04  0.00000000000E+00 0.  1.
         -2   -1    0    0    0  501 -0.00000000000E+00 -0.00000000000E+00 -0.24806113993E+03  0.24806113993E+03  0.00000000000E+00 0. -1.
         23    2    1    2    0    0  0.45575334184E+03  0.37567398266E+03  0.83596044857E+03  0.10275091410E+04  0.90017295241E+02 0.  0.
        254    2    1    2    0    0 -0.45575334184E+03 -0.37567398266E+03  0.17157795080E+04  0.20203530955E+04  0.88830471141E+03 0.  0.
        -24    2    4    4    0    0 -0.41088130216E+03  0.21181746615E+03  0.68099827557E+03  0.82690512531E+03  0.79519504024E+02 0.  0.
         24    2    4    4    0    0 -0.44872039679E+02 -0.58749144881E+03  0.10347812325E+04  0.11934479701E+04  0.79913428233E+02 0.  0.
         13    1    3    3    0    0  0.40819458690E+03  0.36682018422E+03  0.75941353322E+03  0.93695719367E+03  0.00000000000E+00 0.  1.
        -13    1    3    3    0    0  0.47558754940E+02  0.88537984374E+01  0.76546915344E+02  0.90551947339E+02  0.00000000000E+00 0. -1.
          2    1    6    6  502    0  0.15892102293E+02 -0.42166854126E+02  0.96573685303E+02  0.10656959789E+03  0.00000000000E+00 0. -1.
          1    1    5    5  503    0 -0.91876784561E+02  0.23330702728E+02  0.18405454209E+03  0.20703076992E+03  0.00000000000E+00 0. -1.
         -2    1    5    5    0  503 -0.31900451760E+03  0.18848676342E+03  0.49694373348E+03  0.61987435540E+03  0.00000000000E+00 0.  1.
         -1    1    6    6    0  502 -0.60764141972E+02 -0.54532459468E+03  0.93820754717E+03  0.10868783723E+04  0.00000000000E+00 0.  1.
<mgrwt>
<rscale>  0 0.16667596E+04</rscale>
<asrwt>0</asrwt>
<pdfrwt beam="1">  1        2 0.43073861E+00 0.16667596E+04</pdfrwt>
<pdfrwt beam="2">  1       -2 0.38163254E-01 0.16667596E+04</pdfrwt>
<totfact> 0.14357232E+01</totfact>
</mgrwt>
</event>
<event>
12    1  0.1467288E-007  0.3607606E+04  0.7818608E-02  0.8088752E-01
          2   -1    0    0  501    0  0.00000000000E+00  0.00000000000E+00  0.31932275707E+04  0.31932275707E+04  0.00000000000E+00 0. -1.
         -2   -1    0    0    0  501 -0.00000000000E+00 -0.00000000000E+00 -0.10189393287E+04  0.10189393287E+04  0.00000000000E+00 0.  1.
         23    2    1    2    0    0  0.63764689038E+03 -0.14096017382E+04  0.26316581731E+03  0.15717251859E+04  0.86563246212E+02 0.  0.
        254    2    1    2    0    0 -0.63764689038E+03  0.14096017382E+04  0.19111224246E+04  0.26404417135E+04  0.96227485843E+03 0.  0.
        -24    2    4    4    0    0  0.23253348425E+03  0.31300357218E+03  0.26724192351E+03  0.47966630096E+03  0.81353900352E+02 0.  0.
         24    2    4    4    0    0 -0.87018037463E+03  0.10965981660E+04  0.16438805011E+04  0.21607754125E+04  0.82860480527E+02 0.  0.
         11    1    3    3    0    0  0.96858642980E+02 -0.26585347860E+03  0.74410839534E+02  0.29256903774E+03  0.00000000000E+00 0. -1.
        -11    1    3    3    0    0  0.54078824740E+03 -0.11437482596E+04  0.18875497778E+03  0.12791561482E+04  0.00000000000E+00 0.  1.
          4    1    6    6  502    0 -0.99204946155E+02  0.12876340806E+03  0.23390401534E+03  0.28483806801E+03  0.00000000000E+00 0. -1.
          3    1    5    5  503    0  0.40028338790E+02  0.11641362081E+03  0.78375457554E+02  0.14593529855E+03  0.00000000000E+00 0. -1.
         -4    1    5    5    0  503  0.19250514546E+03  0.19658995137E+03  0.18886646596E+03  0.33373100241E+03  0.00000000000E+00 0.  1.
         -3    1    6    6    0  502 -0.77097542847E+03  0.96783475793E+03  0.14099764858E+04  0.18759373445E+04  0.00000000000E+00 0.  1.
<mgrwt>
<rscale>  0 0.36076059E+04</rscale>
<asrwt>0</asrwt>
<pdfrwt beam="1">  1        2 0.49126578E+00 0.36076059E+04</pdfrwt>
<pdfrwt beam="2">  1       -2 0.15675990E+00 0.36076059E+04</pdfrwt>
<totfact> 0.28384503E-01</totfact>
</mgrwt>
</event>
<event>
12    1  0.1467288E-007  0.1256600E+04  0.7818608E-02  0.9064708E-01
          2   -1    0    0  501    0  0.00000000000E+00  0.00000000000E+00  0.94195063262E+03  0.94195063262E+03  0.00000000000E+00 0. -1.
         -2   -1    0    0    0  501 -0.00000000000E+00 -0.00000000000E+00 -0.41908901255E+03  0.41908901255E+03  0.00000000000E+00 0.  1.
         23    2    1    2    0    0  0.44050199353E+02  0.82394827157E+02 -0.17514187193E+03  0.21804485423E+03  0.90219485409E+02 0.  0.
        254    2    1    2    0    0 -0.44050199353E+02 -0.82394827157E+02  0.69800349199E+03  0.11429947909E+04  0.90027711828E+03 0.  0.
        -24    2    4    4    0    0  0.27221479958E+03 -0.21100863839E+03  0.70712742436E+03  0.79063736227E+03  0.80328710538E+02 0.  0.
         24    2    4    4    0    0 -0.31626499893E+03  0.12861381124E+03 -0.91239323713E+01  0.35235742868E+03  0.86645538916E+02 0.  0.
         11    1    3    3    0    0 -0.14791858634E+02  0.10062125470E+02  0.18584229028E+01  0.17986083134E+02  0.00000000000E+00 0. -1.
        -11    1    3    3    0    0  0.58842057987E+02  0.72332701687E+02 -0.17700029483E+03  0.20005877109E+03  0.00000000000E+00 0.  1.
          4    1    6    6  502    0 -0.13212298372E+03  0.30924498935E+02 -0.40385464324E+02  0.14157610388E+03  0.00000000000E+00 0. -1.
          3    1    5    5  503    0  0.13761213172E+02  0.66084507373E+00  0.68910505692E+02  0.70274216458E+02  0.00000000000E+00 0. -1.
         -4    1    5    5    0  503  0.25845358641E+03 -0.21166948347E+03  0.63821691867E+03  0.72036314581E+03  0.00000000000E+00 0.  1.
         -3    1    6    6    0  502 -0.18414201522E+03  0.97689312301E+02  0.31261531953E+02  0.21078132480E+03  0.00000000000E+00 0.  1.
<mgrwt>
<rscale>  0 0.12566004E+04</rscale>
<asrwt>0</asrwt>
<pdfrwt beam="1">  1        2 0.14491548E+00 0.12566004E+04</pdfrwt>
<pdfrwt beam="2">  1       -2 0.64475233E-01 0.12566004E+04</pdfrwt>
<totfact> 0.60038725E+01</totfact>
</mgrwt>
</event>
<event>
12    1  0.1467288E-007  0.1204659E+04  0.7818608E-02  0.9108788E-01
         -2   -1    0    0    0  501 -0.00000000000E+00  0.00000000000E+00  0.21318677516E+03  0.21318677516E+03  0.00000000000E+00 0.  1.
          2   -1    0    0  501    0  0.00000000000E+00 -0.00000000000E+00 -0.17017990831E+04  0.17017990831E+04  0.00000000000E+00 0. -1.
         23    2    1    2    0    0 -0.10837180279E+03 -0.20393310014E+03 -0.41522932096E+03  0.48422509947E+03  0.93409854913E+02 0.  0.
        254    2    1    2    0    0  0.10837180279E+03  0.20393310014E+03 -0.10733829869E+04  0.14307607588E+04  0.91738331966E+03 0.  0.
        -24    2    4    4    0    0  0.17652694727E+03 -0.32634577844E+03 -0.61256266773E+03  0.72047053641E+03  0.78622145200E+02 0.  0.
         24    2    4    4    0    0 -0.68155144485E+02  0.53027887858E+03 -0.46082031921E+03  0.71029022235E+03  0.79473395466E+02 0.  0.
         11    1    3    3    0    0 -0.11676234334E+02 -0.38352516878E+02 -0.19702585449E+02  0.44670369066E+02  0.00000000000E+00 0.  1.
        -11    1    3    3    0    0 -0.96695568454E+02 -0.16558058326E+03 -0.39552673552E+03  0.43955473040E+03  0.00000000000E+00 0. -1.
          4    1    6    6  502    0 -0.24982457541E+02  0.20813179961E+03 -0.23271236297E+03  0.31320602337E+03  0.00000000000E+00 0. -1.
          1    1    5    5  503    0  0.87177777791E+02 -0.11762747572E+03 -0.18074519505E+03  0.23260484414E+03  0.00000000000E+00 0. -1.
         -2    1    5    5    0  503  0.89349169482E+02 -0.20871830272E+03 -0.43181747269E+03  0.48786569227E+03  0.00000000000E+00 0.  1.
         -3    1    6    6    0  502 -0.43172686943E+02  0.32214707897E+03 -0.22810795624E+03  0.39708419899E+03  0.00000000000E+00 0.  1.
<mgrwt>
<rscale>  0 0.12046594E+04</rscale>
<asrwt>0</asrwt>
<pdfrwt beam="1">  1        2 0.26181524E+00 0.12046594E+04</pdfrwt>
<pdfrwt beam="2">  1       -2 0.32797966E-01 0.12046594E+04</pdfrwt>
<totfact> 0.83673194E+01</totfact>
</mgrwt>
</event>
<event>
12    1  0.1467288E-007  0.2809850E+04  0.7818608E-02  0.8300217E-01
         -1   -1    0    0    0  501 -0.00000000000E+00  0.00000000000E+00  0.15575599711E+04  0.15575599711E+04  0.00000000000E+00 0.  1.
          1   -1    0    0  501    0  0.00000000000E+00 -0.00000000000E+00 -0.12672473370E+04  0.12672473370E+04  0.00000000000E+00 0. -1.
         23    2    1    2    0    0  0.26917224676E+03 -0.95138672718E+03  0.91651225718E+03  0.13522103986E+04  0.10434482049E+03 0.  0.
        254    2    1    2    0    0 -0.26917224676E+03  0.95138672718E+03 -0.62619962307E+03  0.14725969095E+04  0.89377026521E+03 0.  0.
        -24    2    4    4    0    0 -0.95711363006E+02  0.97315049703E+03 -0.75995139230E+03  0.12411324237E+04  0.81859756311E+02 0.  0.
         24    2    4    4    0    0 -0.17346088375E+03 -0.21763769856E+02  0.13375176922E+03  0.23146448580E+03  0.71581649518E+02 0.  0.
         13    1    3    3    0    0  0.15741755594E+02 -0.18162729966E+03  0.14032861045E+03  0.23006172599E+03  0.00000000000E+00 0.  1.
        -13    1    3    3    0    0  0.25343049117E+03 -0.76975942751E+03  0.77618364673E+03  0.11221486727E+04  0.00000000000E+00 0. -1.
          4    1    6    6  502    0 -0.15068269588E+02  0.20046247819E+02  0.18657903665E+02  0.31257353841E+02  0.00000000000E+00 0. -1.
          3    1    5    5  503    0 -0.24339513469E+01  0.29320487627E+01 -0.11833526929E+02  0.12431950317E+02  0.00000000000E+00 0. -1.
         -4    1    5    5    0  503 -0.93277411659E+02  0.97021844827E+03 -0.74811786537E+03  0.12287004734E+04  0.00000000000E+00 0.  1.
         -3    1    6    6    0  502 -0.15839261417E+03 -0.41810017675E+02  0.11509386556E+03  0.20020713196E+03  0.00000000000E+00 0.  1.
<mgrwt>
<rscale>  0 0.28098496E+04</rscale>
<asrwt>0</asrwt>
<pdfrwt beam="1">  1        1 0.19496113E+00 0.28098496E+04</pdfrwt>
<pdfrwt beam="2">  1       -1 0.23962461E+00 0.28098496E+04</pdfrwt>
<totfact> 0.67346977E-01</totfact>
</mgrwt>
</event>
<event>
12    1  0.1467288E-007  0.1022312E+04  0.7818608E-02  0.9284407E-01
          1   -1    0    0  501    0  0.00000000000E+00  0.00000000000E+00  0.26981722776E+03  0.26981722776E+03  0.00000000000E+00 0. -1.
         -1   -1    0    0    0  501 -0.00000000000E+00 -0.00000000000E+00 -0.96836018866E+03  0.96836018866E+03  0.00000000000E+00 0.  1.
         23    2    1    2    0    0  0.17151535691E+02 -0.23472788559E+02  0.16386756825E+01  0.10022631071E+03  0.95903499006E+02 0.  0.
        254    2    1    2    0    0 -0.17151535691E+02  0.23472788559E+02 -0.70018163658E+03  0.11379511057E+04  0.89656748090E+03 0.  0.
        -24    2    4    4    0    0 -0.25051433276E+03  0.25054257395E+03 -0.71535633572E+03  0.80221398682E+03  0.79269043842E+02 0.  0.
         24    2    4    4    0    0  0.23336279707E+03 -0.22706978539E+03  0.15174699144E+02  0.33573711889E+03  0.80437920234E+02 0.  0.
         13    1    3    3    0    0  0.21547619416E+02  0.25958373299E+02  0.28171915392E+02  0.43952177007E+02  0.00000000000E+00 0. -1.
        -13    1    3    3    0    0 -0.43960837247E+01 -0.49431161857E+02 -0.26533239710E+02  0.56274133704E+02  0.00000000000E+00 0.  1.
          4    1    6    6  502    0  0.18389360435E+03 -0.19258706964E+03  0.42289221107E+02  0.26962013155E+03  0.00000000000E+00 0. -1.
          1    1    5    5  503    0 -0.19840284414E+03  0.18392107827E+03 -0.46521378752E+03  0.53815845222E+03  0.00000000000E+00 0. -1.
         -4    1    5    5    0  503 -0.52111488620E+02  0.66621495681E+02 -0.25014254820E+03  0.26405553460E+03  0.00000000000E+00 0.  1.
         -3    1    6    6    0  502  0.49469192714E+02 -0.34482715749E+02 -0.27114521962E+02  0.66116987336E+02  0.00000000000E+00 0.  1.
<mgrwt>
<rscale>  0 0.10223116E+04</rscale>
<asrwt>0</asrwt>
<pdfrwt beam="1">  1        1 0.41510342E-01 0.10223116E+04</pdfrwt>
<pdfrwt beam="2">  1       -1 0.14897849E+00 0.10223116E+04</pdfrwt>
<totfact> 0.35838772E+01</totfact>
</mgrwt>
</event>
<event>
12    1  0.1467288E-007  0.1391104E+04  0.7818608E-02  0.8960283E-01
         -2   -1    0    0    0  501 -0.00000000000E+00  0.00000000000E+00  0.10736172954E+03  0.10736172954E+03  0.00000000000E+00 0. -1.
          2   -1    0    0  501    0  0.00000000000E+00 -0.00000000000E+00 -0.45061936023E+04  0.45061936023E+04  0.00000000000E+00 0.  1.
         23    2    1    2    0    0  0.33042480273E+03 -0.19818524077E+03 -0.16187264636E+04  0.16664827327E+04  0.91822624304E+02 0.  0.
        254    2    1    2    0    0 -0.33042480273E+03  0.19818524077E+03 -0.27801054091E+04  0.29470725991E+04  0.89877298520E+03 0.  0.
        -24    2    4    4    0    0 -0.37767111185E+03 -0.16648750683E+03 -0.58293888977E+03  0.71797639096E+03  0.72930035739E+02 0.  0.
         24    2    4    4    0    0  0.47246309114E+02  0.36467274759E+03 -0.21971665193E+04  0.22290962082E+04  0.78171382672E+02 0.  0.
         11    1    3    3    0    0  0.31261161912E+03 -0.15529133028E+03 -0.13974825957E+04  0.14404162687E+04  0.00000000000E+00 0. -1.
        -11    1    3    3    0    0  0.17813183619E+02 -0.42893910488E+02 -0.22124386789E+03  0.22606646400E+03  0.00000000000E+00 0.  1.
          4    1    6    6  502    0  0.54111060956E+01  0.10946231035E+03 -0.87842694992E+03  0.88523736015E+03  0.00000000000E+00 0. -1.
          3    1    5    5  503    0 -0.25936588939E+03 -0.96598573245E+02 -0.33533009380E+03  0.43479675797E+03  0.00000000000E+00 0. -1.
         -4    1    5    5    0  503 -0.11830522246E+03 -0.69888933583E+02 -0.24760879598E+03  0.28317963299E+03  0.00000000000E+00 0.  1.
         -3    1    6    6    0  502  0.41835203019E+02  0.25521043724E+03 -0.13187395694E+04  0.13438588480E+04  0.00000000000E+00 0.  1.
<mgrwt>
<rscale>  0 0.13911042E+04</rscale>
<asrwt>0</asrwt>
<pdfrwt beam="1">  1        2 0.69326056E+00 0.13911042E+04</pdfrwt>
<pdfrwt beam="2">  1       -2 0.16517189E-01 0.13911042E+04</pdfrwt>
<totfact> 0.36755569E+00</totfact>
</mgrwt>
</event>
<event>
12    1  0.1467288E-007  0.1580553E+04  0.7818608E-02  0.8832585E-01
          2   -1    0    0  501    0  0.00000000000E+00  0.00000000000E+00  0.24603671537E+04  0.24603671537E+04  0.00000000000E+00 0. -1.
         -2   -1    0    0    0  501 -0.00000000000E+00 -0.00000000000E+00 -0.25383895130E+03  0.25383895130E+03  0.00000000000E+00 0.  1.
         23    2    1    2    0    0 -0.13992413380E+03  0.19292209360E+02  0.16308134361E+04  0.16395908265E+04  0.93566351989E+02 0.  0.
        254    2    1    2    0    0  0.13992413380E+03 -0.19292209360E+02  0.57571476626E+03  0.10746152785E+04  0.89632558381E+03 0.  0.
        -24    2    4    4    0    0 -0.28570167979E+03  0.82907081034E+02 -0.44792244107E+02  0.31116460721E+03  0.79486059963E+02 0.  0.
         24    2    4    4    0    0  0.42562581359E+03 -0.10219929039E+03  0.62050701037E+03  0.76345067131E+03  0.78904685913E+02 0.  0.
         11    1    3    3    0    0  0.11483675567E+02  0.24946473235E+00  0.27068340617E+03  0.27092700754E+03  0.00000000000E+00 0.  1.
        -11    1    3    3    0    0 -0.15140780937E+03  0.19042744628E+02  0.13601300300E+04  0.13686638189E+04  0.00000000000E+00 0. -1.
          4    1    6    6  502    0  0.26185919381E+03 -0.96893271523E+02  0.35806309671E+03  0.45405696193E+03  0.00000000000E+00 0. -1.
          3    1    5    5  503    0 -0.27304836383E+03  0.71498823841E+02 -0.59731636759E+02  0.28850538856E+03  0.00000000000E+00 0. -1.
         -4    1    5    5    0  503 -0.12653315965E+02  0.11408257193E+02  0.14939392652E+02  0.22659218651E+02  0.00000000000E+00 0.  1.
         -3    1    6    6    0  502  0.16376661978E+03 -0.53060188712E+01  0.26244391365E+03  0.30939370938E+03  0.00000000000E+00 0.  1.
<mgrwt>
<rscale>  0 0.15805531E+04</rscale>
<asrwt>0</asrwt>
<pdfrwt beam="1">  1        2 0.37851801E+00 0.15805531E+04</pdfrwt>
<pdfrwt beam="2">  1       -2 0.39052148E-01 0.15805531E+04</pdfrwt>
<totfact> 0.21889993E+01</totfact>
</mgrwt>
</event>
<event>
12    1  0.1467288E-007  0.1978880E+04  0.7818608E-02  0.8616559E-01
         -2   -1    0    0    0  501 -0.00000000000E+00  0.00000000000E+00  0.41714021907E+03  0.41714021907E+03  0.00000000000E+00 0.  1.
          2   -1    0    0  501    0  0.00000000000E+00 -0.00000000000E+00 -0.23469122157E+04  0.23469122157E+04  0.00000000000E+00 0. -1.
         23    2    1    2    0    0 -0.75174837455E+03 -0.18828878801E+03 -0.58862537175E+03  0.97762031949E+03  0.93184625810E+02 0.  0.
        254    2    1    2    0    0  0.75174837455E+03  0.18828878801E+03 -0.13411466248E+04  0.17864321152E+04  0.88999277902E+03 0.  0.
        -24    2    4    4    0    0  0.24551588619E+02 -0.28755645681E+03 -0.42445115871E+03  0.52072040665E+03  0.87746563556E+02 0.  0.
         24    2    4    4    0    0  0.72719678593E+03  0.47584524481E+03 -0.91669546613E+03  0.12657117086E+04  0.80322407545E+02 0.  0.
         11    1    3    3    0    0 -0.61015638396E+03 -0.11842736818E+03 -0.48994466663E+03  0.79143011743E+03  0.00000000000E+00 0. -1.
        -11    1    3    3    0    0 -0.14159199059E+03 -0.69861419827E+02 -0.98680705119E+02  0.18619020205E+03  0.00000000000E+00 0.  1.
          2    1    6    6  502    0  0.48554734396E+02  0.11315308465E+02 -0.62772550533E+02  0.80162282517E+02  0.00000000000E+00 0. -1.
          1    1    5    5  503    0 -0.12576895436E+01 -0.20840407533E+03 -0.23691682259E+03  0.31553671929E+03  0.00000000000E+00 0. -1.
         -2    1    5    5    0  503  0.25809278163E+02 -0.79152381480E+02 -0.18753433612E+03  0.20518368736E+03  0.00000000000E+00 0.  1.
         -1    1    6    6    0  502  0.67864205153E+03  0.46452993635E+03 -0.85392291560E+03  0.11855494261E+04  0.00000000000E+00 0.  1.
<mgrwt>
<rscale>  0 0.19788800E+04</rscale>
<asrwt>0</asrwt>
<pdfrwt beam="1">  1        2 0.36106342E+00 0.19788800E+04</pdfrwt>
<pdfrwt beam="2">  1       -2 0.64175418E-01 0.19788800E+04</pdfrwt>
<totfact> 0.89053933E+00</totfact>
</mgrwt>
</event>
<event>
12    1  0.1467288E-007  0.1594973E+04  0.7818608E-02  0.8823642E-01
         -1   -1    0    0    0  501 -0.00000000000E+00  0.00000000000E+00  0.20732322694E+03  0.20732322694E+03  0.00000000000E+00 0.  1.
          1   -1    0    0  501    0  0.00000000000E+00 -0.00000000000E+00 -0.30675999694E+04  0.30675999694E+04  0.00000000000E+00 0. -1.
         23    2    1    2    0    0 -0.27419792696E+03  0.23061090435E+03 -0.15361099913E+03  0.40034087930E+03  0.91162427759E+02 0.  0.
        254    2    1    2    0    0  0.27419792696E+03 -0.23061090435E+03 -0.27066657433E+04  0.28745823170E+04  0.89934318196E+03 0.  0.
        -24    2    4    4    0    0 -0.14722943478E+02  0.20803397891E+03 -0.18714756094E+04  0.18847691987E+04  0.80243842513E+02 0.  0.
         24    2    4    4    0    0  0.28892087044E+03 -0.43864488326E+03 -0.83519013390E+03  0.98981311833E+03  0.79390468337E+02 0.  0.
         11    1    3    3    0    0 -0.10175514280E+03  0.32017614700E+02 -0.45749534926E+02  0.11607005076E+03  0.00000000000E+00 0. -1.
        -11    1    3    3    0    0 -0.17244278416E+03  0.19859328965E+03 -0.10786146421E+03  0.28427082855E+03  0.00000000000E+00 0.  1.
          2    1    6    6  502    0  0.26185617182E+03 -0.42240160978E+03 -0.75776126445E+03  0.90619749976E+03  0.00000000000E+00 0. -1.
          3    1    5    5  503    0  0.22955881668E+02  0.16222593859E+03 -0.13294471158E+04  0.13395050808E+04  0.00000000000E+00 0. -1.
         -4    1    5    5    0  503 -0.37678825146E+02  0.45808040321E+02 -0.54202849364E+03  0.54526411796E+03  0.00000000000E+00 0.  1.
         -1    1    6    6    0  502  0.27064698618E+02 -0.16243273482E+02 -0.77428869446E+02  0.83615618568E+02  0.00000000000E+00 0.  1.
<mgrwt>
<rscale>  0 0.15949730E+04</rscale>
<asrwt>0</asrwt>
<pdfrwt beam="1">  1        1 0.47193846E+00 0.15949730E+04</pdfrwt>
<pdfrwt beam="2">  1       -1 0.31895881E-01 0.15949730E+04</pdfrwt>
<totfact> 0.47138764E+00</totfact>
</mgrwt>
</event>
<event>
12    1  0.1467288E-007  0.1931555E+04  0.7818608E-02  0.8639307E-01
         -1   -1    0    0    0  501 -0.00000000000E+00  0.00000000000E+00  0.33122916916E+03  0.33122916916E+03  0.00000000000E+00 0.  1.
          1   -1    0    0  501    0  0.00000000000E+00 -0.00000000000E+00 -0.28159535103E+04  0.28159535103E+04  0.00000000000E+00 0. -1.
         23    2    1    2    0    0  0.74187281221E+03 -0.13131435443E+03 -0.10255577752E+04  0.12758474571E+04  0.91647445478E+02 0.  0.
        254    2    1    2    0    0 -0.74187281221E+03  0.13131435443E+03 -0.14591665659E+04  0.18713352224E+04  0.89727906374E+03 0.  0.
        -24    2    4    4    0    0 -0.64901060569E+03  0.46111197284E+02 -0.33346795055E+03  0.73547504089E+03  0.79885248391E+02 0.  0.
         24    2    4    4    0    0 -0.92862206520E+02  0.85203157141E+02 -0.11256986154E+04  0.11358601815E+04  0.84249699403E+02 0.  0.
         13    1    3    3    0    0  0.60519541541E+03 -0.84227533535E+02 -0.87390332178E+03  0.10663314607E+04  0.00000000000E+00 0. -1.
        -13    1    3    3    0    0  0.13667739680E+03 -0.47086820891E+02 -0.15165445345E+03  0.20951599640E+03  0.00000000000E+00 0.  1.
          4    1    6    6  502    0  0.38723167503E+01  0.22301087403E+01 -0.32917927264E+03  0.32920960156E+03  0.00000000000E+00 0. -1.
          3    1    5    5  503    0 -0.55397071585E+03  0.55111704182E+02 -0.30987875631E+03  0.63713868001E+03  0.00000000000E+00 0. -1.
         -4    1    5    5    0  503 -0.95039889836E+02 -0.90005068976E+01 -0.23589194245E+02  0.98336360873E+02  0.00000000000E+00 0.  1.
         -3    1    6    6    0  502 -0.96734523271E+02  0.82973048401E+02 -0.79651934276E+03  0.80665057995E+03  0.00000000000E+00 0.  1.
<mgrwt>
<rscale>  0 0.19315548E+04</rscale>
<asrwt>0</asrwt>
<pdfrwt beam="1">  1        1 0.43322360E+00 0.19315548E+04</pdfrwt>
<pdfrwt beam="2">  1       -1 0.50958335E-01 0.19315548E+04</pdfrwt>
<totfact> 0.29368292E+00</totfact>
</mgrwt>
</event>
<event>
12    1  0.1467288E-007  0.1741328E+04  0.7818608E-02  0.8738138E-01
          1   -1    0    0  501    0  0.00000000000E+00  0.00000000000E+00  0.19924802223E+04  0.19924802223E+04  0.00000000000E+00 0. -1.
         -1   -1    0    0    0  501 -0.00000000000E+00 -0.00000000000E+00 -0.38045853216E+03  0.38045853216E+03  0.00000000000E+00 0.  1.
         23    2    1    2    0    0 -0.37601431493E+03  0.89981700297E+02 -0.93839554544E+02  0.40808676595E+03  0.90804598587E+02 0.  0.
        254    2    1    2    0    0  0.37601431493E+03 -0.89981700297E+02  0.17058612447E+04  0.19648519886E+04  0.89509624021E+03 0.  0.
        -24    2    4    4    0    0  0.54461734480E+03 -0.27025048648E+03  0.15354811227E+04  0.16533672340E+04  0.79231020570E+02 0.  0.
         24    2    4    4    0    0 -0.16860302987E+03  0.18026878618E+03  0.17038012203E+03  0.31148475455E+03  0.84080612395E+02 0.  0.
         11    1    3    3    0    0 -0.22510773181E+03  0.10084795782E+02 -0.68144188297E+02  0.23541203118E+03  0.00000000000E+00 0.  1.
        -11    1    3    3    0    0 -0.15090658312E+03  0.79896904515E+02 -0.25695366247E+02  0.17267473477E+03  0.00000000000E+00 0. -1.
          4    1    6    6  502    0 -0.89320670870E+02  0.57135855000E+02  0.33952127346E+02  0.11133478846E+03  0.00000000000E+00 0. -1.
          3    1    5    5  503    0  0.86995444034E+02 -0.14544699355E+02  0.25024816975E+03  0.26533733629E+03  0.00000000000E+00 0. -1.
         -4    1    5    5    0  503  0.45762190077E+03 -0.25570578713E+03  0.12852329529E+04  0.13880298977E+04  0.00000000000E+00 0.  1.
         -3    1    6    6    0  502 -0.79282359000E+02  0.12313293118E+03  0.13642799468E+03  0.20014996608E+03  0.00000000000E+00 0.  1.
<mgrwt>
<rscale>  0 0.17413283E+04</rscale>
<asrwt>0</asrwt>
<pdfrwt beam="1">  1        1 0.30653541E+00 0.17413283E+04</pdfrwt>
<pdfrwt beam="2">  1       -1 0.58532083E-01 0.17413283E+04</pdfrwt>
<totfact> 0.84593652E+00</totfact>
</mgrwt>
</event>
<event>
12    1  0.1467288E-007  0.1997322E+04  0.7818608E-02  0.8607874E-01
         -1   -1    0    0    0  501 -0.00000000000E+00  0.00000000000E+00  0.80991855493E+03  0.80991855493E+03  0.00000000000E+00 0.  1.
          1   -1    0    0  501    0  0.00000000000E+00 -0.00000000000E+00 -0.12313875225E+04  0.12313875225E+04  0.00000000000E+00 0. -1.
         23    2    1    2    0    0  0.20690823193E+03 -0.58778720773E+03  0.33489728793E+03  0.71345455463E+03  0.92500757055E+02 0.  0.
        254    2    1    2    0    0 -0.20690823193E+03  0.58778720773E+03 -0.75636625546E+03  0.13278515228E+04  0.89598824549E+03 0.  0.
        -24    2    4    4    0    0 -0.41620602209E+03  0.37615895241E+03 -0.83563824581E+03  0.10097004346E+04  0.80502668041E+02 0.  0.
         24    2    4    4    0    0  0.20929779016E+03  0.21162825532E+03  0.79271990342E+02  0.31815108811E+03  0.79649124275E+02 0.  0.
         11    1    3    3    0    0  0.51614898795E+02 -0.10751347926E+03  0.10464175058E+03  0.15866046125E+03  0.00000000000E+00 0. -1.
        -11    1    3    3    0    0  0.15529333314E+03 -0.48027372846E+03  0.23025553735E+03  0.55479409338E+03  0.00000000000E+00 0.  1.
          2    1    6    6  502    0  0.21483376383E+03  0.19486207800E+03  0.70757426238E+02  0.29854880487E+03  0.00000000000E+00 0. -1.
          3    1    5    5  503    0 -0.35116728317E+03  0.30161727366E+03 -0.63303438561E+03  0.78423464212E+03  0.00000000000E+00 0. -1.
         -4    1    5    5    0  503 -0.65038738925E+02  0.74541678749E+02 -0.20260386019E+03  0.22546579252E+03  0.00000000000E+00 0.  1.
         -1    1    6    6    0  502 -0.55359736657E+01  0.16766177319E+02  0.85145641040E+01  0.19602283239E+02  0.00000000000E+00 0.  1.
<mgrwt>
<rscale>  0 0.19973218E+04</rscale>
<asrwt>0</asrwt>
<pdfrwt beam="1">  1        1 0.18944423E+00 0.19973218E+04</pdfrwt>
<pdfrwt beam="2">  1       -1 0.12460286E+00 0.19973218E+04</pdfrwt>
<totfact> 0.53060410E+00</totfact>
</mgrwt>
</event>
<event>
12    1  0.1467288E-007  0.1596113E+04  0.7818608E-02  0.8822940E-01
         -1   -1    0    0    0  501 -0.00000000000E+00  0.00000000000E+00  0.77040932731E+03  0.77040932731E+03  0.00000000000E+00 0.  1.
          1   -1    0    0  501    0  0.00000000000E+00 -0.00000000000E+00 -0.82669543844E+03  0.82669543844E+03  0.00000000000E+00 0. -1.
         23    2    1    2    0    0  0.63262938803E+02  0.41196522181E+03 -0.26844468677E+03  0.50432156482E+03  0.92521065016E+02 0.  0.
        254    2    1    2    0    0 -0.63262938803E+02 -0.41196522181E+03  0.21215857564E+03  0.10927832009E+04  0.98764685977E+03 0.  0.
        -24    2    4    4    0    0  0.29034207011E+03  0.18660293827E+02 -0.22885940647E+03  0.37768080559E+03  0.74962915794E+02 0.  0.
         24    2    4    4    0    0 -0.35360500891E+03 -0.43062551564E+03  0.44101798211E+03  0.71510239534E+03  0.79998363881E+02 0.  0.
         11    1    3    3    0    0  0.48013270180E+02  0.40521114415E+03 -0.24636973364E+03  0.47665437280E+03  0.00000000000E+00 0. -1.
        -11    1    3    3    0    0  0.15249668623E+02  0.67540776661E+01 -0.22074953135E+02  0.27667192018E+02  0.00000000000E+00 0.  1.
          2    1    6    6  502    0 -0.22249544411E+03 -0.32326562097E+03  0.28790240490E+03  0.48671622030E+03  0.00000000000E+00 0. -1.
          3    1    5    5  503    0  0.26798987447E+03  0.29730561799E+02 -0.18425822461E+03  0.32657858542E+03  0.00000000000E+00 0. -1.
         -4    1    5    5    0  503  0.22352195643E+02 -0.11070267972E+02 -0.44601181861E+02  0.51102220171E+02  0.00000000000E+00 0.  1.
         -1    1    6    6    0  502 -0.13110956480E+03 -0.10735989467E+03  0.15311557721E+03  0.22838617504E+03  0.00000000000E+00 0.  1.
<mgrwt>
<rscale>  0 0.15961126E+04</rscale>
<asrwt>0</asrwt>
<pdfrwt beam="1">  1        1 0.12718391E+00 0.15961126E+04</pdfrwt>
<pdfrwt beam="2">  1       -1 0.11852451E+00 0.15961126E+04</pdfrwt>
<totfact> 0.12843728E+01</totfact>
</mgrwt>
</event>
<event>
12    1  0.1467288E-007  0.1747383E+04  0.7818608E-02  0.8734792E-01
         -1   -1    0    0    0  501 -0.00000000000E+00  0.00000000000E+00  0.25865717324E+03  0.25865717324E+03  0.00000000000E+00 0.  1.
          1   -1    0    0  501    0  0.00000000000E+00 -0.00000000000E+00 -0.29511522372E+04  0.29511522372E+04  0.00000000000E+00 0. -1.
         23    2    1    2    0    0 -0.27546017697E+03  0.56552398041E+03 -0.11553209089E+04  0.13185193185E+04  0.89616456134E+02 0.  0.
        254    2    1    2    0    0  0.27546017697E+03 -0.56552398041E+03 -0.15371741551E+04  0.18912900919E+04  0.90464255225E+03 0.  0.
        -24    2    4    4    0    0  0.25210246689E+03  0.71448940825E+02 -0.10478435433E+04  0.10830268493E+04  0.79438404686E+02 0.  0.
         24    2    4    4    0    0  0.23357710078E+02 -0.63697292123E+03 -0.48933061177E+03  0.80826324263E+03  0.86976644920E+02 0.  0.
         13    1    3    3    0    0 -0.26941379641E+03  0.56783601216E+03 -0.11476607608E+04  0.13084902568E+04  0.00000000000E+00 0. -1.
        -13    1    3    3    0    0 -0.60463805636E+01 -0.23120317490E+01 -0.76601481228E+01  0.10029061671E+02  0.00000000000E+00 0.  1.
          2    1    6    6  502    0  0.44150061821E+00 -0.47964442600E+03 -0.40789082789E+03  0.62962996894E+03  0.00000000000E+00 0. -1.
          1    1    5    5  503    0  0.19525834037E+03  0.53977443953E+02 -0.65216986294E+03  0.68290915506E+03  0.00000000000E+00 0. -1.
         -2    1    5    5    0  503  0.56844126520E+02  0.17471496872E+02 -0.39567368036E+03  0.40011769425E+03  0.00000000000E+00 0.  1.
         -1    1    6    6    0  502  0.22916209460E+02 -0.15732849523E+03 -0.81439783885E+02  0.17863327369E+03  0.00000000000E+00 0.  1.
<mgrwt>
<rscale>  0 0.17473828E+04</rscale>
<asrwt>0</asrwt>
<pdfrwt beam="1">  1        1 0.45402341E+00 0.17473828E+04</pdfrwt>
<pdfrwt beam="2">  1       -1 0.39793412E-01 0.17473828E+04</pdfrwt>
<totfact> 0.37936276E+00</totfact>
</mgrwt>
</event>
<event>
12    1  0.1467288E-007  0.1092863E+04  0.7818608E-02  0.9212176E-01
          1   -1    0    0  501    0  0.00000000000E+00  0.00000000000E+00  0.52281287976E+03  0.52281287976E+03  0.00000000000E+00 0. -1.
         -1   -1    0    0    0  501 -0.00000000000E+00 -0.00000000000E+00 -0.57111751249E+03  0.57111751249E+03  0.00000000000E+00 0.  1.
         23    2    1    2    0    0 -0.74537145370E+01  0.12890629639E+03 -0.69718199944E+02  0.19032180651E+03  0.12119971749E+03 0.  0.
        254    2    1    2    0    0  0.74537145370E+01 -0.12890629639E+03  0.21413567213E+02  0.90360858575E+03  0.89407915996E+03 0.  0.
        -24    2    4    4    0    0  0.44005765049E+03 -0.21374414123E+02  0.45335530607E+02  0.45005959563E+03  0.79942028634E+02 0.  0.
         24    2    4    4    0    0 -0.43260393596E+03 -0.10753188227E+03 -0.23921963393E+02  0.45354899012E+03  0.80157064577E+02 0.  0.
         11    1    3    3    0    0  0.55867963288E+01 -0.19400695772E+02 -0.30130709566E+02  0.36269256246E+02  0.00000000000E+00 0. -1.
        -11    1    3    3    0    0 -0.13040510866E+02  0.14830699216E+03 -0.39587490378E+02  0.15405255026E+03  0.00000000000E+00 0.  1.
          4    1    6    6  502    0 -0.38508462028E+03 -0.10314359305E+03 -0.45364439125E+02  0.40123147671E+03  0.00000000000E+00 0. -1.
          1    1    5    5  503    0  0.31952200478E+03 -0.50746864616E+02  0.38486499997E+02  0.32580786745E+03  0.00000000000E+00 0. -1.
         -2    1    5    5    0  503  0.12053564571E+03  0.29372450493E+02  0.68490306096E+01  0.12425172818E+03  0.00000000000E+00 0.  1.
         -3    1    6    6    0  502 -0.47519315676E+02 -0.43882892131E+01  0.21442475732E+02  0.52317513416E+02  0.00000000000E+00 0.  1.
<mgrwt>
<rscale>  0 0.10928634E+04</rscale>
<asrwt>0</asrwt>
<pdfrwt beam="1">  1        1 0.80432751E-01 0.10928634E+04</pdfrwt>
<pdfrwt beam="2">  1       -1 0.87864233E-01 0.10928634E+04</pdfrwt>
<totfact> 0.52921178E+01</totfact>
</mgrwt>
</event>
<event>
12    1  0.1467288E-007  0.1898475E+04  0.7818608E-02  0.8655616E-01
          2   -1    0    0  501    0  0.00000000000E+00  0.00000000000E+00  0.18963958208E+04  0.18963958208E+04  0.00000000000E+00 0. -1.
         -2   -1    0    0    0  501 -0.00000000000E+00 -0.00000000000E+00 -0.47513928559E+03  0.47513928559E+03  0.00000000000E+00 0.  1.
         23    2    1    2    0    0 -0.49549721729E+03  0.44748813387E+03  0.93243753371E+03  0.11504120889E+04  0.90802521016E+02 0.  0.
        254    2    1    2    0    0  0.49549721729E+03 -0.44748813387E+03  0.48881900149E+03  0.12211230174E+04  0.89801686242E+03 0.  0.
        -24    2    4    4    0    0  0.27940810950E+03  0.57885087222E+02  0.58670543269E+03  0.65706366635E+03  0.78037311043E+02 0.  0.
         24    2    4    4    0    0  0.21608910779E+03 -0.50537322109E+03 -0.97886431202E+02  0.56405935108E+03  0.80527032897E+02 0.  0.
         11    1    3    3    0    0 -0.40051668109E+03  0.33089447422E+03  0.66850222695E+03  0.84664041501E+03  0.00000000000E+00 0.  1.
        -11    1    3    3    0    0 -0.94980536201E+02  0.11659365965E+03  0.26393530676E+03  0.30377167393E+03  0.00000000000E+00 0. -1.
          2    1    6    6  502    0  0.11565058796E+03 -0.23170369316E+03 -0.83361597240E+01  0.25909679944E+03  0.00000000000E+00 0. -1.
          1    1    5    5  503    0  0.15522839383E+03  0.11561461667E+02  0.24181458321E+03  0.28758270863E+03  0.00000000000E+00 0. -1.
         -2    1    5    5    0  503  0.12417971567E+03  0.46323625554E+02  0.34489084948E+03  0.36948095772E+03  0.00000000000E+00 0.  1.
         -1    1    6    6    0  502  0.10043851983E+03 -0.27366952793E+03 -0.89550271478E+02  0.30496255164E+03  0.00000000000E+00 0.  1.
<mgrwt>
<rscale>  0 0.18984753E+04</rscale>
<asrwt>0</asrwt>
<pdfrwt beam="1">  1        2 0.29175320E+00 0.18984753E+04</pdfrwt>
<pdfrwt beam="2">  1       -2 0.73098353E-01 0.18984753E+04</pdfrwt>
<totfact> 0.12076157E+01</totfact>
</mgrwt>
</event>
<event>
12    1  0.1467288E-007  0.2080483E+04  0.7818608E-02  0.8569890E-01
          1   -1    0    0  501    0  0.00000000000E+00  0.00000000000E+00  0.13281659247E+04  0.13281659247E+04  0.00000000000E+00 0. -1.
         -1   -1    0    0    0  501 -0.00000000000E+00 -0.00000000000E+00 -0.81473398756E+03  0.81473398756E+03  0.00000000000E+00 0.  1.
         23    2    1    2    0    0  0.30389846570E+03 -0.18145262674E+03 -0.57627773368E+03  0.68239094458E+03  0.91005723485E+02 0.  0.
        254    2    1    2    0    0 -0.30389846570E+03  0.18145262674E+03  0.10897096708E+04  0.14605089677E+04  0.90572619745E+03 0.  0.
        -24    2    4    4    0    0 -0.20505877250E+03  0.52419337290E+03  0.85412702004E+03  0.10255591243E+04  0.73557860047E+02 0.  0.
         24    2    4    4    0    0 -0.98839693205E+02 -0.34274074615E+03  0.23558265077E+03  0.43494984332E+03  0.80260057541E+02 0.  0.
         11    1    3    3    0    0  0.26748957043E+03 -0.13330606184E+03 -0.42544075498E+03  0.51992404485E+03  0.00000000000E+00 0.  1.
        -11    1    3    3    0    0  0.36408895273E+02 -0.48146564906E+02 -0.15083697870E+03  0.16246689974E+03  0.00000000000E+00 0. -1.
          4    1    6    6  502    0 -0.86173786401E+02 -0.33648064081E+03  0.21045822562E+03  0.40612535975E+03  0.00000000000E+00 0. -1.
          3    1    5    5  503    0 -0.13922223651E+03  0.41362694610E+03  0.61676365250E+03  0.75555773090E+03  0.00000000000E+00 0. -1.
         -4    1    5    5    0  503 -0.65836535988E+02  0.11056642679E+03  0.23736336754E+03  0.27000139343E+03  0.00000000000E+00 0.  1.
         -3    1    6    6    0  502 -0.12665906804E+02 -0.62601053451E+01  0.25124425150E+02  0.28824483573E+02  0.00000000000E+00 0.  1.
<mgrwt>
<rscale>  0 0.20804826E+04</rscale>
<asrwt>0</asrwt>
<pdfrwt beam="1">  1        1 0.20433322E+00 0.20804826E+04</pdfrwt>
<pdfrwt beam="2">  1       -1 0.12534369E+00 0.20804826E+04</pdfrwt>
<totfact> 0.44223836E+00</totfact>
</mgrwt>
</event>
<event>
12    1  0.1467288E-007  0.1848802E+04  0.7818608E-02  0.8680769E-01
          2   -1    0    0  501    0  0.00000000000E+00  0.00000000000E+00  0.18285849248E+04  0.18285849248E+04  0.00000000000E+00 0.  1.
         -2   -1    0    0    0  501 -0.00000000000E+00 -0.00000000000E+00 -0.46731080293E+03  0.46731080293E+03  0.00000000000E+00 0. -1.
         23    2    1    2    0    0  0.60148095009E+03 -0.33739912286E+03  0.34091050688E+03  0.77478766469E+03  0.91969833260E+02 0.  0.
        254    2    1    2    0    0 -0.60148095009E+03  0.33739912286E+03  0.10203636150E+04  0.15211080631E+04  0.89275435101E+03 0.  0.
        -24    2    4    4    0    0  0.99220059742E+02  0.13077547617E+03  0.69290213856E+03  0.71664825339E+03  0.80774377380E+02 0.  0.
         24    2    4    4    0    0 -0.70070100983E+03  0.20662364669E+03  0.32746147644E+03  0.80445980967E+03  0.79052705670E+02 0.  0.
         11    1    3    3    0    0  0.50435674080E+03 -0.29662344563E+03  0.25252984862E+03  0.63728526966E+03  0.00000000000E+00 0. -1.
        -11    1    3    3    0    0  0.97124209288E+02 -0.40775677232E+02  0.88380658260E+02  0.13750239503E+03  0.00000000000E+00 0.  1.
          2    1    6    6  502    0 -0.50867911558E+01  0.64706829719E+01  0.12729094925E+02  0.15158332362E+02  0.00000000000E+00 0. -1.
          3    1    5    5  503    0  0.76032165257E+01 -0.71671663598E+00  0.15969444147E+03  0.15987694399E+03  0.00000000000E+00 0. -1.
         -4    1    5    5    0  503  0.91616843216E+02  0.13149219280E+03  0.53320769709E+03  0.55677130940E+03  0.00000000000E+00 0.  1.
         -1    1    6    6    0  502 -0.69561421867E+03  0.20015296372E+03  0.31473238152E+03  0.78930147731E+03  0.00000000000E+00 0.  1.
<mgrwt>
<rscale>  0 0.18488023E+04</rscale>
<asrwt>0</asrwt>
<pdfrwt beam="1">  1        2 0.28132076E+00 0.18488023E+04</pdfrwt>
<pdfrwt beam="2">  1       -2 0.71893970E-01 0.18488023E+04</pdfrwt>
<totfact> 0.13714529E+01</totfact>
</mgrwt>
</event>
<event>
12    1  0.1467288E-007  0.2855893E+04  0.7818608E-02  0.8286123E-01
         -2   -1    0    0    0  501 -0.00000000000E+00  0.00000000000E+00  0.18911240689E+04  0.18911240689E+04  0.00000000000E+00 0.  1.
          2   -1    0    0  501    0  0.00000000000E+00 -0.00000000000E+00 -0.10782115282E+04  0.10782115282E+04  0.00000000000E+00 0. -1.
         23    2    1    2    0    0 -0.12407095995E+03  0.12531058390E+04  0.62882307803E+03  0.14103839024E+04  0.89980230104E+02 0.  0.
        254    2    1    2    0    0  0.12407095995E+03 -0.12531058390E+04  0.18408946265E+03  0.15589516948E+04  0.90042968045E+03 0.  0.
        -24    2    4    4    0    0 -0.28554080903E+02 -0.10080122214E+04 -0.24033648729E+03  0.10395739162E+04  0.77770984733E+02 0.  0.
         24    2    4    4    0    0  0.15262504085E+03 -0.24509361766E+03  0.42442594994E+03  0.51937777860E+03  0.79060770356E+02 0.  0.
         13    1    3    3    0    0 -0.12645611235E+03  0.11718528595E+04  0.56524128919E+03  0.13071832265E+04  0.00000000000E+00 0. -1.
        -13    1    3    3    0    0  0.23851523990E+01  0.81252979536E+02  0.63581788843E+02  0.10320067591E+03  0.00000000000E+00 0.  1.
          4    1    6    6  502    0  0.15185528445E+03 -0.22394162309E+03  0.41671417735E+03  0.49685066526E+03  0.00000000000E+00 0. -1.
          3    1    5    5  503    0 -0.90211696816E+01 -0.37943514602E+03 -0.12932530677E+03  0.40097063048E+03  0.00000000000E+00 0. -1.
         -4    1    5    5    0  503 -0.19532911222E+02 -0.62857707535E+03 -0.11101118052E+03  0.63860328568E+03  0.00000000000E+00 0.  1.
         -3    1    6    6    0  502  0.76975640201E+00 -0.21151994561E+02  0.77117725968E+01  0.22527113340E+02  0.00000000000E+00 0.  1.
<mgrwt>
<rscale>  0 0.28558934E+04</rscale>
<asrwt>0</asrwt>
<pdfrwt beam="1">  1        2 0.16587870E+00 0.28558934E+04</pdfrwt>
<pdfrwt beam="2">  1       -2 0.29094216E+00 0.28558934E+04</pdfrwt>
<totfact> 0.70291027E-01</totfact>
</mgrwt>
</event>
<event>
12    1  0.1467288E-007  0.1493858E+04  0.7818608E-02  0.8888547E-01
         -2   -1    0    0    0  501 -0.00000000000E+00  0.00000000000E+00  0.41019176703E+03  0.41019176703E+03  0.00000000000E+00 0.  1.
          2   -1    0    0  501    0  0.00000000000E+00 -0.00000000000E+00 -0.13601030438E+04  0.13601030438E+04  0.00000000000E+00 0. -1.
         23    2    1    2    0    0  0.61872108230E+02  0.35028139613E+03  0.60059882877E+02  0.37196412071E+03  0.90691252658E+02 0.  0.
        254    2    1    2    0    0 -0.61872108230E+02 -0.35028139613E+03 -0.10099711597E+04  0.13983306902E+04  0.89931182657E+03 0.  0.
        -24    2    4    4    0    0 -0.52707026081E+02  0.26868885918E+03 -0.56257762439E+03  0.63075278973E+03  0.79898464526E+02 0.  0.
         24    2    4    4    0    0 -0.91650821494E+01 -0.61897025532E+03 -0.44739353529E+03  0.76757790043E+03  0.76201588714E+02 0.  0.
         11    1    3    3    0    0  0.51069273736E+02  0.18630796430E+03  0.74396467430E+02  0.20701102060E+03  0.00000000000E+00 0. -1.
        -11    1    3    3    0    0  0.10802834494E+02  0.16397343183E+03 -0.14336584553E+02  0.16495310011E+03  0.00000000000E+00 0.  1.
          2    1    6    6  502    0  0.29144000262E+02 -0.30003964841E+03 -0.19452105402E+03  0.35876399460E+03  0.00000000000E+00 0. -1.
          3    1    5    5  503    0 -0.56149454722E+02  0.21905732835E+03 -0.51244585511E+03  0.56012465469E+03  0.00000000000E+00 0. -1.
         -4    1    5    5    0  503  0.34424286416E+01  0.49631530830E+02 -0.50131769281E+02  0.70628135037E+02  0.00000000000E+00 0.  1.
         -1    1    6    6    0  502 -0.38309082412E+02 -0.31893060691E+03 -0.25287248126E+03  0.40881390583E+03  0.00000000000E+00 0.  1.
<mgrwt>
<rscale>  0 0.14938582E+04</rscale>
<asrwt>0</asrwt>
<pdfrwt beam="1">  1        2 0.20924663E+00 0.14938582E+04</pdfrwt>
<pdfrwt beam="2">  1       -2 0.63106424E-01 0.14938582E+04</pdfrwt>
<totfact> 0.34300459E+01</totfact>
</mgrwt>
</event>
<event>
12    1  0.1467288E-007  0.2197063E+04  0.7818608E-02  0.8519652E-01
         -2   -1    0    0    0  501 -0.00000000000E+00  0.00000000000E+00  0.31105141254E+03  0.31105141254E+03  0.00000000000E+00 0.  1.
          2   -1    0    0  501    0  0.00000000000E+00 -0.00000000000E+00 -0.38796513152E+04  0.38796513152E+04  0.00000000000E+00 0. -1.
         23    2    1    2    0    0 -0.43043692264E+03 -0.24132413107E+03 -0.29218528595E+04  0.29647008314E+04  0.93346700039E+02 0.  0.
        254    2    1    2    0    0  0.43043692264E+03  0.24132413107E+03 -0.64674704314E+03  0.12260018963E+04  0.91721624026E+03 0.  0.
        -24    2    4    4    0    0  0.26340934906E+03 -0.32777921310E+03 -0.37615619759E+03  0.56945290389E+03  0.77197325413E+02 0.  0.
         24    2    4    4    0    0  0.16702757358E+03  0.56910334417E+03 -0.27059084555E+03  0.65654899244E+03  0.77848231187E+02 0.  0.
         11    1    3    3    0    0 -0.34605950271E+03 -0.18896170568E+03 -0.20828397850E+04  0.21198314263E+04  0.00000000000E+00 0. -1.
        -11    1    3    3    0    0 -0.84377419928E+02 -0.52362425394E+02 -0.83901307446E+03  0.84486940511E+03  0.00000000000E+00 0.  1.
          4    1    6    6  502    0  0.21994309971E+02  0.57838788969E+02 -0.55879425287E+02  0.83376167764E+02  0.00000000000E+00 0. -1.
          1    1    5    5  503    0  0.23757088583E+02 -0.72578510917E+02 -0.52452338811E+02  0.92646032574E+02  0.00000000000E+00 0. -1.
         -2    1    5    5    0  503  0.23965226048E+03 -0.25520070218E+03 -0.32370385878E+03  0.47680687132E+03  0.00000000000E+00 0.  1.
         -1    1    6    6    0  502  0.14503326361E+03  0.51126455521E+03 -0.21471142026E+03  0.57317282468E+03  0.00000000000E+00 0.  1.
<mgrwt>
<rscale>  0 0.21970626E+04</rscale>
<asrwt>0</asrwt>
<pdfrwt beam="1">  1        2 0.59686943E+00 0.21970626E+04</pdfrwt>
<pdfrwt beam="2">  1       -2 0.47854064E-01 0.21970626E+04</pdfrwt>
<totfact> 0.16230964E+00</totfact>
</mgrwt>
</event>
<event>
12    1  0.1467288E-007  0.2102659E+04  0.7818608E-02  0.8560073E-01
          1   -1    0    0  501    0  0.00000000000E+00  0.00000000000E+00  0.16561632172E+04  0.16561632172E+04  0.00000000000E+00 0. -1.
         -1   -1    0    0    0  501 -0.00000000000E+00 -0.00000000000E+00 -0.66738193558E+03  0.66738193558E+03  0.00000000000E+00 0.  1.
         23    2    1    2    0    0  0.17554940133E+03  0.75922372930E+03  0.82553437048E+03  0.11391002215E+04  0.93829922274E+02 0.  0.
        254    2    1    2    0    0 -0.17554940133E+03 -0.75922372930E+03  0.16324691116E+03  0.11844449313E+04  0.87693898184E+03 0.  0.
        -24    2    4    4    0    0 -0.25574268075E+03 -0.89972515989E+03 -0.30626439374E+01  0.93892578937E+03  0.81624604489E+02 0.  0.
         24    2    4    4    0    0  0.80193279423E+02  0.14050143059E+03  0.16630955509E+03  0.24551914194E+03  0.80306705088E+02 0.  0.
         13    1    3    3    0    0 -0.12518615625E+01  0.83108482026E+02  0.12057890203E+03  0.14645087421E+03  0.00000000000E+00 0.  1.
        -13    1    3    3    0    0  0.17680126289E+03  0.67611524728E+03  0.70495546845E+03  0.99264934728E+03  0.00000000000E+00 0. -1.
          4    1    6    6  502    0  0.39698091753E+01  0.83869675718E+02  0.61417485726E+02  0.10402879141E+03  0.00000000000E+00 0. -1.
          1    1    5    5  503    0 -0.40122144389E+01 -0.89827618913E+02 -0.12327595924E+02  0.90758297723E+02  0.00000000000E+00 0. -1.
         -2    1    5    5    0  503 -0.25173046632E+03 -0.80989754098E+03  0.92649519865E+01  0.84816749165E+03  0.00000000000E+00 0.  1.
         -3    1    6    6    0  502  0.76223470247E+02  0.56631754870E+02  0.10489206937E+03  0.14149035053E+03  0.00000000000E+00 0.  1.
<mgrwt>
<rscale>  0 0.21026587E+04</rscale>
<asrwt>0</asrwt>
<pdfrwt beam="1">  1        1 0.25479434E+00 0.21026587E+04</pdfrwt>
<pdfrwt beam="2">  1       -1 0.10267414E+00 0.21026587E+04</pdfrwt>
<totfact> 0.42106260E+00</totfact>
</mgrwt>
</event>
<event>
12    1  0.1467288E-007  0.1143733E+04  0.7818608E-02  0.9163584E-01
         -2   -1    0    0    0  501 -0.00000000000E+00  0.00000000000E+00  0.70710232118E+03  0.70710232118E+03  0.00000000000E+00 0.  1.
          2   -1    0    0  501    0  0.00000000000E+00 -0.00000000000E+00 -0.46249540290E+03  0.46249540290E+03  0.00000000000E+00 0. -1.
         23    2    1    2    0    0  0.50545434884E+02  0.15922559943E+03 -0.69857508593E+02  0.20412462887E+03  0.94229295356E+02 0.  0.
        254    2    1    2    0    0 -0.50545434884E+02 -0.15922559943E+03  0.31446442687E+03  0.96547309521E+03  0.89740893093E+03 0.  0.
        -24    2    4    4    0    0  0.13862968799E+03  0.31929420946E+03  0.26123918320E+03  0.44201549878E+03  0.77232167729E+02 0.  0.
         24    2    4    4    0    0 -0.18917512287E+03 -0.47851980889E+03  0.53225243671E+02  0.52345759644E+03  0.80040577780E+02 0.  0.
         11    1    3    3    0    0  0.61467449156E+02  0.16102075177E+03 -0.46873464160E+02  0.17861425321E+03  0.00000000000E+00 0.  1.
        -11    1    3    3    0    0 -0.10922014271E+02 -0.17951523475E+01 -0.22984044433E+02  0.25510375657E+02  0.00000000000E+00 0. -1.
          2    1    6    6  502    0 -0.13945700725E+03 -0.24923560340E+03  0.40998648186E+02  0.28852648409E+03  0.00000000000E+00 0. -1.
          3    1    5    5  503    0  0.13796451287E+03  0.24634911520E+03  0.19205853687E+03  0.34147997738E+03  0.00000000000E+00 0. -1.
         -4    1    5    5    0  503  0.66517512184E+00  0.72945094262E+02  0.69180646331E+02  0.10053552139E+03  0.00000000000E+00 0.  1.
         -3    1    6    6    0  502 -0.49718115625E+02 -0.22928420549E+03  0.12226595485E+02  0.23493111234E+03  0.00000000000E+00 0.  1.
<mgrwt>
<rscale>  0 0.11437335E+04</rscale>
<asrwt>0</asrwt>
<pdfrwt beam="1">  1        2 0.71153139E-01 0.11437335E+04</pdfrwt>
<pdfrwt beam="2">  1       -2 0.10878497E+00 0.11437335E+04</pdfrwt>
<totfact> 0.45043720E+01</totfact>
</mgrwt>
</event>
<event>
12    1  0.1467288E-007  0.1172263E+04  0.7818608E-02  0.9137487E-01
          2   -1    0    0  501    0  0.00000000000E+00  0.00000000000E+00  0.18588978643E+04  0.18588978643E+04  0.00000000000E+00 0.  1.
         -2   -1    0    0    0  501 -0.00000000000E+00 -0.00000000000E+00 -0.18481394097E+03  0.18481394097E+03  0.00000000000E+00 0. -1.
         23    2    1    2    0    0  0.16357569959E+03 -0.87585034206E+02  0.62421257901E+03  0.65730503902E+03  0.89333212281E+02 0.  0.
        254    2    1    2    0    0 -0.16357569959E+03  0.87585034206E+02  0.10498713444E+04  0.13864067663E+04  0.88626504736E+03 0.  0.
        -24    2    4    4    0    0 -0.26462632983E+03 -0.27919495412E+03  0.17585411280E+03  0.42988511679E+03  0.76809034690E+02 0.  0.
         24    2    4    4    0    0  0.10105063024E+03  0.36677998833E+03  0.87401723156E+03  0.95652164948E+03  0.79301671853E+02 0.  0.
         13    1    3    3    0    0  0.35406701301E+02 -0.31853612428E+02  0.63145198408E+02  0.79092371337E+02  0.00000000000E+00 0. -1.
        -13    1    3    3    0    0  0.12816899828E+03 -0.55731421779E+02  0.56106738060E+03  0.57821266768E+03  0.00000000000E+00 0.  1.
          4    1    6    6  502    0  0.19153723672E+02  0.21477182312E+03  0.46562137279E+03  0.51312480347E+03  0.00000000000E+00 0. -1.
          1    1    5    5  503    0 -0.91258808500E+02 -0.13065576033E+03  0.40342760389E+02  0.16439779850E+03  0.00000000000E+00 0. -1.
         -2    1    5    5    0  503 -0.17336752133E+03 -0.14853919379E+03  0.13551135241E+03  0.26548731829E+03  0.00000000000E+00 0.  1.
         -3    1    6    6    0  502  0.81896906572E+02  0.15200816521E+03  0.40839585877E+03  0.44339684602E+03  0.00000000000E+00 0.  1.
<mgrwt>
<rscale>  0 0.11722632E+04</rscale>
<asrwt>0</asrwt>
<pdfrwt beam="1">  1        2 0.28598427E+00 0.11722632E+04</pdfrwt>
<pdfrwt beam="2">  1       -2 0.28432915E-01 0.11722632E+04</pdfrwt>
<totfact> 0.89692169E+01</totfact>
</mgrwt>
</event>
<event>
12    1  0.1467288E-007  0.2048016E+04  0.7818608E-02  0.8584495E-01
         -2   -1    0    0    0  501 -0.00000000000E+00  0.00000000000E+00  0.12131492893E+04  0.12131492893E+04  0.00000000000E+00 0.  1.
          2   -1    0    0  501    0  0.00000000000E+00 -0.00000000000E+00 -0.86435549898E+03  0.86435549898E+03  0.00000000000E+00 0. -1.
         23    2    1    2    0    0  0.14294138844E+03  0.12678723364E+03 -0.67170676544E+03  0.70431313093E+03  0.91431747907E+02 0.  0.
        254    2    1    2    0    0 -0.14294138844E+03 -0.12678723364E+03  0.10205005557E+04  0.13731916573E+04  0.89873616837E+03 0.  0.
        -24    2    4    4    0    0 -0.47741951785E+03 -0.21708765112E+03  0.42600199010E+03  0.68038669808E+03  0.79949478223E+02 0.  0.
         24    2    4    4    0    0  0.33447812942E+03  0.90300417472E+02  0.59449856563E+03  0.69280495923E+03  0.80748885724E+02 0.  0.
         13    1    3    3    0    0  0.11984604012E+02  0.29944447394E+02 -0.37201504765E+02  0.49236699928E+02  0.00000000000E+00 0.  1.
        -13    1    3    3    0    0  0.13095678442E+03  0.96842786251E+02 -0.63450526067E+03  0.65507643100E+03  0.00000000000E+00 0. -1.
          2    1    6    6  502    0  0.32100451232E+03  0.93351934911E+02  0.59025934774E+03  0.67835431618E+03  0.00000000000E+00 0. -1.
          1    1    5    5  503    0 -0.18978700327E+03 -0.11744725468E+03  0.21583788637E+03  0.31048181498E+03  0.00000000000E+00 0. -1.
         -2    1    5    5    0  503 -0.28763251458E+03 -0.99640396435E+02  0.21016410373E+03  0.36990488310E+03  0.00000000000E+00 0.  1.
         -1    1    6    6    0  502  0.13473617097E+02 -0.30515174385E+01  0.42392178891E+01  0.14450643054E+02  0.00000000000E+00 0.  1.
<mgrwt>
<rscale>  0 0.20480159E+04</rscale>
<asrwt>0</asrwt>
<pdfrwt beam="1">  1        2 0.13297777E+00 0.20480159E+04</pdfrwt>
<pdfrwt beam="2">  1       -2 0.18663835E+00 0.20480159E+04</pdfrwt>
<totfact> 0.46858984E+00</totfact>
</mgrwt>
</event>
<event>
12    1  0.1467288E-007  0.1848206E+04  0.7818608E-02  0.8681076E-01
          1   -1    0    0  501    0  0.00000000000E+00  0.00000000000E+00  0.18575775085E+04  0.18575775085E+04  0.00000000000E+00 0. -1.
         -1   -1    0    0    0  501 -0.00000000000E+00 -0.00000000000E+00 -0.45972030455E+03  0.45972030455E+03  0.00000000000E+00 0.  1.
         23    2    1    2    0    0  0.10292271315E+03  0.10342740773E+03 -0.33443474000E+03  0.37616730496E+03  0.91460004660E+02 0.  0.
        254    2    1    2    0    0 -0.10292271315E+03 -0.10342740773E+03  0.17322919439E+04  0.19411305081E+04  0.86363299892E+03 0.  0.
        -24    2    4    4    0    0  0.25602986831E+03 -0.50086284226E+02  0.14443630866E+04  0.14699152114E+04  0.80037949588E+02 0.  0.
         24    2    4    4    0    0 -0.35895258147E+03 -0.53341123507E+02  0.28792885732E+03  0.47121529668E+03  0.86305259117E+02 0.  0.
         11    1    3    3    0    0  0.11151108008E+03  0.10816715018E+03 -0.33122155469E+03  0.36584501042E+03  0.00000000000E+00 0.  1.
        -11    1    3    3    0    0 -0.85883669222E+01 -0.47397424477E+01 -0.32131853120E+01  0.10322294547E+02  0.00000000000E+00 0. -1.
          2    1    6    6  502    0 -0.64997630631E+02 -0.32205593318E+02  0.26401858831E+02  0.77194237986E+02  0.00000000000E+00 0. -1.
          3    1    5    5  503    0  0.73344445375E+02 -0.21173736476E+02  0.25255489103E+03  0.26384030732E+03  0.00000000000E+00 0. -1.
         -4    1    5    5    0  503  0.18268542294E+03 -0.28912547750E+02  0.11918081956E+04  0.12060749041E+04  0.00000000000E+00 0.  1.
         -1    1    6    6    0  502 -0.29395495084E+03 -0.21135530189E+02  0.26152699849E+03  0.39402105870E+03  0.00000000000E+00 0.  1.
<mgrwt>
<rscale>  0 0.18482057E+04</rscale>
<asrwt>0</asrwt>
<pdfrwt beam="1">  1        1 0.28578115E+00 0.18482057E+04</pdfrwt>
<pdfrwt beam="2">  1       -1 0.70726202E-01 0.18482057E+04</pdfrwt>
<totfact> 0.70663385E+00</totfact>
</mgrwt>
</event>
<event>
12    1  0.1467288E-007  0.2578250E+04  0.7818608E-02  0.8375627E-01
         -1   -1    0    0    0  501 -0.00000000000E+00  0.00000000000E+00  0.51784252162E+03  0.51784252162E+03  0.00000000000E+00 0.  1.
          1   -1    0    0  501    0  0.00000000000E+00 -0.00000000000E+00 -0.32091677616E+04  0.32091677616E+04  0.00000000000E+00 0. -1.
         23    2    1    2    0    0  0.54354848868E+03  0.32972988466E+03  0.16698537151E+03  0.66361452623E+03  0.91287286858E+02 0.  0.
        254    2    1    2    0    0 -0.54354848868E+03 -0.32972988466E+03 -0.28583106115E+04  0.30633957570E+04  0.90015957241E+03 0.  0.
        -24    2    4    4    0    0 -0.49865865194E+03 -0.60928161115E+03 -0.18305051302E+04  0.19942919835E+04  0.81036725106E+02 0.  0.
         24    2    4    4    0    0 -0.44889836746E+02  0.27955172649E+03 -0.10278054813E+04  0.10691037735E+04  0.80215372367E+02 0.  0.
         11    1    3    3    0    0  0.37502026610E+02  0.40370227982E+02 -0.63240887454E+01  0.55463063435E+02  0.00000000000E+00 0. -1.
        -11    1    3    3    0    0  0.50604646207E+03  0.28935965668E+03  0.17330946025E+03  0.60815146280E+03  0.00000000000E+00 0.  1.
          2    1    6    6  502    0 -0.43567965928E+01  0.19659484005E+03 -0.78725606384E+03  0.81144354262E+03  0.00000000000E+00 0. -1.
          1    1    5    5  503    0 -0.32634645928E+02 -0.14134626154E+02 -0.78894458803E+02  0.86539837076E+02  0.00000000000E+00 0. -1.
         -2    1    5    5    0  503 -0.46602400601E+03 -0.59514698499E+03 -0.17516106714E+04  0.19077521464E+04  0.00000000000E+00 0.  1.
         -1    1    6    6    0  502 -0.40533040153E+02  0.82956886431E+02 -0.24054941742E+03  0.25766023087E+03  0.00000000000E+00 0.  1.
<mgrwt>
<rscale>  0 0.25782502E+04</rscale>
<asrwt>0</asrwt>
<pdfrwt beam="1">  1        1 0.49371812E+00 0.25782502E+04</pdfrwt>
<pdfrwt beam="2">  1       -1 0.79668080E-01 0.25782502E+04</pdfrwt>
<totfact> 0.58103428E-01</totfact>
</mgrwt>
</event>
<event>
12    1  0.1467288E-007  0.2160554E+04  0.7818608E-02  0.8535028E-01
          1   -1    0    0  501    0  0.00000000000E+00  0.00000000000E+00  0.52839365372E+03  0.52839365372E+03  0.00000000000E+00 0. -1.
         -1   -1    0    0    0  501 -0.00000000000E+00 -0.00000000000E+00 -0.22085781271E+04  0.22085781271E+04  0.00000000000E+00 0.  1.
         23    2    1    2    0    0  0.28788965371E+02 -0.58446954656E+03 -0.15465408407E+04  0.16562741686E+04  0.94984705193E+02 0.  0.
        254    2    1    2    0    0 -0.28788965371E+02  0.58446954656E+03 -0.13364363276E+03  0.10806976123E+04  0.89867305138E+03 0.  0.
        -24    2    4    4    0    0  0.27086611448E+03  0.59741054099E+03  0.13071006951E+03  0.67367262074E+03  0.80510068966E+02 0.  0.
         24    2    4    4    0    0 -0.29965507985E+03 -0.12940994428E+02 -0.26435370227E+03  0.40702499156E+03  0.76327109436E+02 0.  0.
         13    1    3    3    0    0 -0.22248106238E+02 -0.39532114545E+03 -0.98901401421E+03  0.10653274175E+04  0.00000000000E+00 0. -1.
        -13    1    3    3    0    0  0.51037071609E+02 -0.18914840111E+03 -0.55752682645E+03  0.59094675102E+03  0.00000000000E+00 0.  1.
          4    1    6    6  502    0 -0.65133184986E+02 -0.25567380677E+02 -0.92593321122E+02  0.11605837263E+03  0.00000000000E+00 0. -1.
          3    1    5    5  503    0  0.24235231842E+02  0.12146593812E+03  0.10466286624E+02  0.12430150338E+03  0.00000000000E+00 0. -1.
         -4    1    5    5    0  503  0.24663088263E+03  0.47594460287E+03  0.12024378289E+03  0.54937111736E+03  0.00000000000E+00 0.  1.
         -3    1    6    6    0  502 -0.23452189486E+03  0.12626386249E+02 -0.17176038115E+03  0.29096661893E+03  0.00000000000E+00 0.  1.
<mgrwt>
<rscale>  0 0.21605542E+04</rscale>
<asrwt>0</asrwt>
<pdfrwt beam="1">  1        1 0.81291330E-01 0.21605542E+04</pdfrwt>
<pdfrwt beam="2">  1       -1 0.33978125E+00 0.21605542E+04</pdfrwt>
<totfact> 0.68227752E-01</totfact>
</mgrwt>
</event>
<event>
12    1  0.1467288E-007  0.2245135E+04  0.7818608E-02  0.8499873E-01
         -2   -1    0    0    0  501 -0.00000000000E+00  0.00000000000E+00  0.76373338029E+03  0.76373338029E+03  0.00000000000E+00 0. -1.
          2   -1    0    0  501    0  0.00000000000E+00 -0.00000000000E+00 -0.16499968925E+04  0.16499968925E+04  0.00000000000E+00 0.  1.
         23    2    1    2    0    0 -0.29774448043E+03 -0.88443757025E+03 -0.24157611279E+03  0.96814498043E+03  0.89800298195E+02 0.  0.
        254    2    1    2    0    0  0.29774448043E+03  0.88443757025E+03 -0.64468739939E+03  0.14455852923E+04  0.89622173773E+03 0.  0.
        -24    2    4    4    0    0  0.22245779947E+02 -0.15559827394E+03 -0.22663060562E+03  0.28844691096E+03  0.84465918927E+02 0.  0.
         24    2    4    4    0    0  0.27549870048E+03  0.10400358442E+04 -0.41805679377E+03  0.11571383814E+04  0.81385868875E+02 0.  0.
         13    1    3    3    0    0 -0.62359278999E+02 -0.98956067550E+02 -0.19169268462E+02  0.11852613145E+03  0.00000000000E+00 0.  1.
        -13    1    3    3    0    0 -0.23538520143E+03 -0.78548150270E+03 -0.22240684433E+03  0.84961884898E+03  0.00000000000E+00 0. -1.
          4    1    6    6  502    0  0.10718053084E+03  0.35817048758E+03 -0.10599601057E+03  0.38859866009E+03  0.00000000000E+00 0. -1.
          3    1    5    5  503    0  0.16280943655E+02 -0.69327252883E+02 -0.17199943939E+03  0.18615892208E+03  0.00000000000E+00 0. -1.
         -4    1    5    5    0  503  0.59648362921E+01 -0.86271021059E+02 -0.54631166235E+02  0.10228798889E+03  0.00000000000E+00 0.  1.
         -3    1    6    6    0  502  0.16831816964E+03  0.68186535661E+03 -0.31206078320E+03  0.76853972128E+03  0.00000000000E+00 0.  1.
<mgrwt>
<rscale>  0 0.22451349E+04</rscale>
<asrwt>0</asrwt>
<pdfrwt beam="1">  1        2 0.25384567E+00 0.22451349E+04</pdfrwt>
<pdfrwt beam="2">  1       -2 0.11749744E+00 0.22451349E+04</pdfrwt>
<totfact> 0.53279631E+00</totfact>
</mgrwt>
</event>
<event>
12    1  0.1467288E-007  0.1538330E+04  0.7818608E-02  0.8859356E-01
          2   -1    0    0  501    0  0.00000000000E+00  0.00000000000E+00  0.12441338873E+04  0.12441338873E+04  0.00000000000E+00 0. -1.
         -2   -1    0    0    0  501 -0.00000000000E+00 -0.00000000000E+00 -0.47552367137E+03  0.47552367137E+03  0.00000000000E+00 0.  1.
         23    2    1    2    0    0  0.44562643796E+03 -0.13415348800E+03  0.42060806984E+03  0.63289542710E+03  0.84055890217E+02 0.  0.
        254    2    1    2    0    0 -0.44562643796E+03  0.13415348800E+03  0.34800214613E+03  0.10867621316E+04  0.91834980070E+03 0.  0.
        -24    2    4    4    0    0  0.30527730761E+02  0.19236069176E+03 -0.24301776540E+03  0.32136782346E+03  0.79278405489E+02 0.  0.
         24    2    4    4    0    0 -0.47615416872E+03 -0.58207203758E+02  0.59101991153E+03  0.76539430816E+03  0.80081459616E+02 0.  0.
         13    1    3    3    0    0  0.74571992199E+01  0.10747777339E+01  0.28718389928E+02  0.29690249029E+02  0.00000000000E+00 0. -1.
        -13    1    3    3    0    0  0.43816923874E+03 -0.13522826573E+03  0.39188967991E+03  0.60320517807E+03  0.00000000000E+00 0.  1.
          2    1    6    6  502    0 -0.89489975547E+02  0.19710847307E+02  0.10172866131E+03  0.13691491429E+03  0.00000000000E+00 0. -1.
          3    1    5    5  503    0  0.44875508733E+02  0.57094701593E+02 -0.66059313856E+02  0.98170510751E+02  0.00000000000E+00 0. -1.
         -4    1    5    5    0  503 -0.14347777971E+02  0.13526599016E+03 -0.17695845154E+03  0.22319731271E+03  0.00000000000E+00 0.  1.
         -1    1    6    6    0  502 -0.38666419317E+03 -0.77918051065E+02  0.48929125022E+03  0.62847939386E+03  0.00000000000E+00 0.  1.
<mgrwt>
<rscale>  0 0.15383304E+04</rscale>
<asrwt>0</asrwt>
<pdfrwt beam="1">  1        2 0.19140521E+00 0.15383304E+04</pdfrwt>
<pdfrwt beam="2">  1       -2 0.73157488E-01 0.15383304E+04</pdfrwt>
<totfact> 0.28983521E+01</totfact>
</mgrwt>
</event>
<event>
12    1  0.1467288E-007  0.1395162E+04  0.7818608E-02  0.8957328E-01
          2   -1    0    0  501    0  0.00000000000E+00  0.00000000000E+00  0.45568317677E+03  0.45568317677E+03  0.00000000000E+00 0. -1.
         -2   -1    0    0    0  501 -0.00000000000E+00 -0.00000000000E+00 -0.10678891190E+04  0.10678891190E+04  0.00000000000E+00 0.  1.
         23    2    1    2    0    0 -0.81105592584E+02 -0.70568341908E+02  0.24071038579E+03  0.27789866477E+03  0.87910010947E+02 0.  0.
        254    2    1    2    0    0  0.81105592584E+02  0.70568341908E+02 -0.85291632799E+03  0.12456736310E+04  0.90148684091E+03 0.  0.
        -24    2    4    4    0    0  0.48244047224E+03  0.94375752191E+02 -0.47085799638E+03  0.68530676947E+03  0.79262372317E+02 0.  0.
         24    2    4    4    0    0 -0.40133487966E+03 -0.23807410283E+02 -0.38205833161E+03  0.56036686151E+03  0.80037318238E+02 0.  0.
         13    1    3    3    0    0 -0.29075891870E+02 -0.31623322449E+02  0.19205542861E+02  0.47056294875E+02  0.00000000000E+00 0.  1.
        -13    1    3    3    0    0 -0.52029700714E+02 -0.38945019459E+02  0.22150484293E+03  0.23084236989E+03  0.00000000000E+00 0. -1.
          4    1    6    6  502    0 -0.16083916987E+03  0.11441747034E+02 -0.19872481163E+03  0.25591346760E+03  0.00000000000E+00 0. -1.
          1    1    5    5  503    0  0.69074256311E+02 -0.11103941582E+02 -0.84928589882E+02  0.11003370294E+03  0.00000000000E+00 0. -1.
         -2    1    5    5    0  503  0.41336621593E+03  0.10547969377E+03 -0.38592940650E+03  0.57527306653E+03  0.00000000000E+00 0.  1.
         -3    1    6    6    0  502 -0.24049570978E+03 -0.35249157317E+02 -0.18333351999E+03  0.30445339391E+03  0.00000000000E+00 0.  1.
<mgrwt>
<rscale>  0 0.13951618E+04</rscale>
<asrwt>0</asrwt>
<pdfrwt beam="1">  1        2 0.70105105E-01 0.13951618E+04</pdfrwt>
<pdfrwt beam="2">  1       -2 0.16429063E+00 0.13951618E+04</pdfrwt>
<totfact> 0.15620492E+01</totfact>
</mgrwt>
</event>
<event>
12    1  0.1467288E-007  0.1347384E+04  0.7818608E-02  0.8992811E-01
         -2   -1    0    0    0  501 -0.00000000000E+00  0.00000000000E+00  0.26452097019E+03  0.26452097019E+03  0.00000000000E+00 0.  1.
          2   -1    0    0  501    0  0.00000000000E+00 -0.00000000000E+00 -0.17157832365E+04  0.17157832365E+04  0.00000000000E+00 0. -1.
         23    2    1    2    0    0 -0.32099512923E+03  0.86998561674E+02 -0.60314386710E+03  0.69480775845E+03  0.91480457217E+02 0.  0.
        254    2    1    2    0    0  0.32099512923E+03 -0.86998561674E+02 -0.84811839917E+03  0.12854964482E+04  0.90696729633E+03 0.  0.
        -24    2    4    4    0    0 -0.13965433117E+03  0.30361917390E+03 -0.20608198304E+03  0.40076836411E+03  0.80358963165E+02 0.  0.
         24    2    4    4    0    0  0.46064946040E+03 -0.39061773558E+03 -0.64203641613E+03  0.88472808409E+03  0.75847758313E+02 0.  0.
         13    1    3    3    0    0 -0.24607717036E+03  0.93988319708E+02 -0.40784408935E+03  0.48551475697E+03  0.00000000000E+00 0. -1.
        -13    1    3    3    0    0 -0.74917958862E+02 -0.69897580336E+01 -0.19529977775E+03  0.20929300148E+03  0.00000000000E+00 0.  1.
          4    1    6    6  502    0  0.39559203654E+03 -0.33838852432E+03 -0.58799029722E+03  0.78532314520E+03  0.00000000000E+00 0. -1.
          3    1    5    5  503    0 -0.32673481147E+02  0.16344717609E+03 -0.87288277291E+02  0.18815360505E+03  0.00000000000E+00 0. -1.
         -4    1    5    5    0  503 -0.10698085002E+03  0.14017199781E+03 -0.11879370575E+03  0.21261475906E+03  0.00000000000E+00 0.  1.
         -3    1    6    6    0  502  0.65057423854E+02 -0.52229211255E+02 -0.54046118908E+02  0.99404938891E+02  0.00000000000E+00 0.  1.
<mgrwt>
<rscale>  0 0.13473836E+04</rscale>
<asrwt>0</asrwt>
<pdfrwt beam="1">  1        2 0.26396667E+00 0.13473836E+04</pdfrwt>
<pdfrwt beam="2">  1       -2 0.40695532E-01 0.13473836E+04</pdfrwt>
<totfact> 0.53675163E+01</totfact>
</mgrwt>
</event>
<event>
12    1  0.1467288E-007  0.1833933E+04  0.7818608E-02  0.8688460E-01
         -2   -1    0    0    0  501 -0.00000000000E+00  0.00000000000E+00  0.73946995502E+03  0.73946995502E+03  0.00000000000E+00 0.  1.
          2   -1    0    0  501    0  0.00000000000E+00 -0.00000000000E+00 -0.11370675271E+04  0.11370675271E+04  0.00000000000E+00 0. -1.
         23    2    1    2    0    0  0.42606340061E+03  0.38770924402E+03 -0.54038449935E+03  0.79487345806E+03  0.89218428238E+02 0.  0.
        254    2    1    2    0    0 -0.42606340061E+03 -0.38770924402E+03  0.14278692728E+03  0.10816640241E+04  0.90430109759E+03 0.  0.
        -24    2    4    4    0    0 -0.20957551059E+03 -0.33806965955E+03  0.50596498081E+03  0.64834446904E+03  0.78339002988E+02 0.  0.
         24    2    4    4    0    0 -0.21648789002E+03 -0.49639584477E+02 -0.36317805353E+03  0.43331955502E+03  0.80848273467E+02 0.  0.
         13    1    3    3    0    0  0.41232993297E+03  0.36272115443E+03 -0.48540390354E+03  0.73293898728E+03  0.00000000000E+00 0. -1.
        -13    1    3    3    0    0  0.13733467638E+02  0.24988089595E+02 -0.54980595808E+02  0.61934470777E+02  0.00000000000E+00 0.  1.
          2    1    6    6  502    0 -0.14255318572E+03 -0.21114801940E+02 -0.29684125324E+03  0.32997268863E+03  0.00000000000E+00 0. -1.
          1    1    5    5  503    0 -0.15525829280E+03 -0.23766432774E+03  0.30112359118E+03  0.41384162106E+03  0.00000000000E+00 0. -1.
         -2    1    5    5    0  503 -0.54317217793E+02 -0.10040533181E+03  0.20484138963E+03  0.23450284798E+03  0.00000000000E+00 0.  1.
         -1    1    6    6    0  502 -0.73934704299E+02 -0.28524782537E+02 -0.66336800294E+02  0.10334686639E+03  0.00000000000E+00 0.  1.
<mgrwt>
<rscale>  0 0.18339327E+04</rscale>
<asrwt>0</asrwt>
<pdfrwt beam="1">  1        2 0.17493346E+00 0.18339327E+04</pdfrwt>
<pdfrwt beam="2">  1       -2 0.11376461E+00 0.18339327E+04</pdfrwt>
<totfact> 0.11785865E+01</totfact>
</mgrwt>
</event>
<event>
12    1  0.1467288E-007  0.2610773E+04  0.7818608E-02  0.8364551E-01
          1   -1    0    0  501    0  0.00000000000E+00  0.00000000000E+00  0.16555206819E+04  0.16555206819E+04  0.00000000000E+00 0. -1.
         -1   -1    0    0    0  501 -0.00000000000E+00 -0.00000000000E+00 -0.10293043054E+04  0.10293043054E+04  0.00000000000E+00 0.  1.
         23    2    1    2    0    0  0.10455629858E+04 -0.27953613319E+03  0.67763562612E+03  0.12801903044E+04  0.91404412514E+02 0.  0.
        254    2    1    2    0    0 -0.10455629858E+04  0.27953613319E+03 -0.51419249634E+02  0.14046346829E+04  0.89387484928E+03 0.  0.
        -24    2    4    4    0    0 -0.97491230360E+03  0.24283109700E+03 -0.36441415821E+03  0.10717851640E+04  0.80652449672E+02 0.  0.
         24    2    4    4    0    0 -0.70650682236E+02  0.36705036189E+02  0.31299490858E+03  0.33284951896E+03  0.80524598072E+02 0.  0.
         11    1    3    3    0    0  0.39582584091E+03 -0.13724661163E+03  0.30053265316E+03  0.51559150919E+03  0.00000000000E+00 0.  1.
        -11    1    3    3    0    0  0.64973714493E+03 -0.14228952156E+03  0.37710297295E+03  0.76459879523E+03  0.00000000000E+00 0. -1.
          4    1    6    6  502    0 -0.56772245007E+02 -0.14210061724E+02  0.13365654730E+03  0.14590780066E+03  0.00000000000E+00 0. -1.
          1    1    5    5  503    0 -0.75582663483E+03  0.22161093773E+03 -0.27653052481E+03  0.83477807877E+03  0.00000000000E+00 0. -1.
         -2    1    5    5    0  503 -0.21908566877E+03  0.21220159270E+02 -0.87883633406E+02  0.23700708521E+03  0.00000000000E+00 0.  1.
         -3    1    6    6    0  502 -0.13878437228E+02  0.50915097912E+02  0.17933836128E+03  0.18694171830E+03  0.00000000000E+00 0.  1.
<mgrwt>
<rscale>  0 0.26107735E+04</rscale>
<asrwt>0</asrwt>
<pdfrwt beam="1">  1        1 0.25469549E+00 0.26107735E+04</pdfrwt>
<pdfrwt beam="2">  1       -1 0.15835451E+00 0.26107735E+04</pdfrwt>
<totfact> 0.13528992E+00</totfact>
</mgrwt>
</event>
<event>
12    1  0.1467288E-007  0.1614237E+04  0.7818608E-02  0.8811849E-01
         -2   -1    0    0    0  501 -0.00000000000E+00  0.00000000000E+00  0.22116435614E+03  0.22116435614E+03  0.00000000000E+00 0.  1.
          2   -1    0    0  501    0  0.00000000000E+00 -0.00000000000E+00 -0.29455043034E+04  0.29455043034E+04  0.00000000000E+00 0. -1.
         23    2    1    2    0    0 -0.49010318773E+03  0.88188052103E+02 -0.14129617401E+04  0.15008862541E+04  0.90666430231E+02 0.  0.
        254    2    1    2    0    0  0.49010318773E+03 -0.88188052103E+02 -0.13113782071E+04  0.16657824054E+04  0.89840967990E+03 0.  0.
        -24    2    4    4    0    0  0.29997533584E+03  0.38605428085E+03 -0.50067724038E+03  0.70426322534E+03  0.79283552290E+02 0.  0.
         24    2    4    4    0    0  0.19012785189E+03 -0.47424233295E+03 -0.81070096673E+03  0.96151918007E+03  0.78922023233E+02 0.  0.
         11    1    3    3    0    0 -0.44296993334E+03  0.73675564813E+02 -0.13362831715E+04  0.14097174061E+04  0.00000000000E+00 0. -1.
        -11    1    3    3    0    0 -0.47133254389E+02  0.14512487291E+02 -0.76678568593E+02  0.91168847958E+02  0.00000000000E+00 0.  1.
          4    1    6    6  502    0  0.46889613286E+01 -0.93431879776E+01 -0.48895158830E+02  0.50000180769E+02  0.00000000000E+00 0. -1.
          1    1    5    5  503    0  0.11216806588E+03  0.14313378126E+03 -0.24239717771E+03  0.30302697257E+03  0.00000000000E+00 0. -1.
         -2    1    5    5    0  503  0.18780726996E+03  0.24292049959E+03 -0.25828006267E+03  0.40123625277E+03  0.00000000000E+00 0.  1.
         -3    1    6    6    0  502  0.18543889056E+03 -0.46489914497E+03 -0.76180580790E+03  0.91151899930E+03  0.00000000000E+00 0.  1.
<mgrwt>
<rscale>  0 0.16142374E+04</rscale>
<asrwt>0</asrwt>
<pdfrwt beam="1">  1        2 0.45315447E+00 0.16142374E+04</pdfrwt>
<pdfrwt beam="2">  1       -2 0.34025288E-01 0.16142374E+04</pdfrwt>
<totfact> 0.14661742E+01</totfact>
</mgrwt>
</event>
<event>
12    1  0.1467288E-007  0.3219552E+04  0.7818608E-02  0.8183673E-01
          2   -1    0    0  501    0  0.00000000000E+00  0.00000000000E+00  0.20912551987E+04  0.20912551987E+04  0.00000000000E+00 0. -1.
         -2   -1    0    0    0  501 -0.00000000000E+00 -0.00000000000E+00 -0.12391497091E+04  0.12391497091E+04  0.00000000000E+00 0.  1.
         23    2    1    2    0    0  0.68165335771E+03  0.16206341190E+03 -0.95313127525E+03  0.11864399638E+04  0.90910451586E+02 0.  0.
        254    2    1    2    0    0 -0.68165335771E+03 -0.16206341190E+03  0.18052367648E+04  0.21439649440E+04  0.92021196163E+03 0.  0.
        -24    2    4    4    0    0 -0.55360692184E+03 -0.45793877212E+03  0.15925848527E+04  0.17489333605E+04  0.79074921808E+02 0.  0.
         24    2    4    4    0    0 -0.12804643587E+03  0.29587536022E+03  0.21265191210E+03  0.39503158352E+03  0.83012033650E+02 0.  0.
         13    1    3    3    0    0  0.67545399190E+01  0.11192740059E+02 -0.32265135298E+02  0.34812931439E+02  0.00000000000E+00 0. -1.
        -13    1    3    3    0    0  0.67489881779E+03  0.15087067184E+03 -0.92086613995E+03  0.11516270323E+04  0.00000000000E+00 0.  1.
          4    1    6    6  502    0 -0.31991608227E+02  0.15467789469E+03  0.13348287548E+03  0.20680036786E+03  0.00000000000E+00 0. -1.
          3    1    5    5  503    0 -0.31031882023E+03 -0.21834025371E+03  0.77466216524E+03  0.86259591167E+03  0.00000000000E+00 0. -1.
         -4    1    5    5    0  503 -0.24328810160E+03 -0.23959851840E+03  0.81792268749E+03  0.88633744878E+03  0.00000000000E+00 0.  1.
         -3    1    6    6    0  502 -0.96054827646E+02  0.14119746553E+03  0.79169036620E+02  0.18823121565E+03  0.00000000000E+00 0.  1.
<mgrwt>
<rscale>  0 0.32195517E+04</rscale>
<asrwt>0</asrwt>
<pdfrwt beam="1">  1        2 0.32173157E+00 0.32195517E+04</pdfrwt>
<pdfrwt beam="2">  1       -2 0.19063842E+00 0.32195517E+04</pdfrwt>
<totfact> 0.76679139E-01</totfact>
</mgrwt>
</event>
<event>
12    1  0.1467288E-007  0.1847138E+04  0.7818608E-02  0.8681626E-01
         -2   -1    0    0    0  501 -0.00000000000E+00  0.00000000000E+00  0.58111110987E+03  0.58111110987E+03  0.00000000000E+00 0.  1.
          2   -1    0    0  501    0  0.00000000000E+00 -0.00000000000E+00 -0.14678425947E+04  0.14678425947E+04  0.00000000000E+00 0. -1.
         23    2    1    2    0    0  0.45239421424E+02 -0.16014438040E+03 -0.10904623419E+04  0.11068035243E+04  0.90626124635E+02 0.  0.
        254    2    1    2    0    0 -0.45239421424E+02  0.16014438040E+03  0.20373085709E+03  0.94215018025E+03  0.90468108867E+03 0.  0.
        -24    2    4    4    0    0 -0.35656958853E+03 -0.66993341961E+02 -0.16177893046E+03  0.40507450126E+03  0.79265061038E+02 0.  0.
         24    2    4    4    0    0  0.31133016711E+03  0.22713772236E+03  0.36550978755E+03  0.53707567899E+03  0.79591848183E+02 0.  0.
         13    1    3    3    0    0  0.52892750281E+02 -0.15773476968E+03 -0.84563822263E+03  0.86184795885E+03  0.00000000000E+00 0. -1.
        -13    1    3    3    0    0 -0.76533288569E+01 -0.24096107133E+01 -0.24482411931E+03  0.24495556548E+03  0.00000000000E+00 0.  1.
          2    1    6    6  502    0  0.12097867448E+03  0.48566495376E+02  0.14885673078E+03  0.19787084285E+03  0.00000000000E+00 0. -1.
          1    1    5    5  503    0 -0.91305760786E+01  0.11190560297E+02 -0.14318642342E+01  0.14513658893E+02  0.00000000000E+00 0. -1.
         -2    1    5    5    0  503 -0.34743901245E+03 -0.78183902258E+02 -0.16034706623E+03  0.39056084237E+03  0.00000000000E+00 0.  1.
         -1    1    6    6    0  502  0.19035149263E+03  0.17857122698E+03  0.21665305677E+03  0.33920483614E+03  0.00000000000E+00 0.  1.
<mgrwt>
<rscale>  0 0.18471379E+04</rscale>
<asrwt>0</asrwt>
<pdfrwt beam="1">  1        2 0.22582193E+00 0.18471379E+04</pdfrwt>
<pdfrwt beam="2">  1       -2 0.89401711E-01 0.18471379E+04</pdfrwt>
<totfact> 0.13362267E+01</totfact>
</mgrwt>
</event>
<event>
12    1  0.1467288E-007  0.1989755E+04  0.7818608E-02  0.8611426E-01
         -1   -1    0    0    0  501 -0.00000000000E+00  0.00000000000E+00  0.14557686708E+04  0.14557686708E+04  0.00000000000E+00 0.  1.
          1   -1    0    0  501    0  0.00000000000E+00 -0.00000000000E+00 -0.67990276841E+03  0.67990276841E+03  0.00000000000E+00 0. -1.
         23    2    1    2    0    0  0.14844370966E+03 -0.35569022107E+03  0.10497362614E+04  0.11220734136E+04  0.92474097623E+02 0.  0.
        254    2    1    2    0    0 -0.14844370966E+03  0.35569022107E+03 -0.27387035903E+03  0.10135980256E+04  0.89656283415E+03 0.  0.
        -24    2    4    4    0    0 -0.34383268249E+02 -0.27747080094E+03 -0.21782533748E+03  0.36342154652E+03  0.80343564260E+02 0.  0.
         24    2    4    4    0    0 -0.11406044142E+03  0.63316102202E+03 -0.56045021549E+02  0.65017647905E+03  0.75403881700E+02 0.  0.
         13    1    3    3    0    0  0.73120646809E+02 -0.10615167262E+03  0.45100708581E+03  0.46906523858E+03  0.00000000000E+00 0. -1.
        -13    1    3    3    0    0  0.75323062856E+02 -0.24953854845E+03  0.59872917560E+03  0.65300817504E+03  0.00000000000E+00 0.  1.
          2    1    6    6  502    0 -0.14112090622E+02  0.28837754103E+03 -0.20747393153E+02  0.28946711661E+03  0.00000000000E+00 0. -1.
          3    1    5    5  503    0 -0.35117338244E+02 -0.85146838283E+02 -0.36427277573E+02  0.99046242061E+02  0.00000000000E+00 0. -1.
         -4    1    5    5    0  503  0.73406999463E+00 -0.19232396266E+03 -0.18139805991E+03  0.26437530446E+03  0.00000000000E+00 0.  1.
         -1    1    6    6    0  502 -0.99948350793E+02  0.34478348098E+03 -0.35297628396E+02  0.36070936244E+03  0.00000000000E+00 0.  1.
<mgrwt>
<rscale>  0 0.19897549E+04</rscale>
<asrwt>0</asrwt>
<pdfrwt beam="1">  1        1 0.10460043E+00 0.19897549E+04</pdfrwt>
<pdfrwt beam="2">  1       -1 0.22396441E+00 0.19897549E+04</pdfrwt>
<totfact> 0.27367348E+00</totfact>
</mgrwt>
</event>
<event>
12    1  0.1467288E-007  0.1407401E+04  0.7818608E-02  0.8948479E-01
         -2   -1    0    0    0  501 -0.00000000000E+00  0.00000000000E+00  0.29026750307E+03  0.29026750307E+03  0.00000000000E+00 0.  1.
          2   -1    0    0  501    0  0.00000000000E+00 -0.00000000000E+00 -0.17059937258E+04  0.17059937258E+04  0.00000000000E+00 0. -1.
         23    2    1    2    0    0 -0.35441023430E+03 -0.20245408374E+03 -0.39691574574E+03  0.57555431178E+03  0.84417926932E+02 0.  0.
        254    2    1    2    0    0  0.35441023430E+03  0.20245408374E+03 -0.10188104770E+04  0.14207069171E+04  0.90213030435E+03 0.  0.
        -24    2    4    4    0    0 -0.11570423181E+03 -0.26958964119E+03 -0.43851470903E+03  0.53347334987E+03  0.78946951107E+02 0.  0.
         24    2    4    4    0    0  0.47011446612E+03  0.47204372493E+03 -0.58029576797E+03  0.88723356723E+03  0.81285515255E+02 0.  0.
         11    1    3    3    0    0 -0.69943202999E+02 -0.27583319765E+02 -0.34385577076E+02  0.82675625705E+02  0.00000000000E+00 0.  1.
        -11    1    3    3    0    0 -0.28446703131E+03 -0.17487076398E+03 -0.36253016866E+03  0.49287868607E+03  0.00000000000E+00 0. -1.
          4    1    6    6  502    0  0.57919873402E+02  0.45574953708E+02 -0.35162158525E+02  0.81658836218E+02  0.00000000000E+00 0. -1.
          1    1    5    5  503    0 -0.32048247133E+02 -0.12496049900E+03 -0.13319215984E+03  0.18542483085E+03  0.00000000000E+00 0. -1.
         -2    1    5    5    0  503 -0.83655984677E+02 -0.14462914218E+03 -0.30532254920E+03  0.34804851902E+03  0.00000000000E+00 0.  1.
         -3    1    6    6    0  502  0.41219459271E+03  0.42646877122E+03 -0.54513360945E+03  0.80557473101E+03  0.00000000000E+00 0.  1.
<mgrwt>
<rscale>  0 0.14074012E+04</rscale>
<asrwt>0</asrwt>
<pdfrwt beam="1">  1        2 0.26246058E+00 0.14074012E+04</pdfrwt>
<pdfrwt beam="2">  1       -2 0.44656538E-01 0.14074012E+04</pdfrwt>
<totfact> 0.45015664E+01</totfact>
</mgrwt>
</event>
<event>
12    1  0.1467288E-007  0.1898797E+04  0.7818608E-02  0.8655455E-01
          1   -1    0    0  501    0  0.00000000000E+00  0.00000000000E+00  0.19093387983E+04  0.19093387983E+04  0.00000000000E+00 0. -1.
         -1   -1    0    0    0  501 -0.00000000000E+00 -0.00000000000E+00 -0.47207833142E+03  0.47207833142E+03  0.00000000000E+00 0.  1.
         23    2    1    2    0    0  0.35869138983E+03  0.28474925930E+03  0.12620424332E+04  0.13455461588E+04  0.89452268453E+02 0.  0.
        254    2    1    2    0    0 -0.35869138983E+03 -0.28474925930E+03  0.17521803368E+03  0.10358709710E+04  0.91246131719E+03 0.  0.
        -24    2    4    4    0    0  0.21705767490E+03 -0.20965912509E+03  0.30396101782E+03  0.43564896964E+03  0.79540816115E+02 0.  0.
         24    2    4    4    0    0 -0.57574906472E+03 -0.75090134217E+02 -0.12874298414E+03  0.60022200133E+03  0.81031975988E+02 0.  0.
         11    1    3    3    0    0  0.21068477618E+03  0.21916488079E+03  0.85884898234E+03  0.91106689895E+03  0.00000000000E+00 0.  1.
        -11    1    3    3    0    0  0.14800661365E+03  0.65584378507E+02  0.40319345086E+03  0.43447925981E+03  0.00000000000E+00 0. -1.
          2    1    6    6  502    0 -0.23470840711E+02 -0.62492834489E+01  0.10585377170E+02  0.26494982867E+02  0.00000000000E+00 0. -1.
          1    1    5    5  503    0  0.44146267992E+02 -0.23112289681E+02  0.91678083524E+02  0.10434530133E+03  0.00000000000E+00 0. -1.
         -2    1    5    5    0  503  0.17291140691E+03 -0.18654683540E+03  0.21228293429E+03  0.33130366830E+03  0.00000000000E+00 0.  1.
         -1    1    6    6    0  502 -0.55227822401E+03 -0.68840850768E+02 -0.13932836130E+03  0.57372701847E+03  0.00000000000E+00 0.  1.
<mgrwt>
<rscale>  0 0.18987970E+04</rscale>
<asrwt>0</asrwt>
<pdfrwt beam="1">  1        1 0.29374443E+00 0.18987970E+04</pdfrwt>
<pdfrwt beam="2">  1       -1 0.72627437E-01 0.18987970E+04</pdfrwt>
<totfact> 0.61424288E+00</totfact>
</mgrwt>
</event>
<event>
12    1  0.1467288E-007  0.1866390E+04  0.7818608E-02  0.8671769E-01
          2   -1    0    0  501    0  0.00000000000E+00  0.00000000000E+00  0.26752201368E+04  0.26752201368E+04  0.00000000000E+00 0. -1.
         -2   -1    0    0    0  501 -0.00000000000E+00 -0.00000000000E+00 -0.32552581875E+03  0.32552581875E+03  0.00000000000E+00 0.  1.
         23    2    1    2    0    0  0.60405660586E+03 -0.69134458372E+02  0.14893180439E+04  0.16113055469E+04  0.92592509870E+02 0.  0.
        254    2    1    2    0    0 -0.60405660586E+03  0.69134458372E+02  0.86037627411E+03  0.13894404087E+04  0.90588816080E+03 0.  0.
        -24    2    4    4    0    0 -0.30580005007E+03  0.45871120586E+03  0.27386206399E+03  0.62061386130E+03  0.78939810869E+02 0.  0.
         24    2    4    4    0    0 -0.29825655579E+03 -0.38957674749E+03  0.58651421013E+03  0.76882654741E+03  0.79801792385E+02 0.  0.
         13    1    3    3    0    0  0.12030416940E+03 -0.53158134352E+01  0.20976840820E+03  0.24187628269E+03  0.00000000000E+00 0.  1.
        -13    1    3    3    0    0  0.48375243646E+03 -0.63818644937E+02  0.12795496357E+04  0.13694292642E+04  0.00000000000E+00 0. -1.
          2    1    6    6  502    0 -0.73206746798E+02 -0.76381088280E+02  0.17765967967E+03  0.20677586949E+03  0.00000000000E+00 0. -1.
          1    1    5    5  503    0 -0.41693243979E+02  0.28511428205E+02  0.39196320837E+02  0.63934182555E+02  0.00000000000E+00 0. -1.
         -2    1    5    5    0  503 -0.26410680610E+03  0.43019977766E+03  0.23466574315E+03  0.55667967875E+03  0.00000000000E+00 0.  1.
         -1    1    6    6    0  502 -0.22504980899E+03 -0.31319565921E+03  0.40885453046E+03  0.56205067792E+03  0.00000000000E+00 0.  1.
<mgrwt>
<rscale>  0 0.18663903E+04</rscale>
<asrwt>0</asrwt>
<pdfrwt beam="1">  1        2 0.41157231E+00 0.18663903E+04</pdfrwt>
<pdfrwt beam="2">  1       -2 0.50080897E-01 0.18663903E+04</pdfrwt>
<totfact> 0.97462165E+00</totfact>
</mgrwt>
</event>
<event>
12    1  0.1467288E-007  0.2382567E+04  0.7818608E-02  0.8446059E-01
         -2   -1    0    0    0  501 -0.00000000000E+00  0.00000000000E+00  0.86158681783E+03  0.86158681783E+03  0.00000000000E+00 0.  1.
          2   -1    0    0  501    0  0.00000000000E+00 -0.00000000000E+00 -0.16471423594E+04  0.16471423594E+04  0.00000000000E+00 0. -1.
         23    2    1    2    0    0  0.20550634432E+03 -0.42260378926E+03  0.61492664416E+03  0.77933188520E+03  0.91632905328E+02 0.  0.
        254    2    1    2    0    0 -0.20550634432E+03  0.42260378926E+03 -0.14004821857E+04  0.17293972920E+04  0.89924291540E+03 0.  0.
        -24    2    4    4    0    0  0.16886286335E+03 -0.68720920281E+01  0.25883280520E+02  0.19137749173E+03  0.85985509594E+02 0.  0.
         24    2    4    4    0    0 -0.37436920767E+03  0.42947588129E+03 -0.14263654663E+04  0.15380198003E+04  0.79903858236E+02 0.  0.
         13    1    3    3    0    0  0.16421125314E+03 -0.25987959275E+03  0.44126320546E+03  0.53778802039E+03  0.00000000000E+00 0.  1.
        -13    1    3    3    0    0  0.41295091183E+02 -0.16272419651E+03  0.17366343870E+03  0.24154386481E+03  0.00000000000E+00 0. -1.
          4    1    6    6  502    0 -0.23897428233E+03  0.30646263080E+03 -0.88453485518E+03  0.96614179173E+03  0.00000000000E+00 0. -1.
          1    1    5    5  503    0  0.19190397643E+02 -0.23956605926E+02  0.26772795217E+02  0.40730490949E+02  0.00000000000E+00 0. -1.
         -2    1    5    5    0  503  0.14967246571E+03  0.17084513898E+02 -0.88951469662E+00  0.15064700078E+03  0.00000000000E+00 0.  1.
         -3    1    6    6    0  502 -0.13539492534E+03  0.12301325049E+03 -0.54183061108E+03  0.57187800859E+03  0.00000000000E+00 0.  1.
<mgrwt>
<rscale>  0 0.23825668E+04</rscale>
<asrwt>0</asrwt>
<pdfrwt beam="1">  1        2 0.25340652E+00 0.23825668E+04</pdfrwt>
<pdfrwt beam="2">  1       -2 0.13255182E+00 0.23825668E+04</pdfrwt>
<totfact> 0.39074928E+00</totfact>
</mgrwt>
</event>
<event>
12    1  0.1467288E-007  0.1315459E+04  0.7818608E-02  0.9017395E-01
         -2   -1    0    0    0  501 -0.00000000000E+00  0.00000000000E+00  0.22885706073E+03  0.22885706073E+03  0.00000000000E+00 0. -1.
          2   -1    0    0  501    0  0.00000000000E+00 -0.00000000000E+00 -0.18902970009E+04  0.18902970009E+04  0.00000000000E+00 0.  1.
         23    2    1    2    0    0 -0.52891245777E+02 -0.14260836588E+03  0.52321415691E+02  0.18588391945E+03  0.93170118979E+02 0.  0.
        254    2    1    2    0    0  0.52891245777E+02  0.14260836588E+03 -0.17137613559E+04  0.19332701422E+04  0.88171470890E+03 0.  0.
        -24    2    4    4    0    0 -0.22988536215E+02  0.47477682947E+03 -0.62375259248E+03  0.78846531588E+03  0.81662397212E+02 0.  0.
         24    2    4    4    0    0  0.75879781992E+02 -0.33216846359E+03 -0.10900087634E+04  0.11448048263E+04  0.79783184646E+02 0.  0.
         11    1    3    3    0    0 -0.58144054399E+02 -0.12690646744E+03  0.74482886705E+02  0.15822036200E+03  0.00000000000E+00 0. -1.
        -11    1    3    3    0    0  0.52528086220E+01 -0.15701898441E+02 -0.22161471015E+02  0.27663557446E+02  0.00000000000E+00 0.  1.
          2    1    6    6  502    0  0.86303043023E+02 -0.21238699886E+03 -0.74230774364E+03  0.77690233543E+03  0.00000000000E+00 0. -1.
          1    1    5    5  503    0 -0.50333644431E+02  0.37404048220E+03 -0.50308633349E+03  0.62891622418E+03  0.00000000000E+00 0. -1.
         -2    1    5    5    0  503  0.27345108216E+02  0.10073634727E+03 -0.12066625899E+03  0.15954909170E+03  0.00000000000E+00 0.  1.
         -1    1    6    6    0  502 -0.10423261031E+02 -0.11978146473E+03 -0.34770101975E+03  0.36790249089E+03  0.00000000000E+00 0.  1.
<mgrwt>
<rscale>  0 0.13154586E+04</rscale>
<asrwt>0</asrwt>
<pdfrwt beam="1">  1        2 0.29081492E+00 0.13154586E+04</pdfrwt>
<pdfrwt beam="2">  1       -2 0.35208779E-01 0.13154586E+04</pdfrwt>
<totfact> 0.57036821E+01</totfact>
</mgrwt>
</event>
<event>
12    1  0.1467288E-007  0.1574818E+04  0.7818608E-02  0.8836169E-01
         -1   -1    0    0    0  501 -0.00000000000E+00  0.00000000000E+00  0.58367896736E+03  0.58367896736E+03  0.00000000000E+00 0.  1.
          1   -1    0    0  501    0  0.00000000000E+00 -0.00000000000E+00 -0.10622498415E+04  0.10622498415E+04  0.00000000000E+00 0. -1.
         23    2    1    2    0    0 -0.37751432313E+03 -0.30351463319E+03  0.97786551775E+02  0.50279108526E+03  0.92727929872E+02 0.  0.
        254    2    1    2    0    0  0.37751432313E+03  0.30351463319E+03 -0.57635742591E+03  0.11431377236E+04  0.86019635897E+03 0.  0.
        -24    2    4    4    0    0  0.33450244278E+03  0.51008498381E+03 -0.66019500320E+03  0.90245163147E+03  0.80516643961E+02 0.  0.
         24    2    4    4    0    0  0.43011880353E+02 -0.20657035061E+03  0.83837577290E+02  0.24068609213E+03  0.79873174311E+02 0.  0.
         13    1    3    3    0    0 -0.17440431335E+03 -0.13568161435E+03 -0.21990144112E+01  0.22097782842E+03  0.00000000000E+00 0.  1.
        -13    1    3    3    0    0 -0.20311000978E+03 -0.16783301884E+03  0.99985566186E+02  0.28181325685E+03  0.00000000000E+00 0. -1.
          2    1    6    6  502    0 -0.83471409813E+01  0.20814601526E+01  0.10636700467E+02  0.13680154815E+02  0.00000000000E+00 0. -1.
          3    1    5    5  503    0  0.73500019564E+02  0.14359721229E+03 -0.22180751097E+03  0.27426444205E+03  0.00000000000E+00 0. -1.
         -4    1    5    5    0  503  0.26100242322E+03  0.36648777152E+03 -0.43838749223E+03  0.62818718942E+03  0.00000000000E+00 0.  1.
         -1    1    6    6    0  502  0.51359021334E+02 -0.20865181077E+03  0.73200876823E+02  0.22700593732E+03  0.00000000000E+00 0.  1.
<mgrwt>
<rscale>  0 0.15748179E+04</rscale>
<asrwt>0</asrwt>
<pdfrwt beam="1">  1        1 0.16342305E+00 0.15748179E+04</pdfrwt>
<pdfrwt beam="2">  1       -1 0.89796765E-01 0.15748179E+04</pdfrwt>
<totfact> 0.15811913E+01</totfact>
</mgrwt>
</event>
<event>
12    1  0.1467288E-007  0.2070165E+04  0.7818608E-02  0.8574501E-01
         -1   -1    0    0    0  501 -0.00000000000E+00  0.00000000000E+00  0.15646146499E+04  0.15646146499E+04  0.00000000000E+00 0.  1.
          1   -1    0    0  501    0  0.00000000000E+00 -0.00000000000E+00 -0.68476628048E+03  0.68476628048E+03  0.00000000000E+00 0. -1.
         23    2    1    2    0    0 -0.12413987557E+03  0.78178248146E+03  0.71458460967E+02  0.79969932123E+03  0.88420222308E+02 0.  0.
        254    2    1    2    0    0  0.12413987557E+03 -0.78178248146E+03  0.80838990847E+03  0.14496816092E+04  0.90635973366E+03 0.  0.
        -24    2    4    4    0    0  0.23777861230E+03 -0.53559188011E+03  0.96095338502E+03  0.11283146333E+04  0.79152845544E+02 0.  0.
         24    2    4    4    0    0 -0.11363873673E+03 -0.24619060135E+03 -0.15256347655E+03  0.32136697589E+03  0.80483191636E+02 0.  0.
         13    1    3    3    0    0 -0.67553860233E+02  0.40322218756E+03  0.81117646462E+02  0.41681138317E+03  0.00000000000E+00 0.  1.
        -13    1    3    3    0    0 -0.56586015337E+02  0.37856029390E+03 -0.96591854954E+01  0.38288793807E+03  0.00000000000E+00 0. -1.
          2    1    6    6  502    0 -0.34503669599E+02 -0.15995991333E+03 -0.10833406929E+03  0.19624970740E+03  0.00000000000E+00 0. -1.
          3    1    5    5  503    0  0.28289486767E+02 -0.12914530318E+03  0.25451481498E+03  0.28680410638E+03  0.00000000000E+00 0. -1.
         -4    1    5    5    0  503  0.20948912553E+03 -0.40644657693E+03  0.70643857005E+03  0.84151052689E+03  0.00000000000E+00 0.  1.
         -1    1    6    6    0  502 -0.79135067130E+02 -0.86230688027E+02 -0.44229407266E+02  0.12511726849E+03  0.00000000000E+00 0.  1.
<mgrwt>
<rscale>  0 0.20701646E+04</rscale>
<asrwt>0</asrwt>
<pdfrwt beam="1">  1        1 0.10534866E+00 0.20701646E+04</pdfrwt>
<pdfrwt beam="2">  1       -1 0.24070995E+00 0.20701646E+04</pdfrwt>
<totfact> 0.20831127E+00</totfact>
</mgrwt>
</event>
<event>
12    1  0.1467288E-007  0.2233155E+04  0.7818608E-02  0.8504754E-01
          1   -1    0    0  501    0  0.00000000000E+00  0.00000000000E+00  0.17926602327E+04  0.17926602327E+04  0.00000000000E+00 0. -1.
         -1   -1    0    0    0  501 -0.00000000000E+00 -0.00000000000E+00 -0.69547204689E+03  0.69547204689E+03  0.00000000000E+00 0.  1.
         23    2    1    2    0    0  0.78073483300E+03 -0.34230436027E+03  0.80313643264E+03  0.11748046787E+04  0.91753742323E+02 0.  0.
        254    2    1    2    0    0 -0.78073483300E+03  0.34230436027E+03  0.29405175313E+03  0.13133276008E+04  0.95480039748E+03 0.  0.
        -24    2    4    4    0    0 -0.51378432459E+03 -0.26575215519E+03  0.40466228078E+01  0.58432082593E+03  0.82558538506E+02 0.  0.
         24    2    4    4    0    0 -0.26695050841E+03  0.60805651546E+03  0.29000513032E+03  0.72900677489E+03  0.79703213762E+02 0.  0.
         11    1    3    3    0    0  0.42580406646E+02  0.25661031465E+01  0.39747449409E+02  0.58305537044E+02  0.00000000000E+00 0.  1.
        -11    1    3    3    0    0  0.73815442636E+03 -0.34487046342E+03  0.76338898324E+03  0.11164991417E+04  0.00000000000E+00 0. -1.
          4    1    6    6  502    0 -0.15775016165E+03  0.31843799077E+03  0.11542529410E+03  0.37364537463E+03  0.00000000000E+00 0. -1.
          1    1    5    5  503    0 -0.46781845561E+03 -0.24101894631E+03  0.27765583156E+02  0.52698687602E+03  0.00000000000E+00 0. -1.
         -2    1    5    5    0  503 -0.45965868983E+02 -0.24733208875E+02 -0.23718960348E+02  0.57333949913E+02  0.00000000000E+00 0.  1.
         -3    1    6    6    0  502 -0.10920034676E+03  0.28961852469E+03  0.17457983622E+03  0.35536140025E+03  0.00000000000E+00 0.  1.
<mgrwt>
<rscale>  0 0.22331548E+04</rscale>
<asrwt>0</asrwt>
<pdfrwt beam="1">  1        1 0.27579388E+00 0.22331548E+04</pdfrwt>
<pdfrwt beam="2">  1       -1 0.10699570E+00 0.22331548E+04</pdfrwt>
<totfact> 0.30517677E+00</totfact>
</mgrwt>
</event>
<event>
12    1  0.1467288E-007  0.2366441E+04  0.7818608E-02  0.8452175E-01
         -2   -1    0    0    0  501 -0.00000000000E+00  0.00000000000E+00  0.76451726957E+03  0.76451726957E+03  0.00000000000E+00 0. -1.
          2   -1    0    0  501    0  0.00000000000E+00 -0.00000000000E+00 -0.18312356849E+04  0.18312356849E+04  0.00000000000E+00 0.  1.
         23    2    1    2    0    0  0.32359103858E+02  0.75871918546E+03 -0.10294833396E+04  0.12823579154E+04  0.88904233037E+02 0.  0.
        254    2    1    2    0    0 -0.32359103858E+02 -0.75871918546E+03 -0.37235075792E+02  0.13133950391E+04  0.10709426520E+04 0.  0.
        -24    2    4    4    0    0  0.28162957000E+03  0.15802032083E+03 -0.68691812123E+02  0.33972709898E+03  0.80064350564E+02 0.  0.
         24    2    4    4    0    0 -0.31398867386E+03 -0.91673950629E+03  0.31456736330E+02  0.97366794016E+03  0.89663380067E+02 0.  0.
         11    1    3    3    0    0 -0.82347029780E+01  0.61549063006E+03 -0.83984937549E+03  0.10412701376E+04  0.00000000000E+00 0.  1.
        -11    1    3    3    0    0  0.40593806836E+02  0.14322855540E+03 -0.18963396408E+03  0.24108777772E+03  0.00000000000E+00 0. -1.
          2    1    6    6  502    0 -0.11565838060E+02 -0.51904472359E+01 -0.96709536323E+00  0.12713953987E+02  0.00000000000E+00 0. -1.
          1    1    5    5  503    0  0.15416830711E+03  0.52165835535E+02 -0.61173215103E+02  0.17387151451E+03  0.00000000000E+00 0. -1.
         -2    1    5    5    0  503  0.12746126289E+03  0.10585448530E+03 -0.75185970197E+01  0.16585558446E+03  0.00000000000E+00 0.  1.
         -1    1    6    6    0  502 -0.30242283580E+03 -0.91154905905E+03  0.32423831694E+02  0.96095398617E+03  0.00000000000E+00 0.  1.
<mgrwt>
<rscale>  0 0.23664415E+04</rscale>
<asrwt>0</asrwt>
<pdfrwt beam="1">  1        2 0.28172856E+00 0.23664415E+04</pdfrwt>
<pdfrwt beam="2">  1       -2 0.11761804E+00 0.23664415E+04</pdfrwt>
<totfact> 0.41720540E+00</totfact>
</mgrwt>
</event>
<event>
12    1  0.1467288E-007  0.1182862E+04  0.7818608E-02  0.9127991E-01
         -2   -1    0    0    0  501 -0.00000000000E+00  0.00000000000E+00  0.12464634095E+03  0.12464634095E+03  0.00000000000E+00 0.  1.
          2   -1    0    0  501    0  0.00000000000E+00 -0.00000000000E+00 -0.28062631951E+04  0.28062631951E+04  0.00000000000E+00 0. -1.
         23    2    1    2    0    0  0.70679600239E+02 -0.21039769387E+03 -0.82952783348E+03  0.86268763247E+03  0.82769132158E+02 0.  0.
        254    2    1    2    0    0 -0.70679600239E+02  0.21039769387E+03 -0.18520890207E+04  0.20682219036E+04  0.89333381581E+03 0.  0.
        -24    2    4    4    0    0 -0.32849562909E+03  0.36319666565E+03 -0.15832451578E+04  0.16591626196E+04  0.79587514383E+02 0.  0.
         24    2    4    4    0    0  0.25781602885E+03 -0.15279897178E+03 -0.26884386290E+03  0.40905928396E+03  0.72359136703E+02 0.  0.
         11    1    3    3    0    0 -0.78091220788E+01 -0.47661276212E+02 -0.28238847408E+03  0.28648879548E+03  0.00000000000E+00 0. -1.
        -11    1    3    3    0    0  0.78488722318E+02 -0.16273641765E+03 -0.54713935939E+03  0.57619883700E+03  0.00000000000E+00 0.  1.
          4    1    6    6  502    0  0.27869220066E+02  0.64408541304E+01 -0.24702880214E+02  0.37794315973E+02  0.00000000000E+00 0. -1.
          3    1    5    5  503    0 -0.22079791208E+01 -0.41953385467E+01 -0.17117168088E+02  0.17761573147E+02  0.00000000000E+00 0. -1.
         -4    1    5    5    0  503 -0.32628764997E+03  0.36739200420E+03 -0.15661279897E+04  0.16414010465E+04  0.00000000000E+00 0.  1.
         -3    1    6    6    0  502  0.22994680879E+03 -0.15923982591E+03 -0.24414098268E+03  0.37126496799E+03  0.00000000000E+00 0.  1.
<mgrwt>
<rscale>  0 0.11828617E+04</rscale>
<asrwt>0</asrwt>
<pdfrwt beam="1">  1        2 0.43173278E+00 0.11828617E+04</pdfrwt>
<pdfrwt beam="2">  1       -2 0.19176361E-01 0.11828617E+04</pdfrwt>
<totfact> 0.52712635E+01</totfact>
</mgrwt>
</event>
<event>
12    1  0.1467288E-007  0.1965220E+04  0.7818608E-02  0.8623056E-01
          1   -1    0    0  501    0  0.00000000000E+00  0.00000000000E+00  0.14975315616E+04  0.14975315616E+04  0.00000000000E+00 0. -1.
         -1   -1    0    0    0  501 -0.00000000000E+00 -0.00000000000E+00 -0.64474281813E+03  0.64474281813E+03  0.00000000000E+00 0.  1.
         23    2    1    2    0    0 -0.35914258619E+03 -0.53702450794E+03 -0.12299554473E+03  0.66403324306E+03  0.91834223031E+02 0.  0.
        254    2    1    2    0    0  0.35914258619E+03  0.53702450794E+03  0.97578428825E+03  0.14782411367E+04  0.90314072091E+03 0.  0.
        -24    2    4    4    0    0  0.44512523501E+03 -0.64164762397E+02  0.61957673001E+03  0.77026990997E+03  0.84775104001E+02 0.  0.
         24    2    4    4    0    0 -0.85982648823E+02  0.60118927034E+03  0.35620755823E+03  0.70797122675E+03  0.74282425240E+02 0.  0.
         11    1    3    3    0    0 -0.31595038285E+03 -0.47429648990E+03 -0.13809900811E+03  0.58638992215E+03  0.00000000000E+00 0.  1.
        -11    1    3    3    0    0 -0.43192203338E+02 -0.62728018037E+02  0.15103463372E+02  0.77643320910E+02  0.00000000000E+00 0. -1.
          4    1    6    6  502    0 -0.41567544222E+02  0.45021030496E+03  0.29063104273E+03  0.53747891347E+03  0.00000000000E+00 0. -1.
          3    1    5    5  503    0  0.40509642984E+03 -0.82090628983E+02  0.56979245667E+03  0.70392146757E+03  0.00000000000E+00 0. -1.
         -4    1    5    5    0  503  0.40028805166E+02  0.17925866585E+02  0.49784273348E+02  0.66348442398E+02  0.00000000000E+00 0.  1.
         -3    1    6    6    0  502 -0.44415104601E+02  0.15097896538E+03  0.65576515499E+02  0.17049231328E+03  0.00000000000E+00 0.  1.
<mgrwt>
<rscale>  0 0.19652203E+04</rscale>
<asrwt>0</asrwt>
<pdfrwt beam="1">  1        1 0.23038947E+00 0.19652203E+04</pdfrwt>
<pdfrwt beam="2">  1       -1 0.99191203E-01 0.19652203E+04</pdfrwt>
<totfact> 0.59330575E+00</totfact>
</mgrwt>
</event>
<event>
12    1  0.1467288E-007  0.1869653E+04  0.7818608E-02  0.8670111E-01
          2   -1    0    0  501    0  0.00000000000E+00  0.00000000000E+00  0.23620717104E+04  0.23620717104E+04  0.00000000000E+00 0. -1.
         -2   -1    0    0    0  501 -0.00000000000E+00 -0.00000000000E+00 -0.36997221269E+03  0.36997221269E+03  0.00000000000E+00 0.  1.
         23    2    1    2    0    0 -0.40351751798E+03  0.58560425720E+03  0.69117470239E+03  0.99618717596E+03  0.94380543313E+02 0.  0.
        254    2    1    2    0    0  0.40351751798E+03 -0.58560425720E+03  0.13009247953E+04  0.17358567471E+04  0.90279266175E+03 0.  0.
        -24    2    4    4    0    0  0.15269469246E+03  0.22286678365E+03  0.46708245022E+03  0.54543683053E+03  0.79687191182E+02 0.  0.
         24    2    4    4    0    0  0.25082282552E+03 -0.80847104085E+03  0.83384234512E+03  0.11904199166E+04  0.72587930490E+02 0.  0.
         11    1    3    3    0    0 -0.14136257884E+02  0.56461306474E+02  0.36439030338E+02  0.68669613714E+02  0.00000000000E+00 0. -1.
        -11    1    3    3    0    0 -0.38938126009E+03  0.52914295072E+03  0.65473567205E+03  0.92751756224E+03  0.00000000000E+00 0.  1.
          4    1    6    6  502    0  0.26432675772E+02 -0.38390718819E+02  0.34202997338E+02  0.57813308734E+02  0.00000000000E+00 0. -1.
          3    1    5    5  503    0  0.26207584175E+02  0.56371183149E+02  0.17888149263E+03  0.18937564828E+03  0.00000000000E+00 0. -1.
         -4    1    5    5    0  503  0.12648710828E+03  0.16649560050E+03  0.28820095760E+03  0.35606118225E+03  0.00000000000E+00 0.  1.
         -3    1    6    6    0  502  0.22439014975E+03 -0.77008032203E+03  0.79963934778E+03  0.11326066079E+04  0.00000000000E+00 0.  1.
<mgrwt>
<rscale>  0 0.18696533E+04</rscale>
<asrwt>0</asrwt>
<pdfrwt beam="1">  1        2 0.36339564E+00 0.18696533E+04</pdfrwt>
<pdfrwt beam="2">  1       -2 0.56918803E-01 0.18696533E+04</pdfrwt>
<totfact> 0.11361121E+01</totfact>
</mgrwt>
</event>
<event>
12    1  0.1467288E-007  0.1643954E+04  0.7818608E-02  0.8793991E-01
          1   -1    0    0  501    0  0.00000000000E+00  0.00000000000E+00  0.77898648476E+03  0.77898648476E+03  0.00000000000E+00 0. -1.
         -1   -1    0    0    0  501 -0.00000000000E+00 -0.00000000000E+00 -0.86733975070E+03  0.86733975070E+03  0.00000000000E+00 0.  1.
         23    2    1    2    0    0 -0.39272984022E+03  0.22540964351E+03  0.31167725412E+03  0.55732494536E+03  0.91772268098E+02 0.  0.
        254    2    1    2    0    0  0.39272984022E+03 -0.22540964351E+03 -0.40003052007E+03  0.10890012901E+04  0.90600946909E+03 0.  0.
        -24    2    4    4    0    0 -0.10243066314E+03  0.13620749775E+03 -0.43064263019E+03  0.46992910382E+03  0.79597515562E+02 0.  0.
         24    2    4    4    0    0  0.49516050336E+03 -0.36161714126E+03  0.30612110125E+02  0.61907218628E+03  0.79764588628E+02 0.  0.
         13    1    3    3    0    0 -0.34565883126E+03  0.17302633092E+03  0.23131835112E+03  0.45047343804E+03  0.00000000000E+00 0. -1.
        -13    1    3    3    0    0 -0.47071008962E+02  0.52383312594E+02  0.80358903009E+02  0.10685150732E+03  0.00000000000E+00 0.  1.
          2    1    6    6  502    0  0.23276013333E+03 -0.15168414557E+03  0.50771715800E+02  0.28242366546E+03  0.00000000000E+00 0. -1.
          1    1    5    5  503    0 -0.16254527571E+02  0.36920047173E+02 -0.20369885789E+03  0.20765481997E+03  0.00000000000E+00 0. -1.
         -2    1    5    5    0  503 -0.86176135571E+02  0.99287450576E+02 -0.22694377230E+03  0.26227428385E+03  0.00000000000E+00 0.  1.
         -1    1    6    6    0  502  0.26240037003E+03 -0.20993299569E+03 -0.20159605675E+02  0.33664852082E+03  0.00000000000E+00 0.  1.
<mgrwt>
<rscale>  0 0.16439537E+04</rscale>
<asrwt>0</asrwt>
<pdfrwt beam="1">  1        1 0.11984407E+00 0.16439537E+04</pdfrwt>
<pdfrwt beam="2">  1       -1 0.13343689E+00 0.16439537E+04</pdfrwt>
<totfact> 0.10470231E+01</totfact>
</mgrwt>
</event>
<event>
12    1  0.1467288E-007  0.1570184E+04  0.7818608E-02  0.8839077E-01
         -2   -1    0    0    0  501 -0.00000000000E+00  0.00000000000E+00  0.49072897591E+03  0.49072897591E+03  0.00000000000E+00 0.  1.
          2   -1    0    0  501    0  0.00000000000E+00 -0.00000000000E+00 -0.12560280553E+04  0.12560280553E+04  0.00000000000E+00 0. -1.
         23    2    1    2    0    0  0.13640641840E+03  0.26363095342E+03 -0.73030784004E+03  0.79311092325E+03  0.86990831622E+02 0.  0.
        254    2    1    2    0    0 -0.13640641840E+03 -0.26363095342E+03 -0.34991239334E+02  0.95364610794E+03  0.90559843296E+03 0.  0.
        -24    2    4    4    0    0 -0.43153006871E+03  0.46078439651E+01 -0.23772574376E+03  0.49933338398E+03  0.81122541148E+02 0.  0.
         24    2    4    4    0    0  0.29512365031E+03 -0.26823879739E+03  0.20273450443E+03  0.45431272396E+03  0.79049038434E+02 0.  0.
         11    1    3    3    0    0  0.40599013751E+02  0.11825757905E+03 -0.40873656545E+03  0.42743270214E+03  0.00000000000E+00 0. -1.
        -11    1    3    3    0    0  0.95807404649E+02  0.14537337437E+03 -0.32157127458E+03  0.36567822112E+03  0.00000000000E+00 0.  1.
          4    1    6    6  502    0  0.52569047887E+02 -0.86656167586E+02  0.30777578163E+02  0.10592476337E+03  0.00000000000E+00 0. -1.
          3    1    5    5  503    0 -0.26842627766E+03  0.37122772836E+02 -0.12503201621E+03  0.29843554057E+03  0.00000000000E+00 0. -1.
         -4    1    5    5    0  503 -0.16310379105E+03 -0.32514928871E+02 -0.11269372756E+03  0.20089784340E+03  0.00000000000E+00 0.  1.
         -3    1    6    6    0  502  0.24255460242E+03 -0.18158262980E+03  0.17195692626E+03  0.34838796060E+03  0.00000000000E+00 0.  1.
<mgrwt>
<rscale>  0 0.15701839E+04</rscale>
<asrwt>0</asrwt>
<pdfrwt beam="1">  1        2 0.19323508E+00 0.15701839E+04</pdfrwt>
<pdfrwt beam="2">  1       -2 0.75496766E-01 0.15701839E+04</pdfrwt>
<totfact> 0.26534164E+01</totfact>
</mgrwt>
</event>
<event>
12    1  0.1467288E-007  0.1391330E+04  0.7818608E-02  0.8960119E-01
         -2   -1    0    0    0  501 -0.00000000000E+00  0.00000000000E+00  0.35862395534E+03  0.35862395534E+03  0.00000000000E+00 0.  1.
          2   -1    0    0  501    0  0.00000000000E+00 -0.00000000000E+00 -0.13494626407E+04  0.13494626407E+04  0.00000000000E+00 0. -1.
         23    2    1    2    0    0  0.30199479996E+03 -0.21391506505E+03 -0.46807067514E+03  0.60326390848E+03  0.88750617395E+02 0.  0.
        254    2    1    2    0    0 -0.30199479996E+03  0.21391506505E+03 -0.52276801024E+03  0.11048226876E+04  0.90021456564E+03 0.  0.
        -24    2    4    4    0    0 -0.49345787870E+03  0.43786461166E+03 -0.31080853167E+03  0.73336299843E+03  0.77416070150E+02 0.  0.
         24    2    4    4    0    0  0.19146307874E+03 -0.22394954661E+03 -0.21195947857E+03  0.37145968914E+03  0.79018796216E+02 0.  0.
         11    1    3    3    0    0  0.13783729622E+03 -0.72072511191E+02 -0.25809977360E+03  0.30134541681E+03  0.00000000000E+00 0.  1.
        -11    1    3    3    0    0  0.16415750374E+03 -0.14184255386E+03 -0.20997090154E+03  0.30191849167E+03  0.00000000000E+00 0. -1.
          2    1    6    6  502    0  0.23363197833E+02 -0.64568027288E+02 -0.77801989711E+02  0.10376906458E+03  0.00000000000E+00 0. -1.
          3    1    5    5  503    0 -0.27681234214E+03  0.26595735667E+03 -0.14167895771E+03  0.40918371838E+03  0.00000000000E+00 0. -1.
         -4    1    5    5    0  503 -0.21664553656E+03  0.17190725499E+03 -0.16912957396E+03  0.32417928005E+03  0.00000000000E+00 0.  1.
         -1    1    6    6    0  502  0.16809988090E+03 -0.15938151932E+03 -0.13415748886E+03  0.26769062456E+03  0.00000000000E+00 0.  1.
<mgrwt>
<rscale>  0 0.13913298E+04</rscale>
<asrwt>0</asrwt>
<pdfrwt beam="1">  1        2 0.20760964E+00 0.13913298E+04</pdfrwt>
<pdfrwt beam="2">  1       -2 0.55172916E-01 0.13913298E+04</pdfrwt>
<totfact> 0.46537841E+01</totfact>
</mgrwt>
</event>
<event>
12    1  0.1467288E-007  0.1437011E+04  0.7818608E-02  0.8927455E-01
         -1   -1    0    0    0  501 -0.00000000000E+00  0.00000000000E+00  0.14337819628E+03  0.14337819628E+03  0.00000000000E+00 0.  1.
          1   -1    0    0  501    0  0.00000000000E+00 -0.00000000000E+00 -0.36006196787E+04  0.36006196787E+04  0.00000000000E+00 0. -1.
         23    2    1    2    0    0 -0.99172413851E+02  0.21300636339E+02 -0.20419169844E+04  0.20464542251E+04  0.90890261397E+02 0.  0.
        254    2    1    2    0    0  0.99172413851E+02 -0.21300636339E+02 -0.14153244981E+04  0.16975436499E+04  0.93178437616E+03 0.  0.
        -24    2    4    4    0    0  0.21145361564E+03 -0.27350001104E+03 -0.13592902508E+04  0.14048144838E+04  0.79491259628E+02 0.  0.
         24    2    4    4    0    0 -0.11228120179E+03  0.25219937470E+03 -0.56034247252E+02  0.29272916608E+03  0.79617428571E+02 0.  0.
         11    1    3    3    0    0 -0.19559320801E+02  0.16405044012E+02 -0.13020257562E+04  0.13022759932E+04  0.00000000000E+00 0. -1.
        -11    1    3    3    0    0 -0.79613093050E+02  0.48955923273E+01 -0.73989122814E+03  0.74417823193E+03  0.00000000000E+00 0.  1.
          2    1    6    6  502    0  0.22002731713E+01  0.35617489126E+02  0.13374329136E+02  0.38109308751E+02  0.00000000000E+00 0. -1.
          3    1    5    5  503    0  0.61539389964E+02 -0.13948098538E+03 -0.52979927766E+03  0.55129784727E+03  0.00000000000E+00 0. -1.
         -4    1    5    5    0  503  0.14991422567E+03 -0.13401902566E+03 -0.82949097315E+03  0.85351663653E+03  0.00000000000E+00 0.  1.
         -1    1    6    6    0  502 -0.11448147496E+03  0.21658188558E+03 -0.69408576388E+02  0.25461985733E+03  0.00000000000E+00 0.  1.
<mgrwt>
<rscale>  0 0.14370113E+04</rscale>
<asrwt>0</asrwt>
<pdfrwt beam="1">  1        1 0.55394146E+00 0.14370113E+04</pdfrwt>
<pdfrwt beam="2">  1       -1 0.22058185E-01 0.14370113E+04</pdfrwt>
<totfact> 0.35559268E+00</totfact>
</mgrwt>
</event>
<event>
12    1  0.1467288E-007  0.1504630E+04  0.7818608E-02  0.8881380E-01
          2   -1    0    0  501    0  0.00000000000E+00  0.00000000000E+00  0.15685784655E+04  0.15685784655E+04  0.00000000000E+00 0. -1.
         -2   -1    0    0    0  501 -0.00000000000E+00 -0.00000000000E+00 -0.36082206646E+03  0.36082206646E+03  0.00000000000E+00 0.  1.
         23    2    1    2    0    0  0.17489236160E+03  0.33297106640E+03  0.34763218147E+01  0.38964147857E+03  0.10174147530E+03 0.  0.
        254    2    1    2    0    0 -0.17489236160E+03 -0.33297106640E+03  0.12042800772E+04  0.15397590534E+04  0.88267228850E+03 0.  0.
        -24    2    4    4    0    0 -0.15171271487E+03  0.50241976316E+02 -0.81110081920E+02  0.19607607333E+03  0.79536011375E+02 0.  0.
         24    2    4    4    0    0 -0.23179646736E+02 -0.38321304272E+03  0.12853901592E+04  0.13436829801E+04  0.76593456234E+02 0.  0.
         11    1    3    3    0    0  0.14368489382E+03  0.32222143461E+03 -0.12380774431E+02  0.35302306611E+03  0.00000000000E+00 0.  1.
        -11    1    3    3    0    0  0.31207467784E+02  0.10749631796E+02  0.15857096245E+02  0.36618412453E+02  0.00000000000E+00 0. -1.
          4    1    6    6  502    0  0.34891227068E+00 -0.30972733068E+03  0.11025518630E+04  0.11452299995E+04  0.00000000000E+00 0. -1.
          3    1    5    5  503    0 -0.15885703404E+03  0.43848758451E+02 -0.64645267412E+02  0.17702339247E+03  0.00000000000E+00 0. -1.
         -4    1    5    5    0  503  0.71443191732E+01  0.63932178648E+01 -0.16464814509E+02  0.19052680859E+02  0.00000000000E+00 0.  1.
         -3    1    6    6    0  502 -0.23528559007E+02 -0.73485712036E+02  0.18283829619E+03  0.19845298061E+03  0.00000000000E+00 0.  1.
<mgrwt>
<rscale>  0 0.15046298E+04</rscale>
<asrwt>0</asrwt>
<pdfrwt beam="1">  1        2 0.24131976E+00 0.15046298E+04</pdfrwt>
<pdfrwt beam="2">  1       -2 0.55511088E-01 0.15046298E+04</pdfrwt>
<totfact> 0.34202423E+01</totfact>
</mgrwt>
</event>
<event>
12    1  0.1467288E-007  0.1863251E+04  0.7818608E-02  0.8673368E-01
          1   -1    0    0  501    0  0.00000000000E+00  0.00000000000E+00  0.13028295235E+04  0.13028295235E+04  0.00000000000E+00 0. -1.
         -1   -1    0    0    0  501 -0.00000000000E+00 -0.00000000000E+00 -0.66618514058E+03  0.66618514058E+03  0.00000000000E+00 0.  1.
         23    2    1    2    0    0  0.16073862949E+03  0.61732333501E+03  0.52397740564E+03  0.82973539896E+03  0.83567360338E+02 0.  0.
        254    2    1    2    0    0 -0.16073862949E+03 -0.61732333501E+03  0.11266697729E+03  0.11392792651E+04  0.93719709197E+03 0.  0.
        -24    2    4    4    0    0  0.33170920132E+03 -0.52164243792E+03  0.19352471098E+02  0.62359218591E+03  0.79692339122E+02 0.  0.
         24    2    4    4    0    0 -0.49244783080E+03 -0.95680897087E+02  0.93314506189E+02  0.51568707921E+03  0.74604734878E+02 0.  0.
         13    1    3    3    0    0 -0.54323077176E+01  0.43557003979E+02  0.54504591144E+02  0.69981947804E+02  0.00000000000E+00 0.  1.
        -13    1    3    3    0    0  0.16617093720E+03  0.57376633103E+03  0.46947281449E+03  0.75975345116E+03  0.00000000000E+00 0. -1.
          2    1    6    6  502    0 -0.42356983261E+03 -0.95903654279E+02  0.10243279976E+03  0.44620779069E+03  0.00000000000E+00 0. -1.
          1    1    5    5  503    0  0.16908181220E+03 -0.25400587409E+03  0.48900089976E+02  0.30902890171E+03  0.00000000000E+00 0. -1.
         -2    1    5    5    0  503  0.16262738912E+03 -0.26763656383E+03 -0.29547618878E+02  0.31456328421E+03  0.00000000000E+00 0.  1.
         -1    1    6    6    0  502 -0.68877998188E+02  0.22275719210E+00 -0.91182935734E+01  0.69479288517E+02  0.00000000000E+00 0.  1.
<mgrwt>
<rscale>  0 0.18632506E+04</rscale>
<asrwt>0</asrwt>
<pdfrwt beam="1">  1        1 0.20043531E+00 0.18632506E+04</pdfrwt>
<pdfrwt beam="2">  1       -1 0.10249002E+00 0.18632506E+04</pdfrwt>
<totfact> 0.76106282E+00</totfact>
</mgrwt>
</event>
<event>
12    1  0.1467288E-007  0.1688226E+04  0.7818608E-02  0.8768108E-01
          1   -1    0    0  501    0  0.00000000000E+00  0.00000000000E+00  0.86493509405E+03  0.86493509405E+03  0.00000000000E+00 0. -1.
         -1   -1    0    0    0  501 -0.00000000000E+00 -0.00000000000E+00 -0.82379242589E+03  0.82379242589E+03  0.00000000000E+00 0.  1.
         23    2    1    2    0    0 -0.42071504709E+03  0.36472410789E+03 -0.21054039145E+03  0.60177349356E+03  0.88200087265E+02 0.  0.
        254    2    1    2    0    0  0.42071504709E+03 -0.36472410789E+03  0.25168305962E+03  0.10869540264E+04  0.89894375087E+03 0.  0.
        -24    2    4    4    0    0 -0.13507658898E+02 -0.16585921061E+02  0.47469093882E+03  0.48188752231E+03  0.80165747894E+02 0.  0.
         24    2    4    4    0    0  0.43422270598E+03 -0.34813818683E+03 -0.22300787919E+03  0.60506650407E+03  0.81384302197E+02 0.  0.
         13    1    3    3    0    0 -0.42455436468E+03  0.36419457423E+03 -0.20673440026E+03  0.59634152021E+03  0.00000000000E+00 0.  1.
        -13    1    3    3    0    0  0.38393175975E+01  0.52953365951E+00 -0.38059911955E+01  0.54319733515E+01  0.00000000000E+00 0. -1.
          2    1    6    6  502    0  0.36286844856E+02 -0.40934669758E+02  0.96538207629E+00  0.54711189535E+02  0.00000000000E+00 0. -1.
          1    1    5    5  503    0 -0.31526914626E+02 -0.11363499946E+02  0.79800610157E+02  0.86551792923E+02  0.00000000000E+00 0. -1.
         -2    1    5    5    0  503  0.18019255728E+02 -0.52224211152E+01  0.39489032866E+03  0.39533572938E+03  0.00000000000E+00 0.  1.
         -1    1    6    6    0  502  0.39793586113E+03 -0.30720351707E+03 -0.22397326127E+03  0.55035531454E+03  0.00000000000E+00 0.  1.
<mgrwt>
<rscale>  0 0.16882263E+04</rscale>
<asrwt>0</asrwt>
<pdfrwt beam="1">  1        1 0.13306694E+00 0.16882263E+04</pdfrwt>
<pdfrwt beam="2">  1       -1 0.12673730E+00 0.16882263E+04</pdfrwt>
<totfact> 0.10022260E+01</totfact>
</mgrwt>
</event>
<event>
12    1  0.1467288E-007  0.1736320E+04  0.7818608E-02  0.8740917E-01
          1   -1    0    0  501    0  0.00000000000E+00  0.00000000000E+00  0.19989673473E+04  0.19989673473E+04  0.00000000000E+00 0. -1.
         -1   -1    0    0    0  501 -0.00000000000E+00 -0.00000000000E+00 -0.37704538762E+03  0.37704538762E+03  0.00000000000E+00 0.  1.
         23    2    1    2    0    0 -0.50912303989E+03  0.34839020603E+03  0.77589145051E+03  0.99550005681E+03  0.91819468159E+02 0.  0.
        254    2    1    2    0    0  0.50912303989E+03 -0.34839020603E+03  0.84603050918E+03  0.13805126781E+04  0.89970307690E+03 0.  0.
        -24    2    4    4    0    0  0.48529493443E+03 -0.25324275339E+03  0.29189828910E+02  0.55392371959E+03  0.79601353555E+02 0.  0.
         24    2    4    4    0    0  0.23828105465E+02 -0.95147452647E+02  0.81684068027E+03  0.82658895854E+03  0.79998706676E+02 0.  0.
         13    1    3    3    0    0 -0.38672533148E+03  0.27845436031E+03  0.65359577906E+03  0.80887622983E+03  0.00000000000E+00 0. -1.
        -13    1    3    3    0    0 -0.12239770841E+03  0.69935845726E+02  0.12229567145E+03  0.18662382698E+03  0.00000000000E+00 0.  1.
          2    1    6    6  502    0  0.46016705063E+02 -0.73715449173E+02  0.44073629536E+03  0.44922153403E+03  0.00000000000E+00 0. -1.
          1    1    5    5  503    0  0.17314851053E+03 -0.94205618764E+02 -0.27549353754E+02  0.19903284201E+03  0.00000000000E+00 0. -1.
         -2    1    5    5    0  503  0.31214642389E+03 -0.15903713462E+03  0.56739182664E+02  0.35489087758E+03  0.00000000000E+00 0.  1.
         -1    1    6    6    0  502 -0.22188599598E+02 -0.21432003474E+02  0.37610438492E+03  0.37736742451E+03  0.00000000000E+00 0.  1.
<mgrwt>
<rscale>  0 0.17363196E+04</rscale>
<asrwt>0</asrwt>
<pdfrwt beam="1">  1        1 0.30753343E+00 0.17363196E+04</pdfrwt>
<pdfrwt beam="2">  1       -1 0.58006984E-01 0.17363196E+04</pdfrwt>
<totfact> 0.85277244E+00</totfact>
</mgrwt>
</event>
<event>
12    1  0.1467288E-007  0.1566235E+04  0.7818608E-02  0.8841564E-01
         -2   -1    0    0    0  501 -0.00000000000E+00  0.00000000000E+00  0.29877892225E+03  0.29877892225E+03  0.00000000000E+00 0.  1.
          2   -1    0    0  501    0  0.00000000000E+00 -0.00000000000E+00 -0.20525970577E+04  0.20525970577E+04  0.00000000000E+00 0. -1.
         23    2    1    2    0    0  0.32219351948E+03 -0.84345817280E+02 -0.11954873816E+04  0.12447453954E+04  0.96323096033E+02 0.  0.
        254    2    1    2    0    0 -0.32219351948E+03  0.84345817280E+02 -0.55833075378E+03  0.11066305845E+04  0.89553064665E+03 0.  0.
        -24    2    4    4    0    0  0.25922133189E+03  0.16875553426E+03 -0.45708331488E+02  0.32266985312E+03  0.79702279102E+02 0.  0.
         24    2    4    4    0    0 -0.58141485137E+03 -0.84409716979E+02 -0.51262242229E+03  0.78396073140E+03  0.81513500926E+02 0.  0.
         11    1    3    3    0    0  0.29504366781E+02 -0.35034729199E+02 -0.10438150363E+03  0.11398876352E+03  0.00000000000E+00 0.  1.
        -11    1    3    3    0    0  0.29268915270E+03 -0.49311088081E+02 -0.10911058780E+04  0.11307566319E+04  0.00000000000E+00 0. -1.
          4    1    6    6  502    0 -0.45114335936E+03 -0.33523657132E+02 -0.40944051275E+03  0.61016038856E+03  0.00000000000E+00 0. -1.
          1    1    5    5  503    0  0.33009607319E+02  0.42516612050E+01 -0.26073740640E+02  0.42279436483E+02  0.00000000000E+00 0. -1.
         -2    1    5    5    0  503  0.22621172457E+03  0.16450387305E+03 -0.19634590848E+02  0.28039041664E+03  0.00000000000E+00 0.  1.
         -3    1    6    6    0  502 -0.13027149200E+03 -0.50886059847E+02 -0.10318190954E+03  0.17380034284E+03  0.00000000000E+00 0.  1.
<mgrwt>
<rscale>  0 0.15662346E+04</rscale>
<asrwt>0</asrwt>
<pdfrwt beam="1">  1        2 0.31578417E+00 0.15662346E+04</pdfrwt>
<pdfrwt beam="2">  1       -2 0.45965988E-01 0.15662346E+04</pdfrwt>
<totfact> 0.26955790E+01</totfact>
</mgrwt>
</event>
<event>
12    1  0.1467288E-007  0.2088017E+04  0.7818608E-02  0.8566541E-01
          2   -1    0    0  501    0  0.00000000000E+00  0.00000000000E+00  0.20459940938E+04  0.20459940938E+04  0.00000000000E+00 0. -1.
         -2   -1    0    0    0  501 -0.00000000000E+00 -0.00000000000E+00 -0.53272559412E+03  0.53272559412E+03  0.00000000000E+00 0.  1.
         23    2    1    2    0    0  0.18892350579E+03 -0.23895890654E+03 -0.36067854412E+03  0.48085327431E+03  0.91309414480E+02 0.  0.
        254    2    1    2    0    0 -0.18892350579E+03  0.23895890654E+03  0.18739470438E+04  0.20978664136E+04  0.89250911271E+03 0.  0.
        -24    2    4    4    0    0  0.29540898088E+03  0.17413098359E+03  0.35502016690E+03  0.50027261248E+03  0.81518724592E+02 0.  0.
         24    2    4    4    0    0 -0.48433248666E+03  0.64827922951E+02  0.15189268769E+04  0.15975938011E+04  0.79915447732E+02 0.  0.
         13    1    3    3    0    0  0.14182608743E+02 -0.69581724315E+02 -0.11421013198E+03  0.13448686552E+03  0.00000000000E+00 0. -1.
        -13    1    3    3    0    0  0.17474089704E+03 -0.16937718222E+03 -0.24646841214E+03  0.34636640879E+03  0.00000000000E+00 0.  1.
          2    1    6    6  502    0 -0.43976411992E+03  0.41141266225E+02  0.14096005719E+04  0.14771793585E+04  0.00000000000E+00 0. -1.
          3    1    5    5  503    0  0.98775894513E+02  0.77382474216E+02  0.80797035157E+02  0.14924103170E+03  0.00000000000E+00 0. -1.
         -4    1    5    5    0  503  0.19663308636E+03  0.96748509373E+02  0.27422313175E+03  0.35103158078E+03  0.00000000000E+00 0.  1.
         -1    1    6    6    0  502 -0.44568366749E+02  0.23686656726E+02  0.10932630502E+03  0.12041444261E+03  0.00000000000E+00 0.  1.
<mgrwt>
<rscale>  0 0.20880167E+04</rscale>
<asrwt>0</asrwt>
<pdfrwt beam="1">  1        2 0.31476832E+00 0.20880167E+04</pdfrwt>
<pdfrwt beam="2">  1       -2 0.81957785E-01 0.20880167E+04</pdfrwt>
<totfact> 0.76038614E+00</totfact>
</mgrwt>
</event>
<event>
12    1  0.1467288E-007  0.1308318E+04  0.7818608E-02  0.9022995E-01
          1   -1    0    0  501    0  0.00000000000E+00  0.00000000000E+00  0.26056166672E+04  0.26056166672E+04  0.00000000000E+00 0. -1.
         -1   -1    0    0    0  501 -0.00000000000E+00 -0.00000000000E+00 -0.16423127566E+03  0.16423127566E+03  0.00000000000E+00 0.  1.
         23    2    1    2    0    0  0.11518277219E+03 -0.20700588329E+03  0.14732314185E+03  0.29336542672E+03  0.90778074126E+02 0.  0.
        254    2    1    2    0    0 -0.11518277219E+03  0.20700588329E+03  0.22940622496E+04  0.24764825161E+04  0.90228905602E+03 0.  0.
        -24    2    4    4    0    0 -0.45357828077E+03  0.29431108193E+03  0.10707429537E+04  0.12016614581E+04  0.71746199414E+02 0.  0.
         24    2    4    4    0    0  0.33839550858E+03 -0.87305198639E+02  0.12233192959E+04  0.12748210580E+04  0.80776929257E+02 0.  0.
         13    1    3    3    0    0  0.49293131815E+02 -0.32588135149E+02  0.69769824393E+02  0.91431000172E+02  0.00000000000E+00 0. -1.
        -13    1    3    3    0    0  0.65889640373E+02 -0.17441774814E+03  0.77553317459E+02  0.20193442655E+03  0.00000000000E+00 0.  1.
          2    1    6    6  502    0  0.94025446085E+02 -0.12213134969E+02  0.46501917619E+03  0.47458695663E+03  0.00000000000E+00 0. -1.
          3    1    5    5  503    0 -0.11320843662E+01 -0.73224051459E+00 -0.87697591804E+00  0.16083774259E+01  0.00000000000E+00 0. -1.
         -4    1    5    5    0  503 -0.45244619640E+03  0.29504332245E+03  0.10716199296E+04  0.12000530806E+04  0.00000000000E+00 0.  1.
         -1    1    6    6    0  502  0.24437006250E+03 -0.75092063670E+02  0.75830011974E+03  0.80023410141E+03  0.00000000000E+00 0.  1.
<mgrwt>
<rscale>  0 0.13083176E+04</rscale>
<asrwt>0</asrwt>
<pdfrwt beam="1">  1        1 0.40086407E+00 0.13083176E+04</pdfrwt>
<pdfrwt beam="2">  1       -1 0.25266352E-01 0.13083176E+04</pdfrwt>
<totfact> 0.15528038E+01</totfact>
</mgrwt>
</event>
<event>
12    1  0.1467288E-007  0.2013263E+04  0.7818608E-02  0.8600445E-01
         -1   -1    0    0    0  501 -0.00000000000E+00  0.00000000000E+00  0.36236742808E+03  0.36236742808E+03  0.00000000000E+00 0.  1.
          1   -1    0    0  501    0  0.00000000000E+00 -0.00000000000E+00 -0.27963532466E+04  0.27963532466E+04  0.00000000000E+00 0. -1.
         23    2    1    2    0    0  0.27426838829E+03 -0.67777278782E+03 -0.14624340478E+04  0.16390100801E+04  0.11419981591E+03 0.  0.
        254    2    1    2    0    0 -0.27426838829E+03  0.67777278782E+03 -0.97155177077E+03  0.15197105946E+04  0.91159659239E+03 0.  0.
        -24    2    4    4    0    0 -0.44483598942E+03 -0.10084693683E+02 -0.32329289034E+03  0.55609682937E+03  0.82125709474E+02 0.  0.
         24    2    4    4    0    0  0.17056760114E+03  0.68785748150E+03 -0.64825888043E+03  0.96361376521E+03  0.77914639368E+02 0.  0.
         11    1    3    3    0    0  0.26941713358E+03 -0.57549905325E+03 -0.12125765762E+04  0.13689874745E+04  0.00000000000E+00 0. -1.
        -11    1    3    3    0    0  0.48512547045E+01 -0.10227373456E+03 -0.24985747159E+03  0.27002260565E+03  0.00000000000E+00 0.  1.
          4    1    6    6  502    0  0.11903993659E+03  0.39849329540E+03 -0.42391394310E+03  0.59386062686E+03  0.00000000000E+00 0. -1.
          1    1    5    5  503    0 -0.31231365470E+03 -0.19689850205E+00 -0.17917121811E+03  0.36005858285E+03  0.00000000000E+00 0. -1.
         -2    1    5    5    0  503 -0.13252233473E+03 -0.98877951811E+01 -0.14412167223E+03  0.19603824653E+03  0.00000000000E+00 0.  1.
         -3    1    6    6    0  502  0.51527664546E+02  0.28936418610E+03 -0.22434493733E+03  0.36975313835E+03  0.00000000000E+00 0.  1.
<mgrwt>
<rscale>  0 0.20132634E+04</rscale>
<asrwt>0</asrwt>
<pdfrwt beam="1">  1        1 0.43020820E+00 0.20132634E+04</pdfrwt>
<pdfrwt beam="2">  1       -1 0.55748835E-01 0.20132634E+04</pdfrwt>
<totfact> 0.25310203E+00</totfact>
</mgrwt>
</event>
<event>
12    1  0.1467288E-007  0.2288028E+04  0.7818608E-02  0.8482656E-01
         -2   -1    0    0    0  501 -0.00000000000E+00  0.00000000000E+00  0.69356728731E+03  0.69356728731E+03  0.00000000000E+00 0.  1.
          2   -1    0    0  501    0  0.00000000000E+00 -0.00000000000E+00 -0.18870095624E+04  0.18870095624E+04  0.00000000000E+00 0. -1.
         23    2    1    2    0    0 -0.28614422852E+03 -0.10733829986E+03  0.53080429004E+03  0.61929421935E+03  0.91499211291E+02 0.  0.
        254    2    1    2    0    0  0.28614422852E+03  0.10733829986E+03 -0.17242465651E+04  0.19612826303E+04  0.88329117998E+03 0.  0.
        -24    2    4    4    0    0  0.16621166698E+03  0.41931019622E+03 -0.14557366973E+04  0.15261260453E+04  0.80274625490E+02 0.  0.
         24    2    4    4    0    0  0.11993256154E+03 -0.31197189637E+03 -0.26850986785E+03  0.43515658504E+03  0.74521278364E+02 0.  0.
         11    1    3    3    0    0 -0.38127869967E+02 -0.14388262660E+02  0.14999628747E+03  0.15543372487E+03  0.00000000000E+00 0. -1.
        -11    1    3    3    0    0 -0.24801635855E+03 -0.92950037198E+02  0.38080800257E+03  0.46386049449E+03  0.00000000000E+00 0.  1.
          2    1    6    6  502    0  0.40746648144E+01 -0.22202555135E+02  0.13125520457E+01  0.22611482498E+02  0.00000000000E+00 0. -1.
          1    1    5    5  503    0  0.30024280878E+02  0.18206833955E+03 -0.57436667558E+03  0.60328054480E+03  0.00000000000E+00 0. -1.
         -2    1    5    5    0  503  0.13618738610E+03  0.23724185668E+03 -0.88137002167E+03  0.92284550050E+03  0.00000000000E+00 0.  1.
         -1    1    6    6    0  502  0.11585789673E+03 -0.28976934123E+03 -0.26982241990E+03  0.41254510254E+03  0.00000000000E+00 0.  1.
<mgrwt>
<rscale>  0 0.22880281E+04</rscale>
<asrwt>0</asrwt>
<pdfrwt beam="1">  1        2 0.29030916E+00 0.22880281E+04</pdfrwt>
<pdfrwt beam="2">  1       -2 0.10670266E+00 0.22880281E+04</pdfrwt>
<totfact> 0.49547453E+00</totfact>
</mgrwt>
</event>
<event>
12    1  0.1467288E-007  0.1797029E+04  0.7818608E-02  0.8707881E-01
          1   -1    0    0  501    0  0.00000000000E+00  0.00000000000E+00  0.10107174439E+04  0.10107174439E+04  0.00000000000E+00 0.  1.
         -1   -1    0    0    0  501 -0.00000000000E+00 -0.00000000000E+00 -0.79876756252E+03  0.79876756252E+03  0.00000000000E+00 0. -1.
         23    2    1    2    0    0  0.60653247231E+03 -0.27939982759E+03 -0.24084306231E+02  0.67485991392E+03  0.94392510227E+02 0.  0.
        254    2    1    2    0    0 -0.60653247231E+03  0.27939982759E+03  0.23603418761E+03  0.11346250925E+04  0.88640626079E+03 0.  0.
        -24    2    4    4    0    0 -0.24165188766E+03  0.35737786404E+03  0.50387006232E+03  0.66828064908E+03  0.81236775625E+02 0.  0.
         24    2    4    4    0    0 -0.36488058465E+03 -0.77978036452E+02 -0.26783587472E+03  0.46634444341E+03  0.80763041649E+02 0.  0.
         13    1    3    3    0    0  0.63718501285E+02 -0.46144563484E+02 -0.29513236575E+02  0.84026182100E+02  0.00000000000E+00 0.  1.
        -13    1    3    3    0    0  0.54281397102E+03 -0.23325526410E+03  0.54289303441E+01  0.59083373182E+03  0.00000000000E+00 0. -1.
          2    1    6    6  502    0 -0.75448659802E+02 -0.45785897102E+02 -0.41552080589E+02  0.97547035017E+02  0.00000000000E+00 0. -1.
          3    1    5    5  503    0 -0.30895026748E+02  0.31421474880E+02  0.21210630227E+02  0.48905036510E+02  0.00000000000E+00 0. -1.
         -4    1    5    5    0  503 -0.21075686091E+03  0.32595638916E+03  0.48265943210E+03  0.61937561257E+03  0.00000000000E+00 0.  1.
         -1    1    6    6    0  502 -0.28943192484E+03 -0.32192139350E+02 -0.22628379413E+03  0.36879740840E+03  0.00000000000E+00 0.  1.
<mgrwt>
<rscale>  0 0.17970290E+04</rscale>
<asrwt>0</asrwt>
<pdfrwt beam="1">  1        1 0.15549499E+00 0.17970290E+04</pdfrwt>
<pdfrwt beam="2">  1       -1 0.12288732E+00 0.17970290E+04</pdfrwt>
<totfact> 0.81801598E+00</totfact>
</mgrwt>
</event>
<event>
12    1  0.1467288E-007  0.1223566E+04  0.7818608E-02  0.9092476E-01
          2   -1    0    0  501    0  0.00000000000E+00  0.00000000000E+00  0.44319595067E+03  0.44319595067E+03  0.00000000000E+00 0. -1.
         -2   -1    0    0    0  501 -0.00000000000E+00 -0.00000000000E+00 -0.84449845291E+03  0.84449845291E+03  0.00000000000E+00 0.  1.
         23    2    1    2    0    0 -0.13190049382E+03 -0.49648857593E+02  0.14062418386E+03  0.21918548802E+03  0.91675338799E+02 0.  0.
        254    2    1    2    0    0  0.13190049382E+03  0.49648857593E+02 -0.54192668609E+03  0.10685089155E+04  0.91003517524E+03 0.  0.
        -24    2    4    4    0    0  0.48142737513E+03  0.83153197567E+02 -0.11064963133E+03  0.50723918902E+03  0.79758900315E+02 0.  0.
         24    2    4    4    0    0 -0.34952688130E+03 -0.33504339974E+02 -0.43127705477E+03  0.56126972653E+03  0.75711468057E+02 0.  0.
         11    1    3    3    0    0 -0.12154533032E+03 -0.36800041058E+02  0.15279529567E+03  0.19868042864E+03  0.00000000000E+00 0. -1.
        -11    1    3    3    0    0 -0.10355163503E+02 -0.12848816535E+02 -0.12171111816E+02  0.20505059385E+02  0.00000000000E+00 0.  1.
          4    1    6    6  502    0 -0.15304397048E+03 -0.17700820319E+02 -0.24890496694E+03  0.29272761829E+03  0.00000000000E+00 0. -1.
          1    1    5    5  503    0  0.46617216812E+03  0.70824056695E+02 -0.11838269508E+03  0.48615532480E+03  0.00000000000E+00 0. -1.
         -2    1    5    5    0  503  0.15255207003E+02  0.12329140872E+02  0.77330637542E+01  0.21083864219E+02  0.00000000000E+00 0.  1.
         -3    1    6    6    0  502 -0.19648291082E+03 -0.15803519655E+02 -0.18237208783E+03  0.26854210824E+03  0.00000000000E+00 0.  1.
<mgrwt>
<rscale>  0 0.12235658E+04</rscale>
<asrwt>0</asrwt>
<pdfrwt beam="1">  1        2 0.68183993E-01 0.12235658E+04</pdfrwt>
<pdfrwt beam="2">  1       -2 0.12992284E+00 0.12235658E+04</pdfrwt>
<totfact> 0.30309562E+01</totfact>
</mgrwt>
</event>
<event>
12    1  0.1467288E-007  0.1197931E+04  0.7818608E-02  0.9114669E-01
          3   -1    0    0  501    0  0.00000000000E+00  0.00000000000E+00  0.24911459978E+04  0.24911459978E+04  0.00000000000E+00 0. -1.
         -3   -1    0    0    0  501 -0.00000000000E+00 -0.00000000000E+00 -0.14401395168E+03  0.14401395168E+03  0.00000000000E+00 0.  1.
         23    2    1    2    0    0  0.20860750306E+02 -0.19991606307E+03  0.17420265370E+03  0.28074577142E+03  0.89833292476E+02 0.  0.
        254    2    1    2    0    0 -0.20860750306E+02  0.19991606307E+03  0.21729293925E+04  0.23544141781E+04  0.88387916272E+03 0.  0.
        -24    2    4    4    0    0  0.32445980059E+03 -0.17393650217E+03  0.11322358250E+04  0.11931998982E+04  0.78993446759E+02 0.  0.
         24    2    4    4    0    0 -0.34532055090E+03  0.37385256524E+03  0.10406935675E+04  0.11612142799E+04  0.79771418053E+02 0.  0.
         11    1    3    3    0    0  0.27231999601E+02 -0.16942780440E+03  0.18040802445E+03  0.24898678277E+03  0.00000000000E+00 0. -1.
        -11    1    3    3    0    0 -0.63712492954E+01 -0.30488258668E+02 -0.62053707478E+01  0.31758988654E+02  0.00000000000E+00 0.  1.
          2    1    6    6  502    0 -0.23312212320E+01  0.22558879829E+02  0.30259585229E+02  0.37815078339E+02  0.00000000000E+00 0. -1.
          3    1    5    5  503    0  0.11165120486E+03 -0.68201354608E+02  0.29125285917E+03  0.31928927995E+03  0.00000000000E+00 0. -1.
         -4    1    5    5    0  503  0.21280859573E+03 -0.10573514756E+03  0.84098296582E+03  0.87391061822E+03  0.00000000000E+00 0.  1.
         -1    1    6    6    0  502 -0.34298932967E+03  0.35129368541E+03  0.10104339822E+04  0.11233992016E+04  0.00000000000E+00 0.  1.
<mgrwt>
<rscale>  0 0.11979312E+04</rscale>
<asrwt>0</asrwt>
<pdfrwt beam="1">  1        3 0.38325320E+00 0.11979312E+04</pdfrwt>
<pdfrwt beam="2">  1       -3 0.22155994E-01 0.11979312E+04</pdfrwt>
<totfact> 0.68595408E-01</totfact>
</mgrwt>
</event>
<event>
12    1  0.1467288E-007  0.1525243E+04  0.7818608E-02  0.8867838E-01
          2   -1    0    0  501    0  0.00000000000E+00  0.00000000000E+00  0.25286566816E+04  0.25286566816E+04  0.00000000000E+00 0. -1.
         -2   -1    0    0    0  501 -0.00000000000E+00 -0.00000000000E+00 -0.23000023860E+03  0.23000023860E+03  0.00000000000E+00 0.  1.
         23    2    1    2    0    0 -0.37681394020E+03 -0.25089297379E+03  0.60169499631E+03  0.75823316764E+03  0.89132699389E+02 0.  0.
        254    2    1    2    0    0  0.37681394020E+03  0.25089297379E+03  0.16969614467E+04  0.20004237526E+04  0.95764346624E+03 0.  0.
        -24    2    4    4    0    0  0.11346662428E+03  0.58093917671E+03  0.73555408854E+03  0.94756785040E+03  0.80498522250E+02 0.  0.
         24    2    4    4    0    0  0.26334731591E+03 -0.33004620292E+03  0.96140735817E+03  0.10528559022E+04  0.76935931367E+02 0.  0.
         11    1    3    3    0    0 -0.14781695155E+03 -0.74542003018E+02  0.15899215646E+03  0.22953184353E+03  0.00000000000E+00 0.  1.
        -11    1    3    3    0    0 -0.22899698865E+03 -0.17635097078E+03  0.44270283985E+03  0.52870132411E+03  0.00000000000E+00 0. -1.
          4    1    6    6  502    0 -0.39948720295E+01 -0.16481807180E+02  0.44076951768E+02  0.47226969494E+02  0.00000000000E+00 0. -1.
          1    1    5    5  503    0  0.19555145876E+02  0.36024603980E+02  0.28277147653E+02  0.49797318216E+02  0.00000000000E+00 0. -1.
         -2    1    5    5    0  503  0.93911478408E+02  0.54491457273E+03  0.70727694088E+03  0.89777053219E+03  0.00000000000E+00 0.  1.
         -3    1    6    6    0  502  0.26734218794E+03 -0.31356439574E+03  0.91733040640E+03  0.10056289327E+04  0.00000000000E+00 0.  1.
<mgrwt>
<rscale>  0 0.15252431E+04</rscale>
<asrwt>0</asrwt>
<pdfrwt beam="1">  1        2 0.38902408E+00 0.15252431E+04</pdfrwt>
<pdfrwt beam="2">  1       -2 0.35384654E-01 0.15252431E+04</pdfrwt>
<totfact> 0.24304720E+01</totfact>
</mgrwt>
</event>
<event>
12    1  0.1467288E-007  0.1170034E+04  0.7818608E-02  0.9139497E-01
         -2   -1    0    0    0  501 -0.00000000000E+00  0.00000000000E+00  0.83063571485E+03  0.83063571485E+03  0.00000000000E+00 0.  1.
          2   -1    0    0  501    0  0.00000000000E+00 -0.00000000000E+00 -0.41202798007E+03  0.41202798007E+03  0.00000000000E+00 0. -1.
         23    2    1    2    0    0  0.13769463880E+03  0.72397954416E+02 -0.77972842526E+02  0.19827450993E+03  0.95035465785E+02 0.  0.
        254    2    1    2    0    0 -0.13769463880E+03 -0.72397954416E+02  0.49658057730E+03  0.10443891850E+04  0.90551378930E+03 0.  0.
        -24    2    4    4    0    0 -0.33588635971E+03  0.15206595876E+03  0.60760100246E+03  0.71528600263E+03  0.80693152898E+02 0.  0.
         24    2    4    4    0    0  0.19819172090E+03 -0.22446391318E+03 -0.11102042515E+03  0.32910318236E+03  0.79494422976E+02 0.  0.
         13    1    3    3    0    0  0.46776944036E+02 -0.20100906837E+02 -0.10160895012E+02  0.51916979269E+02  0.00000000000E+00 0.  1.
        -13    1    3    3    0    0  0.90917694766E+02  0.92498861253E+02 -0.67811947515E+02  0.14635753066E+03  0.00000000000E+00 0. -1.
          4    1    6    6  502    0  0.14275359486E+03 -0.17674045702E+03 -0.47235653367E+02  0.23204953122E+03  0.00000000000E+00 0. -1.
          1    1    5    5  503    0 -0.67822575154E+02  0.34464675805E+02  0.19566994540E+03  0.20993914145E+03  0.00000000000E+00 0. -1.
         -2    1    5    5    0  503 -0.26806378455E+03  0.11760128296E+03  0.41193105706E+03  0.50534686119E+03  0.00000000000E+00 0.  1.
         -3    1    6    6    0  502  0.55438126043E+02 -0.47723456163E+02 -0.63784771786E+02  0.97053651137E+02  0.00000000000E+00 0.  1.
<mgrwt>
<rscale>  0 0.11700345E+04</rscale>
<asrwt>0</asrwt>
<pdfrwt beam="1">  1        2 0.63388920E-01 0.11700345E+04</pdfrwt>
<pdfrwt beam="2">  1       -2 0.12779011E+00 0.11700345E+04</pdfrwt>
<totfact> 0.34460006E+01</totfact>
</mgrwt>
</event>
<event>
12    1  0.1467288E-007  0.1754841E+04  0.7818608E-02  0.8730690E-01
         -2   -1    0    0    0  501 -0.00000000000E+00  0.00000000000E+00  0.90888367638E+03  0.90888367638E+03  0.00000000000E+00 0. -1.
          2   -1    0    0  501    0  0.00000000000E+00 -0.00000000000E+00 -0.84704626764E+03  0.84704626764E+03  0.00000000000E+00 0.  1.
         23    2    1    2    0    0 -0.34431733512E+03 -0.53388002604E+03 -0.58211107988E+02  0.64510184483E+03  0.95841262769E+02 0.  0.
        254    2    1    2    0    0  0.34431733512E+03  0.53388002604E+03  0.12004851674E+03  0.11108280992E+04  0.90329680067E+03 0.  0.
        -24    2    4    4    0    0  0.52802744010E+03  0.56659319789E+03  0.30550911301E+03  0.83642453640E+03  0.80183274821E+02 0.  0.
         24    2    4    4    0    0 -0.18371010498E+03 -0.32713171855E+02 -0.18546059627E+03  0.27440356279E+03  0.77988000468E+02 0.  0.
         13    1    3    3    0    0 -0.20792111426E+03 -0.38641531685E+03 -0.11921774705E+02  0.43896482270E+03  0.00000000000E+00 0.  1.
        -13    1    3    3    0    0 -0.13639622086E+03 -0.14746470919E+03 -0.46289333283E+02  0.20613702214E+03  0.00000000000E+00 0. -1.
          2    1    6    6  502    0 -0.18387091571E+03 -0.32892670181E+02 -0.15167024851E+03  0.24061235562E+03  0.00000000000E+00 0. -1.
          3    1    5    5  503    0  0.49830798013E+03  0.54284665439E+03  0.30718621719E+03  0.79834623145E+03  0.00000000000E+00 0. -1.
         -4    1    5    5    0  503  0.29719459968E+02  0.23746543500E+02 -0.16771041770E+01  0.38078304944E+02  0.00000000000E+00 0.  1.
         -1    1    6    6    0  502  0.16081072887E+00  0.17949832688E+00 -0.33790347766E+02  0.33791207169E+02  0.00000000000E+00 0.  1.
<mgrwt>
<rscale>  0 0.17548408E+04</rscale>
<asrwt>0</asrwt>
<pdfrwt beam="1">  1        2 0.13031481E+00 0.17548408E+04</pdfrwt>
<pdfrwt beam="2">  1       -2 0.13982826E+00 0.17548408E+04</pdfrwt>
<totfact> 0.10883990E+01</totfact>
</mgrwt>
</event>
<event>
12    1  0.1467288E-007  0.2610478E+04  0.7818608E-02  0.8364651E-01
         -1   -1    0    0    0  501 -0.00000000000E+00  0.00000000000E+00  0.88306079456E+03  0.88306079456E+03  0.00000000000E+00 0.  1.
          1   -1    0    0  501    0  0.00000000000E+00 -0.00000000000E+00 -0.19292540403E+04  0.19292540403E+04  0.00000000000E+00 0. -1.
         23    2    1    2    0    0  0.43932348739E+01  0.86033631047E+03  0.35811301367E+03  0.93610409059E+03  0.88589334753E+02 0.  0.
        254    2    1    2    0    0 -0.43932348739E+01 -0.86033631047E+03 -0.14043062594E+04  0.18762107443E+04  0.89882858159E+03 0.  0.
        -24    2    4    4    0    0  0.86181556399E+02  0.14640835676E+03 -0.67871069767E+02  0.19874651648E+03  0.77659694237E+02 0.  0.
         24    2    4    4    0    0 -0.90574791273E+02 -0.10067446672E+04 -0.13364351897E+04  0.16774642278E+04  0.78029491878E+02 0.  0.
         13    1    3    3    0    0  0.71081853387E+01  0.42317846789E+02 -0.53301980483E+00  0.42913990327E+02  0.00000000000E+00 0. -1.
        -13    1    3    3    0    0 -0.27149504648E+01  0.81801846368E+03  0.35864603348E+03  0.89319010027E+03  0.00000000000E+00 0.  1.
          4    1    6    6  502    0 -0.10901333870E+02 -0.20497452124E+03 -0.22305577098E+03  0.30312913156E+03  0.00000000000E+00 0. -1.
          1    1    5    5  503    0 -0.53857385128E+01  0.36474089518E+02 -0.37292759315E+02  0.52441541576E+02  0.00000000000E+00 0. -1.
         -4    1    5    5    0  503  0.91567294912E+02  0.10993426724E+03 -0.30578310452E+02  0.14630497490E+03  0.00000000000E+00 0.  1.
         -3    1    6    6    0  502 -0.79673457404E+02 -0.80177014599E+03 -0.11133794187E+04  0.13743350963E+04  0.00000000000E+00 0.  1.
<mgrwt>
<rscale>  0 0.26104778E+04</rscale>
<asrwt>0</asrwt>
<pdfrwt beam="1">  1        1 0.29680831E+00 0.26104778E+04</pdfrwt>
<pdfrwt beam="2">  1       -1 0.13585551E+00 0.26104778E+04</pdfrwt>
<totfact> 0.13272414E+00</totfact>
</mgrwt>
</event>
<event>
12    1  0.1467288E-007  0.2054745E+04  0.7818608E-02  0.8581445E-01
         -2   -1    0    0    0  501 -0.00000000000E+00  0.00000000000E+00  0.65903577972E+03  0.65903577972E+03  0.00000000000E+00 0.  1.
          2   -1    0    0  501    0  0.00000000000E+00 -0.00000000000E+00 -0.16015731643E+04  0.16015731643E+04  0.00000000000E+00 0. -1.
         23    2    1    2    0    0 -0.33953938164E+03 -0.13474161882E+03 -0.11968921276E+04  0.12545336838E+04  0.88666246181E+02 0.  0.
        254    2    1    2    0    0  0.33953938164E+03  0.13474161882E+03  0.25435474299E+03  0.10060752602E+04  0.90224652863E+03 0.  0.
        -24    2    4    4    0    0  0.26515553023E+03  0.49599223222E+03  0.33208318398E+02  0.56896337380E+03  0.79377444376E+02 0.  0.
         24    2    4    4    0    0  0.74383851414E+02 -0.36125061341E+03  0.22114642459E+03  0.43711188643E+03  0.78269388063E+02 0.  0.
         13    1    3    3    0    0 -0.15935436485E+02  0.11109721914E+02 -0.91893218248E+02  0.93924052388E+02  0.00000000000E+00 0.  1.
        -13    1    3    3    0    0 -0.32360394515E+03 -0.14585134073E+03 -0.11049989094E+04  0.11606096314E+04  0.00000000000E+00 0. -1.
          2    1    6    6  502    0  0.43180131699E+02 -0.33007205664E+03  0.19302882995E+03  0.38480152747E+03  0.00000000000E+00 0. -1.
          3    1    5    5  503    0  0.25169312839E+03  0.48109426570E+03  0.46405240640E+02  0.54493538124E+03  0.00000000000E+00 0. -1.
         -4    1    5    5    0  503  0.13462401831E+02  0.14897966528E+02 -0.13196922242E+02  0.24027992558E+02  0.00000000000E+00 0.  1.
         -1    1    6    6    0  502  0.31203719715E+02 -0.31178556765E+02  0.28117594642E+02  0.52310358960E+02  0.00000000000E+00 0.  1.
<mgrwt>
<rscale>  0 0.20547448E+04</rscale>
<asrwt>0</asrwt>
<pdfrwt beam="1">  1        2 0.24639587E+00 0.20547448E+04</pdfrwt>
<pdfrwt beam="2">  1       -2 0.10139012E+00 0.20547448E+04</pdfrwt>
<totfact> 0.82287344E+00</totfact>
</mgrwt>
</event>
<event>
12    1  0.1467288E-007  0.1163906E+04  0.7818608E-02  0.9145049E-01
          2   -1    0    0  501    0  0.00000000000E+00  0.00000000000E+00  0.62623594644E+03  0.62623594644E+03  0.00000000000E+00 0. -1.
         -2   -1    0    0    0  501 -0.00000000000E+00 -0.00000000000E+00 -0.54080182177E+03  0.54080182177E+03  0.00000000000E+00 0.  1.
         23    2    1    2    0    0 -0.81681696250E+02 -0.17528083007E+03  0.44295316397E+02  0.21837540816E+03  0.91271435520E+02 0.  0.
        254    2    1    2    0    0  0.81681696250E+02  0.17528083007E+03  0.41138808272E+02  0.94866236005E+03  0.92783220624E+03 0.  0.
        -24    2    4    4    0    0  0.15848628042E+03 -0.23942684601E+03  0.32027139135E+03  0.43582683775E+03  0.70200802810E+02 0.  0.
         24    2    4    4    0    0 -0.76804584171E+02  0.41470767608E+03 -0.27913258307E+03  0.51283552231E+03  0.84875634052E+02 0.  0.
         13    1    3    3    0    0 -0.69689731923E+02 -0.72527097467E+02 -0.10812326815E+02  0.10116197415E+03  0.00000000000E+00 0.  1.
        -13    1    3    3    0    0 -0.11991964327E+02 -0.10275373261E+03  0.55107643212E+02  0.11721343401E+03  0.00000000000E+00 0. -1.
          2    1    6    6  502    0  0.30842179967E+01  0.20805238090E+03 -0.12188715992E+03  0.24114681286E+03  0.00000000000E+00 0. -1.
          1    1    5    5  503    0  0.44363597404E+02 -0.23603690558E+02  0.40741071123E+02  0.64692332303E+02  0.00000000000E+00 0. -1.
         -2    1    5    5    0  503  0.11412268302E+03 -0.21582315545E+03  0.27953032022E+03  0.37113450544E+03  0.00000000000E+00 0.  1.
         -1    1    6    6    0  502 -0.79888802167E+02  0.20665529518E+03 -0.15724542315E+03  0.27168870944E+03  0.00000000000E+00 0.  1.
<mgrwt>
<rscale>  0 0.11639064E+04</rscale>
<asrwt>0</asrwt>
<pdfrwt beam="1">  1        2 0.96343992E-01 0.11639064E+04</pdfrwt>
<pdfrwt beam="2">  1       -2 0.83200280E-01 0.11639064E+04</pdfrwt>
<totfact> 0.58926849E+01</totfact>
</mgrwt>
</event>
<event>
12    1  0.1467288E-007  0.1128865E+04  0.7818608E-02  0.9177506E-01
         -2   -1    0    0    0  501 -0.00000000000E+00  0.00000000000E+00  0.18405051897E+03  0.18405051897E+03  0.00000000000E+00 0.  1.
          2   -1    0    0  501    0  0.00000000000E+00 -0.00000000000E+00 -0.17309599364E+04  0.17309599364E+04  0.00000000000E+00 0. -1.
         23    2    1    2    0    0  0.15859882005E+03  0.89917663634E+02 -0.31274224017E+03  0.37344658873E+03  0.91738072193E+02 0.  0.
        254    2    1    2    0    0 -0.15859882005E+03 -0.89917663634E+02 -0.12341671773E+04  0.15415638667E+04  0.90554500805E+03 0.  0.
        -24    2    4    4    0    0  0.79378177296E+01 -0.35571065973E+03 -0.12364490440E+03  0.38488005858E+03  0.79066520830E+02 0.  0.
         24    2    4    4    0    0 -0.16653663778E+03  0.26579299609E+03 -0.11105222729E+04  0.11566838081E+04  0.79229696745E+02 0.  0.
         11    1    3    3    0    0  0.14815596168E+03  0.10783705069E+03 -0.28449750887E+03  0.33840486260E+03  0.00000000000E+00 0. -1.
        -11    1    3    3    0    0  0.10442858374E+02 -0.17919387053E+02 -0.28244731307E+02  0.35041726127E+02  0.00000000000E+00 0.  1.
          2    1    6    6  502    0 -0.34245864946E+02  0.12490844699E+03 -0.48419415291E+03  0.50121739505E+03  0.00000000000E+00 0. -1.
          3    1    5    5  503    0  0.40838464081E+02 -0.17535181931E+03 -0.46334585272E+02  0.18591109294E+03  0.00000000000E+00 0. -1.
         -4    1    5    5    0  503 -0.32900646352E+02 -0.18035884041E+03 -0.77310319130E+02  0.19896896564E+03  0.00000000000E+00 0.  1.
         -1    1    6    6    0  502 -0.13229077283E+03  0.14088454910E+03 -0.62632811999E+03  0.65546641305E+03  0.00000000000E+00 0.  1.
<mgrwt>
<rscale>  0 0.11288650E+04</rscale>
<asrwt>0</asrwt>
<pdfrwt beam="1">  1        2 0.26630153E+00 0.11288650E+04</pdfrwt>
<pdfrwt beam="2">  1       -2 0.28315464E-01 0.11288650E+04</pdfrwt>
<totfact> 0.10667508E+02</totfact>
</mgrwt>
</event>
<event>
12    1  0.1467288E-007  0.1265596E+04  0.7818608E-02  0.9057301E-01
          2   -1    0    0  501    0  0.00000000000E+00  0.00000000000E+00  0.95314409899E+03  0.95314409899E+03  0.00000000000E+00 0. -1.
         -2   -1    0    0    0  501 -0.00000000000E+00 -0.00000000000E+00 -0.42011861267E+03  0.42011861267E+03  0.00000000000E+00 0.  1.
         23    2    1    2    0    0  0.27216017297E+03  0.52492374407E+02 -0.85319451071E+02  0.30386332343E+03  0.90702268291E+02 0.  0.
        254    2    1    2    0    0 -0.27216017297E+03 -0.52492374407E+02  0.61834493739E+03  0.10693993882E+04  0.82730767000E+03 0.  0.
        -24    2    4    4    0    0 -0.16095903592E+03  0.32854042576E+03  0.53889517255E+03  0.65596339921E+03  0.77674651618E+02 0.  0.
         24    2    4    4    0    0 -0.11120113705E+03 -0.38103280017E+03  0.79449764841E+02  0.41343598903E+03  0.84055720815E+02 0.  0.
         13    1    3    3    0    0  0.20959163306E+03  0.72894270445E+02 -0.86163823414E+02  0.23804712092E+03  0.00000000000E+00 0.  1.
        -13    1    3    3    0    0  0.62568539911E+02 -0.20401896037E+02  0.84437234284E+00  0.65816202513E+02  0.00000000000E+00 0. -1.
          4    1    6    6  502    0  0.83372345185E+01 -0.78276183354E+02  0.15084930479E+01  0.78733384985E+02  0.00000000000E+00 0. -1.
          3    1    5    5  503    0 -0.45066562430E+02  0.59437307782E+02  0.16390734400E+03  0.18008166487E+03  0.00000000000E+00 0. -1.
         -4    1    5    5    0  503 -0.11589247349E+03  0.26910311798E+03  0.37498782854E+03  0.47588173434E+03  0.00000000000E+00 0.  1.
         -3    1    6    6    0  502 -0.11953837157E+03 -0.30275661682E+03  0.77941271793E+02  0.33470260404E+03  0.00000000000E+00 0.  1.
<mgrwt>
<rscale>  0 0.12655964E+04</rscale>
<asrwt>0</asrwt>
<pdfrwt beam="1">  1        2 0.14663755E+00 0.12655964E+04</pdfrwt>
<pdfrwt beam="2">  1       -2 0.64633633E-01 0.12655964E+04</pdfrwt>
<totfact> 0.58679013E+01</totfact>
</mgrwt>
</event>
<event>
12    1  0.1467288E-007  0.2218175E+04  0.7818608E-02  0.8510901E-01
          2   -1    0    0  501    0  0.00000000000E+00  0.00000000000E+00  0.33722144671E+04  0.33722144671E+04  0.00000000000E+00 0. -1.
         -2   -1    0    0    0  501 -0.00000000000E+00 -0.00000000000E+00 -0.36476784704E+03  0.36476784704E+03  0.00000000000E+00 0.  1.
         23    2    1    2    0    0 -0.80427282988E+03  0.15071104496E+03  0.54823607838E+03  0.98894877865E+03  0.88816018835E+02 0.  0.
        254    2    1    2    0    0  0.80427282988E+03 -0.15071104496E+03  0.24592105416E+04  0.27480335355E+04  0.91345674220E+03 0.  0.
        -24    2    4    4    0    0  0.38053207860E+02 -0.36655666565E+03  0.11865364349E+04  0.12447393425E+04  0.75468427857E+02 0.  0.
         24    2    4    4    0    0  0.76621962202E+03  0.21584562069E+03  0.12726741067E+04  0.15032941929E+04  0.80698249687E+02 0.  0.
         13    1    3    3    0    0 -0.15108481908E+03  0.78280489628E+01  0.13613491006E+03  0.20352055092E+03  0.00000000000E+00 0. -1.
        -13    1    3    3    0    0 -0.65318801079E+03  0.14288299599E+03  0.41210116833E+03  0.78542822774E+03  0.00000000000E+00 0.  1.
          2    1    6    6  502    0  0.50228252844E+03  0.10270486478E+03  0.83473800725E+03  0.97960378132E+03  0.00000000000E+00 0. -1.
          3    1    5    5  503    0 -0.55080615172E+01 -0.97598316050E+02  0.41980317465E+03  0.43103419294E+03  0.00000000000E+00 0. -1.
         -4    1    5    5    0  503  0.43561269377E+02 -0.26895834960E+03  0.76673326029E+03  0.81370514958E+03  0.00000000000E+00 0.  1.
         -1    1    6    6    0  502  0.26393709358E+03  0.11314075591E+03  0.43793609945E+03  0.52369041162E+03  0.00000000000E+00 0.  1.
<mgrwt>
<rscale>  0 0.22181753E+04</rscale>
<asrwt>0</asrwt>
<pdfrwt beam="1">  1        2 0.51880220E+00 0.22181753E+04</pdfrwt>
<pdfrwt beam="2">  1       -2 0.56118133E-01 0.22181753E+04</pdfrwt>
<totfact> 0.27168445E+00</totfact>
</mgrwt>
</event>
<event>
12    1  0.1467288E-007  0.1327630E+04  0.7818608E-02  0.9007937E-01
         -1   -1    0    0    0  501 -0.00000000000E+00  0.00000000000E+00  0.20168090851E+03  0.20168090851E+03  0.00000000000E+00 0.  1.
          1   -1    0    0  501    0  0.00000000000E+00 -0.00000000000E+00 -0.21848883884E+04  0.21848883884E+04  0.00000000000E+00 0. -1.
         23    2    1    2    0    0  0.97714405396E+02 -0.33863743954E+03 -0.49023458441E+03  0.61087791199E+03  0.92835635009E+02 0.  0.
        254    2    1    2    0    0 -0.97714405396E+02  0.33863743954E+03 -0.14929728955E+04  0.17756913849E+04  0.89436480666E+03 0.  0.
        -24    2    4    4    0    0  0.27390532303E+03  0.10738001042E+03 -0.11268421883E+03  0.32493271579E+03  0.79554660430E+02 0.  0.
         24    2    4    4    0    0 -0.37161972842E+03  0.23125742912E+03 -0.13802886767E+04  0.14507586692E+04  0.89009348514E+02 0.  0.
         13    1    3    3    0    0  0.23432509953E+02 -0.19800203898E+03 -0.21674342069E+03  0.29450229265E+03  0.00000000000E+00 0. -1.
        -13    1    3    3    0    0  0.74281895443E+02 -0.14063540056E+03 -0.27349116372E+03  0.31637561934E+03  0.00000000000E+00 0.  1.
          4    1    6    6  502    0 -0.10291939919E+03  0.55525632142E+02 -0.25447636902E+03  0.28006020950E+03  0.00000000000E+00 0. -1.
          3    1    5    5  503    0  0.14296496383E+03  0.96016293183E+02 -0.77645386253E+02  0.18890980770E+03  0.00000000000E+00 0. -1.
         -4    1    5    5    0  503  0.13094035920E+03  0.11363717237E+02 -0.35038832581E+02  0.13602290809E+03  0.00000000000E+00 0.  1.
         -3    1    6    6    0  502 -0.26870032923E+03  0.17573179698E+03 -0.11258123076E+04  0.11706984597E+04  0.00000000000E+00 0.  1.
<mgrwt>
<rscale>  0 0.13276299E+04</rscale>
<asrwt>0</asrwt>
<pdfrwt beam="1">  1        1 0.33613670E+00 0.13276299E+04</pdfrwt>
<pdfrwt beam="2">  1       -1 0.31027830E-01 0.13276299E+04</pdfrwt>
<totfact> 0.21077742E+01</totfact>
</mgrwt>
</event>
<event>
12    1  0.1467288E-007  0.1850859E+04  0.7818608E-02  0.8679711E-01
         -2   -1    0    0    0  501 -0.00000000000E+00  0.00000000000E+00  0.26546160239E+03  0.26546160239E+03  0.00000000000E+00 0.  1.
          2   -1    0    0  501    0  0.00000000000E+00 -0.00000000000E+00 -0.32261523825E+04  0.32261523825E+04  0.00000000000E+00 0. -1.
         23    2    1    2    0    0  0.10508674360E+03  0.15565306626E+03 -0.24199307492E+04  0.24290071770E+04  0.93487614417E+02 0.  0.
        254    2    1    2    0    0 -0.10508674360E+03 -0.15565306626E+03 -0.54076003090E+03  0.10626068079E+04  0.89523221373E+03 0.  0.
        -24    2    4    4    0    0  0.14881176963E+03  0.98312716959E+01  0.19738724838E+03  0.26050528253E+03  0.81606860750E+02 0.  0.
         24    2    4    4    0    0 -0.25389851322E+03 -0.16548433795E+03 -0.73814727928E+03  0.80210152538E+03  0.81583883125E+02 0.  0.
         11    1    3    3    0    0  0.57373534555E+02  0.13593149133E+03 -0.20744189075E+04  0.20796593223E+04  0.00000000000E+00 0.  1.
        -11    1    3    3    0    0  0.47713209043E+02  0.19721574930E+02 -0.34551184170E+03  0.34934785471E+03  0.00000000000E+00 0. -1.
          4    1    6    6  502    0  0.37613761966E+01 -0.15010860017E+02 -0.36119067099E+02  0.39294540046E+02  0.00000000000E+00 0. -1.
          3    1    5    5  503    0  0.57595408409E+02  0.24176156278E+02  0.13590308362E+03  0.14957060453E+03  0.00000000000E+00 0. -1.
         -4    1    5    5    0  503  0.91216361217E+02 -0.14344884582E+02  0.61484164766E+02  0.11093467801E+03  0.00000000000E+00 0.  1.
         -3    1    6    6    0  502 -0.25765988942E+03 -0.15047347794E+03 -0.70202821218E+03  0.76280698534E+03  0.00000000000E+00 0.  1.
<mgrwt>
<rscale>  0 0.18508588E+04</rscale>
<asrwt>0</asrwt>
<pdfrwt beam="1">  1        2 0.49633112E+00 0.18508588E+04</pdfrwt>
<pdfrwt beam="2">  1       -2 0.40840248E-01 0.18508588E+04</pdfrwt>
<totfact> 0.66884577E+00</totfact>
</mgrwt>
</event>
<event>
12    1  0.1467288E-007  0.1419385E+04  0.7818608E-02  0.8939905E-01
         -2   -1    0    0    0  501 -0.00000000000E+00  0.00000000000E+00  0.36610560877E+03  0.36610560877E+03  0.00000000000E+00 0.  1.
          2   -1    0    0  501    0  0.00000000000E+00 -0.00000000000E+00 -0.13757331227E+04  0.13757331227E+04  0.00000000000E+00 0. -1.
         23    2    1    2    0    0  0.14968686245E+03  0.37487467880E+03 -0.20506085838E+03  0.46178880766E+03  0.90894255302E+02 0.  0.
        254    2    1    2    0    0 -0.14968686245E+03 -0.37487467880E+03 -0.80456665558E+03  0.12800499238E+04  0.91008962341E+03 0.  0.
        -24    2    4    4    0    0 -0.81747851553E+02 -0.19474367069E+03 -0.98139644378E+03  0.10069963471E+04  0.79340120765E+02 0.  0.
         24    2    4    4    0    0 -0.67939010892E+02 -0.18013100811E+03  0.17682978820E+03  0.27305357671E+03  0.78908760444E+02 0.  0.
         11    1    3    3    0    0  0.66369975095E+02  0.88998528181E+02 -0.24968219364E+02  0.11379421598E+03  0.00000000000E+00 0.  1.
        -11    1    3    3    0    0  0.83316887350E+02  0.28587615062E+03 -0.18009263902E+03  0.34799459168E+03  0.00000000000E+00 0. -1.
          4    1    6    6  502    0 -0.76746235297E+02 -0.15398108019E+03  0.17498702029E+03  0.24539888948E+03  0.00000000000E+00 0. -1.
          1    1    5    5  503    0 -0.30703308438E+02 -0.16204206554E+03 -0.70638520966E+03  0.72538292548E+03  0.00000000000E+00 0. -1.
         -2    1    5    5    0  503 -0.51044543115E+02 -0.32701605158E+02 -0.27501123412E+03  0.28161342165E+03  0.00000000000E+00 0.  1.
         -3    1    6    6    0  502  0.88072244051E+01 -0.26149927921E+02  0.18427679067E+01  0.27654687226E+02  0.00000000000E+00 0.  1.
<mgrwt>
<rscale>  0 0.14193852E+04</rscale>
<asrwt>0</asrwt>
<pdfrwt beam="1">  1        2 0.21165125E+00 0.14193852E+04</pdfrwt>
<pdfrwt beam="2">  1       -2 0.56323940E-01 0.14193852E+04</pdfrwt>
<totfact> 0.42960051E+01</totfact>
</mgrwt>
</event>
<event>
12    1  0.1467288E-007  0.2158964E+04  0.7818608E-02  0.8535705E-01
         -1   -1    0    0    0  501 -0.00000000000E+00  0.00000000000E+00  0.78456036251E+03  0.78456036251E+03  0.00000000000E+00 0.  1.
          1   -1    0    0  501    0  0.00000000000E+00 -0.00000000000E+00 -0.14852663162E+04  0.14852663162E+04  0.00000000000E+00 0. -1.
         23    2    1    2    0    0  0.77892439078E+03  0.44451820606E+02  0.16023432211E+03  0.80175067519E+03  0.91814684401E+02 0.  0.
        254    2    1    2    0    0 -0.77892439078E+03 -0.44451820606E+02 -0.86094027577E+03  0.14680760035E+04  0.89740170640E+03 0.  0.
        -24    2    4    4    0    0 -0.49819281768E+03  0.35007370053E+03 -0.20162984662E+03  0.64628625899E+03  0.79269503052E+02 0.  0.
         24    2    4    4    0    0 -0.28073157310E+03 -0.39452552113E+03 -0.65931042915E+03  0.82178974450E+03  0.78660912873E+02 0.  0.
         11    1    3    3    0    0  0.63149276531E+03  0.50969432098E+02  0.16288884336E+03  0.65415118354E+03  0.00000000000E+00 0.  1.
        -11    1    3    3    0    0  0.14743162548E+03 -0.65176114914E+01 -0.26545212510E+01  0.14759949164E+03  0.00000000000E+00 0. -1.
          4    1    6    6  502    0 -0.27181747470E+03 -0.34570999977E+03 -0.57406940429E+03  0.72315684636E+03  0.00000000000E+00 0. -1.
          1    1    5    5  503    0 -0.47830649369E+03  0.32636230117E+03 -0.20689617493E+03  0.61489469076E+03  0.00000000000E+00 0. -1.
         -2    1    5    5    0  503 -0.19886324000E+02  0.23711399359E+02  0.52663283120E+01  0.31391568225E+02  0.00000000000E+00 0.  1.
         -3    1    6    6    0  502 -0.89140984026E+01 -0.48815521360E+02 -0.85241024857E+02  0.98632898136E+02  0.00000000000E+00 0.  1.
<mgrwt>
<rscale>  0 0.21589637E+04</rscale>
<asrwt>0</asrwt>
<pdfrwt beam="1">  1        1 0.22850251E+00 0.21589637E+04</pdfrwt>
<pdfrwt beam="2">  1       -1 0.12070159E+00 0.21589637E+04</pdfrwt>
<totfact> 0.37399365E+00</totfact>
</mgrwt>
</event>
<event>
12    1  0.1467288E-007  0.1428714E+04  0.7818608E-02  0.8933292E-01
         -1   -1    0    0    0  501 -0.00000000000E+00  0.00000000000E+00  0.16885759217E+03  0.16885759217E+03  0.00000000000E+00 0.  1.
          1   -1    0    0  501    0  0.00000000000E+00 -0.00000000000E+00 -0.30221072303E+04  0.30221072303E+04  0.00000000000E+00 0. -1.
         23    2    1    2    0    0  0.56395801550E+02  0.38398140183E+03 -0.13155021910E+04  0.13751966842E+04  0.99988512246E+02 0.  0.
        254    2    1    2    0    0 -0.56395801550E+02 -0.38398140183E+03 -0.15377474472E+04  0.18157681383E+04  0.88415186314E+03 0.  0.
        -24    2    4    4    0    0  0.19150110945E+03  0.41396494835E+01 -0.12505540392E+04  0.12677045464E+04  0.80620099035E+02 0.  0.
         24    2    4    4    0    0 -0.24789691100E+03 -0.38812105131E+03 -0.28719340806E+03  0.54806359191E+03  0.76176231073E+02 0.  0.
         13    1    3    3    0    0  0.53371994997E+02  0.37334964979E+03 -0.13092699765E+04  0.13625073953E+04  0.00000000000E+00 0. -1.
        -13    1    3    3    0    0  0.30238065532E+01  0.10631752037E+02 -0.62322144633E+01  0.12689288970E+02  0.00000000000E+00 0.  1.
          2    1    6    6  502    0 -0.13802269863E+03 -0.18496900857E+03 -0.18370469189E+03  0.29497663177E+03  0.00000000000E+00 0. -1.
          1    1    5    5  503    0 -0.56620890577E+01 -0.74630716880E+00 -0.95563571704E+01  0.11132842820E+02  0.00000000000E+00 0. -1.
         -2    1    5    5    0  503  0.19716319851E+03  0.48859566523E+01 -0.12409976820E+04  0.12565717035E+04  0.00000000000E+00 0.  1.
         -1    1    6    6    0  502 -0.10987421237E+03 -0.20315204275E+03 -0.10348871618E+03  0.25308696014E+03  0.00000000000E+00 0.  1.
<mgrwt>
<rscale>  0 0.14287138E+04</rscale>
<asrwt>0</asrwt>
<pdfrwt beam="1">  1        1 0.46493960E+00 0.14287138E+04</pdfrwt>
<pdfrwt beam="2">  1       -1 0.25978089E-01 0.14287138E+04</pdfrwt>
<totfact> 0.74022799E+00</totfact>
</mgrwt>
</event>
<event>
12    1  0.1467288E-007  0.2699732E+04  0.7818608E-02  0.8335092E-01
          2   -1    0    0  501    0  0.00000000000E+00  0.00000000000E+00  0.17944053156E+04  0.17944053156E+04  0.00000000000E+00 0. -1.
         -2   -1    0    0    0  501 -0.00000000000E+00 -0.00000000000E+00 -0.10154550632E+04  0.10154550632E+04  0.00000000000E+00 0.  1.
         23    2    1    2    0    0 -0.53603328753E+03 -0.36552718031E+03  0.13926638349E+04  0.15389991169E+04  0.89799331012E+02 0.  0.
        254    2    1    2    0    0  0.53603328753E+03  0.36552718031E+03 -0.61371358245E+03  0.12708612620E+04  0.90415827212E+03 0.  0.
        -24    2    4    4    0    0 -0.17732483115E+03  0.39452421652E+02  0.85171002160E+02  0.21729523674E+03  0.83441782004E+02 0.  0.
         24    2    4    4    0    0  0.71335811868E+03  0.32607475866E+03 -0.69888458461E+03  0.10535660252E+04  0.79731757883E+02 0.  0.
         11    1    3    3    0    0 -0.44086270697E+03 -0.26535860696E+03  0.10429384876E+04  0.11629685317E+04  0.00000000000E+00 0. -1.
        -11    1    3    3    0    0 -0.95170580558E+02 -0.10016857335E+03  0.34972534726E+03  0.37603058520E+03  0.00000000000E+00 0.  1.
          2    1    6    6  502    0  0.62780357379E+03  0.28990943299E+03 -0.64790826879E+03  0.94761275390E+03  0.00000000000E+00 0. -1.
          1    1    5    5  503    0 -0.14877611731E+03  0.28434230099E+00  0.48379837266E+02  0.15644495066E+03  0.00000000000E+00 0. -1.
         -2    1    5    5    0  503 -0.28548713841E+02  0.39168079351E+02  0.36791164894E+02  0.60850286082E+02  0.00000000000E+00 0.  1.
         -1    1    6    6    0  502  0.85554544892E+02  0.36165325668E+02 -0.50976315827E+02  0.10595327134E+03  0.00000000000E+00 0.  1.
<mgrwt>
<rscale>  0 0.26997318E+04</rscale>
<asrwt>0</asrwt>
<pdfrwt beam="1">  1        2 0.27606236E+00 0.26997318E+04</pdfrwt>
<pdfrwt beam="2">  1       -2 0.15622386E+00 0.26997318E+04</pdfrwt>
<totfact> 0.20494791E+00</totfact>
</mgrwt>
</event>
<event>
12    1  0.1467288E-007  0.3217733E+04  0.7818608E-02  0.8184149E-01
         -1   -1    0    0    0  501 -0.00000000000E+00  0.00000000000E+00  0.15349939574E+04  0.15349939574E+04  0.00000000000E+00 0.  1.
          1   -1    0    0  501    0  0.00000000000E+00 -0.00000000000E+00 -0.16862946446E+04  0.16862946446E+04  0.00000000000E+00 0. -1.
         23    2    1    2    0    0  0.24455391980E+03 -0.20746412626E+03  0.13755832976E+04  0.14154229699E+04  0.91349831982E+02 0.  0.
        254    2    1    2    0    0 -0.24455391980E+03  0.20746412626E+03 -0.15268839848E+04  0.18058656321E+04  0.90935581309E+03 0.  0.
        -24    2    4    4    0    0  0.24121029626E+03  0.10635678443E+03 -0.99757017266E+02  0.29287549986E+03  0.79563957336E+02 0.  0.
         24    2    4    4    0    0 -0.48576421606E+03  0.10110734183E+03 -0.14271269675E+04  0.15129901322E+04  0.79108726734E+02 0.  0.
         13    1    3    3    0    0  0.23100011264E+03 -0.20933317029E+03  0.13569946397E+04  0.13923418690E+04  0.00000000000E+00 0.  1.
        -13    1    3    3    0    0  0.13553807166E+02  0.18690440349E+01  0.18588657940E+02  0.23081100891E+02  0.00000000000E+00 0. -1.
          4    1    6    6  502    0 -0.43554466300E+03  0.11462103283E+03 -0.12864586506E+04  0.13630161387E+04  0.00000000000E+00 0. -1.
          3    1    5    5  503    0  0.24635507086E+03  0.10266957011E+03 -0.10260268539E+03  0.28593560921E+03  0.00000000000E+00 0. -1.
         -4    1    5    5    0  503 -0.51447746008E+01  0.36872143162E+01  0.28456681238E+01  0.69398906459E+01  0.00000000000E+00 0.  1.
         -3    1    6    6    0  502 -0.50219553065E+02 -0.13513691001E+02 -0.14066831687E+03  0.14997399350E+03  0.00000000000E+00 0.  1.
<mgrwt>
<rscale>  0 0.32177334E+04</rscale>
<asrwt>0</asrwt>
<pdfrwt beam="1">  1        1 0.25942995E+00 0.32177334E+04</pdfrwt>
<pdfrwt beam="2">  1       -1 0.23615292E+00 0.32177334E+04</pdfrwt>
<totfact> 0.34965774E-01</totfact>
</mgrwt>
</event>
<event>
12    1  0.1467288E-007  0.3001988E+04  0.7818608E-02  0.8243163E-01
          1   -1    0    0  501    0  0.00000000000E+00  0.00000000000E+00  0.75498587837E+03  0.75498587837E+03  0.00000000000E+00 0. -1.
         -1   -1    0    0    0  501 -0.00000000000E+00 -0.00000000000E+00 -0.29841391671E+04  0.29841391671E+04  0.00000000000E+00 0.  1.
         23    2    1    2    0    0 -0.46946219598E+03  0.60245869463E+03 -0.24302266013E+04  0.25497519366E+04  0.10900629619E+03 0.  0.
        254    2    1    2    0    0  0.46946219598E+03 -0.60245869463E+03  0.20107331252E+03  0.11893731089E+04  0.88928436559E+03 0.  0.
        -24    2    4    4    0    0 -0.63616537309E+02 -0.15175034865E+03 -0.28256014987E+03  0.33669095147E+03  0.80282789989E+02 0.  0.
         24    2    4    4    0    0  0.53307873329E+03 -0.45070834597E+03  0.48363346239E+03  0.85268215739E+03  0.76515270177E+02 0.  0.
         11    1    3    3    0    0 -0.25254837289E+03  0.37997997733E+03 -0.13073472890E+04  0.13846741125E+04  0.00000000000E+00 0. -1.
        -11    1    3    3    0    0 -0.21691382309E+03  0.22247871730E+03 -0.11228793123E+04  0.11650778242E+04  0.00000000000E+00 0.  1.
          4    1    6    6  502    0  0.27682447484E+02 -0.25745610380E+02  0.73370435390E+01  0.38509564532E+02  0.00000000000E+00 0. -1.
          3    1    5    5  503    0 -0.16619624244E+02 -0.16660580822E+02 -0.44412215240E+01  0.23948096208E+02  0.00000000000E+00 0. -1.
         -4    1    5    5    0  503 -0.46996913064E+02 -0.13508976783E+03 -0.27811892835E+03  0.31274285526E+03  0.00000000000E+00 0.  1.
         -3    1    6    6    0  502  0.50539628581E+03 -0.42496273559E+03  0.47629641885E+03  0.81417259286E+03  0.00000000000E+00 0.  1.
<mgrwt>
<rscale>  0 0.30019880E+04</rscale>
<asrwt>0</asrwt>
<pdfrwt beam="1">  1        1 0.11615168E+00 0.30019880E+04</pdfrwt>
<pdfrwt beam="2">  1       -1 0.45909832E+00 0.30019880E+04</pdfrwt>
<totfact> 0.57705141E-02</totfact>
</mgrwt>
</event>
<event>
12    1  0.1467288E-007  0.2381532E+04  0.7818608E-02  0.8446450E-01
          2   -1    0    0  501    0  0.00000000000E+00  0.00000000000E+00  0.13703309590E+04  0.13703309590E+04  0.00000000000E+00 0. -1.
         -2   -1    0    0    0  501 -0.00000000000E+00 -0.00000000000E+00 -0.10347311986E+04  0.10347311986E+04  0.00000000000E+00 0.  1.
         23    2    1    2    0    0  0.83619803612E+03 -0.40001083040E+03 -0.27430808605E+03  0.97099351599E+03  0.91365540409E+02 0.  0.
        254    2    1    2    0    0 -0.83619803612E+03  0.40001083040E+03  0.60990784644E+03  0.14340686417E+04  0.90847645422E+03 0.  0.
        -24    2    4    4    0    0 -0.84726137737E+03  0.76229219181E+02  0.68239319649E+03  0.10933642313E+04  0.78244055016E+02 0.  0.
         24    2    4    4    0    0  0.11063341241E+02  0.32378161122E+03 -0.72485350051E+02  0.34070441043E+03  0.76605744136E+02 0.  0.
         11    1    3    3    0    0  0.78646633502E+02 -0.43255591174E+02  0.31564465134E+00  0.89757666863E+02  0.00000000000E+00 0. -1.
        -11    1    3    3    0    0  0.75755140262E+03 -0.35675523922E+03 -0.27462373070E+03  0.88123584913E+03  0.00000000000E+00 0.  1.
          2    1    6    6  502    0 -0.55808703900E+01  0.31299733326E+03 -0.69146646216E+02  0.32059278755E+03  0.00000000000E+00 0. -1.
          1    1    5    5  503    0 -0.12427658246E+03  0.44406849225E+01  0.13608722829E+03  0.18434782976E+03  0.00000000000E+00 0. -1.
         -2    1    5    5    0  503 -0.72298479490E+03  0.71788534258E+02  0.54630596820E+03  0.90901640150E+03  0.00000000000E+00 0.  1.
         -1    1    6    6    0  502  0.16644211631E+02  0.10784277954E+02 -0.33387038346E+01  0.20111622886E+02  0.00000000000E+00 0.  1.
<mgrwt>
<rscale>  0 0.23815324E+04</rscale>
<asrwt>0</asrwt>
<pdfrwt beam="1">  1        2 0.21082015E+00 0.23815324E+04</pdfrwt>
<pdfrwt beam="2">  1       -2 0.15918942E+00 0.23815324E+04</pdfrwt>
<totfact> 0.34621035E+00</totfact>
</mgrwt>
</event>
<event>
12    1  0.1467288E-007  0.2453661E+04  0.7818608E-02  0.8419682E-01
         -2   -1    0    0    0  501 -0.00000000000E+00  0.00000000000E+00  0.28819535975E+04  0.28819535975E+04  0.00000000000E+00 0. -1.
          2   -1    0    0  501    0  0.00000000000E+00 -0.00000000000E+00 -0.52225456618E+03  0.52225456618E+03  0.00000000000E+00 0.  1.
         23    2    1    2    0    0 -0.92045393292E+03 -0.46993833744E+02  0.29813957884E+03  0.97288264707E+03  0.90385692803E+02 0.  0.
        254    2    1    2    0    0  0.92045393292E+03  0.46993833744E+02  0.20615594525E+04  0.24313255166E+04  0.90103969313E+03 0.  0.
        -24    2    4    4    0    0  0.96587222325E+03  0.24243812999E+03  0.12994616918E+04  0.16392068091E+04  0.81932142498E+02 0.  0.
         24    2    4    4    0    0 -0.45418290326E+02 -0.19544429625E+03  0.76209776066E+03  0.79211870752E+03  0.79985973534E+02 0.  0.
         11    1    3    3    0    0 -0.92138107450E+02 -0.90164432049E+01  0.59460785481E+02  0.11002868764E+03  0.00000000000E+00 0. -1.
        -11    1    3    3    0    0 -0.82831582547E+03 -0.37977390539E+02  0.23867879336E+03  0.86285395944E+03  0.00000000000E+00 0.  1.
          4    1    6    6  502    0  0.92895890744E+01 -0.36209691249E+02  0.65067424332E+02  0.75041374686E+02  0.00000000000E+00 0. -1.
          1    1    5    5  503    0  0.40501003238E+01  0.83572923112E+01  0.11232755185E+02  0.14574719087E+02  0.00000000000E+00 0. -1.
         -2    1    5    5    0  503  0.96182212293E+03  0.23408083768E+03  0.12882289367E+04  0.16246320900E+04  0.00000000000E+00 0.  1.
         -3    1    6    6    0  502 -0.54707879400E+02 -0.15923460500E+03  0.69703033633E+03  0.71707733283E+03  0.00000000000E+00 0.  1.
<mgrwt>
<rscale>  0 0.24536613E+04</rscale>
<asrwt>0</asrwt>
<pdfrwt beam="1">  1        2 0.80346858E-01 0.24536613E+04</pdfrwt>
<pdfrwt beam="2">  1       -2 0.44337747E+00 0.24536613E+04</pdfrwt>
<totfact> 0.20106165E-01</totfact>
</mgrwt>
</event>
<event>
12    1  0.1467288E-007  0.1729880E+04  0.7818608E-02  0.8744504E-01
         -1   -1    0    0    0  501 -0.00000000000E+00  0.00000000000E+00  0.39554726393E+03  0.39554726393E+03  0.00000000000E+00 0.  1.
          1   -1    0    0  501    0  0.00000000000E+00 -0.00000000000E+00 -0.18913564384E+04  0.18913564384E+04  0.00000000000E+00 0. -1.
         23    2    1    2    0    0 -0.16546342203E+03 -0.56184093359E+03 -0.26130463414E+03  0.64760279754E+03  0.89810316101E+02 0.  0.
        254    2    1    2    0    0  0.16546342203E+03  0.56184093359E+03 -0.12345045403E+04  0.16393009048E+04  0.90568350852E+03 0.  0.
        -24    2    4    4    0    0  0.43501012144E+02 -0.12948331301E+03 -0.78686301880E+03  0.80245924364E+03  0.78288957963E+02 0.  0.
         24    2    4    4    0    0  0.12196240988E+03  0.69132424661E+03 -0.44764152153E+03  0.83684166114E+03  0.84362258430E+02 0.  0.
         11    1    3    3    0    0  0.45898654278E+00 -0.38160788065E+02 -0.40224227553E+02  0.55447677107E+02  0.00000000000E+00 0. -1.
        -11    1    3    3    0    0 -0.16592240857E+03 -0.52368014553E+03 -0.22108040658E+03  0.59215512044E+03  0.00000000000E+00 0.  1.
          2    1    6    6  502    0  0.65993918608E+02  0.56339271617E+03 -0.36640490007E+03  0.67529186336E+03  0.00000000000E+00 0. -1.
          1    1    5    5  503    0  0.63907008104E+02 -0.10479572152E+03 -0.55618808195E+03  0.56957126985E+03  0.00000000000E+00 0. -1.
         -2    1    5    5    0  503 -0.20405995961E+02 -0.24687591489E+02 -0.23067493685E+03  0.23288797379E+03  0.00000000000E+00 0.  1.
         -1    1    6    6    0  502  0.55968491274E+02  0.12793153043E+03 -0.81236621467E+02  0.16154979778E+03  0.00000000000E+00 0.  1.
<mgrwt>
<rscale>  0 0.17298796E+04</rscale>
<asrwt>0</asrwt>
<pdfrwt beam="1">  1        1 0.29097791E+00 0.17298796E+04</pdfrwt>
<pdfrwt beam="2">  1       -1 0.60853427E-01 0.17298796E+04</pdfrwt>
<totfact> 0.91812553E+00</totfact>
</mgrwt>
</event>
<event>
12    1  0.2415670E-007  0.2072792E+04  0.7818608E-02  0.8573324E-01
         -1   -1    0    0    0  501 -0.00000000000E+00  0.00000000000E+00  0.10628662723E+04  0.10628662723E+04  0.00000000000E+00 0.  1.
          1   -1    0    0  501    0  0.00000000000E+00 -0.00000000000E+00 -0.10105848190E+04  0.10105848190E+04  0.00000000000E+00 0. -1.
         23    2    1    2    0    0  0.24462241988E+03 -0.56186907394E+03 -0.54641776618E+03  0.82573894742E+03  0.87951404348E+02 0.  0.
        254    2    1    2    0    0 -0.24462241988E+03  0.56186907394E+03  0.59869921948E+03  0.12477121438E+04  0.90708756679E+03 0.  0.
        -24    2    4    4    0    0 -0.46942700502E+03  0.14563915364E+03  0.58437216923E+03  0.76769699967E+03  0.79343399286E+02 0.  0.
         24    2    4    4    0    0  0.22480458514E+03  0.41622992031E+03  0.14327050246E+02  0.48001514414E+03  0.80155013417E+02 0.  0.
         11    1    3    3    0    0  0.24957671106E+03 -0.55355419447E+03 -0.52688419883E+03  0.80393889065E+03  0.00000000000E+00 0. -1.
        -11    1    3    3    0    0 -0.49542911835E+01 -0.83148794697E+01 -0.19533567347E+02  0.21800056767E+02  0.00000000000E+00 0.  1.
          2    1    6    6  502    0  0.20826461514E+03  0.34797075049E+03  0.34339161935E+02  0.40698522229E+03  0.00000000000E+00 0. -1.
          3    1    5    5  503    0 -0.45725824802E+03  0.15248188999E+03  0.57722333133E+03  0.75201237117E+03  0.00000000000E+00 0. -1.
         -4    1    5    5    0  503 -0.12168756995E+02 -0.68427363564E+01  0.71488378972E+01  0.15684628492E+02  0.00000000000E+00 0.  1.
         -1    1    6    6    0  502  0.16539969995E+02  0.68259169813E+02 -0.20012111689E+02  0.73029921849E+02  0.00000000000E+00 0.  1.
<mgrwt>
<rscale>  0 0.20727919E+04</rscale>
<asrwt>0</asrwt>
<pdfrwt beam="1">  1        1 0.15547459E+00 0.20727919E+04</pdfrwt>
<pdfrwt beam="2">  1       -1 0.16351789E+00 0.20727919E+04</pdfrwt>
<totfact> 0.37625681E+00</totfact>
</mgrwt>
</event>
<event>
12    1  0.1467288E-007  0.2122155E+04  0.7818608E-02  0.8551546E-01
         -1   -1    0    0    0  501 -0.00000000000E+00  0.00000000000E+00  0.54877913177E+03  0.54877913177E+03  0.00000000000E+00 0.  1.
          1   -1    0    0  501    0  0.00000000000E+00 -0.00000000000E+00 -0.20516177235E+04  0.20516177235E+04  0.00000000000E+00 0. -1.
         23    2    1    2    0    0  0.39160948125E+03 -0.48375537663E+02 -0.15581135360E+04  0.16098586887E+04  0.90713989068E+02 0.  0.
        254    2    1    2    0    0 -0.39160948125E+03  0.48375537663E+02  0.55274944351E+02  0.99053816657E+03  0.90686953941E+03 0.  0.
        -24    2    4    4    0    0  0.41214224078E+02  0.32343242030E+03  0.26697184777E+03  0.43006313434E+03  0.85867276930E+02 0.  0.
         24    2    4    4    0    0 -0.43282370533E+03 -0.27505688263E+03 -0.21169690342E+03  0.56047503224E+03  0.79523796857E+02 0.  0.
         11    1    3    3    0    0  0.22835793169E+03 -0.26782193498E+02 -0.72352021451E+03  0.75917463844E+03  0.00000000000E+00 0. -1.
        -11    1    3    3    0    0  0.16325154956E+03 -0.21593344165E+02 -0.83459332154E+03  0.85068405023E+03  0.00000000000E+00 0.  1.
          2    1    6    6  502    0 -0.24611025144E+03 -0.19387616703E+03 -0.10377224820E+03  0.33004076037E+03  0.00000000000E+00 0. -1.
          1    1    5    5  503    0  0.32648246558E+02  0.17068710864E+03  0.88575023744E+02  0.19505263877E+03  0.00000000000E+00 0. -1.
         -2    1    5    5    0  503  0.85659775207E+01  0.15274531165E+03  0.17839682403E+03  0.23501049557E+03  0.00000000000E+00 0.  1.
         -1    1    6    6    0  502 -0.18671345389E+03 -0.81180715602E+02 -0.10792465522E+03  0.23043427187E+03  0.00000000000E+00 0.  1.
<mgrwt>
<rscale>  0 0.21221546E+04</rscale>
<asrwt>0</asrwt>
<pdfrwt beam="1">  1        1 0.31563350E+00 0.21221546E+04</pdfrwt>
<pdfrwt beam="2">  1       -1 0.84427559E-01 0.21221546E+04</pdfrwt>
<totfact> 0.35051514E+00</totfact>
</mgrwt>
</event>
<event>
12    1  0.1467288E-007  0.1410543E+04  0.7818608E-02  0.8946222E-01
          4   -1    0    0  501    0  0.00000000000E+00  0.00000000000E+00  0.10935501835E+04  0.10935501835E+04  0.00000000000E+00 0. -1.
         -4   -1    0    0    0  501 -0.00000000000E+00 -0.00000000000E+00 -0.45485631055E+03  0.45485631055E+03  0.00000000000E+00 0.  1.
         23    2    1    2    0    0 -0.31245346819E+03 -0.14788230174E+03  0.42535071493E+03  0.55586552277E+03  0.92557569965E+02 0.  0.
        254    2    1    2    0    0  0.31245346819E+03  0.14788230174E+03  0.21334315801E+03  0.99254097127E+03  0.90560804525E+03 0.  0.
        -24    2    4    4    0    0  0.20017473482E+03 -0.20806447697E+03 -0.25107511016E+03  0.39106668246E+03  0.80831232517E+02 0.  0.
         24    2    4    4    0    0  0.11227873338E+03  0.35594677871E+03  0.46441826817E+03  0.60147428881E+03  0.82355139761E+02 0.  0.
         13    1    3    3    0    0 -0.90030661709E+02 -0.71933402430E+02  0.89343895040E+02  0.14581586338E+03  0.00000000000E+00 0.  1.
        -13    1    3    3    0    0 -0.22242280648E+03 -0.75948899312E+02  0.33600681989E+03  0.41004965939E+03  0.00000000000E+00 0. -1.
          4    1    6    6  502    0  0.24033992919E+02  0.17409245216E+03  0.17129616231E+03  0.24541432300E+03  0.00000000000E+00 0. -1.
          3    1    5    5  503    0  0.45719411017E+02 -0.24662417181E+02 -0.84205136018E+02  0.98939397091E+02  0.00000000000E+00 0. -1.
         -4    1    5    5    0  503  0.15445532380E+03 -0.18340205979E+03 -0.16686997414E+03  0.29212728537E+03  0.00000000000E+00 0.  1.
         -3    1    6    6    0  502  0.88244740457E+02  0.18185432656E+03  0.29312210586E+03  0.35605996581E+03  0.00000000000E+00 0.  1.
<mgrwt>
<rscale>  0 0.14105434E+04</rscale>
<asrwt>0</asrwt>
<pdfrwt beam="1">  1        4 0.16823849E+00 0.14105434E+04</pdfrwt>
<pdfrwt beam="2">  1       -4 0.69977894E-01 0.14105434E+04</pdfrwt>
<totfact> 0.79295650E-01</totfact>
</mgrwt>
</event>
<event>
12    1  0.1467288E-007  0.1936937E+04  0.7818608E-02  0.8636686E-01
          2   -1    0    0  501    0  0.00000000000E+00  0.00000000000E+00  0.14113898589E+04  0.14113898589E+04  0.00000000000E+00 0. -1.
         -2   -1    0    0    0  501 -0.00000000000E+00 -0.00000000000E+00 -0.66454410742E+03  0.66454410742E+03  0.00000000000E+00 0.  1.
         23    2    1    2    0    0  0.29749984963E+03 -0.22912989649E+03 -0.41144230291E+03  0.56438095035E+03  0.90743696749E+02 0.  0.
        254    2    1    2    0    0 -0.29749984963E+03  0.22912989649E+03  0.11582880544E+04  0.15115530160E+04  0.89563085765E+03 0.  0.
        -24    2    4    4    0    0  0.15036841324E+03  0.24196517190E+03  0.97935611978E+03  0.10229822933E+04  0.78718224459E+02 0.  0.
         24    2    4    4    0    0 -0.44786826287E+03 -0.12835275409E+02  0.17893193465E+03  0.48857072275E+03  0.77032387393E+02 0.  0.
         11    1    3    3    0    0  0.95200136259E+02 -0.12845197836E+03 -0.18422211829E+03  0.24392778758E+03  0.00000000000E+00 0. -1.
        -11    1    3    3    0    0  0.20229971337E+03 -0.10067791813E+03 -0.22722018462E+03  0.32045316277E+03  0.00000000000E+00 0.  1.
          4    1    6    6  502    0 -0.31253677656E+02  0.19272156816E+02  0.16599139317E+02  0.40295655119E+02  0.00000000000E+00 0. -1.
          1    1    5    5  503    0  0.28137444595E+01  0.26563561003E+02  0.18243371116E+03  0.18437895460E+03  0.00000000000E+00 0. -1.
         -2    1    5    5    0  503  0.14755466878E+03  0.21540161090E+03  0.79692240862E+03  0.83860333866E+03  0.00000000000E+00 0.  1.
         -3    1    6    6    0  502 -0.41661458521E+03 -0.32107432225E+02  0.16233279533E+03  0.44827506763E+03  0.00000000000E+00 0.  1.
<mgrwt>
<rscale>  0 0.19369366E+04</rscale>
<asrwt>0</asrwt>
<pdfrwt beam="1">  1        2 0.21713690E+00 0.19369366E+04</pdfrwt>
<pdfrwt beam="2">  1       -2 0.10223756E+00 0.19369366E+04</pdfrwt>
<totfact> 0.10431825E+01</totfact>
</mgrwt>
</event>
<event>
12    1  0.1467288E-007  0.2036810E+04  0.7818608E-02  0.8589602E-01
          2   -1    0    0  501    0  0.00000000000E+00  0.00000000000E+00  0.22177343051E+04  0.22177343051E+04  0.00000000000E+00 0. -1.
         -2   -1    0    0    0  501 -0.00000000000E+00 -0.00000000000E+00 -0.46766121788E+03  0.46766121788E+03  0.00000000000E+00 0.  1.
         23    2    1    2    0    0  0.36907129933E+03  0.71984126116E+03  0.76894503963E+03  0.11201020187E+04  0.94694208582E+02 0.  0.
        254    2    1    2    0    0 -0.36907129933E+03 -0.71984126116E+03  0.98112804764E+03  0.15652935043E+04  0.91276855964E+03 0.  0.
        -24    2    4    4    0    0  0.27504644896E+03 -0.40901717741E+03  0.37332954185E+03  0.62340194309E+03  0.79431954097E+02 0.  0.
         24    2    4    4    0    0 -0.64411774829E+03 -0.31082408375E+03  0.60779850578E+03  0.94189156120E+03  0.79002561540E+02 0.  0.
         11    1    3    3    0    0  0.26848113029E+03  0.46305541392E+03  0.55504360949E+03  0.77108744129E+03  0.00000000000E+00 0. -1.
        -11    1    3    3    0    0  0.10059016904E+03  0.25678584724E+03  0.21390143015E+03  0.34901457745E+03  0.00000000000E+00 0.  1.
          4    1    6    6  502    0 -0.54886375717E+03 -0.24894541154E+03  0.54243314625E+03  0.81083843028E+03  0.00000000000E+00 0. -1.
          3    1    5    5  503    0  0.24849268588E+03 -0.31888045995E+03  0.28685346012E+03  0.49569977835E+03  0.00000000000E+00 0. -1.
         -4    1    5    5    0  503  0.26553763077E+02 -0.90136717460E+02  0.86476081736E+02  0.12770216474E+03  0.00000000000E+00 0.  1.
         -3    1    6    6    0  502 -0.95253991115E+02 -0.61878672209E+02  0.65365359535E+02  0.13105313092E+03  0.00000000000E+00 0.  1.
<mgrwt>
<rscale>  0 0.20368096E+04</rscale>
<asrwt>0</asrwt>
<pdfrwt beam="1">  1        2 0.34118989E+00 0.20368096E+04</pdfrwt>
<pdfrwt beam="2">  1       -2 0.71947881E-01 0.20368096E+04</pdfrwt>
<totfact> 0.81818824E+00</totfact>
</mgrwt>
</event>
<event>
12    1  0.1467288E-007  0.1502957E+04  0.7818608E-02  0.8882489E-01
          2   -1    0    0  501    0  0.00000000000E+00  0.00000000000E+00  0.18022101100E+04  0.18022101100E+04  0.00000000000E+00 0. -1.
         -2   -1    0    0    0  501 -0.00000000000E+00 -0.00000000000E+00 -0.31334866036E+03  0.31334866036E+03  0.00000000000E+00 0.  1.
         23    2    1    2    0    0 -0.19841956349E+03  0.69492609902E+02  0.10744024918E+04  0.10988476016E+04  0.94476406036E+02 0.  0.
        254    2    1    2    0    0  0.19841956349E+03 -0.69492609902E+02  0.41445895786E+03  0.10167111687E+04  0.90428193990E+03 0.  0.
        -24    2    4    4    0    0  0.68834912107E+02 -0.47306543115E+03  0.13559762283E+03  0.50319344801E+03  0.79295545435E+02 0.  0.
         24    2    4    4    0    0  0.12958465139E+03  0.40357282125E+03  0.27886133503E+03  0.51351772071E+03  0.79206069048E+02 0.  0.
         13    1    3    3    0    0 -0.15446503223E+03  0.11573904287E+02  0.80728935594E+03  0.82201551425E+03  0.00000000000E+00 0. -1.
        -13    1    3    3    0    0 -0.43954531261E+02  0.57918705615E+02  0.26711313581E+03  0.27683208738E+03  0.00000000000E+00 0.  1.
          2    1    6    6  502    0  0.12161088406E+03  0.28204547590E+03  0.17530043587E+03  0.35365109984E+03  0.00000000000E+00 0. -1.
          1    1    5    5  503    0  0.66198831299E+02 -0.40733232041E+03  0.87896081256E+02  0.42193320042E+03  0.00000000000E+00 0. -1.
         -2    1    5    5    0  503  0.26360808079E+01 -0.65733110740E+02  0.47701541571E+02  0.81260247587E+02  0.00000000000E+00 0.  1.
         -1    1    6    6    0  502  0.79737673283E+01  0.12152734535E+03  0.10356089916E+03  0.15986662087E+03  0.00000000000E+00 0.  1.
<mgrwt>
<rscale>  0 0.15029572E+04</rscale>
<asrwt>0</asrwt>
<pdfrwt beam="1">  1        2 0.27726309E+00 0.15029572E+04</pdfrwt>
<pdfrwt beam="2">  1       -2 0.48207487E-01 0.15029572E+04</pdfrwt>
<totfact> 0.33879955E+01</totfact>
</mgrwt>
</event>
<event>
12    1  0.1467288E-007  0.2414717E+04  0.7818608E-02  0.8434014E-01
         -2   -1    0    0    0  501 -0.00000000000E+00  0.00000000000E+00  0.94582829929E+03  0.94582829929E+03  0.00000000000E+00 0.  1.
          2   -1    0    0  501    0  0.00000000000E+00 -0.00000000000E+00 -0.15412041246E+04  0.15412041246E+04  0.00000000000E+00 0. -1.
         23    2    1    2    0    0 -0.39457376263E+03  0.66552958695E+02  0.72158164882E+03  0.82999187270E+03  0.89937102316E+02 0.  0.
        254    2    1    2    0    0  0.39457376263E+03 -0.66552958695E+02 -0.13169574741E+04  0.16570405512E+04  0.92265304916E+03 0.  0.
        -24    2    4    4    0    0 -0.38735058624E+02  0.15846939672E+03  0.62137154197E+02  0.19183609454E+03  0.79543112685E+02 0.  0.
         24    2    4    4    0    0  0.43330882125E+03 -0.22502235541E+03 -0.13790946283E+04  0.14652044566E+04  0.80811576365E+02 0.  0.
         11    1    3    3    0    0 -0.35075926529E+03  0.86655740554E+02  0.62109060512E+03  0.71853658176E+03  0.00000000000E+00 0.  1.
        -11    1    3    3    0    0 -0.43814497341E+02 -0.20102781859E+02  0.10049104370E+03  0.11145529094E+03  0.00000000000E+00 0. -1.
          4    1    6    6  502    0  0.20098359385E+03 -0.70511753187E+02 -0.51976277977E+03  0.56171136678E+03  0.00000000000E+00 0. -1.
          1    1    5    5  503    0 -0.45320377044E+02  0.10097212967E+03  0.73498430254E+02  0.13285829592E+03  0.00000000000E+00 0. -1.
         -2    1    5    5    0  503  0.65853184206E+01  0.57497267047E+02 -0.11361276057E+02  0.58977798621E+02  0.00000000000E+00 0.  1.
         -1    1    6    6    0  502  0.23232522740E+03 -0.15451060222E+03 -0.85933184853E+03  0.90349308984E+03  0.00000000000E+00 0.  1.
<mgrwt>
<rscale>  0 0.24147169E+04</rscale>
<asrwt>0</asrwt>
<pdfrwt beam="1">  1        2 0.23710833E+00 0.24147169E+04</pdfrwt>
<pdfrwt beam="2">  1       -2 0.14551205E+00 0.24147169E+04</pdfrwt>
<totfact> 0.35091076E+00</totfact>
</mgrwt>
</event>
<event>
12    1  0.1467288E-007  0.1178870E+04  0.7818608E-02  0.9131556E-01
          2   -1    0    0  501    0  0.00000000000E+00  0.00000000000E+00  0.11488671386E+04  0.11488671386E+04  0.00000000000E+00 0. -1.
         -2   -1    0    0    0  501 -0.00000000000E+00 -0.00000000000E+00 -0.30241385386E+03  0.30241385386E+03  0.00000000000E+00 0.  1.
         23    2    1    2    0    0  0.13605551561E+03 -0.17104043266E+03  0.26893569754E+03  0.35854068272E+03  0.91973250591E+02 0.  0.
        254    2    1    2    0    0 -0.13605551561E+03  0.17104043266E+03  0.57751758720E+03  0.10927403097E+04  0.90154805090E+03 0.  0.
        -24    2    4    4    0    0  0.63732108717E+01 -0.35329571136E+03  0.33371841266E+03  0.49268858782E+03  0.80719193094E+02 0.  0.
         24    2    4    4    0    0 -0.14242872648E+03  0.52433614402E+03  0.24379917454E+03  0.60005172193E+03  0.73550645317E+02 0.  0.
         13    1    3    3    0    0  0.14904856222E+03 -0.16400679250E+03  0.24454599879E+03  0.33002491937E+03  0.00000000000E+00 0. -1.
        -13    1    3    3    0    0 -0.12993046609E+02 -0.70336401593E+01  0.24389698756E+02  0.28515763351E+02  0.00000000000E+00 0.  1.
          2    1    6    6  502    0  0.72977547071E+01  0.87479765660E+01  0.45230918419E+01  0.12257351981E+02  0.00000000000E+00 0. -1.
          1    1    5    5  503    0 -0.35686573969E+02 -0.20933937517E+03  0.18928890202E+03  0.28447635049E+03  0.00000000000E+00 0. -1.
         -2    1    5    5    0  503  0.42059784841E+02 -0.14395633619E+03  0.14442951063E+03  0.20821223733E+03  0.00000000000E+00 0.  1.
         -1    1    6    6    0  502 -0.14972648119E+03  0.51558816746E+03  0.23927608270E+03  0.58779436995E+03  0.00000000000E+00 0.  1.
<mgrwt>
<rscale>  0 0.11788695E+04</rscale>
<asrwt>0</asrwt>
<pdfrwt beam="1">  1        2 0.17674879E+00 0.11788695E+04</pdfrwt>
<pdfrwt beam="2">  1       -2 0.46525209E-01 0.11788695E+04</pdfrwt>
<totfact> 0.87964873E+01</totfact>
</mgrwt>
</event>
<event>
12    1  0.1467288E-007  0.1225879E+04  0.7818608E-02  0.9090501E-01
          1   -1    0    0  501    0  0.00000000000E+00  0.00000000000E+00  0.23321427164E+04  0.23321427164E+04  0.00000000000E+00 0. -1.
         -1   -1    0    0    0  501 -0.00000000000E+00 -0.00000000000E+00 -0.16109436922E+03  0.16109436922E+03  0.00000000000E+00 0.  1.
         23    2    1    2    0    0  0.17786109108E+02  0.26658722105E+03  0.71168430460E+03  0.76577626779E+03  0.92377761357E+02 0.  0.
        254    2    1    2    0    0 -0.17786109108E+02 -0.26658722105E+03  0.14593640426E+04  0.17274608178E+04  0.88486856438E+03 0.  0.
        -24    2    4    4    0    0  0.14956003865E+03  0.23452488740E+03  0.17838340477E+03  0.33962894722E+03  0.78466902047E+02 0.  0.
         24    2    4    4    0    0 -0.16734614776E+03 -0.50111210845E+03  0.12809806378E+04  0.13878318706E+04  0.77767783912E+02 0.  0.
         13    1    3    3    0    0  0.17245003464E+02  0.15131221668E+03  0.52246264782E+03  0.54420583920E+03  0.00000000000E+00 0. -1.
        -13    1    3    3    0    0  0.54110564464E+00  0.11527500437E+03  0.18922165678E+03  0.22157042859E+03  0.00000000000E+00 0.  1.
          4    1    6    6  502    0 -0.44075044325E+01 -0.16098529422E+02  0.90981051346E+02  0.92499407830E+02  0.00000000000E+00 0. -1.
          1    1    5    5  503    0  0.72072283400E+02  0.17995745718E+03  0.12795111778E+03  0.23227266083E+03  0.00000000000E+00 0. -1.
         -2    1    5    5    0  503  0.77487755253E+02  0.54567430225E+02  0.50432286994E+02  0.10735628639E+03  0.00000000000E+00 0.  1.
         -3    1    6    6    0  502 -0.16293864333E+03 -0.48501357903E+03  0.11899995864E+04  0.12953324628E+04  0.00000000000E+00 0.  1.
<mgrwt>
<rscale>  0 0.12258794E+04</rscale>
<asrwt>0</asrwt>
<pdfrwt beam="1">  1        1 0.35879116E+00 0.12258794E+04</pdfrwt>
<pdfrwt beam="2">  1       -1 0.24783751E-01 0.12258794E+04</pdfrwt>
<totfact> 0.24951420E+01</totfact>
</mgrwt>
</event>
<event>
12    1  0.1467288E-007  0.1622068E+04  0.7818608E-02  0.8807104E-01
         -1   -1    0    0    0  501 -0.00000000000E+00  0.00000000000E+00  0.68044842560E+03  0.68044842560E+03  0.00000000000E+00 0.  1.
          1   -1    0    0  501    0  0.00000000000E+00 -0.00000000000E+00 -0.96668092565E+03  0.96668092565E+03  0.00000000000E+00 0. -1.
         23    2    1    2    0    0  0.17074437119E+03  0.47769213702E+03 -0.33016113680E+03  0.61186958601E+03  0.89635907741E+02 0.  0.
        254    2    1    2    0    0 -0.17074437119E+03 -0.47769213702E+03  0.43928636752E+02  0.10352597652E+04  0.90138207123E+03 0.  0.
        -24    2    4    4    0    0  0.29682694326E+03 -0.46560713033E+03  0.50265291217E+02  0.56065711231E+03  0.83147844376E+02 0.  0.
         24    2    4    4    0    0 -0.46757131445E+03 -0.12085006698E+02 -0.63366544652E+01  0.47460265293E+03  0.80240535287E+02 0.  0.
         13    1    3    3    0    0  0.80310879625E+02  0.21560203998E+03 -0.20307578070E+03  0.30687758102E+03  0.00000000000E+00 0. -1.
        -13    1    3    3    0    0  0.90433491562E+02  0.26209009705E+03 -0.12708535610E+03  0.30499200498E+03  0.00000000000E+00 0.  1.
          4    1    6    6  502    0 -0.41495695794E+03 -0.35400955162E+02 -0.13012954198E+02  0.41666754318E+03  0.00000000000E+00 0. -1.
          1    1    5    5  503    0  0.27013158924E+03 -0.36414458319E+03  0.44587176310E+02  0.45558793801E+03  0.00000000000E+00 0. -1.
         -2    1    5    5    0  503  0.26695354016E+02 -0.10146254714E+03  0.56781149071E+01  0.10506917429E+03  0.00000000000E+00 0.  1.
         -3    1    6    6    0  502 -0.52614356510E+02  0.23315948464E+02  0.66762997332E+01  0.57935109751E+02  0.00000000000E+00 0.  1.
<mgrwt>
<rscale>  0 0.16220684E+04</rscale>
<asrwt>0</asrwt>
<pdfrwt beam="1">  1        1 0.14872014E+00 0.16220684E+04</pdfrwt>
<pdfrwt beam="2">  1       -1 0.10468437E+00 0.16220684E+04</pdfrwt>
<totfact> 0.13203324E+01</totfact>
</mgrwt>
</event>
<event>
12    1  0.1467288E-007  0.1538985E+04  0.7818608E-02  0.8858934E-01
          2   -1    0    0  501    0  0.00000000000E+00  0.00000000000E+00  0.84167455018E+03  0.84167455018E+03  0.00000000000E+00 0. -1.
         -2   -1    0    0    0  501 -0.00000000000E+00 -0.00000000000E+00 -0.70350083204E+03  0.70350083204E+03  0.00000000000E+00 0.  1.
         23    2    1    2    0    0 -0.14136868516E+00 -0.21058864275E+03 -0.39163321799E+03  0.45510826808E+03  0.96950305837E+02 0.  0.
        254    2    1    2    0    0  0.14136868516E+00  0.21058864275E+03  0.52980693613E+03  0.10900671141E+04  0.92908736258E+03 0.  0.
        -24    2    4    4    0    0 -0.21298058091E+03  0.29003552404E+03 -0.12713273277E+03  0.39026132617E+03  0.81607829965E+02 0.  0.
         24    2    4    4    0    0  0.21312194960E+03 -0.79446881292E+02  0.65693966889E+03  0.69980578796E+03  0.80160089545E+02 0.  0.
         13    1    3    3    0    0  0.65586623807E+01 -0.42283528593E+02 -0.20303807583E+02  0.47361983118E+02  0.00000000000E+00 0. -1.
        -13    1    3    3    0    0 -0.67000310659E+01 -0.16830511416E+03 -0.37132941041E+03  0.40774628497E+03  0.00000000000E+00 0.  1.
          2    1    6    6  502    0 -0.22943408109E+01 -0.51287369141E+01  0.69338368581E+02  0.69565633035E+02  0.00000000000E+00 0. -1.
          3    1    5    5  503    0 -0.10286789243E+03  0.14405529683E+03 -0.10566631341E+03  0.20615310239E+03  0.00000000000E+00 0. -1.
         -4    1    5    5    0  503 -0.11011268848E+03  0.14598022721E+03 -0.21466419359E+02  0.18410822378E+03  0.00000000000E+00 0.  1.
         -1    1    6    6    0  502  0.21541629041E+03 -0.74318144378E+02  0.58760130031E+03  0.63024015493E+03  0.00000000000E+00 0.  1.
<mgrwt>
<rscale>  0 0.15389851E+04</rscale>
<asrwt>0</asrwt>
<pdfrwt beam="1">  1        2 0.12948839E+00 0.15389851E+04</pdfrwt>
<pdfrwt beam="2">  1       -2 0.10823090E+00 0.15389851E+04</pdfrwt>
<totfact> 0.21178375E+01</totfact>
</mgrwt>
</event>
<event>
12    1  0.1467288E-007  0.2780974E+04  0.7818608E-02  0.8309200E-01
          2   -1    0    0  501    0  0.00000000000E+00  0.00000000000E+00  0.12693251899E+04  0.12693251899E+04  0.00000000000E+00 0. -1.
         -2   -1    0    0    0  501 -0.00000000000E+00 -0.00000000000E+00 -0.15232137514E+04  0.15232137514E+04  0.00000000000E+00 0.  1.
         23    2    1    2    0    0  0.57300422134E+03 -0.10401663972E+04 -0.48806598912E+03  0.12870252931E+04  0.89138789373E+02 0.  0.
        254    2    1    2    0    0 -0.57300422134E+03  0.10401663972E+04  0.23417742757E+03  0.15055136482E+04  0.89523868659E+03 0.  0.
        -24    2    4    4    0    0 -0.45029903706E+03  0.42375115315E+02 -0.38803530050E+02  0.46083398366E+03  0.79355991446E+02 0.  0.
         24    2    4    4    0    0 -0.12270518427E+03  0.99779128186E+03  0.27298095762E+03  0.10446796646E+04  0.78695577712E+02 0.  0.
         13    1    3    3    0    0  0.14211376238E+02 -0.36143020399E+02 -0.57014992992E+00  0.38840780233E+02  0.00000000000E+00 0. -1.
        -13    1    3    3    0    0  0.55879284510E+03 -0.10040233768E+04 -0.48749583919E+03  0.12481845128E+04  0.00000000000E+00 0.  1.
          2    1    6    6  502    0 -0.78946733849E+02  0.36369071577E+03  0.11844689294E+03  0.39055497689E+03  0.00000000000E+00 0. -1.
          1    1    5    5  503    0 -0.74116065165E+00  0.76099455290E+01  0.25044594823E+01  0.80456763149E+01  0.00000000000E+00 0. -1.
         -2    1    5    5    0  503 -0.44955787641E+03  0.34765169786E+02 -0.41307989532E+02  0.45278830735E+03  0.00000000000E+00 0.  1.
         -1    1    6    6    0  502 -0.43758450425E+02  0.63410056609E+03  0.15453406468E+03  0.65412468769E+03  0.00000000000E+00 0.  1.
<mgrwt>
<rscale>  0 0.27809736E+04</rscale>
<asrwt>0</asrwt>
<pdfrwt beam="1">  1        2 0.19528080E+00 0.27809736E+04</pdfrwt>
<pdfrwt beam="2">  1       -2 0.23434058E+00 0.27809736E+04</pdfrwt>
<totfact> 0.12061407E+00</totfact>
</mgrwt>
</event>
<event>
12    1  0.1467288E-007  0.1233702E+04  0.7818608E-02  0.9083858E-01
          2   -1    0    0  501    0  0.00000000000E+00  0.00000000000E+00  0.12321316473E+04  0.12321316473E+04  0.00000000000E+00 0. -1.
         -2   -1    0    0    0  501 -0.00000000000E+00 -0.00000000000E+00 -0.30881866712E+03  0.30881866712E+03  0.00000000000E+00 0.  1.
         23    2    1    2    0    0  0.24180273404E+02  0.22685854738E+03  0.65228700562E+01  0.24358334873E+03  0.85092971524E+02 0.  0.
        254    2    1    2    0    0 -0.24180273404E+02 -0.22685854738E+03  0.91679011016E+03  0.12973669657E+04  0.88916109426E+03 0.  0.
        -24    2    4    4    0    0  0.27692982250E+03 -0.37019367239E+02 -0.21082192889E+02  0.29082778269E+03  0.77947291077E+02 0.  0.
         24    2    4    4    0    0 -0.30111009591E+03 -0.18983918014E+03  0.93787230304E+03  0.10065391830E+04  0.82525547579E+02 0.  0.
         13    1    3    3    0    0  0.22987075816E+02  0.15866651226E+03 -0.34501416976E+02  0.16399333993E+03  0.00000000000E+00 0.  1.
        -13    1    3    3    0    0  0.11931975878E+01  0.68192035113E+02  0.41024287032E+02  0.79590008794E+02  0.00000000000E+00 0. -1.
          2    1    6    6  502    0 -0.21257165354E+03 -0.17531502861E+03  0.71922027779E+03  0.77019469950E+03  0.00000000000E+00 0. -1.
          1    1    5    5  503    0  0.27284889678E+03 -0.45128212403E+02 -0.29906137852E+02  0.27816803035E+03  0.00000000000E+00 0. -1.
         -2    1    5    5    0  503  0.40809257257E+01  0.81088451638E+01  0.88239449629E+01  0.12659752343E+02  0.00000000000E+00 0.  1.
         -1    1    6    6    0  502 -0.88538442365E+02 -0.14524151529E+02  0.21865202525E+03  0.23634448354E+03  0.00000000000E+00 0.  1.
<mgrwt>
<rscale>  0 0.12337022E+04</rscale>
<asrwt>0</asrwt>
<pdfrwt beam="1">  1        2 0.18955871E+00 0.12337022E+04</pdfrwt>
<pdfrwt beam="2">  1       -2 0.47510565E-01 0.12337022E+04</pdfrwt>
<totfact> 0.74888875E+01</totfact>
</mgrwt>
</event>
<event>
12    1  0.1467288E-007  0.1270697E+04  0.7818608E-02  0.9053131E-01
         -2   -1    0    0    0  501 -0.00000000000E+00  0.00000000000E+00  0.66919557198E+03  0.66919557198E+03  0.00000000000E+00 0.  1.
          2   -1    0    0  501    0  0.00000000000E+00 -0.00000000000E+00 -0.60321305227E+03  0.60321305227E+03  0.00000000000E+00 0. -1.
         23    2    1    2    0    0  0.17374299752E+03 -0.10874285205E+03  0.25132663464E+03  0.33705546624E+03  0.91813250572E+02 0.  0.
        254    2    1    2    0    0 -0.17374299752E+03  0.10874285205E+03 -0.18534411493E+03  0.93535315801E+03  0.89360027541E+03 0.  0.
        -24    2    4    4    0    0 -0.35324435842E+03 -0.18145465293E+03  0.16598501759E+03  0.43777617900E+03  0.79934904871E+02 0.  0.
         24    2    4    4    0    0  0.17950136090E+03  0.29019750497E+03 -0.35132913252E+03  0.49757697901E+03  0.87837123294E+02 0.  0.
         11    1    3    3    0    0 -0.87654689923E+01  0.16596423683E+01  0.23953779773E+01  0.92371908662E+01  0.00000000000E+00 0. -1.
        -11    1    3    3    0    0  0.18250846651E+03 -0.11040249442E+03  0.24893125666E+03  0.32781827537E+03  0.00000000000E+00 0.  1.
          4    1    6    6  502    0  0.30281849658E+02  0.26362380149E+02 -0.85322016174E+02  0.94296404756E+02  0.00000000000E+00 0. -1.
          3    1    5    5  503    0 -0.30030898940E+02  0.20270513535E+01 -0.14635495223E+01  0.30134793935E+02  0.00000000000E+00 0. -1.
         -4    1    5    5    0  503 -0.32321345948E+03 -0.18348170428E+03  0.16744856711E+03  0.40764138507E+03  0.00000000000E+00 0.  1.
         -3    1    6    6    0  502  0.14921951124E+03  0.26383512483E+03 -0.26600711634E+03  0.40328057425E+03  0.00000000000E+00 0.  1.
<mgrwt>
<rscale>  0 0.12706967E+04</rscale>
<asrwt>0</asrwt>
<pdfrwt beam="1">  1        2 0.92802008E-01 0.12706967E+04</pdfrwt>
<pdfrwt beam="2">  1       -2 0.10295316E+00 0.12706967E+04</pdfrwt>
<totfact> 0.37301266E+01</totfact>
</mgrwt>
</event>
<event>
12    1  0.1467288E-007  0.2335744E+04  0.7818608E-02  0.8463960E-01
          2   -1    0    0  501    0  0.00000000000E+00  0.00000000000E+00  0.19798854202E+04  0.19798854202E+04  0.00000000000E+00 0. -1.
         -2   -1    0    0    0  501 -0.00000000000E+00 -0.00000000000E+00 -0.68889092624E+03  0.68889092624E+03  0.00000000000E+00 0.  1.
         23    2    1    2    0    0 -0.52970557525E+03 -0.38535570794E+03  0.13932279193E+04  0.15422190492E+04  0.90931524946E+02 0.  0.
        254    2    1    2    0    0  0.52970557525E+03  0.38535570794E+03 -0.10223342541E+03  0.11265572973E+04  0.91081976959E+03 0.  0.
        -24    2    4    4    0    0 -0.10405782539E+03  0.14352326132E+03  0.28081905675E+03  0.34293048186E+03  0.85527862071E+02 0.  0.
         24    2    4    4    0    0  0.63376340064E+03  0.24183244662E+03 -0.38305248216E+03  0.78362681541E+03  0.84869320177E+02 0.  0.
         13    1    3    3    0    0 -0.50726998999E+03 -0.38811489955E+03  0.13440714159E+04  0.14881142392E+04  0.00000000000E+00 0. -1.
        -13    1    3    3    0    0 -0.22435585257E+02  0.27591916100E+01  0.49156503469E+02  0.54104809929E+02  0.00000000000E+00 0.  1.
          2    1    6    6  502    0  0.11289685972E+03  0.76345113552E+02 -0.61449179123E+02  0.14950009670E+03  0.00000000000E+00 0. -1.
          1    1    5    5  503    0  0.93699570751E+01  0.44366443524E+02  0.52339243180E+02  0.69250081467E+02  0.00000000000E+00 0. -1.
         -2    1    5    5    0  503 -0.11342778247E+03  0.99156817794E+02  0.22847981357E+03  0.27368040039E+03  0.00000000000E+00 0.  1.
         -1    1    6    6    0  502  0.52086654092E+03  0.16548733307E+03 -0.32160330304E+03  0.63412671871E+03  0.00000000000E+00 0.  1.
<mgrwt>
<rscale>  0 0.23357441E+04</rscale>
<asrwt>0</asrwt>
<pdfrwt beam="1">  1        2 0.30459775E+00 0.23357441E+04</pdfrwt>
<pdfrwt beam="2">  1       -2 0.10598322E+00 0.23357441E+04</pdfrwt>
<totfact> 0.44543773E+00</totfact>
</mgrwt>
</event>
<event>
12    1  0.1467288E-007  0.2868724E+04  0.7818608E-02  0.8282244E-01
          2   -1    0    0  501    0  0.00000000000E+00  0.00000000000E+00  0.11091037978E+04  0.11091037978E+04  0.00000000000E+00 0. -1.
         -2   -1    0    0    0  501 -0.00000000000E+00 -0.00000000000E+00 -0.18550063621E+04  0.18550063621E+04  0.00000000000E+00 0.  1.
         23    2    1    2    0    0 -0.49750767624E+03  0.66052899312E+03 -0.13665117399E+04  0.15998571576E+04  0.91521312548E+02 0.  0.
        254    2    1    2    0    0  0.49750767624E+03 -0.66052899312E+03  0.62060917557E+03  0.13642530023E+04  0.89006632720E+03 0.  0.
        -24    2    4    4    0    0  0.74589744139E+03 -0.45466264808E+03  0.50610418241E+03  0.10126689214E+04  0.79219848313E+02 0.  0.
         24    2    4    4    0    0 -0.24838976514E+03 -0.20586634504E+03  0.11450499316E+03  0.35158408086E+03  0.80134543164E+02 0.  0.
         11    1    3    3    0    0 -0.26230514079E+02  0.69639381980E+02 -0.95083006670E+02  0.12074130010E+03  0.00000000000E+00 0. -1.
        -11    1    3    3    0    0 -0.47127716216E+03  0.59088961114E+03 -0.12714287332E+04  0.14791158575E+04  0.00000000000E+00 0.  1.
          4    1    6    6  502    0 -0.18969686017E+03 -0.10813452698E+03  0.78416321885E+02  0.23200666849E+03  0.00000000000E+00 0. -1.
          1    1    5    5  503    0  0.41309685624E+03 -0.23103690181E+03  0.31457756271E+03  0.56831866553E+03  0.00000000000E+00 0. -1.
         -2    1    5    5    0  503  0.33280058515E+03 -0.22362574626E+03  0.19152661970E+03  0.44435025590E+03  0.00000000000E+00 0.  1.
         -3    1    6    6    0  502 -0.58692904972E+02 -0.97731818066E+02  0.36088671273E+02  0.11957741238E+03  0.00000000000E+00 0.  1.
<mgrwt>
<rscale>  0 0.28687242E+04</rscale>
<asrwt>0</asrwt>
<pdfrwt beam="1">  1        2 0.17063136E+00 0.28687242E+04</pdfrwt>
<pdfrwt beam="2">  1       -2 0.28538559E+00 0.28687242E+04</pdfrwt>
<totfact> 0.72652757E-01</totfact>
</mgrwt>
</event>
<event>
12    1  0.1467288E-007  0.1969495E+04  0.7818608E-02  0.8621017E-01
          1   -1    0    0  501    0  0.00000000000E+00  0.00000000000E+00  0.15278887464E+04  0.15278887464E+04  0.00000000000E+00 0. -1.
         -1   -1    0    0    0  501 -0.00000000000E+00 -0.00000000000E+00 -0.63468501581E+03  0.63468501581E+03  0.00000000000E+00 0.  1.
         23    2    1    2    0    0  0.11684191493E+03 -0.22358984636E+03 -0.44547279799E+03  0.51992052264E+03  0.90702169964E+02 0.  0.
        254    2    1    2    0    0 -0.11684191493E+03  0.22358984636E+03  0.13386765286E+04  0.16426532396E+04  0.91793810511E+03 0.  0.
        -24    2    4    4    0    0 -0.88082427805E+02  0.35672118890E+03  0.93527925695E+02  0.38766520502E+03  0.80798004907E+02 0.  0.
         24    2    4    4    0    0 -0.28759487122E+02 -0.13313134254E+03  0.12451486029E+04  0.12549880346E+04  0.77774424497E+02 0.  0.
         11    1    3    3    0    0 -0.91223556775E+01 -0.62615019794E+02 -0.93431324730E+02  0.11284179420E+03  0.00000000000E+00 0. -1.
        -11    1    3    3    0    0  0.12596427060E+03 -0.16097482656E+03 -0.35204147326E+03  0.40707872844E+03  0.00000000000E+00 0.  1.
          4    1    6    6  502    0  0.23038286283E+02 -0.71217471691E+02  0.67904595162E+03  0.68315890928E+03  0.00000000000E+00 0. -1.
          1    1    5    5  503    0 -0.76359954796E+02  0.33235453209E+03  0.62824525022E+02  0.34675250344E+03  0.00000000000E+00 0. -1.
         -2    1    5    5    0  503 -0.11722473009E+02  0.24366656814E+02  0.30703400673E+02  0.40912701581E+02  0.00000000000E+00 0.  1.
         -3    1    6    6    0  502 -0.51797773405E+02 -0.61913870853E+02  0.56610265130E+03  0.57182912530E+03  0.00000000000E+00 0.  1.
<mgrwt>
<rscale>  0 0.19694955E+04</rscale>
<asrwt>0</asrwt>
<pdfrwt beam="1">  1        1 0.23505981E+00 0.19694955E+04</pdfrwt>
<pdfrwt beam="2">  1       -1 0.97643849E-01 0.19694955E+04</pdfrwt>
<totfact> 0.58562384E+00</totfact>
</mgrwt>
</event>
<event>
12    1  0.1467288E-007  0.1218296E+04  0.7818608E-02  0.9096991E-01
         -2   -1    0    0    0  501 -0.00000000000E+00  0.00000000000E+00  0.23150304993E+03  0.23150304993E+03  0.00000000000E+00 0.  1.
          2   -1    0    0  501    0  0.00000000000E+00 -0.00000000000E+00 -0.16028354300E+04  0.16028354300E+04  0.00000000000E+00 0. -1.
         23    2    1    2    0    0  0.62017542643E+02 -0.21763748422E+03 -0.50906531545E+03  0.56471639662E+03  0.92438428613E+02 0.  0.
        254    2    1    2    0    0 -0.62017542643E+02  0.21763748422E+03 -0.86226706467E+03  0.12696220834E+04  0.90400414468E+03 0.  0.
        -24    2    4    4    0    0  0.15228277260E+03  0.12081645902E+03 -0.97329304898E+03  0.99550149665E+03  0.77053299975E+02 0.  0.
         24    2    4    4    0    0 -0.21430031525E+03  0.96821025197E+02  0.11102598431E+03  0.27412058670E+03  0.86697121221E+02 0.  0.
         13    1    3    3    0    0  0.57064212543E+02 -0.20148478768E+03 -0.50589865903E+03  0.54752707442E+03  0.00000000000E+00 0. -1.
        -13    1    3    3    0    0  0.49533301000E+01 -0.16152696540E+02 -0.31666564175E+01  0.17189322193E+02  0.00000000000E+00 0.  1.
          2    1    6    6  502    0 -0.13574558136E+02  0.13588780093E+01  0.37661198587E+02  0.40055974049E+02  0.00000000000E+00 0. -1.
          1    1    5    5  503    0  0.14988358022E+02  0.53424510370E+02 -0.22526937105E+03  0.23200241102E+03  0.00000000000E+00 0. -1.
         -2    1    5    5    0  503  0.13729441458E+03  0.67391948652E+02 -0.74802367793E+03  0.76349908563E+03  0.00000000000E+00 0.  1.
         -1    1    6    6    0  502 -0.20072575711E+03  0.95462147187E+02  0.73364785723E+02  0.23406461266E+03  0.00000000000E+00 0.  1.
<mgrwt>
<rscale>  0 0.12182960E+04</rscale>
<asrwt>0</asrwt>
<pdfrwt beam="1">  1        2 0.24659006E+00 0.12182960E+04</pdfrwt>
<pdfrwt beam="2">  1       -2 0.35615855E-01 0.12182960E+04</pdfrwt>
<totfact> 0.81099492E+01</totfact>
</mgrwt>
</event>
<event>
12    1  0.1467288E-007  0.1990973E+04  0.7818608E-02  0.8610853E-01
          1   -1    0    0  501    0  0.00000000000E+00  0.00000000000E+00  0.11643439770E+04  0.11643439770E+04  0.00000000000E+00 0. -1.
         -1   -1    0    0    0  501 -0.00000000000E+00 -0.00000000000E+00 -0.85111767473E+03  0.85111767473E+03  0.00000000000E+00 0.  1.
         23    2    1    2    0    0  0.14033056588E+02 -0.66757486470E+03  0.54630275368E+03  0.86805866779E+03  0.96052201385E+02 0.  0.
        254    2    1    2    0    0 -0.14033056588E+02  0.66757486470E+03 -0.23307645139E+03  0.11474029840E+04  0.90352412737E+03 0.  0.
        -24    2    4    4    0    0  0.42248208684E+02  0.95373398798E+02  0.31992082946E+03  0.34577246575E+03  0.79550390372E+02 0.  0.
         24    2    4    4    0    0 -0.56281265272E+02  0.57220146590E+03 -0.55299728085E+03  0.80163051821E+03  0.78888508001E+02 0.  0.
         11    1    3    3    0    0 -0.19739752583E+02 -0.55485447595E+03  0.42629414389E+03  0.69998560301E+03  0.00000000000E+00 0. -1.
        -11    1    3    3    0    0  0.33772809172E+02 -0.11272038875E+03  0.12000860979E+03  0.16807306477E+03  0.00000000000E+00 0.  1.
          2    1    6    6  502    0  0.56326951833E+01  0.23235737877E+02 -0.70285285128E+01  0.24920412974E+02  0.00000000000E+00 0. -1.
          3    1    5    5  503    0 -0.15061068137E+02  0.19948694939E+02  0.14222264916E+03  0.14440245198E+03  0.00000000000E+00 0. -1.
         -4    1    5    5    0  503  0.57309276821E+02  0.75424703859E+02  0.17769818031E+03  0.20137001377E+03  0.00000000000E+00 0.  1.
         -3    1    6    6    0  502 -0.61913960455E+02  0.54896572803E+03 -0.54596875234E+03  0.77671010524E+03  0.00000000000E+00 0.  1.
<mgrwt>
<rscale>  0 0.19909734E+04</rscale>
<asrwt>0</asrwt>
<pdfrwt beam="1">  1        1 0.17912984E+00 0.19909734E+04</pdfrwt>
<pdfrwt beam="2">  1       -1 0.13094118E+00 0.19909734E+04</pdfrwt>
<totfact> 0.52480408E+00</totfact>
</mgrwt>
</event>
<event>
12    1  0.1467288E-007  0.1468261E+04  0.7818608E-02  0.8905838E-01
          1   -1    0    0  501    0  0.00000000000E+00  0.00000000000E+00  0.11132454480E+04  0.11132454480E+04  0.00000000000E+00 0. -1.
         -1   -1    0    0    0  501 -0.00000000000E+00 -0.00000000000E+00 -0.48412254987E+03  0.48412254987E+03  0.00000000000E+00 0.  1.
         23    2    1    2    0    0 -0.58357202175E+02  0.14942577995E+03  0.65235708996E+03  0.67567868784E+03  0.72376029299E+02 0.  0.
        254    2    1    2    0    0  0.58357202175E+02 -0.14942577995E+03 -0.23234191845E+02  0.92168931002E+03  0.90732448979E+03 0.  0.
        -24    2    4    4    0    0 -0.18149782091E+03  0.20382956156E+03  0.27407086295E+03  0.39497313651E+03  0.80006196537E+02 0.  0.
         24    2    4    4    0    0  0.23985502308E+03 -0.35325534151E+03 -0.29730505479E+03  0.52671617351E+03  0.81974773138E+02 0.  0.
         11    1    3    3    0    0 -0.58642907931E+00  0.12142466806E+02  0.85373963415E+01  0.14854983523E+02  0.00000000000E+00 0.  1.
        -11    1    3    3    0    0 -0.57770773096E+02  0.13728331314E+03  0.64381969362E+03  0.66082370432E+03  0.00000000000E+00 0. -1.
          4    1    6    6  502    0 -0.34530698969E+01  0.19240312959E+01 -0.99011374057E+00  0.40750353814E+01  0.00000000000E+00 0. -1.
          1    1    5    5  503    0  0.89742013115E+00  0.26089834564E+02  0.47025193310E+02  0.53785254823E+02  0.00000000000E+00 0. -1.
         -2    1    5    5    0  503 -0.18239524104E+03  0.17773972700E+03  0.22704566963E+03  0.34118788168E+03  0.00000000000E+00 0.  1.
         -3    1    6    6    0  502  0.24330809298E+03 -0.35517937281E+03 -0.29631494105E+03  0.52264113813E+03  0.00000000000E+00 0.  1.
<mgrwt>
<rscale>  0 0.14682605E+04</rscale>
<asrwt>0</asrwt>
<pdfrwt beam="1">  1        1 0.17126853E+00 0.14682605E+04</pdfrwt>
<pdfrwt beam="2">  1       -1 0.74480393E-01 0.14682605E+04</pdfrwt>
<totfact> 0.21803128E+01</totfact>
</mgrwt>
</event>
<event>
12    1  0.1467288E-007  0.1392577E+04  0.7818608E-02  0.8959210E-01
          1   -1    0    0  501    0  0.00000000000E+00  0.00000000000E+00  0.82392533585E+03  0.82392533585E+03  0.00000000000E+00 0. -1.
         -1   -1    0    0    0  501 -0.00000000000E+00 -0.00000000000E+00 -0.58842401697E+03  0.58842401697E+03  0.00000000000E+00 0.  1.
         23    2    1    2    0    0 -0.23407772413E+03  0.20565059422E+03 -0.18177230448E+03  0.37087161209E+03  0.86139620065E+02 0.  0.
        254    2    1    2    0    0  0.23407772413E+03 -0.20565059422E+03  0.41727362335E+03  0.10414777407E+04  0.90192796822E+03 0.  0.
        -24    2    4    4    0    0 -0.18844958080E+03  0.25087827894E+03  0.10277597502E+03  0.33976035037E+03  0.80131387686E+02 0.  0.
         24    2    4    4    0    0  0.42252730493E+03 -0.45652887317E+03  0.31449764833E+03  0.70171739036E+03  0.80935713219E+02 0.  0.
         11    1    3    3    0    0 -0.12946341505E+03  0.57110069405E+02 -0.75271958567E+02  0.16027539927E+03  0.00000000000E+00 0. -1.
        -11    1    3    3    0    0 -0.10461430907E+03  0.14854052482E+03 -0.10650034591E+03  0.21059621282E+03  0.00000000000E+00 0.  1.
          2    1    6    6  502    0  0.35496316502E+03 -0.34249168400E+03  0.26723504027E+03  0.56099373337E+03  0.00000000000E+00 0. -1.
          1    1    5    5  503    0 -0.16752926393E+03  0.17804714170E+03  0.99404261742E+02  0.26390916277E+03  0.00000000000E+00 0. -1.
         -2    1    5    5    0  503 -0.20920316870E+02  0.72831137247E+02  0.33717132829E+01  0.75851187605E+02  0.00000000000E+00 0.  1.
         -3    1    6    6    0  502  0.67564139914E+02 -0.11403718917E+03  0.47262608055E+02  0.14072365699E+03  0.00000000000E+00 0.  1.
<mgrwt>
<rscale>  0 0.13925767E+04</rscale>
<asrwt>0</asrwt>
<pdfrwt beam="1">  1        1 0.12675774E+00 0.13925767E+04</pdfrwt>
<pdfrwt beam="2">  1       -1 0.90526772E-01 0.13925767E+04</pdfrwt>
<totfact> 0.24532783E+01</totfact>
</mgrwt>
</event>
<event>
12    1  0.1467288E-007  0.1367272E+04  0.7818608E-02  0.8977855E-01
         -1   -1    0    0    0  501 -0.00000000000E+00  0.00000000000E+00  0.11951721435E+04  0.11951721435E+04  0.00000000000E+00 0.  1.
          1   -1    0    0  501    0  0.00000000000E+00 -0.00000000000E+00 -0.39103859184E+03  0.39103859184E+03  0.00000000000E+00 0. -1.
         23    2    1    2    0    0 -0.27909735740E+03 -0.92245926900E+02  0.52428964480E+03  0.60784286999E+03  0.90491309046E+02 0.  0.
        254    2    1    2    0    0  0.27909735740E+03  0.92245926900E+02  0.27984390685E+03  0.97836786534E+03  0.89021706443E+03 0.  0.
        -24    2    4    4    0    0 -0.10030831172E+03  0.14062448472E+03  0.49622635185E+03  0.53146605855E+03  0.79865987900E+02 0.  0.
         24    2    4    4    0    0  0.37940566912E+03 -0.48378557816E+02 -0.21638244500E+03  0.44690180679E+03  0.81306308456E+02 0.  0.
         11    1    3    3    0    0 -0.58226007339E+02  0.16567379057E+02  0.86799979482E+02  0.10582524471E+03  0.00000000000E+00 0. -1.
        -11    1    3    3    0    0 -0.22087135006E+03 -0.10881330596E+03  0.43748966532E+03  0.50201762528E+03  0.00000000000E+00 0.  1.
          4    1    6    6  502    0  0.37881545639E+03 -0.43357109383E+02 -0.20165402704E+03  0.43132972951E+03  0.00000000000E+00 0. -1.
          1    1    5    5  503    0 -0.10381552486E+03  0.14210050746E+03  0.49729356331E+03  0.52751408089E+03  0.00000000000E+00 0. -1.
         -2    1    5    5    0  503  0.35072131403E+01 -0.14760227402E+01 -0.10672114670E+01  0.39519776639E+01  0.00000000000E+00 0.  1.
         -3    1    6    6    0  502  0.59021272586E+00 -0.50214484329E+01 -0.14728417955E+02  0.15572077282E+02  0.00000000000E+00 0.  1.
<mgrwt>
<rscale>  0 0.13672724E+04</rscale>
<asrwt>0</asrwt>
<pdfrwt beam="1">  1        1 0.60159784E-01 0.13672724E+04</pdfrwt>
<pdfrwt beam="2">  1       -1 0.18387264E+00 0.13672724E+04</pdfrwt>
<totfact> 0.11800723E+01</totfact>
</mgrwt>
</event>
<event>
12    1  0.1467288E-007  0.1995688E+04  0.7818608E-02  0.8608639E-01
          2   -1    0    0  501    0  0.00000000000E+00  0.00000000000E+00  0.19885156340E+04  0.19885156340E+04  0.00000000000E+00 0. -1.
         -2   -1    0    0    0  501 -0.00000000000E+00 -0.00000000000E+00 -0.50072142834E+03  0.50072142834E+03  0.00000000000E+00 0.  1.
         23    2    1    2    0    0  0.71387719595E+03  0.17037811001E+03  0.21897433518E+03  0.77103025555E+03  0.88817477105E+02 0.  0.
        254    2    1    2    0    0 -0.71387719595E+03 -0.17037811001E+03  0.12688198704E+04  0.17182068068E+04  0.89648280289E+03 0.  0.
        -24    2    4    4    0    0 -0.90172215970E+02 -0.11435273886E+03  0.10304351110E+04  0.10435064119E+04  0.76821457075E+02 0.  0.
         24    2    4    4    0    0 -0.62370497998E+03 -0.56025371142E+02  0.23838475941E+03  0.67470039482E+03  0.79035340176E+02 0.  0.
         11    1    3    3    0    0  0.65592733953E+03  0.16828902691E+03  0.22288971385E+03  0.71291072082E+03  0.00000000000E+00 0.  1.
        -11    1    3    3    0    0  0.57949856414E+02  0.20890830913E+01 -0.39153786621E+01  0.58119534725E+02  0.00000000000E+00 0. -1.
          4    1    6    6  502    0 -0.38935724823E+02 -0.71540494642E+01 -0.40302072483E+01  0.39792130651E+02  0.00000000000E+00 0. -1.
          3    1    5    5  503    0 -0.44136369751E+02 -0.52330781738E+02  0.24822863988E+03  0.25749560677E+03  0.00000000000E+00 0. -1.
         -4    1    5    5    0  503 -0.46035846220E+02 -0.62021957127E+02  0.78220647116E+03  0.78601080516E+03  0.00000000000E+00 0.  1.
         -3    1    6    6    0  502 -0.58476925516E+03 -0.48871321678E+02  0.24241496666E+03  0.63490826417E+03  0.00000000000E+00 0.  1.
<mgrwt>
<rscale>  0 0.19956877E+04</rscale>
<asrwt>0</asrwt>
<pdfrwt beam="1">  1        2 0.30592548E+00 0.19956877E+04</pdfrwt>
<pdfrwt beam="2">  1       -2 0.77034067E-01 0.19956877E+04</pdfrwt>
<totfact> 0.94795736E+00</totfact>
</mgrwt>
</event>
<event>
12    1  0.1467288E-007  0.1638030E+04  0.7818608E-02  0.8797519E-01
          2   -1    0    0  501    0  0.00000000000E+00  0.00000000000E+00  0.29286246772E+03  0.29286246772E+03  0.00000000000E+00 0.  1.
         -2   -1    0    0    0  501 -0.00000000000E+00 -0.00000000000E+00 -0.22904469976E+04  0.22904469976E+04  0.00000000000E+00 0. -1.
         23    2    1    2    0    0 -0.52205993184E+03 -0.87457644289E+02 -0.37571603052E+03  0.65489868757E+03  0.86800595711E+02 0.  0.
        254    2    1    2    0    0  0.52205993184E+03  0.87457644289E+02 -0.16218684994E+04  0.19284107778E+04  0.89895232719E+03 0.  0.
        -24    2    4    4    0    0  0.19508344902E+03  0.23937393581E+03 -0.15090028216E+04  0.15423543615E+04  0.80062649328E+02 0.  0.
         24    2    4    4    0    0  0.32697648282E+03 -0.15191629152E+03 -0.11286567784E+03  0.38605641626E+03  0.79427421958E+02 0.  0.
         13    1    3    3    0    0 -0.28995713885E+03 -0.75292304432E+02 -0.16961005634E+03  0.34425520285E+03  0.00000000000E+00 0.  1.
        -13    1    3    3    0    0 -0.23210279299E+03 -0.12165339856E+02 -0.20610597418E+03  0.31064348472E+03  0.00000000000E+00 0. -1.
          2    1    6    6  502    0  0.64743038655E+02 -0.41974583616E+02  0.70018597031E+01  0.77476143189E+02  0.00000000000E+00 0. -1.
          3    1    5    5  503    0  0.32050325091E+02  0.27078639772E+02 -0.10517925038E+03  0.11323935174E+03  0.00000000000E+00 0. -1.
         -4    1    5    5    0  503  0.16303312393E+03  0.21229529603E+03 -0.14038235712E+04  0.14291150098E+04  0.00000000000E+00 0.  1.
         -1    1    6    6    0  502  0.26223344416E+03 -0.10994170790E+03 -0.11986753754E+03  0.30858027307E+03  0.00000000000E+00 0.  1.
<mgrwt>
<rscale>  0 0.16380305E+04</rscale>
<asrwt>0</asrwt>
<pdfrwt beam="1">  1        2 0.45055763E-01 0.16380305E+04</pdfrwt>
<pdfrwt beam="2">  1       -2 0.35237647E+00 0.16380305E+04</pdfrwt>
<totfact> 0.16295709E+00</totfact>
</mgrwt>
</event>
<event>
12    1  0.1467288E-007  0.1825913E+04  0.7818608E-02  0.8692639E-01
         -2   -1    0    0    0  501 -0.00000000000E+00  0.00000000000E+00  0.28650561267E+03  0.28650561267E+03  0.00000000000E+00 0.  1.
          2   -1    0    0  501    0  0.00000000000E+00 -0.00000000000E+00 -0.29091570753E+04  0.29091570753E+04  0.00000000000E+00 0. -1.
         23    2    1    2    0    0 -0.30338855149E+03 -0.61123905287E+03 -0.10316559538E+04  0.12403668534E+04  0.92402007692E+02 0.  0.
        254    2    1    2    0    0  0.30338855149E+03  0.61123905287E+03 -0.15909955088E+04  0.19552958346E+04  0.90898696291E+03 0.  0.
        -24    2    4    4    0    0 -0.21301082118E+03  0.15776019363E+03 -0.70651775840E+02  0.28491221965E+03  0.76950703964E+02 0.  0.
         24    2    4    4    0    0  0.51639937266E+03  0.45347885924E+03 -0.15203437330E+04  0.16703836150E+04  0.80155890484E+02 0.  0.
         11    1    3    3    0    0 -0.25052531907E+03 -0.44983427934E+03 -0.82977425900E+03  0.97654448709E+03  0.00000000000E+00 0. -1.
        -11    1    3    3    0    0 -0.52863232423E+02 -0.16140477353E+03 -0.20188169479E+03  0.26382236629E+03  0.00000000000E+00 0.  1.
          2    1    6    6  502    0  0.13848682969E+02  0.11196689941E+02 -0.81508508915E+02  0.83431342499E+02  0.00000000000E+00 0. -1.
          1    1    5    5  503    0 -0.57401083643E+02  0.86663577927E+02 -0.38408150214E+02  0.11081807680E+03  0.00000000000E+00 0. -1.
         -2    1    5    5    0  503 -0.15560973753E+03  0.71096615708E+02 -0.32243625626E+02  0.17409414285E+03  0.00000000000E+00 0.  1.
         -1    1    6    6    0  502  0.50255068969E+03  0.44228216930E+03 -0.14388352241E+04  0.15869522725E+04  0.00000000000E+00 0.  1.
<mgrwt>
<rscale>  0 0.18259133E+04</rscale>
<asrwt>0</asrwt>
<pdfrwt beam="1">  1        2 0.44756260E+00 0.18259133E+04</pdfrwt>
<pdfrwt beam="2">  1       -2 0.44077789E-01 0.18259133E+04</pdfrwt>
<totfact> 0.91473391E+00</totfact>
</mgrwt>
</event>
<event>
12    1  0.1467288E-007  0.1990048E+04  0.7818608E-02  0.8611287E-01
         -2   -1    0    0    0  501 -0.00000000000E+00  0.00000000000E+00  0.78029491468E+03  0.78029491468E+03  0.00000000000E+00 0. -1.
          2   -1    0    0  501    0  0.00000000000E+00 -0.00000000000E+00 -0.12688449095E+04  0.12688449095E+04  0.00000000000E+00 0.  1.
         23    2    1    2    0    0 -0.61936541245E+03  0.76558095208E+02  0.30362230878E+03  0.70030474114E+03  0.93624612100E+02 0.  0.
        254    2    1    2    0    0  0.61936541245E+03 -0.76558095208E+02 -0.79217230363E+03  0.13488350831E+04  0.89573682887E+03 0.  0.
        -24    2    4    4    0    0  0.16476460674E+03  0.21218487571E+03  0.10483944702E+03  0.29935432875E+03  0.80323765932E+02 0.  0.
         24    2    4    4    0    0  0.45460080571E+03 -0.28874297092E+03 -0.89701175064E+03  0.10494807543E+04  0.82130244650E+02 0.  0.
         13    1    3    3    0    0 -0.15340938488E+03 -0.11560081698E+02  0.10450591987E+03  0.18598269314E+03  0.00000000000E+00 0.  1.
        -13    1    3    3    0    0 -0.46595602757E+03  0.88118176905E+02  0.19911638891E+03  0.51432204800E+03  0.00000000000E+00 0. -1.
          4    1    6    6  502    0  0.37395980813E+03 -0.22311543921E+03 -0.77691801566E+03  0.89063350508E+03  0.00000000000E+00 0. -1.
          1    1    5    5  503    0  0.13275201602E+03  0.19375400429E+03  0.62253227101E+02  0.24297978562E+03  0.00000000000E+00 0. -1.
         -2    1    5    5    0  503  0.32012590723E+02  0.18430871423E+02  0.42586219915E+02  0.56374543128E+02  0.00000000000E+00 0.  1.
         -3    1    6    6    0  502  0.80640997583E+02 -0.65627531715E+02 -0.12009373499E+03  0.15884724925E+03  0.00000000000E+00 0.  1.
<mgrwt>
<rscale>  0 0.19900485E+04</rscale>
<asrwt>0</asrwt>
<pdfrwt beam="1">  1        2 0.19520691E+00 0.19900485E+04</pdfrwt>
<pdfrwt beam="2">  1       -2 0.12004537E+00 0.19900485E+04</pdfrwt>
<totfact> 0.85059280E+00</totfact>
</mgrwt>
</event>
<event>
12    1  0.1467288E-007  0.2879967E+04  0.7818608E-02  0.8278863E-01
          1   -1    0    0  501    0  0.00000000000E+00  0.00000000000E+00  0.88770129561E+03  0.88770129561E+03  0.00000000000E+00 0.  1.
         -1   -1    0    0    0  501 -0.00000000000E+00 -0.00000000000E+00 -0.23358671001E+04  0.23358671001E+04  0.00000000000E+00 0. -1.
         23    2    1    2    0    0  0.53092333678E+03  0.15723147671E+03 -0.19722706840E+04  0.20505432515E+04  0.90965094704E+02 0.  0.
        254    2    1    2    0    0 -0.53092333678E+03 -0.15723147671E+03  0.52410487954E+03  0.11730251442E+04  0.89145989103E+03 0.  0.
        -24    2    4    4    0    0  0.53715926909E+02  0.27957306113E+03  0.52154067987E+02  0.30025334182E+03  0.79909481003E+02 0.  0.
         24    2    4    4    0    0 -0.58463926369E+03 -0.43680453784E+03  0.47195081155E+03  0.87277180236E+03  0.79948593054E+02 0.  0.
         13    1    3    3    0    0  0.34231652674E+03  0.95402222968E+02 -0.14164448052E+04  0.14603417664E+04  0.00000000000E+00 0. -1.
        -13    1    3    3    0    0  0.18860681005E+03  0.61829253743E+02 -0.55582587883E+03  0.59020148508E+03  0.00000000000E+00 0.  1.
          4    1    6    6  502    0 -0.10864879470E+03 -0.78588147720E+02  0.51606874417E+02  0.14367994654E+03  0.00000000000E+00 0. -1.
          1    1    5    5  503    0 -0.93103175532E+01  0.86965576057E+01  0.14984287769E+02  0.19668274126E+02  0.00000000000E+00 0. -1.
         -2    1    5    5    0  503  0.63026244462E+02  0.27087650353E+03  0.37169780218E+02  0.28058506770E+03  0.00000000000E+00 0.  1.
         -3    1    6    6    0  502 -0.47599046899E+03 -0.35821639012E+03  0.42034393714E+03  0.72909185581E+03  0.00000000000E+00 0.  1.
<mgrwt>
<rscale>  0 0.28799668E+04</rscale>
<asrwt>0</asrwt>
<pdfrwt beam="1">  1        1 0.13656943E+00 0.28799668E+04</pdfrwt>
<pdfrwt beam="2">  1       -1 0.35936416E+00 0.28799668E+04</pdfrwt>
<totfact> 0.21554586E-01</totfact>
</mgrwt>
</event>
<event>
12    1  0.1467288E-007  0.1872720E+04  0.7818608E-02  0.8668556E-01
         -2   -1    0    0    0  501 -0.00000000000E+00  0.00000000000E+00  0.86466743247E+03  0.86466743247E+03  0.00000000000E+00 0.  1.
          2   -1    0    0  501    0  0.00000000000E+00 -0.00000000000E+00 -0.10139964725E+04  0.10139964725E+04  0.00000000000E+00 0. -1.
         23    2    1    2    0    0  0.25250457182E+03 -0.22909504623E+03  0.49432486865E+03  0.60709344097E+03  0.89231560039E+02 0.  0.
        254    2    1    2    0    0 -0.25250457182E+03  0.22909504623E+03 -0.64365390867E+03  0.12715704640E+04  0.10422849858E+04 0.  0.
        -24    2    4    4    0    0  0.30848708125E+03  0.14172741590E+03 -0.60338860330E+03  0.69684131355E+03  0.79114284192E+02 0.  0.
         24    2    4    4    0    0 -0.56099165307E+03  0.87367630328E+02 -0.40265305370E+02  0.57472915043E+03  0.79671600336E+02 0.  0.
         11    1    3    3    0    0  0.28444209017E+02 -0.66849896544E+02  0.72392256498E+02  0.10256032613E+03  0.00000000000E+00 0. -1.
        -11    1    3    3    0    0  0.22406036281E+03 -0.16224514968E+03  0.42193261215E+03  0.50453311485E+03  0.00000000000E+00 0.  1.
          2    1    6    6  502    0 -0.35873518340E+03  0.38581491519E+02 -0.59920331578E+02  0.36574568956E+03  0.00000000000E+00 0. -1.
          3    1    5    5  503    0  0.27422990664E+03  0.14784442627E+03 -0.51570141462E+03  0.60250142333E+03  0.00000000000E+00 0. -1.
         -4    1    5    5    0  503  0.34257174610E+02 -0.61170103697E+01 -0.87687188679E+02  0.94339890219E+02  0.00000000000E+00 0.  1.
         -1    1    6    6    0  502 -0.20225646967E+03  0.48786138809E+02  0.19655026208E+02  0.20898346087E+03  0.00000000000E+00 0.  1.
<mgrwt>
<rscale>  0 0.18727197E+04</rscale>
<asrwt>0</asrwt>
<pdfrwt beam="1">  1        2 0.15599946E+00 0.18727197E+04</pdfrwt>
<pdfrwt beam="2">  1       -2 0.13302576E+00 0.18727197E+04</pdfrwt>
<totfact> 0.94864150E+00</totfact>
</mgrwt>
</event>
<event>
12    1  0.1467288E-007  0.1777926E+04  0.7818608E-02  0.8718127E-01
         -2   -1    0    0    0  501 -0.00000000000E+00  0.00000000000E+00  0.85758297625E+03  0.85758297625E+03  0.00000000000E+00 0.  1.
          2   -1    0    0  501    0  0.00000000000E+00 -0.00000000000E+00 -0.92149148433E+03  0.92149148433E+03  0.00000000000E+00 0. -1.
         23    2    1    2    0    0  0.11996429098E+02  0.26221816297E+03 -0.62513505914E+03  0.68418789781E+03  0.91743980956E+02 0.  0.
        254    2    1    2    0    0 -0.11996429098E+02 -0.26221816297E+03  0.56122655106E+03  0.10948865628E+04  0.90271759949E+03 0.  0.
        -24    2    4    4    0    0  0.29705319583E+03  0.15802030168E+03  0.42911477341E+03  0.55102403870E+03  0.79227429366E+02 0.  0.
         24    2    4    4    0    0 -0.30904962492E+03 -0.42023846465E+03  0.13211177765E+03  0.54386252408E+03  0.78872590074E+02 0.  0.
         13    1    3    3    0    0  0.79362946649E+01  0.27630787097E+01 -0.80051277810E+02  0.80491157626E+02  0.00000000000E+00 0.  1.
        -13    1    3    3    0    0  0.40601344331E+01  0.25945508426E+03 -0.54508378133E+03  0.60369674019E+03  0.00000000000E+00 0. -1.
          2    1    6    6  502    0 -0.69082295597E+02 -0.15609871407E+03  0.41810376781E+02  0.17574777297E+03  0.00000000000E+00 0. -1.
          1    1    5    5  503    0  0.94556396766E+02  0.93384385093E+02  0.17451009170E+03  0.21935206325E+03  0.00000000000E+00 0. -1.
         -2    1    5    5    0  503  0.20249679906E+03  0.64635916591E+02  0.25460468172E+03  0.33167197544E+03  0.00000000000E+00 0.  1.
         -1    1    6    6    0  502 -0.23996732933E+03 -0.26413975059E+03  0.90301400869E+02  0.36811475111E+03  0.00000000000E+00 0.  1.
<mgrwt>
<rscale>  0 0.17779262E+04</rscale>
<asrwt>0</asrwt>
<pdfrwt beam="1">  1        2 0.14176792E+00 0.17779262E+04</pdfrwt>
<pdfrwt beam="2">  1       -2 0.13193584E+00 0.17779262E+04</pdfrwt>
<totfact> 0.11218466E+01</totfact>
</mgrwt>
</event>
<event>
12    1  0.1467288E-007  0.2251998E+04  0.7818608E-02  0.8497092E-01
          2   -1    0    0  501    0  0.00000000000E+00  0.00000000000E+00  0.17911953644E+04  0.17911953644E+04  0.00000000000E+00 0. -1.
         -2   -1    0    0    0  501 -0.00000000000E+00 -0.00000000000E+00 -0.70783696584E+03  0.70783696584E+03  0.00000000000E+00 0.  1.
         23    2    1    2    0    0 -0.49110657752E+03 -0.64376100881E+03  0.97619924252E+03  0.12714804738E+04  0.89909550570E+02 0.  0.
        254    2    1    2    0    0  0.49110657752E+03  0.64376100881E+03  0.10715915609E+03  0.12275518565E+04  0.91639869523E+03 0.  0.
        -24    2    4    4    0    0  0.41741396105E+03  0.20245039761E+03  0.45518520858E+03  0.65485464967E+03  0.80127771170E+02 0.  0.
         24    2    4    4    0    0  0.73692616471E+02  0.44131061120E+03 -0.34802605249E+03  0.57269720679E+03  0.81696390239E+02 0.  0.
         13    1    3    3    0    0 -0.19371666177E+03 -0.27515081219E+03  0.47258703956E+03  0.58014879510E+03  0.00000000000E+00 0.  1.
        -13    1    3    3    0    0 -0.29738991576E+03 -0.36861019662E+03  0.50361220295E+03  0.69133167873E+03  0.00000000000E+00 0. -1.
          2    1    6    6  502    0  0.35895391442E+02  0.21732396574E+03 -0.22284859181E+03  0.31333636891E+03  0.00000000000E+00 0. -1.
          3    1    5    5  503    0  0.36750188338E+03  0.19567884414E+03  0.37597382866E+03  0.56098499460E+03  0.00000000000E+00 0. -1.
         -4    1    5    5    0  503  0.49912077670E+02  0.67715534722E+01  0.79211379921E+02  0.93869655069E+02  0.00000000000E+00 0.  1.
         -1    1    6    6    0  502  0.37797225030E+02  0.22398664546E+03 -0.12517746068E+03  0.25936083788E+03  0.00000000000E+00 0.  1.
<mgrwt>
<rscale>  0 0.22519985E+04</rscale>
<asrwt>0</asrwt>
<pdfrwt beam="1">  1        2 0.27556852E+00 0.22519985E+04</pdfrwt>
<pdfrwt beam="2">  1       -2 0.10889800E+00 0.22519985E+04</pdfrwt>
<totfact> 0.53474233E+00</totfact>
</mgrwt>
</event>
<event>
12    1  0.1467288E-007  0.1709128E+04  0.7818608E-02  0.8756175E-01
          2   -1    0    0  501    0  0.00000000000E+00  0.00000000000E+00  0.13929020446E+04  0.13929020446E+04  0.00000000000E+00 0. -1.
         -2   -1    0    0    0  501 -0.00000000000E+00 -0.00000000000E+00 -0.52428630953E+03  0.52428630953E+03  0.00000000000E+00 0.  1.
         23    2    1    2    0    0 -0.44791185852E+03  0.34169246146E+03  0.47616277316E+02  0.57309184540E+03  0.93745304797E+02 0.  0.
        254    2    1    2    0    0  0.44791185852E+03 -0.34169246146E+03  0.82099945776E+03  0.13440965087E+04  0.90287127763E+03 0.  0.
        -24    2    4    4    0    0 -0.18851894604E+03  0.14697843635E+03  0.25752105109E+03  0.36038483549E+03  0.80112946071E+02 0.  0.
         24    2    4    4    0    0  0.63643080456E+03 -0.48867089782E+03  0.56347840668E+03  0.98371167326E+03  0.79607323531E+02 0.  0.
         11    1    3    3    0    0 -0.71002911554E+02  0.15604945707E+02  0.43883700289E+01  0.72829839841E+02  0.00000000000E+00 0. -1.
        -11    1    3    3    0    0 -0.37690894696E+03  0.32608751575E+03  0.43227907287E+02  0.50026200555E+03  0.00000000000E+00 0.  1.
          2    1    6    6  502    0  0.88909363463E+02 -0.70643146441E+02  0.47756814265E+02  0.12319108068E+03  0.00000000000E+00 0. -1.
          1    1    5    5  503    0 -0.15745570472E+02  0.30270005379E+02  0.76794869147E+01  0.34973857871E+02  0.00000000000E+00 0. -1.
         -2    1    5    5    0  503 -0.17277337557E+03  0.11670843098E+03  0.24984156417E+03  0.32541097762E+03  0.00000000000E+00 0.  1.
         -1    1    6    6    0  502  0.54752144110E+03 -0.41802775138E+03  0.51572159241E+03  0.86052059258E+03  0.00000000000E+00 0.  1.
<mgrwt>
<rscale>  0 0.17091278E+04</rscale>
<asrwt>0</asrwt>
<pdfrwt beam="1">  1        2 0.21429262E+00 0.17091278E+04</pdfrwt>
<pdfrwt beam="2">  1       -2 0.80659433E-01 0.17091278E+04</pdfrwt>
<totfact> 0.18847941E+01</totfact>
</mgrwt>
</event>
<event>
12    1  0.1467288E-007  0.3185230E+04  0.7818608E-02  0.8192729E-01
          2   -1    0    0  501    0  0.00000000000E+00  0.00000000000E+00  0.22218174182E+04  0.22218174182E+04  0.00000000000E+00 0. -1.
         -2   -1    0    0    0  501 -0.00000000000E+00 -0.00000000000E+00 -0.11415980957E+04  0.11415980957E+04  0.00000000000E+00 0.  1.
         23    2    1    2    0    0 -0.73421696106E+03  0.12418752981E+04  0.53767848689E+03  0.15423433522E+04  0.91630009997E+02 0.  0.
        254    2    1    2    0    0  0.73421696106E+03 -0.12418752981E+04  0.54254083562E+03  0.18210721618E+04  0.96985795774E+03 0.  0.
        -24    2    4    4    0    0  0.29770274343E+03 -0.78001416436E+03  0.77277460815E+03  0.11405136786E+04  0.80881616640E+02 0.  0.
         24    2    4    4    0    0  0.43651421763E+03 -0.46186113376E+03 -0.23023377253E+03  0.68055848326E+03  0.79321434997E+02 0.  0.
         11    1    3    3    0    0 -0.54634143714E+03  0.98196339776E+03  0.44380690972E+03  0.12081827898E+04  0.00000000000E+00 0. -1.
        -11    1    3    3    0    0 -0.18787552392E+03  0.25991190037E+03  0.93871577168E+02  0.33416056237E+03  0.00000000000E+00 0.  1.
          4    1    6    6  502    0  0.26548740386E+03 -0.22814899781E+03 -0.10931091827E+03  0.36672115246E+03  0.00000000000E+00 0. -1.
          3    1    5    5  503    0  0.28588917617E+03 -0.73561050404E+03  0.70267112851E+03  0.10566939716E+04  0.00000000000E+00 0. -1.
         -4    1    5    5    0  503  0.11813567265E+02 -0.44403660322E+02  0.70103479639E+02  0.83819706985E+02  0.00000000000E+00 0.  1.
         -3    1    6    6    0  502  0.17102681377E+03 -0.23371213595E+03 -0.12092285426E+03  0.31383733080E+03  0.00000000000E+00 0.  1.
<mgrwt>
<rscale>  0 0.31852300E+04</rscale>
<asrwt>0</asrwt>
<pdfrwt beam="1">  1        2 0.34181806E+00 0.31852300E+04</pdfrwt>
<pdfrwt beam="2">  1       -2 0.17563048E+00 0.31852300E+04</pdfrwt>
<totfact> 0.82306899E-01</totfact>
</mgrwt>
</event>
<event>
12    1  0.1467288E-007  0.2459368E+04  0.7818608E-02  0.8417606E-01
         -2   -1    0    0    0  501 -0.00000000000E+00  0.00000000000E+00  0.61203227716E+03  0.61203227716E+03  0.00000000000E+00 0.  1.
          2   -1    0    0  501    0  0.00000000000E+00 -0.00000000000E+00 -0.24706583460E+04  0.24706583460E+04  0.00000000000E+00 0. -1.
         23    2    1    2    0    0  0.43333881012E+03  0.64026000222E+03 -0.17242443817E+04  0.18918448336E+04  0.91338884069E+02 0.  0.
        254    2    1    2    0    0 -0.43333881012E+03 -0.64026000222E+03 -0.13438168716E+03  0.11908457896E+04  0.89573425855E+03 0.  0.
        -24    2    4    4    0    0 -0.30642918264E+03  0.16316182211E+03  0.30549202671E+02  0.35766833537E+03  0.80453465902E+02 0.  0.
         24    2    4    4    0    0 -0.12690962748E+03 -0.80342182433E+03 -0.16493088983E+03  0.83317745422E+03  0.73415192136E+02 0.  0.
         13    1    3    3    0    0  0.37397084259E+03  0.59226854934E+03 -0.15891497006E+04  0.17366729676E+04  0.00000000000E+00 0. -1.
        -13    1    3    3    0    0  0.59367967527E+02  0.47991452879E+02 -0.13509468118E+03  0.15517186601E+03  0.00000000000E+00 0.  1.
          4    1    6    6  502    0 -0.13236558050E+03 -0.79798547972E+03 -0.16209860269E+03  0.82497116904E+03  0.00000000000E+00 0. -1.
          3    1    5    5  503    0 -0.28409184319E+03  0.13100358923E+03  0.44732088685E+02  0.31602385277E+03  0.00000000000E+00 0. -1.
         -4    1    5    5    0  503 -0.22337339444E+02  0.32158232881E+02 -0.14182886014E+02  0.41644482601E+02  0.00000000000E+00 0.  1.
         -3    1    6    6    0  502  0.54559530173E+01 -0.54363446119E+01 -0.28322871365E+01  0.82062851821E+01  0.00000000000E+00 0.  1.
<mgrwt>
<rscale>  0 0.24593679E+04</rscale>
<asrwt>0</asrwt>
<pdfrwt beam="1">  1        2 0.38010128E+00 0.24593679E+04</pdfrwt>
<pdfrwt beam="2">  1       -2 0.94158812E-01 0.24593679E+04</pdfrwt>
<totfact> 0.30820839E+00</totfact>
</mgrwt>
</event>
<event>
12    1  0.1467288E-007  0.1426651E+04  0.7818608E-02  0.8934750E-01
          1   -1    0    0  501    0  0.00000000000E+00  0.00000000000E+00  0.53727063218E+03  0.53727063218E+03  0.00000000000E+00 0. -1.
         -1   -1    0    0    0  501 -0.00000000000E+00 -0.00000000000E+00 -0.94707106819E+03  0.94707106819E+03  0.00000000000E+00 0.  1.
         23    2    1    2    0    0 -0.79012173029E+02  0.19296872012E+03 -0.50918910015E+03  0.55772124961E+03  0.91102152147E+02 0.  0.
        254    2    1    2    0    0  0.79012173029E+02 -0.19296872012E+03  0.99388664144E+02  0.92662045076E+03  0.89736698333E+03 0.  0.
        -24    2    4    4    0    0  0.42809667899E+03  0.55301524496E+02 -0.97081805454E+02  0.44961287370E+03  0.80011462150E+02 0.  0.
         24    2    4    4    0    0 -0.34908450596E+03 -0.24827024461E+03  0.19647046960E+03  0.47700757705E+03  0.73739246541E+02 0.  0.
         11    1    3    3    0    0 -0.85337279110E+01  0.74118298990E+02 -0.28297289660E+03  0.29264313928E+03  0.00000000000E+00 0. -1.
        -11    1    3    3    0    0 -0.70478445118E+02  0.11885042113E+03 -0.22621620355E+03  0.26507811033E+03  0.00000000000E+00 0.  1.
          2    1    6    6  502    0 -0.66523257265E+02 -0.60425315204E+02  0.73534113011E+02  0.11611988741E+03  0.00000000000E+00 0. -1.
          1    1    5    5  503    0  0.49673315607E+02  0.33561845559E+02 -0.12177908713E+02  0.61173010563E+02  0.00000000000E+00 0. -1.
         -2    1    5    5    0  503  0.37842336338E+03  0.21739678937E+02 -0.84903896741E+02  0.38843986314E+03  0.00000000000E+00 0.  1.
         -1    1    6    6    0  502 -0.28256124869E+03 -0.18784492941E+03  0.12293635659E+03  0.36088768965E+03  0.00000000000E+00 0.  1.
<mgrwt>
<rscale>  0 0.14266513E+04</rscale>
<asrwt>0</asrwt>
<pdfrwt beam="1">  1        1 0.82657021E-01 0.14266513E+04</pdfrwt>
<pdfrwt beam="2">  1       -1 0.14570324E+00 0.14266513E+04</pdfrwt>
<totfact> 0.14716825E+01</totfact>
</mgrwt>
</event>
<event>
12    1  0.1467288E-007  0.2175888E+04  0.7818608E-02  0.8528532E-01
          1   -1    0    0  501    0  0.00000000000E+00  0.00000000000E+00  0.29457457767E+04  0.29457457767E+04  0.00000000000E+00 0.  1.
         -1   -1    0    0    0  501 -0.00000000000E+00 -0.00000000000E+00 -0.40180721432E+03  0.40180721432E+03  0.00000000000E+00 0. -1.
         23    2    1    2    0    0 -0.70178637513E+03 -0.36510428132E+03  0.37771896237E+03  0.88133639285E+03  0.90977855941E+02 0.  0.
        254    2    1    2    0    0  0.70178637513E+03  0.36510428132E+03  0.21662196000E+04  0.24662165982E+04  0.87402042371E+03 0.  0.
        -24    2    4    4    0    0 -0.14541449167E+03  0.20743699337E+03  0.84985447669E+03  0.89058323687E+03  0.81916967914E+02 0.  0.
         24    2    4    4    0    0  0.84720086680E+03  0.15766728795E+03  0.13163651233E+04  0.15756333613E+04  0.84823752285E+02 0.  0.
         13    1    3    3    0    0 -0.14307939875E+03 -0.10056680119E+03  0.11712361011E+03  0.21048357630E+03  0.00000000000E+00 0.  1.
        -13    1    3    3    0    0 -0.55870697638E+03 -0.26453748013E+03  0.26059535226E+03  0.67085281654E+03  0.00000000000E+00 0. -1.
          2    1    6    6  502    0  0.59565371980E+03  0.14983301532E+03  0.92746894560E+03  0.11124081676E+04  0.00000000000E+00 0. -1.
          1    1    5    5  503    0 -0.18942555310E+02 -0.27598384694E+01  0.93581715728E+02  0.95519498683E+02  0.00000000000E+00 0. -1.
         -2    1    5    5    0  503 -0.12647193636E+03  0.21019683184E+03  0.75627276096E+03  0.79506373819E+03  0.00000000000E+00 0.  1.
         -1    1    6    6    0  502  0.25154714700E+03  0.78342726335E+01  0.38889617771E+03  0.46322519364E+03  0.00000000000E+00 0.  1.
<mgrwt>
<rscale>  0 0.21758878E+04</rscale>
<asrwt>0</asrwt>
<pdfrwt beam="1">  1        1 0.45319164E+00 0.21758878E+04</pdfrwt>
<pdfrwt beam="2">  1       -1 0.61816496E-01 0.21758878E+04</pdfrwt>
<totfact> 0.15889457E+00</totfact>
</mgrwt>
</event>
<event>
12    1  0.1467288E-007  0.1421990E+04  0.7818608E-02  0.8938053E-01
         -2   -1    0    0    0  501 -0.00000000000E+00  0.00000000000E+00  0.24687034832E+03  0.24687034832E+03  0.00000000000E+00 0.  1.
          2   -1    0    0  501    0  0.00000000000E+00 -0.00000000000E+00 -0.20476896953E+04  0.20476896953E+04  0.00000000000E+00 0. -1.
         23    2    1    2    0    0  0.41816823164E+02 -0.27166173449E+02 -0.12322275789E+04  0.12362732357E+04  0.86602884110E+02 0.  0.
        254    2    1    2    0    0 -0.41816823164E+02  0.27166173449E+02 -0.56859176807E+03  0.10582868079E+04  0.89117210534E+03 0.  0.
        -24    2    4    4    0    0 -0.13016059018E+03 -0.36292822938E+03 -0.51276117233E+03  0.64658182126E+03  0.80531688346E+02 0.  0.
         24    2    4    4    0    0  0.88343767012E+02  0.39009440283E+03 -0.55830595749E+02  0.41170498662E+03  0.80035468985E+02 0.  0.
         11    1    3    3    0    0 -0.21920120908E+02 -0.16765259306E+02 -0.62762582533E+03  0.62823223592E+03  0.00000000000E+00 0.  1.
        -11    1    3    3    0    0  0.63736944072E+02 -0.10400914143E+02 -0.60460175357E+03  0.60804099983E+03  0.00000000000E+00 0. -1.
          4    1    6    6  502    0  0.87286629822E+02  0.29319835228E+03 -0.14216538971E+02  0.30624555426E+03  0.00000000000E+00 0. -1.
          3    1    5    5  503    0 -0.12031356100E+03 -0.27373992971E+03 -0.43492689061E+03  0.52779759591E+03  0.00000000000E+00 0. -1.
         -4    1    5    5    0  503 -0.98470291745E+01 -0.89188299668E+02 -0.77834281719E+02  0.11878422535E+03  0.00000000000E+00 0.  1.
         -1    1    6    6    0  502  0.10571371898E+01  0.96896050552E+02 -0.41614056778E+02  0.10545943236E+03  0.00000000000E+00 0.  1.
<mgrwt>
<rscale>  0 0.14219900E+04</rscale>
<asrwt>0</asrwt>
<pdfrwt beam="1">  1        2 0.31502918E+00 0.14219900E+04</pdfrwt>
<pdfrwt beam="2">  1       -2 0.37980055E-01 0.14219900E+04</pdfrwt>
<totfact> 0.39992724E+01</totfact>
</mgrwt>
</event>
<event>
12    1  0.1467288E-007  0.3398361E+04  0.7818608E-02  0.8138309E-01
         -2   -1    0    0    0  501 -0.00000000000E+00  0.00000000000E+00  0.15500869620E+04  0.15500869620E+04  0.00000000000E+00 0.  1.
          2   -1    0    0  501    0  0.00000000000E+00 -0.00000000000E+00 -0.18626141919E+04  0.18626141919E+04  0.00000000000E+00 0. -1.
         23    2    1    2    0    0 -0.74273313321E+03 -0.90184474775E+03 -0.12091249322E+04  0.16847389585E+04  0.10670426632E+03 0.  0.
        254    2    1    2    0    0  0.74273313321E+03  0.90184474775E+03  0.89659770234E+03  0.17279621954E+04  0.90387468867E+03 0.  0.
        -24    2    4    4    0    0  0.28257236052E+02  0.32133063770E+03  0.71227788138E+03  0.78595506327E+03  0.79584741388E+02 0.  0.
         24    2    4    4    0    0  0.71447589715E+03  0.58051411006E+03  0.18431982096E+03  0.94200713217E+03  0.77014291385E+02 0.  0.
         13    1    3    3    0    0 -0.52365490509E+01  0.17432318345E+01 -0.12809112311E+02  0.13947532448E+02  0.00000000000E+00 0.  1.
        -13    1    3    3    0    0 -0.73749658416E+03 -0.90358797959E+03 -0.11963158199E+04  0.16707914261E+04  0.00000000000E+00 0. -1.
          2    1    6    6  502    0  0.33684067009E+03  0.31098264244E+03  0.65718046442E+02  0.46313140960E+03  0.00000000000E+00 0. -1.
          1    1    5    5  503    0  0.55648175743E+01  0.23518564722E+01  0.10356843584E+01  0.61295240917E+01  0.00000000000E+00 0. -1.
         -2    1    5    5    0  503  0.22692418478E+02  0.31897878122E+03  0.71124219702E+03  0.77982553917E+03  0.00000000000E+00 0.  1.
         -1    1    6    6    0  502  0.37763522707E+03  0.26953146761E+03  0.11860177452E+03  0.47887572258E+03  0.00000000000E+00 0.  1.
<mgrwt>
<rscale>  0 0.33983608E+04</rscale>
<asrwt>0</asrwt>
<pdfrwt beam="1">  1        2 0.28655603E+00 0.33983608E+04</pdfrwt>
<pdfrwt beam="2">  1       -2 0.23847492E+00 0.33983608E+04</pdfrwt>
<totfact> 0.49965426E-01</totfact>
</mgrwt>
</event>
<event>
12    1  0.1467288E-007  0.1637152E+04  0.7818608E-02  0.8798044E-01
         -2   -1    0    0    0  501 -0.00000000000E+00  0.00000000000E+00  0.46326763931E+03  0.46326763931E+03  0.00000000000E+00 0.  1.
          2   -1    0    0  501    0  0.00000000000E+00 -0.00000000000E+00 -0.14463912856E+04  0.14463912856E+04  0.00000000000E+00 0. -1.
         23    2    1    2    0    0  0.33801226770E+03 -0.30842283419E+03 -0.72733110183E+03  0.86408352865E+03  0.90845335695E+02 0.  0.
        254    2    1    2    0    0 -0.33801226770E+03  0.30842283419E+03 -0.25579254445E+03  0.10455753962E+04  0.90466631731E+03 0.  0.
        -24    2    4    4    0    0 -0.41705569988E+03 -0.18783758446E+03  0.24744729696E+02  0.46483624010E+03  0.79006414417E+02 0.  0.
         24    2    4    4    0    0  0.79043432181E+02  0.49626041865E+03 -0.28053727415E+03  0.58073915615E+03  0.77682288920E+02 0.  0.
         13    1    3    3    0    0  0.42297287257E+02 -0.77899382692E+02 -0.17994124252E+03  0.20058969338E+03  0.00000000000E+00 0.  1.
        -13    1    3    3    0    0  0.29571498044E+03 -0.23052345150E+03 -0.54738985932E+03  0.66349383526E+03  0.00000000000E+00 0. -1.
          4    1    6    6  502    0  0.63523438715E+02  0.19018776649E+03 -0.13294811680E+03  0.24058639934E+03  0.00000000000E+00 0. -1.
          1    1    5    5  503    0 -0.17572894265E+03 -0.44786888525E+02 -0.12792697824E+02  0.18179708409E+03  0.00000000000E+00 0. -1.
         -2    1    5    5    0  503 -0.24132675723E+03 -0.14305069594E+03  0.37537427520E+02  0.28303915600E+03  0.00000000000E+00 0.  1.
         -3    1    6    6    0  502  0.15519993466E+02  0.30607265216E+03 -0.14758915735E+03  0.34015275681E+03  0.00000000000E+00 0.  1.
<mgrwt>
<rscale>  0 0.16371515E+04</rscale>
<asrwt>0</asrwt>
<pdfrwt beam="1">  1        2 0.22252174E+00 0.16371515E+04</pdfrwt>
<pdfrwt beam="2">  1       -2 0.71271945E-01 0.16371515E+04</pdfrwt>
<totfact> 0.23262481E+01</totfact>
</mgrwt>
</event>
<event>
12    1  0.1467288E-007  0.1902611E+04  0.7818608E-02  0.8653558E-01
         -2   -1    0    0    0  501 -0.00000000000E+00  0.00000000000E+00  0.39135174576E+03  0.39135174576E+03  0.00000000000E+00 0. -1.
          2   -1    0    0  501    0  0.00000000000E+00 -0.00000000000E+00 -0.23124510740E+04  0.23124510740E+04  0.00000000000E+00 0.  1.
         23    2    1    2    0    0  0.21273867727E+02  0.29671940053E+03  0.20553990696E+03  0.37282400822E+03  0.90863125925E+02 0.  0.
        254    2    1    2    0    0 -0.21273867727E+02 -0.29671940053E+03 -0.21266392352E+04  0.23309788116E+04  0.90684772872E+03 0.  0.
        -24    2    4    4    0    0  0.40956617451E+03 -0.10922304618E+03 -0.13742356853E+04  0.14402463117E+04  0.78176687811E+02 0.  0.
         24    2    4    4    0    0 -0.43084004224E+03 -0.18749635435E+03 -0.75240354991E+03  0.89073249985E+03  0.80717157256E+02 0.  0.
         11    1    3    3    0    0  0.53070478232E+02  0.20542726768E+03  0.16123644940E+03  0.26648457851E+03  0.00000000000E+00 0. -1.
        -11    1    3    3    0    0 -0.31796610505E+02  0.91292132855E+02  0.44303457557E+02  0.10633942972E+03  0.00000000000E+00 0.  1.
          4    1    6    6  502    0 -0.84200941048E+02 -0.59179599224E+02 -0.11865901880E+03  0.15707318734E+03  0.00000000000E+00 0. -1.
          1    1    5    5  503    0  0.18518263026E+03 -0.52805808449E+02 -0.49666900391E+03  0.53269236845E+03  0.00000000000E+00 0. -1.
         -2    1    5    5    0  503  0.22438354425E+03 -0.56417237730E+02 -0.87756668139E+03  0.90755394326E+03  0.00000000000E+00 0.  1.
         -1    1    6    6    0  502 -0.34663910119E+03 -0.12831675513E+03 -0.63374453111E+03  0.73365931251E+03  0.00000000000E+00 0.  1.
<mgrwt>
<rscale>  0 0.19026106E+04</rscale>
<asrwt>0</asrwt>
<pdfrwt beam="1">  1        2 0.35576171E+00 0.19026106E+04</pdfrwt>
<pdfrwt beam="2">  1       -2 0.60207960E-01 0.19026106E+04</pdfrwt>
<totfact> 0.10741626E+01</totfact>
</mgrwt>
</event>
<event>
12    1  0.1467288E-007  0.1564483E+04  0.7818608E-02  0.8842669E-01
         -1   -1    0    0    0  501 -0.00000000000E+00  0.00000000000E+00  0.18193129230E+03  0.18193129230E+03  0.00000000000E+00 0.  1.
          1   -1    0    0  501    0  0.00000000000E+00 -0.00000000000E+00 -0.33633675170E+04  0.33633675170E+04  0.00000000000E+00 0. -1.
         23    2    1    2    0    0  0.73981194980E+02 -0.52339977541E+03 -0.12562362284E+04  0.13659856632E+04  0.91470368131E+02 0.  0.
        254    2    1    2    0    0 -0.73981194980E+02  0.52339977541E+03 -0.19251999963E+04  0.21793131461E+04  0.87383649565E+03 0.  0.
        -24    2    4    4    0    0  0.18010262855E+03  0.34378022244E+03 -0.23962427530E+03  0.46342274332E+03  0.81969796640E+02 0.  0.
         24    2    4    4    0    0 -0.25408382353E+03  0.17961955297E+03 -0.16855757210E+04  0.17158904028E+04  0.79325847811E+02 0.  0.
         13    1    3    3    0    0  0.17773480704E+02 -0.28390000825E+03 -0.77419621247E+03  0.82479990707E+03  0.00000000000E+00 0. -1.
        -13    1    3    3    0    0  0.56207714275E+02 -0.23949976716E+03 -0.48204001595E+03  0.54118575609E+03  0.00000000000E+00 0.  1.
          2    1    6    6  502    0 -0.22371667737E+03  0.13105972515E+03 -0.14774496524E+04  0.15000277593E+04  0.00000000000E+00 0. -1.
          1    1    5    5  503    0  0.15113964834E+03  0.27087989348E+03 -0.15075555739E+03  0.34488599287E+03  0.00000000000E+00 0. -1.
         -2    1    5    5    0  503  0.28962980212E+02  0.72900328958E+02 -0.88868717905E+02  0.11853675045E+03  0.00000000000E+00 0.  1.
         -1    1    6    6    0  502 -0.30367146158E+02  0.48559827824E+02 -0.20812606860E+03  0.21586264354E+03  0.00000000000E+00 0.  1.
<mgrwt>
<rscale>  0 0.15644830E+04</rscale>
<asrwt>0</asrwt>
<pdfrwt beam="1">  1        1 0.51744112E+00 0.15644830E+04</pdfrwt>
<pdfrwt beam="2">  1       -1 0.27989432E-01 0.15644830E+04</pdfrwt>
<totfact> 0.35718249E+00</totfact>
</mgrwt>
</event>
<event>
12    1  0.1467288E-007  0.1751793E+04  0.7818608E-02  0.8732364E-01
          2   -1    0    0  501    0  0.00000000000E+00  0.00000000000E+00  0.12189963300E+04  0.12189963300E+04  0.00000000000E+00 0. -1.
         -2   -1    0    0    0  501 -0.00000000000E+00 -0.00000000000E+00 -0.62936574512E+03  0.62936574512E+03  0.00000000000E+00 0.  1.
         23    2    1    2    0    0  0.31651487813E+03 -0.43818770543E+03 -0.14990591006E+03  0.56855014972E+03  0.92667996670E+02 0.  0.
        254    2    1    2    0    0 -0.31651487813E+03  0.43818770543E+03  0.73953649491E+03  0.12798119254E+04  0.89376406493E+03 0.  0.
        -24    2    4    4    0    0 -0.79627531203E+02  0.43899897101E+03 -0.45724016682E+02  0.45564666292E+03  0.80390020828E+02 0.  0.
         24    2    4    4    0    0 -0.23688734692E+03 -0.81126558393E+00  0.78526051160E+03  0.82416526246E+03  0.80610393162E+02 0.  0.
         11    1    3    3    0    0  0.44434279477E+02 -0.82738150858E+02 -0.61540412068E+02  0.11228191803E+03  0.00000000000E+00 0. -1.
        -11    1    3    3    0    0  0.27208059865E+03 -0.35544955457E+03 -0.88365497989E+02  0.45626823168E+03  0.00000000000E+00 0.  1.
          2    1    6    6  502    0 -0.16999072492E+03 -0.37222773254E+02  0.53885850770E+03  0.56626042836E+03  0.00000000000E+00 0. -1.
          3    1    5    5  503    0 -0.73502456739E+01  0.15161466457E+03  0.17017402499E+02  0.15274365653E+03  0.00000000000E+00 0. -1.
         -4    1    5    5    0  503 -0.72277285529E+02  0.28738430645E+03 -0.62741419182E+02  0.30290300639E+03  0.00000000000E+00 0.  1.
         -1    1    6    6    0  502 -0.66896622006E+02  0.36411507670E+02  0.24640200390E+03  0.25790483410E+03  0.00000000000E+00 0.  1.
<mgrwt>
<rscale>  0 0.17517928E+04</rscale>
<asrwt>0</asrwt>
<pdfrwt beam="1">  1        2 0.18753790E+00 0.17517928E+04</pdfrwt>
<pdfrwt beam="2">  1       -2 0.96825499E-01 0.17517928E+04</pdfrwt>
<totfact> 0.15589594E+01</totfact>
</mgrwt>
</event>
<event>
12    1  0.1467288E-007  0.1752442E+04  0.7818608E-02  0.8732007E-01
         -1   -1    0    0    0  501 -0.00000000000E+00  0.00000000000E+00  0.66918554590E+03  0.66918554590E+03  0.00000000000E+00 0.  1.
          1   -1    0    0  501    0  0.00000000000E+00 -0.00000000000E+00 -0.11473095281E+04  0.11473095281E+04  0.00000000000E+00 0. -1.
         23    2    1    2    0    0 -0.63191624021E+03 -0.53528754821E+02 -0.27101080247E+03  0.69426100890E+03  0.79799944792E+02 0.  0.
        254    2    1    2    0    0  0.63191624021E+03  0.53528754821E+02 -0.20711317971E+03  0.11222340651E+04  0.90240233009E+03 0.  0.
        -24    2    4    4    0    0  0.51045971182E+03 -0.38086104128E+03 -0.78375287241E+02  0.64638701675E+03  0.77776857898E+02 0.  0.
         24    2    4    4    0    0  0.12145652839E+03  0.43438979610E+03 -0.12873789247E+03  0.47584704832E+03  0.80067379068E+02 0.  0.
         13    1    3    3    0    0 -0.34184857800E+02 -0.90837405274E+01  0.24267643641E+01  0.35454309047E+02  0.00000000000E+00 0.  1.
        -13    1    3    3    0    0 -0.59773138241E+03 -0.44445014294E+02 -0.27343756683E+03  0.65880669986E+03  0.00000000000E+00 0. -1.
          2    1    6    6  502    0  0.11846936554E+03  0.36117186472E+03 -0.81749190597E+02  0.38879690920E+03  0.00000000000E+00 0. -1.
          1    1    5    5  503    0  0.20954088344E+03 -0.19327301964E+03 -0.60002121316E+02  0.29131099621E+03  0.00000000000E+00 0. -1.
         -2    1    5    5    0  503  0.30091882838E+03 -0.18758802164E+03 -0.18373165924E+02  0.35507602054E+03  0.00000000000E+00 0.  1.
         -1    1    6    6    0  502  0.29871628504E+01  0.73217931377E+02 -0.46988701872E+02  0.87050139119E+02  0.00000000000E+00 0.  1.
<mgrwt>
<rscale>  0 0.17524417E+04</rscale>
<asrwt>0</asrwt>
<pdfrwt beam="1">  1        1 0.17650916E+00 0.17524417E+04</pdfrwt>
<pdfrwt beam="2">  1       -1 0.10295162E+00 0.17524417E+04</pdfrwt>
<totfact> 0.98691231E+00</totfact>
</mgrwt>
</event>
<event>
12    1  0.1467288E-007  0.2210885E+04  0.7818608E-02  0.8513911E-01
          2   -1    0    0  501    0  0.00000000000E+00  0.00000000000E+00  0.42139524367E+04  0.42139524367E+04  0.00000000000E+00 0. -1.
         -2   -1    0    0    0  501 -0.00000000000E+00 -0.00000000000E+00 -0.28998969544E+03  0.28998969544E+03  0.00000000000E+00 0.  1.
         23    2    1    2    0    0 -0.52788678125E+03 -0.44965755624E+03  0.28370105806E+04  0.29219451903E+04  0.90985104694E+02 0.  0.
        254    2    1    2    0    0  0.52788678125E+03  0.44965755624E+03  0.10869521607E+04  0.15819969418E+04  0.91672948715E+03 0.  0.
        -24    2    4    4    0    0  0.28935091843E+03  0.15290271897E+03 -0.83133248880E+02  0.34892887667E+03  0.87960379971E+02 0.  0.
         24    2    4    4    0    0  0.23853586282E+03  0.29675483727E+03  0.11700854096E+04  0.12330680652E+04  0.79963718595E+02 0.  0.
         11    1    3    3    0    0 -0.49817200970E+02 -0.82032942554E+02  0.42151437472E+03  0.43230258532E+03  0.00000000000E+00 0.  1.
        -11    1    3    3    0    0 -0.47806958028E+03 -0.36762461368E+03  0.24154962059E+04  0.24896426050E+04  0.00000000000E+00 0. -1.
          4    1    6    6  502    0  0.10560666101E+03  0.14654600555E+03  0.67856897328E+03  0.70219965116E+03  0.00000000000E+00 0. -1.
          3    1    5    5  503    0  0.26220425347E+03  0.14958201040E+03 -0.50028118025E+02  0.30598800788E+03  0.00000000000E+00 0. -1.
         -4    1    5    5    0  503  0.27146664962E+02  0.33207085625E+01 -0.33105130855E+02  0.42940868795E+02  0.00000000000E+00 0.  1.
         -3    1    6    6    0  502  0.13292920182E+03  0.15020883171E+03  0.49151643631E+03  0.53086841400E+03  0.00000000000E+00 0.  1.
<mgrwt>
<rscale>  0 0.22108847E+04</rscale>
<asrwt>0</asrwt>
<pdfrwt beam="1">  1        2 0.64830033E+00 0.22108847E+04</pdfrwt>
<pdfrwt beam="2">  1       -2 0.44613802E-01 0.22108847E+04</pdfrwt>
<totfact> 0.99256348E-01</totfact>
</mgrwt>
</event>
<event>
12    1  0.1467288E-007  0.1304253E+04  0.7818608E-02  0.9026199E-01
         -2   -1    0    0    0  501 -0.00000000000E+00  0.00000000000E+00  0.35695422565E+03  0.35695422565E+03  0.00000000000E+00 0.  1.
          2   -1    0    0  501    0  0.00000000000E+00 -0.00000000000E+00 -0.11913820048E+04  0.11913820048E+04  0.00000000000E+00 0. -1.
         23    2    1    2    0    0  0.37130917636E+02 -0.21610819332E+03 -0.43405340487E+03  0.49481418842E+03  0.91418086365E+02 0.  0.
        254    2    1    2    0    0 -0.37130917636E+02  0.21610819332E+03 -0.40037437428E+03  0.10535220420E+04  0.94948807112E+03 0.  0.
        -24    2    4    4    0    0 -0.34204745682E+03  0.30300849433E+03  0.81437346207E+02  0.47115590599E+03  0.80902633089E+02 0.  0.
         24    2    4    4    0    0  0.30491653918E+03 -0.86900301014E+02 -0.48181172048E+03  0.58236613604E+03  0.80511019302E+02 0.  0.
         13    1    3    3    0    0  0.26773812680E+02 -0.22314710865E+03 -0.41622703050E+03  0.47302897381E+03  0.00000000000E+00 0. -1.
        -13    1    3    3    0    0  0.10357104957E+02  0.70389153361E+01 -0.17826374371E+02  0.21785214605E+02  0.00000000000E+00 0.  1.
          4    1    6    6  502    0  0.44596518077E+00 -0.14048126911E+02 -0.20801289048E+02  0.25104628671E+02  0.00000000000E+00 0. -1.
          3    1    5    5  503    0 -0.11336601064E+03  0.15151093178E+03  0.44270794880E+02  0.19433815399E+03  0.00000000000E+00 0. -1.
         -4    1    5    5    0  503 -0.22868144618E+03  0.15149756255E+03  0.37166551328E+02  0.27681775200E+03  0.00000000000E+00 0.  1.
         -3    1    6    6    0  502  0.30447057400E+03 -0.72852174103E+02 -0.46101043144E+03  0.55726150737E+03  0.00000000000E+00 0.  1.
<mgrwt>
<rscale>  0 0.13042528E+04</rscale>
<asrwt>0</asrwt>
<pdfrwt beam="1">  1        2 0.18328954E+00 0.13042528E+04</pdfrwt>
<pdfrwt beam="2">  1       -2 0.54916034E-01 0.13042528E+04</pdfrwt>
<totfact> 0.58572104E+01</totfact>
</mgrwt>
</event>
<event>
12    1  0.1467288E-007  0.1279233E+04  0.7818608E-02  0.9046198E-01
         -1   -1    0    0    0  501 -0.00000000000E+00  0.00000000000E+00  0.17740080743E+03  0.17740080743E+03  0.00000000000E+00 0.  1.
          1   -1    0    0  501    0  0.00000000000E+00 -0.00000000000E+00 -0.23061294685E+04  0.23061294685E+04  0.00000000000E+00 0. -1.
         23    2    1    2    0    0 -0.22872328250E+03 -0.33732425983E+02 -0.10524335559E+04  0.10813639924E+04  0.90991636676E+02 0.  0.
        254    2    1    2    0    0  0.22872328250E+03  0.33732425983E+02 -0.10762951051E+04  0.14021662835E+04  0.86845087179E+03 0.  0.
        -24    2    4    4    0    0 -0.25936195254E+03 -0.11129029571E+03 -0.12059278768E+03  0.31650852978E+03  0.77336127662E+02 0.  0.
         24    2    4    4    0    0  0.48808523504E+03  0.14502272170E+03 -0.95570231744E+03  0.10856577537E+04  0.77634091381E+02 0.  0.
         11    1    3    3    0    0 -0.16074202265E+03  0.11755608461E+02 -0.79773240279E+03  0.81385083316E+03  0.00000000000E+00 0. -1.
        -11    1    3    3    0    0 -0.67981259853E+02 -0.45488034444E+02 -0.25470115315E+03  0.26751315927E+03  0.00000000000E+00 0.  1.
          2    1    6    6  502    0  0.29861650372E+03  0.48945664475E+02 -0.55661536524E+03  0.63355201774E+03  0.00000000000E+00 0. -1.
          3    1    5    5  503    0 -0.24776768371E+03 -0.85300495115E+02 -0.96576906185E+02  0.27927065433E+03  0.00000000000E+00 0. -1.
         -4    1    5    5    0  503 -0.11594268825E+02 -0.25989800597E+02 -0.24015881495E+02  0.37237875459E+02  0.00000000000E+00 0.  1.
         -1    1    6    6    0  502  0.18946873132E+03  0.96077057220E+02 -0.39908695220E+03  0.45210573596E+03  0.00000000000E+00 0.  1.
<mgrwt>
<rscale>  0 0.12792329E+04</rscale>
<asrwt>0</asrwt>
<pdfrwt beam="1">  1        1 0.35478914E+00 0.12792329E+04</pdfrwt>
<pdfrwt beam="2">  1       -1 0.27292432E-01 0.12792329E+04</pdfrwt>
<totfact> 0.21906838E+01</totfact>
</mgrwt>
</event>
<event>
12    1  0.1467288E-007  0.2488892E+04  0.7818608E-02  0.8406953E-01
         -2   -1    0    0    0  501 -0.00000000000E+00  0.00000000000E+00  0.12203118994E+04  0.12203118994E+04  0.00000000000E+00 0.  1.
          2   -1    0    0  501    0  0.00000000000E+00 -0.00000000000E+00 -0.12690578562E+04  0.12690578562E+04  0.00000000000E+00 0. -1.
         23    2    1    2    0    0  0.32651126181E+03 -0.23621302306E+03 -0.10150146117E+04  0.10960349013E+04  0.92906654764E+02 0.  0.
        254    2    1    2    0    0 -0.32651126181E+03  0.23621302306E+03  0.96626865494E+03  0.13933348544E+04  0.91940236376E+03 0.  0.
        -24    2    4    4    0    0 -0.16061968526E+03  0.58284877903E+03  0.62956825298E+03  0.87611162063E+03  0.75524857610E+02 0.  0.
         24    2    4    4    0    0 -0.16589157655E+03 -0.34663575597E+03  0.33670040196E+03  0.51722323373E+03  0.80475774900E+02 0.  0.
         13    1    3    3    0    0  0.74307849821E+01 -0.26520818882E+02 -0.36949270639E+02  0.46084910766E+02  0.00000000000E+00 0.  1.
        -13    1    3    3    0    0  0.31908047683E+03 -0.20969220418E+03 -0.97806534111E+03  0.10499499906E+04  0.00000000000E+00 0. -1.
          4    1    6    6  502    0 -0.11436932301E+03 -0.19267148007E+03  0.23962366021E+03  0.32805813481E+03  0.00000000000E+00 0. -1.
          1    1    5    5  503    0 -0.16263399912E+03  0.48932448476E+03  0.53810696935E+03  0.74528342228E+03  0.00000000000E+00 0. -1.
         -2    1    5    5    0  503  0.20143138621E+01  0.93524294269E+02  0.91461283635E+02  0.13082819835E+03  0.00000000000E+00 0.  1.
         -3    1    6    6    0  502 -0.51522253538E+02 -0.15396427591E+03  0.97076741743E+02  0.18916509893E+03  0.00000000000E+00 0.  1.
<mgrwt>
<rscale>  0 0.24888924E+04</rscale>
<asrwt>0</asrwt>
<pdfrwt beam="1">  1        2 0.19523967E+00 0.24888924E+04</pdfrwt>
<pdfrwt beam="2">  1       -2 0.18774029E+00 0.24888924E+04</pdfrwt>
<totfact> 0.24701048E+00</totfact>
</mgrwt>
</event>
<event>
12    1  0.1467288E-007  0.1718080E+04  0.7818608E-02  0.8751119E-01
         -2   -1    0    0    0  501 -0.00000000000E+00  0.00000000000E+00  0.12346004893E+04  0.12346004893E+04  0.00000000000E+00 0.  1.
          2   -1    0    0  501    0  0.00000000000E+00 -0.00000000000E+00 -0.59772357794E+03  0.59772357794E+03  0.00000000000E+00 0. -1.
         23    2    1    2    0    0  0.36591542576E+03 -0.49947054893E+03  0.23785545349E+03  0.66949416236E+03  0.91007080004E+02 0.  0.
        254    2    1    2    0    0 -0.36591542576E+03  0.49947054893E+03  0.39902145786E+03  0.11628299049E+04  0.89977237998E+03 0.  0.
        -24    2    4    4    0    0 -0.35501359157E+03  0.17239964773E+03  0.63461218162E+03  0.75160025840E+03  0.80087693304E+02 0.  0.
         24    2    4    4    0    0 -0.10901834198E+02  0.32707090120E+03 -0.23559072376E+03  0.41122964648E+03  0.80700734949E+02 0.  0.
         11    1    3    3    0    0  0.27764677069E+03 -0.42742211204E+03  0.17217648147E+03  0.53797967611E+03  0.00000000000E+00 0. -1.
        -11    1    3    3    0    0  0.88268655077E+02 -0.72048436892E+02  0.65678972015E+02  0.13151448625E+03  0.00000000000E+00 0.  1.
          4    1    6    6  502    0  0.35392650833E+00  0.20059856348E+01  0.58227187575E+01  0.61687353704E+01  0.00000000000E+00 0. -1.
          3    1    5    5  503    0 -0.11504677064E+03  0.96938473711E+02  0.21619345302E+03  0.26338647696E+03  0.00000000000E+00 0. -1.
         -4    1    5    5    0  503 -0.23996682093E+03  0.75461174024E+02  0.41841872861E+03  0.48821378143E+03  0.00000000000E+00 0.  1.
         -3    1    6    6    0  502 -0.11255760706E+02  0.32506491556E+03 -0.24141344252E+03  0.40506091111E+03  0.00000000000E+00 0.  1.
<mgrwt>
<rscale>  0 0.17180801E+04</rscale>
<asrwt>0</asrwt>
<pdfrwt beam="1">  1        2 0.91957474E-01 0.17180801E+04</pdfrwt>
<pdfrwt beam="2">  1       -2 0.18993854E+00 0.17180801E+04</pdfrwt>
<totfact> 0.73386922E+00</totfact>
</mgrwt>
</event>
<event>
12    1  0.1467288E-007  0.1365093E+04  0.7818608E-02  0.8979481E-01
         -1   -1    0    0    0  501 -0.00000000000E+00  0.00000000000E+00  0.35965832774E+03  0.35965832774E+03  0.00000000000E+00 0.  1.
          1   -1    0    0  501    0  0.00000000000E+00 -0.00000000000E+00 -0.12953117091E+04  0.12953117091E+04  0.00000000000E+00 0. -1.
         23    2    1    2    0    0  0.64985812014E+02  0.37328467690E+03 -0.31739657824E+03  0.50230701075E+03  0.89482620656E+02 0.  0.
        254    2    1    2    0    0 -0.64985812014E+02 -0.37328467690E+03 -0.61825680315E+03  0.11526630261E+04  0.89600556436E+03 0.  0.
        -24    2    4    4    0    0 -0.19754567220E+02  0.29036023859E+03 -0.16693133507E+03  0.34487652333E+03  0.79840056604E+02 0.  0.
         24    2    4    4    0    0 -0.45231244794E+02 -0.66364491549E+03 -0.45132546807E+03  0.80778650279E+03  0.79711458358E+02 0.  0.
         11    1    3    3    0    0  0.67771448361E+02  0.37775214695E+03 -0.31508822046E+03  0.49655839577E+03  0.00000000000E+00 0. -1.
        -11    1    3    3    0    0 -0.27856363469E+01 -0.44674700510E+01 -0.23083577724E+01  0.57486149740E+01  0.00000000000E+00 0.  1.
          4    1    6    6  502    0 -0.64134750930E+02 -0.48481107430E+03 -0.34997047376E+03  0.60136043812E+03  0.00000000000E+00 0. -1.
          3    1    5    5  503    0 -0.22142999350E+02  0.26118055242E+03 -0.11710956006E+03  0.28708925866E+03  0.00000000000E+00 0. -1.
         -4    1    5    5    0  503  0.23884321302E+01  0.29179686168E+02 -0.49821775007E+02  0.57787264667E+02  0.00000000000E+00 0.  1.
         -3    1    6    6    0  502  0.18903506136E+02 -0.17883384119E+03 -0.10135499431E+03  0.20642606466E+03  0.00000000000E+00 0.  1.
<mgrwt>
<rscale>  0 0.13650929E+04</rscale>
<asrwt>0</asrwt>
<pdfrwt beam="1">  1        1 0.19927872E+00 0.13650929E+04</pdfrwt>
<pdfrwt beam="2">  1       -1 0.55332051E-01 0.13650929E+04</pdfrwt>
<totfact> 0.29427638E+01</totfact>
</mgrwt>
</event>
<event>
12    1  0.1467288E-007  0.1467504E+04  0.7818608E-02  0.8906355E-01
          2   -1    0    0  501    0  0.00000000000E+00  0.00000000000E+00  0.15660392078E+04  0.15660392078E+04  0.00000000000E+00 0. -1.
         -2   -1    0    0    0  501 -0.00000000000E+00 -0.00000000000E+00 -0.34379195791E+03  0.34379195791E+03  0.00000000000E+00 0.  1.
         23    2    1    2    0    0 -0.28303973140E+03  0.33704188519E+03  0.47972594812E+03  0.65747985938E+03  0.91837129062E+02 0.  0.
        254    2    1    2    0    0  0.28303973140E+03 -0.33704188519E+03  0.74252130180E+03  0.12523513064E+04  0.90737929721E+03 0.  0.
        -24    2    4    4    0    0  0.30632221028E+03  0.18302893014E+03  0.30805258524E+02  0.36695104460E+03  0.79819918558E+02 0.  0.
         24    2    4    4    0    0 -0.23282478883E+02 -0.52007081532E+03  0.71171604327E+03  0.88540026176E+03  0.79863449126E+02 0.  0.
         13    1    3    3    0    0 -0.25585113316E+01  0.30187715807E+02  0.14556848772E+02  0.33611694572E+02  0.00000000000E+00 0.  1.
        -13    1    3    3    0    0 -0.28048122007E+03  0.30685416938E+03  0.46516909934E+03  0.62386816481E+03  0.00000000000E+00 0. -1.
          4    1    6    6  502    0 -0.25042579274E+02 -0.26461400301E+03  0.29941676281E+03  0.40037245062E+03  0.00000000000E+00 0. -1.
          3    1    5    5  503    0  0.26656541753E+03  0.16494398613E+03  0.53063214377E+02  0.31792978014E+03  0.00000000000E+00 0. -1.
         -4    1    5    5    0  503  0.39756792756E+02  0.18084944008E+02 -0.22257955853E+02  0.49021264455E+02  0.00000000000E+00 0.  1.
         -3    1    6    6    0  502  0.17601003910E+01 -0.25545681231E+03  0.41229928047E+03  0.48502781114E+03  0.00000000000E+00 0.  1.
<mgrwt>
<rscale>  0 0.14675036E+04</rscale>
<asrwt>0</asrwt>
<pdfrwt beam="1">  1        2 0.24092911E+00 0.14675036E+04</pdfrwt>
<pdfrwt beam="2">  1       -2 0.52891071E-01 0.14675036E+04</pdfrwt>
<totfact> 0.38041285E+01</totfact>
</mgrwt>
</event>
<event>
12    1  0.1467288E-007  0.1290263E+04  0.7818608E-02  0.9037323E-01
          2   -1    0    0  501    0  0.00000000000E+00  0.00000000000E+00  0.35697003513E+03  0.35697003513E+03  0.00000000000E+00 0. -1.
         -2   -1    0    0    0  501 -0.00000000000E+00 -0.00000000000E+00 -0.11659085666E+04  0.11659085666E+04  0.00000000000E+00 0.  1.
         23    2    1    2    0    0  0.24699919666E+03 -0.19954421534E+03 -0.18619898774E+03  0.37929473897E+03  0.91476439307E+02 0.  0.
        254    2    1    2    0    0 -0.24699919666E+03  0.19954421534E+03 -0.62273954375E+03  0.11435838628E+04  0.90507072367E+03 0.  0.
        -24    2    4    4    0    0 -0.13399727884E+03  0.12355855206E+03 -0.84646843459E+03  0.86965582355E+03  0.81058338040E+02 0.  0.
         24    2    4    4    0    0 -0.11300191782E+03  0.75985663275E+02  0.22372889084E+03  0.27392803923E+03  0.80241508118E+02 0.  0.
         13    1    3    3    0    0  0.24954957827E+03 -0.17628190103E+03 -0.18165542805E+03  0.35545603833E+03  0.00000000000E+00 0. -1.
        -13    1    3    3    0    0 -0.25503816158E+01 -0.23262314305E+02 -0.45435596902E+01  0.23838700633E+02  0.00000000000E+00 0.  1.
          4    1    6    6  502    0 -0.82089796746E+02  0.82722089150E+02  0.12799694686E+03  0.17310371795E+03  0.00000000000E+00 0. -1.
          1    1    5    5  503    0 -0.61337830561E+02  0.82210612691E+02 -0.30534416072E+03  0.32211173649E+03  0.00000000000E+00 0. -1.
         -2    1    5    5    0  503 -0.72659448276E+02  0.41347939372E+02 -0.54112427386E+03  0.54754408706E+03  0.00000000000E+00 0.  1.
         -3    1    6    6    0  502 -0.30912121075E+02 -0.67364258742E+01  0.95731943983E+02  0.10082432128E+03  0.00000000000E+00 0.  1.
<mgrwt>
<rscale>  0 0.12902626E+04</rscale>
<asrwt>0</asrwt>
<pdfrwt beam="1">  1        2 0.54918467E-01 0.12902626E+04</pdfrwt>
<pdfrwt beam="2">  1       -2 0.17937055E+00 0.12902626E+04</pdfrwt>
<totfact> 0.16218575E+01</totfact>
</mgrwt>
</event>
<event>
12    1  0.1467288E-007  0.1724369E+04  0.7818608E-02  0.8747587E-01
         -1   -1    0    0    0  501 -0.00000000000E+00  0.00000000000E+00  0.24209141168E+03  0.24209141168E+03  0.00000000000E+00 0.  1.
          1   -1    0    0  501    0  0.00000000000E+00 -0.00000000000E+00 -0.30705827158E+04  0.30705827158E+04  0.00000000000E+00 0. -1.
         23    2    1    2    0    0 -0.38714496345E+03  0.45592847806E+03 -0.73848792909E+03  0.95474190347E+03  0.91737020888E+02 0.  0.
        254    2    1    2    0    0  0.38714496345E+03 -0.45592847806E+03 -0.20900033750E+04  0.23579322240E+04  0.91322410477E+03 0.  0.
        -24    2    4    4    0    0 -0.82083525254E+02  0.21125349877E+03 -0.26619519276E+03  0.35843642914E+03  0.79063564436E+02 0.  0.
         24    2    4    4    0    0  0.46922848871E+03 -0.66718197683E+03 -0.18238081823E+04  0.19994957949E+04  0.79999894852E+02 0.  0.
         11    1    3    3    0    0 -0.64812559606E+02  0.10296575791E+03 -0.20546120058E+03  0.23878216040E+03  0.00000000000E+00 0.  1.
        -11    1    3    3    0    0 -0.32233240385E+03  0.35296272015E+03 -0.53302672851E+03  0.71595974307E+03  0.00000000000E+00 0. -1.
          4    1    6    6  502    0  0.43326505358E+03 -0.63799162795E+03 -0.17494512301E+04  0.19118921336E+04  0.00000000000E+00 0. -1.
          1    1    5    5  503    0 -0.93204493260E+02  0.19747470085E+03 -0.22472551829E+03  0.31334468818E+03  0.00000000000E+00 0. -1.
         -2    1    5    5    0  503  0.11120968006E+02  0.13778797919E+02 -0.41469674479E+02  0.45091740960E+02  0.00000000000E+00 0.  1.
         -3    1    6    6    0  502  0.35963435132E+02 -0.29190348880E+02 -0.74356952178E+02  0.87603661290E+02  0.00000000000E+00 0.  1.
<mgrwt>
<rscale>  0 0.17243685E+04</rscale>
<asrwt>0</asrwt>
<pdfrwt beam="1">  1        1 0.47239731E+00 0.17243685E+04</pdfrwt>
<pdfrwt beam="2">  1       -1 0.37244835E-01 0.17243685E+04</pdfrwt>
<totfact> 0.35099288E+00</totfact>
</mgrwt>
</event>
<event>
12    1  0.1467288E-007  0.3085096E+04  0.7818608E-02  0.8219840E-01
          2   -1    0    0  501    0  0.00000000000E+00  0.00000000000E+00  0.15317855895E+04  0.15317855895E+04  0.00000000000E+00 0. -1.
         -2   -1    0    0    0  501 -0.00000000000E+00 -0.00000000000E+00 -0.15533858941E+04  0.15533858941E+04  0.00000000000E+00 0.  1.
         23    2    1    2    0    0  0.13635257601E+04 -0.26117928077E+03  0.21892769344E+03  0.14084948120E+04  0.92256085771E+02 0.  0.
        254    2    1    2    0    0 -0.13635257601E+04  0.26117928077E+03 -0.24052799806E+03  0.16766766716E+04  0.90883102292E+03 0.  0.
        -24    2    4    4    0    0 -0.12610670987E+04 -0.35267762613E+02 -0.38443711049E+03  0.13210227283E+04  0.75994173004E+02 0.  0.
         24    2    4    4    0    0 -0.10245866140E+03  0.29644704338E+03  0.14390911243E+03  0.35565394332E+03  0.86030622076E+02 0.  0.
         13    1    3    3    0    0  0.11395565354E+04 -0.23665694485E+03  0.21239626493E+03  0.11830924648E+04  0.00000000000E+00 0.  1.
        -13    1    3    3    0    0  0.22396922462E+03 -0.24522335913E+02  0.65314285154E+01  0.22540234713E+03  0.00000000000E+00 0. -1.
          4    1    6    6  502    0 -0.35565043587E+02  0.44109783471E+02 -0.17977157870E+01  0.56690185264E+02  0.00000000000E+00 0. -1.
          3    1    5    5  503    0 -0.28332536344E+02  0.18925935126E+01  0.23642516251E+01  0.28493932892E+02  0.00000000000E+00 0. -1.
         -4    1    5    5    0  503 -0.12327345623E+04 -0.37160356126E+02 -0.38680136212E+03  0.12925287954E+04  0.00000000000E+00 0.  1.
         -3    1    6    6    0  502 -0.66893617811E+02  0.25233725991E+03  0.14570682822E+03  0.29896375806E+03  0.00000000000E+00 0.  1.
<mgrwt>
<rscale>  0 0.30850959E+04</rscale>
<asrwt>0</asrwt>
<pdfrwt beam="1">  1        2 0.23565932E+00 0.30850959E+04</pdfrwt>
<pdfrwt beam="2">  1       -2 0.23898245E+00 0.30850959E+04</pdfrwt>
<totfact> 0.77822763E-01</totfact>
</mgrwt>
</event>
<event>
12    1  0.1467288E-007  0.2080387E+04  0.7818608E-02  0.8569933E-01
         -2   -1    0    0    0  501 -0.00000000000E+00  0.00000000000E+00  0.48894589736E+03  0.48894589736E+03  0.00000000000E+00 0.  1.
          2   -1    0    0  501    0  0.00000000000E+00 -0.00000000000E+00 -0.22129289553E+04  0.22129289553E+04  0.00000000000E+00 0. -1.
         23    2    1    2    0    0 -0.16443117355E+02 -0.10018767878E+03 -0.18155108281E+04  0.18222224514E+04  0.11877351693E+03 0.  0.
        254    2    1    2    0    0  0.16443117355E+02  0.10018767878E+03  0.91527770123E+02  0.87965240131E+03  0.86896666641E+03 0.  0.
        -24    2    4    4    0    0  0.26830843695E+02 -0.11021733259E+03  0.44231200911E+03  0.46319492237E+03  0.77729454733E+02 0.  0.
         24    2    4    4    0    0 -0.10387726340E+02  0.21040501137E+03 -0.35078423899E+03  0.41645747893E+03  0.77518228629E+02 0.  0.
         13    1    3    3    0    0 -0.65681042326E+02 -0.41376907518E+02 -0.77051828146E+03  0.77441879488E+03  0.00000000000E+00 0. -1.
        -13    1    3    3    0    0  0.49237924971E+02 -0.58810771262E+02 -0.10449925466E+04  0.10478036565E+04  0.00000000000E+00 0.  1.
          2    1    6    6  502    0 -0.38585720354E+02  0.15841046654E+03 -0.28198861794E+03  0.32573043206E+03  0.00000000000E+00 0. -1.
          1    1    5    5  503    0  0.39741023083E+02 -0.16963894481E+02  0.12898915620E+03  0.13603427895E+03  0.00000000000E+00 0. -1.
         -2    1    5    5    0  503 -0.12910179389E+02 -0.93253438111E+02  0.31332285291E+03  0.32716064342E+03  0.00000000000E+00 0.  1.
         -1    1    6    6    0  502  0.28197994014E+02  0.51994544832E+02 -0.68795621050E+02  0.90727046873E+02  0.00000000000E+00 0.  1.
<mgrwt>
<rscale>  0 0.20803870E+04</rscale>
<asrwt>0</asrwt>
<pdfrwt beam="1">  1        2 0.34045061E+00 0.20803870E+04</pdfrwt>
<pdfrwt beam="2">  1       -2 0.75222446E-01 0.20803870E+04</pdfrwt>
<totfact> 0.74350413E+00</totfact>
</mgrwt>
</event>
<event>
12    1  0.1467288E-007  0.1505574E+04  0.7818608E-02  0.8880755E-01
          2   -1    0    0  501    0  0.00000000000E+00  0.00000000000E+00  0.24225346691E+04  0.24225346691E+04  0.00000000000E+00 0. -1.
         -2   -1    0    0    0  501 -0.00000000000E+00 -0.00000000000E+00 -0.23392375777E+03  0.23392375777E+03  0.00000000000E+00 0.  1.
         23    2    1    2    0    0  0.18886050988E+03  0.21217006797E+03  0.14031827783E+04  0.14334211982E+04  0.71344181482E+02 0.  0.
        254    2    1    2    0    0 -0.18886050988E+03 -0.21217006797E+03  0.78542813307E+03  0.12230372287E+04  0.89344181714E+03 0.  0.
        -24    2    4    4    0    0  0.12912934579E+03 -0.93099947234E+02 -0.14475489523E+03  0.22973754996E+03  0.80519401683E+02 0.  0.
         24    2    4    4    0    0 -0.31798985566E+03 -0.11907012074E+03  0.93018302831E+03  0.99329967874E+03  0.78157172917E+02 0.  0.
         13    1    3    3    0    0  0.84221448214E+02  0.14538911169E+03  0.85606045473E+03  0.87239368882E+03  0.00000000000E+00 0. -1.
        -13    1    3    3    0    0  0.10463906166E+03  0.66780956280E+02  0.54712232354E+03  0.56102750936E+03  0.00000000000E+00 0.  1.
          4    1    6    6  502    0 -0.25631963712E+03 -0.94838679714E+02  0.82397177574E+03  0.86811498015E+03  0.00000000000E+00 0. -1.
          3    1    5    5  503    0  0.12990264177E+02 -0.48686700621E+02 -0.64071667236E+02  0.81512700379E+02  0.00000000000E+00 0. -1.
         -4    1    5    5    0  503  0.11613908161E+03 -0.44413246614E+02 -0.80683227996E+02  0.14822484958E+03  0.00000000000E+00 0.  1.
         -3    1    6    6    0  502 -0.61670218548E+02 -0.24231441025E+02  0.10621125257E+03  0.12518469859E+03  0.00000000000E+00 0.  1.
<mgrwt>
<rscale>  0 0.15055742E+04</rscale>
<asrwt>0</asrwt>
<pdfrwt beam="1">  1        2 0.37269762E+00 0.15055742E+04</pdfrwt>
<pdfrwt beam="2">  1       -2 0.35988272E-01 0.15055742E+04</pdfrwt>
<totfact> 0.27124553E+01</totfact>
</mgrwt>
</event>
<event>
12    1  0.1467288E-007  0.3045509E+04  0.7818608E-02  0.8230854E-01
          2   -1    0    0  501    0  0.00000000000E+00  0.00000000000E+00  0.34467131272E+04  0.34467131272E+04  0.00000000000E+00 0.  1.
         -2   -1    0    0    0  501 -0.00000000000E+00 -0.00000000000E+00 -0.67275129602E+03  0.67275129602E+03  0.00000000000E+00 0. -1.
         23    2    1    2    0    0  0.35699185231E+03  0.29631959023E+03  0.30398152572E+04  0.30763552170E+04  0.90753188308E+02 0.  0.
        254    2    1    2    0    0 -0.35699185231E+03 -0.29631959023E+03 -0.26585342601E+03  0.10431092062E+04  0.89562843289E+03 0.  0.
        -24    2    4    4    0    0 -0.51612781190E+03 -0.23149725198E+03 -0.48742044526E+03  0.75095341850E+03  0.79833892657E+02 0.  0.
         24    2    4    4    0    0  0.15913595959E+03 -0.64822338247E+02  0.22156701924E+03  0.29215578771E+03  0.82078444846E+02 0.  0.
         13    1    3    3    0    0  0.20288813759E+03  0.18245596389E+03  0.20588289619E+04  0.20768318347E+04  0.00000000000E+00 0.  1.
        -13    1    3    3    0    0  0.15410371472E+03  0.11386362633E+03  0.98098629527E+03  0.99952338231E+03  0.00000000000E+00 0. -1.
          2    1    6    6  502    0  0.96470892904E+02 -0.15377344674E+02  0.17312212054E+03  0.19878220375E+03  0.00000000000E+00 0. -1.
          3    1    5    5  503    0 -0.16363884879E+03 -0.11480852563E+03 -0.16481174044E+03  0.25907832827E+03  0.00000000000E+00 0. -1.
         -4    1    5    5    0  503 -0.35248896310E+03 -0.11668872635E+03 -0.32260870482E+03  0.49187509023E+03  0.00000000000E+00 0.  1.
         -1    1    6    6    0  502  0.62665066687E+02 -0.49444993573E+02  0.48444898702E+02  0.93373583965E+02  0.00000000000E+00 0.  1.
<mgrwt>
<rscale>  0 0.30455086E+04</rscale>
<asrwt>0</asrwt>
<pdfrwt beam="1">  1        2 0.53026355E+00 0.30455086E+04</pdfrwt>
<pdfrwt beam="2">  1       -2 0.10350020E+00 0.30455086E+04</pdfrwt>
<totfact> 0.57406239E-01</totfact>
</mgrwt>
</event>
<event>
12    1  0.1467288E-007  0.1148492E+04  0.7818608E-02  0.9159176E-01
         -1   -1    0    0    0  501 -0.00000000000E+00  0.00000000000E+00  0.46747705842E+03  0.46747705842E+03  0.00000000000E+00 0.  1.
          1   -1    0    0  501    0  0.00000000000E+00 -0.00000000000E+00 -0.70540073871E+03  0.70540073871E+03  0.00000000000E+00 0. -1.
         23    2    1    2    0    0 -0.15426721858E+03  0.82235027578E+02  0.34850271070E+02  0.20165296636E+03  0.94278327088E+02 0.  0.
        254    2    1    2    0    0  0.15426721858E+03 -0.82235027578E+02 -0.27277395136E+03  0.97122483077E+03  0.91559328792E+03 0.  0.
        -24    2    4    4    0    0 -0.36485526527E+03 -0.10589848708E+03 -0.22178969338E+02  0.38840224577E+03  0.77656575209E+02 0.  0.
         24    2    4    4    0    0  0.51912248385E+03  0.23663459502E+02 -0.25059498202E+03  0.58282258501E+03  0.82681364435E+02 0.  0.
         11    1    3    3    0    0 -0.81340837345E+02 -0.32974743650E+01 -0.70121997140E+01  0.81709094365E+02  0.00000000000E+00 0. -1.
        -11    1    3    3    0    0 -0.72926381235E+02  0.85532501943E+02  0.41862470784E+02  0.11994387199E+03  0.00000000000E+00 0.  1.
          2    1    6    6  502    0  0.28770727924E+03  0.22541449388E+01 -0.18223733327E+03  0.34057452244E+03  0.00000000000E+00 0. -1.
          1    1    5    5  503    0 -0.30017305001E+03 -0.84995694193E+02 -0.48082470430E+02  0.31565812511E+03  0.00000000000E+00 0. -1.
         -4    1    5    5    0  503 -0.64682215258E+02 -0.20902792887E+02  0.25903501092E+02  0.72744120656E+02  0.00000000000E+00 0.  1.
         -1    1    6    6    0  502  0.23141520461E+03  0.21409314563E+02 -0.68357648751E+02  0.24224806257E+03  0.00000000000E+00 0.  1.
<mgrwt>
<rscale>  0 0.11484923E+04</rscale>
<asrwt>0</asrwt>
<pdfrwt beam="1">  1        1 0.10852319E+00 0.11484923E+04</pdfrwt>
<pdfrwt beam="2">  1       -1 0.71919548E-01 0.11484923E+04</pdfrwt>
<totfact> 0.52205072E+01</totfact>
</mgrwt>
</event>
<event>
12    1  0.1467288E-007  0.3808705E+04  0.7818608E-02  0.8044289E-01
         -2   -1    0    0    0  501 -0.00000000000E+00  0.00000000000E+00  0.22438544484E+04  0.22438544484E+04  0.00000000000E+00 0. -1.
          2   -1    0    0  501    0  0.00000000000E+00 -0.00000000000E+00 -0.16162180018E+04  0.16162180018E+04  0.00000000000E+00 0.  1.
         23    2    1    2    0    0  0.31756326050E+03  0.21176959913E+03 -0.14818831102E+04  0.15328534971E+04  0.89272076935E+02 0.  0.
        254    2    1    2    0    0 -0.31756326050E+03 -0.21176959913E+03  0.21095195568E+04  0.23272189532E+04  0.90563928133E+03 0.  0.
        -24    2    4    4    0    0  0.11118641506E+03 -0.36691362698E+03  0.41517523851E+03  0.57073434824E+03  0.79869825487E+02 0.  0.
         24    2    4    4    0    0 -0.42874967556E+03  0.15514402786E+03  0.16943443183E+04  0.17564846049E+04  0.80867451706E+02 0.  0.
         13    1    3    3    0    0  0.12557656975E+03  0.44243194128E+02 -0.61786774720E+03  0.63205022595E+03  0.00000000000E+00 0.  1.
        -13    1    3    3    0    0  0.19198669075E+03  0.16752640500E+03 -0.86401536299E+03  0.90080327113E+03  0.00000000000E+00 0. -1.
          4    1    6    6  502    0 -0.39496975403E+03  0.14130958159E+03  0.14511046985E+04  0.15105212181E+04  0.00000000000E+00 0. -1.
          1    1    5    5  503    0  0.73902798431E+02 -0.33040561212E+03  0.37202402842E+03  0.50302223595E+03  0.00000000000E+00 0. -1.
         -2    1    5    5    0  503  0.37283616626E+02 -0.36508014862E+02  0.43151210088E+02  0.67712112284E+02  0.00000000000E+00 0.  1.
         -3    1    6    6    0  502 -0.33779921531E+02  0.13834446266E+02  0.24323961982E+03  0.24596338681E+03  0.00000000000E+00 0.  1.
<mgrwt>
<rscale>  0 0.38087047E+04</rscale>
<asrwt>0</asrwt>
<pdfrwt beam="1">  1        2 0.24864892E+00 0.38087047E+04</pdfrwt>
<pdfrwt beam="2">  1       -2 0.34520838E+00 0.38087047E+04</pdfrwt>
<totfact> 0.14589283E-01</totfact>
</mgrwt>
</event>
<event>
12    1  0.1467288E-007  0.1325871E+04  0.7818608E-02  0.9009297E-01
          1   -1    0    0  501    0  0.00000000000E+00  0.00000000000E+00  0.74773234833E+03  0.74773234833E+03  0.00000000000E+00 0. -1.
         -1   -1    0    0    0  501 -0.00000000000E+00 -0.00000000000E+00 -0.58775490204E+03  0.58775490204E+03  0.00000000000E+00 0.  1.
         23    2    1    2    0    0 -0.34386649450E+03  0.32155968529E+02  0.72079785532E+02  0.36497590274E+03  0.93454490243E+02 0.  0.
        254    2    1    2    0    0  0.34386649450E+03 -0.32155968529E+02  0.87897660759E+02  0.97051134763E+03  0.90271152909E+03 0.  0.
        -24    2    4    4    0    0  0.38651425479E+02 -0.37268952295E+03  0.27356536770E+03  0.47052881708E+03  0.78536259753E+02 0.  0.
         24    2    4    4    0    0  0.30521506902E+03  0.34053355442E+03 -0.18566770694E+03  0.49998253054E+03  0.79941812630E+02 0.  0.
         11    1    3    3    0    0 -0.66597931824E+02  0.32102238745E+02  0.44615752760E+02  0.86350469889E+02  0.00000000000E+00 0. -1.
        -11    1    3    3    0    0 -0.27726856268E+03  0.53729784079E-01  0.27464032772E+02  0.27862543285E+03  0.00000000000E+00 0.  1.
          2    1    6    6  502    0  0.24844339194E+03  0.30033317042E+03 -0.12998377418E+03  0.41087700569E+03  0.00000000000E+00 0. -1.
          3    1    5    5  503    0  0.33297980590E+02 -0.24003515902E+03  0.13005662046E+03  0.27502792150E+03  0.00000000000E+00 0. -1.
         -4    1    5    5    0  503  0.53534448893E+01 -0.13265436392E+03  0.14350874724E+03  0.19550089558E+03  0.00000000000E+00 0.  1.
         -1    1    6    6    0  502  0.56771677080E+02  0.40200383998E+02 -0.55683932761E+02  0.89105524856E+02  0.00000000000E+00 0.  1.
<mgrwt>
<rscale>  0 0.13258708E+04</rscale>
<asrwt>0</asrwt>
<pdfrwt beam="1">  1        1 0.11503575E+00 0.13258708E+04</pdfrwt>
<pdfrwt beam="2">  1       -1 0.90423831E-01 0.13258708E+04</pdfrwt>
<totfact> 0.28862039E+01</totfact>
</mgrwt>
</event>
<event>
12    1  0.1467288E-007  0.2544363E+04  0.7818608E-02  0.8387349E-01
         -2   -1    0    0    0  501 -0.00000000000E+00  0.00000000000E+00  0.11262911751E+04  0.11262911751E+04  0.00000000000E+00 0. -1.
          2   -1    0    0  501    0  0.00000000000E+00 -0.00000000000E+00 -0.14369690844E+04  0.14369690844E+04  0.00000000000E+00 0.  1.
         23    2    1    2    0    0 -0.65694956257E+03 -0.82865312836E+03  0.20909218477E+03  0.10818222208E+04  0.91493392331E+02 0.  0.
        254    2    1    2    0    0  0.65694956257E+03  0.82865312836E+03 -0.51977009403E+03  0.14814380387E+04  0.89791368011E+03 0.  0.
        -24    2    4    4    0    0  0.73168985767E+03  0.23786623121E+03 -0.19139742273E+03  0.79679738618E+03  0.79389605382E+02 0.  0.
         24    2    4    4    0    0 -0.74740295095E+02  0.59078689716E+03 -0.32837267129E+03  0.68464065251E+03  0.79302851462E+02 0.  0.
         11    1    3    3    0    0 -0.17768591944E+03 -0.29201253721E+03  0.60344156186E+02  0.34710952889E+03  0.00000000000E+00 0.  1.
        -11    1    3    3    0    0 -0.47926364313E+03 -0.53664059115E+03  0.14874802858E+03  0.73471269194E+03  0.00000000000E+00 0. -1.
          4    1    6    6  502    0  0.10752270859E+02  0.49716704582E+02 -0.44941252689E+02  0.67875461224E+02  0.00000000000E+00 0. -1.
          1    1    5    5  503    0  0.20660275208E+03  0.97660144945E+02 -0.79173236920E+02  0.24184830477E+03  0.00000000000E+00 0. -1.
         -2    1    5    5    0  503  0.52508710559E+03  0.14020608626E+03 -0.11222418581E+03  0.55494908141E+03  0.00000000000E+00 0.  1.
         -1    1    6    6    0  502 -0.85492565954E+02  0.54107019258E+03 -0.28343141860E+03  0.61676519128E+03  0.00000000000E+00 0.  1.
<mgrwt>
<rscale>  0 0.25443629E+04</rscale>
<asrwt>0</asrwt>
<pdfrwt beam="1">  1        2 0.22107217E+00 0.25443629E+04</pdfrwt>
<pdfrwt beam="2">  1       -2 0.17327556E+00 0.25443629E+04</pdfrwt>
<totfact> 0.24751450E+00</totfact>
</mgrwt>
</event>
<event>
12    1  0.1467288E-007  0.1141569E+04  0.7818608E-02  0.9165597E-01
          1   -1    0    0  501    0  0.00000000000E+00  0.00000000000E+00  0.12236878849E+03  0.12236878849E+03  0.00000000000E+00 0. -1.
         -1   -1    0    0    0  501 -0.00000000000E+00 -0.00000000000E+00 -0.26624015370E+04  0.26624015370E+04  0.00000000000E+00 0.  1.
         23    2    1    2    0    0 -0.11185399484E+03 -0.29704365638E+02 -0.11419637967E+04  0.11515847333E+04  0.93125825340E+02 0.  0.
        254    2    1    2    0    0  0.11185399484E+03  0.29704365638E+02 -0.13980689518E+04  0.16331855922E+04  0.83624441355E+03 0.  0.
        -24    2    4    4    0    0  0.44205699557E+03  0.10107803006E+03 -0.10247736850E+04  0.11234237617E+04  0.79301244811E+02 0.  0.
         24    2    4    4    0    0 -0.33020300073E+03 -0.71373664421E+02 -0.37329526673E+03  0.50976183046E+03  0.79872059948E+02 0.  0.
         13    1    3    3    0    0 -0.16309360114E+02 -0.10974647908E+02 -0.33415512390E+02  0.38768990086E+02  0.00000000000E+00 0. -1.
        -13    1    3    3    0    0 -0.95544634727E+02 -0.18729717730E+02 -0.11085482844E+04  0.11128157432E+04  0.00000000000E+00 0.  1.
          2    1    6    6  502    0 -0.31205461767E+03 -0.62878231465E+02 -0.37210585997E+03  0.48968819408E+03  0.00000000000E+00 0. -1.
          1    1    5    5  503    0  0.22855489563E+03  0.64206284687E+02 -0.62754770870E+03  0.67095149900E+03  0.00000000000E+00 0. -1.
         -2    1    5    5    0  503  0.21350209994E+03  0.36871745372E+02 -0.39722597633E+03  0.45247226275E+03  0.00000000000E+00 0.  1.
         -1    1    6    6    0  502 -0.18148383067E+02 -0.84954329562E+01 -0.11894067682E+01  0.20073636380E+02  0.00000000000E+00 0.  1.
<mgrwt>
<rscale>  0 0.11415688E+04</rscale>
<asrwt>0</asrwt>
<pdfrwt beam="1">  1        1 0.18825968E-01 0.11415688E+04</pdfrwt>
<pdfrwt beam="2">  1       -1 0.40960022E+00 0.11415688E+04</pdfrwt>
<totfact> 0.17699152E+00</totfact>
</mgrwt>
</event>
<event>
12    1  0.1467288E-007  0.1320578E+04  0.7818608E-02  0.9013404E-01
         -1   -1    0    0    0  501 -0.00000000000E+00  0.00000000000E+00  0.97970683953E+03  0.97970683953E+03  0.00000000000E+00 0.  1.
          1   -1    0    0  501    0  0.00000000000E+00 -0.00000000000E+00 -0.44501194045E+03  0.44501194045E+03  0.00000000000E+00 0. -1.
         23    2    1    2    0    0 -0.25040463043E+01 -0.14087983829E+03 -0.19359801646E+03  0.25867496061E+03  0.97873102452E+02 0.  0.
        254    2    1    2    0    0  0.25040463043E+01  0.14087983829E+03  0.72829291555E+03  0.11660438194E+04  0.89966339192E+03 0.  0.
        -24    2    4    4    0    0 -0.27448472308E+02 -0.37031710292E+03  0.21964649218E+03  0.43895125972E+03  0.80903964896E+02 0.  0.
         24    2    4    4    0    0  0.29952518612E+02  0.51119694121E+03  0.50864642337E+03  0.72709255965E+03  0.87880260678E+02 0.  0.
         13    1    3    3    0    0  0.18065996526E+02 -0.90313573317E+02 -0.49453981826E+02  0.10454003097E+03  0.00000000000E+00 0.  1.
        -13    1    3    3    0    0 -0.20570042831E+02 -0.50566264976E+02 -0.14414403464E+03  0.15413492965E+03  0.00000000000E+00 0. -1.
          4    1    6    6  502    0  0.47277622043E+02  0.47575781957E+03  0.48533845236E+03  0.68127387280E+03  0.00000000000E+00 0. -1.
          3    1    5    5  503    0  0.11785265985E+02 -0.25658554805E+03  0.17414898859E+03  0.31032709548E+03  0.00000000000E+00 0. -1.
         -4    1    5    5    0  503 -0.39233738293E+02 -0.11373155487E+03  0.45497503591E+02  0.12862416424E+03  0.00000000000E+00 0.  1.
         -3    1    6    6    0  502 -0.17325103431E+02  0.35439121645E+02  0.23307971012E+02  0.45818686849E+02  0.00000000000E+00 0.  1.
<mgrwt>
<rscale>  0 0.13205775E+04</rscale>
<asrwt>0</asrwt>
<pdfrwt beam="1">  1        1 0.68463376E-01 0.13205775E+04</pdfrwt>
<pdfrwt beam="2">  1       -1 0.15072413E+00 0.13205775E+04</pdfrwt>
<totfact> 0.17563821E+01</totfact>
</mgrwt>
</event>
<event>
12    1  0.1467288E-007  0.1020102E+04  0.7818608E-02  0.9286768E-01
         -1   -1    0    0    0  501 -0.00000000000E+00  0.00000000000E+00  0.32054238994E+03  0.32054238994E+03  0.00000000000E+00 0.  1.
          1   -1    0    0  501    0  0.00000000000E+00 -0.00000000000E+00 -0.81159938607E+03  0.81159938607E+03  0.00000000000E+00 0. -1.
         23    2    1    2    0    0  0.29429766321E+02 -0.69241964557E+02 -0.57281992857E+02  0.13586714907E+03  0.97560723088E+02 0.  0.
        254    2    1    2    0    0 -0.29429766321E+02  0.69241964557E+02 -0.43377500328E+03  0.99627462694E+03  0.89372356912E+03 0.  0.
        -24    2    4    4    0    0 -0.34556844408E+01  0.45329909599E+03 -0.78852946238E+02  0.46687868711E+03  0.79157495978E+02 0.  0.
         24    2    4    4    0    0 -0.25974081880E+02 -0.38405713143E+03 -0.35492205704E+03  0.52939593982E+03  0.78203973031E+02 0.  0.
         13    1    3    3    0    0  0.45924863914E+02 -0.81228037466E+02 -0.23201897331E+02  0.96153082300E+02  0.00000000000E+00 0.  1.
        -13    1    3    3    0    0 -0.16495097593E+02  0.11986072909E+02 -0.34080095527E+02  0.39714066771E+02  0.00000000000E+00 0. -1.
          2    1    6    6  502    0  0.16071449182E+01 -0.14538250668E+01 -0.20134669729E+02  0.20250961637E+02  0.00000000000E+00 0. -1.
          3    1    5    5  503    0 -0.15887426158E+02  0.15499867741E+02 -0.38557170327E+01  0.22528265885E+02  0.00000000000E+00 0. -1.
         -4    1    5    5    0  503  0.12431741717E+02  0.43779922825E+03 -0.74997229206E+02  0.44435042123E+03  0.00000000000E+00 0.  1.
         -1    1    6    6    0  502 -0.27581226798E+02 -0.38260330636E+03 -0.33478738731E+03  0.50914497819E+03  0.00000000000E+00 0.  1.
<mgrwt>
<rscale>  0 0.10201020E+04</rscale>
<asrwt>0</asrwt>
<pdfrwt beam="1">  1        1 0.12486144E+00 0.10201020E+04</pdfrwt>
<pdfrwt beam="2">  1       -1 0.49314215E-01 0.10201020E+04</pdfrwt>
<totfact> 0.89111076E+01</totfact>
</mgrwt>
</event>
<event>
12    1  0.1467288E-007  0.1426705E+04  0.7818608E-02  0.8934712E-01
          1   -1    0    0  501    0  0.00000000000E+00  0.00000000000E+00  0.98159602248E+03  0.98159602248E+03  0.00000000000E+00 0. -1.
         -1   -1    0    0    0  501 -0.00000000000E+00 -0.00000000000E+00 -0.51841233704E+03  0.51841233704E+03  0.00000000000E+00 0.  1.
         23    2    1    2    0    0  0.93035852096E+02 -0.13496698041E+03  0.55181911226E+03  0.58275542186E+03  0.90707185389E+02 0.  0.
        254    2    1    2    0    0 -0.93035852096E+02  0.13496698041E+03 -0.88635426822E+02  0.91725293765E+03  0.89812301895E+03 0.  0.
        -24    2    4    4    0    0 -0.22697626627E+03 -0.22428768175E+03 -0.32282111541E+03  0.46092381664E+03  0.80088092484E+02 0.  0.
         24    2    4    4    0    0  0.13394041417E+03  0.35925466216E+03  0.23418568859E+03  0.45632912101E+03  0.79933616900E+02 0.  0.
         11    1    3    3    0    0  0.64783196954E+02 -0.10814506818E+03  0.51103858428E+03  0.52635791340E+03  0.00000000000E+00 0. -1.
        -11    1    3    3    0    0  0.28252655142E+02 -0.26821912232E+02  0.40780527979E+02  0.56397508462E+02  0.00000000000E+00 0.  1.
          2    1    6    6  502    0  0.92907589715E+02  0.13642882994E+03  0.96277333575E+02  0.19108629157E+03  0.00000000000E+00 0. -1.
          1    1    5    5  503    0 -0.50512769150E+02 -0.30294934271E+02 -0.24690462629E+02  0.63866594042E+02  0.00000000000E+00 0. -1.
         -4    1    5    5    0  503 -0.17646349712E+03 -0.19399274748E+03 -0.29813065278E+03  0.39705722260E+03  0.00000000000E+00 0.  1.
         -1    1    6    6    0  502  0.41032824458E+02  0.22282583222E+03  0.13790835501E+03  0.26524282944E+03  0.00000000000E+00 0.  1.
<mgrwt>
<rscale>  0 0.14267046E+04</rscale>
<asrwt>0</asrwt>
<pdfrwt beam="1">  1        1 0.15101477E+00 0.14267046E+04</pdfrwt>
<pdfrwt beam="2">  1       -1 0.79755744E-01 0.14267046E+04</pdfrwt>
<totfact> 0.23905131E+01</totfact>
</mgrwt>
</event>
<event>
12    1  0.1467288E-007  0.2262268E+04  0.7818608E-02  0.8492949E-01
          2   -1    0    0  501    0  0.00000000000E+00  0.00000000000E+00  0.35824014265E+04  0.35824014265E+04  0.00000000000E+00 0. -1.
         -2   -1    0    0    0  501 -0.00000000000E+00 -0.00000000000E+00 -0.35715264826E+03  0.35715264826E+03  0.00000000000E+00 0.  1.
         23    2    1    2    0    0 -0.65386855335E+03 -0.36775528308E+03  0.23858687894E+04  0.25026794191E+04  0.90809479233E+02 0.  0.
        254    2    1    2    0    0  0.65386855335E+03  0.36775528308E+03  0.83937998880E+03  0.14368746556E+04  0.89289527769E+03 0.  0.
        -24    2    4    4    0    0  0.36347788806E+03  0.43240356195E+03  0.95075372557E+03  0.11086775379E+04  0.78385080045E+02 0.  0.
         24    2    4    4    0    0  0.29039066529E+03 -0.64648278869E+02 -0.11137373677E+03  0.32819711771E+03  0.82480909200E+02 0.  0.
         11    1    3    3    0    0 -0.13913971383E+03 -0.59050125157E+02  0.38071161793E+03  0.40961947375E+03  0.00000000000E+00 0.  1.
        -11    1    3    3    0    0 -0.51472883952E+03 -0.30870515792E+03  0.20051571715E+04  0.20930599454E+04  0.00000000000E+00 0. -1.
          2    1    6    6  502    0  0.10751256268E+03 -0.36534581595E+02 -0.83806088115E+02  0.14112826503E+03  0.00000000000E+00 0. -1.
          1    1    5    5  503    0  0.36116607686E+03  0.42496011276E+03  0.91089949554E+03  0.10680683141E+04  0.00000000000E+00 0. -1.
         -2    1    5    5    0  503  0.23118111996E+01  0.74434491928E+01  0.39854230028E+02  0.40609223804E+02  0.00000000000E+00 0.  1.
         -1    1    6    6    0  502  0.18287810261E+03 -0.28113697274E+02 -0.27567648652E+02  0.18706885268E+03  0.00000000000E+00 0.  1.
<mgrwt>
<rscale>  0 0.22622680E+04</rscale>
<asrwt>0</asrwt>
<pdfrwt beam="1">  1        2 0.55113866E+00 0.22622680E+04</pdfrwt>
<pdfrwt beam="2">  1       -2 0.54946564E-01 0.22622680E+04</pdfrwt>
<totfact> 0.20205590E+00</totfact>
</mgrwt>
</event>
<event>
12    1  0.1467288E-007  0.2798481E+04  0.7818608E-02  0.8303740E-01
         -2   -1    0    0    0  501 -0.00000000000E+00  0.00000000000E+00  0.25005778646E+04  0.25005778646E+04  0.00000000000E+00 0.  1.
          2   -1    0    0  501    0  0.00000000000E+00 -0.00000000000E+00 -0.78296874863E+03  0.78296874863E+03  0.00000000000E+00 0. -1.
         23    2    1    2    0    0  0.75074788354E+03  0.33977564710E+03  0.18681159965E+04  0.20441682616E+04  0.98471469266E+02 0.  0.
        254    2    1    2    0    0 -0.75074788354E+03 -0.33977564710E+03 -0.15050688053E+03  0.12393783517E+04  0.91342022227E+03 0.  0.
        -24    2    4    4    0    0 -0.83705029950E+03  0.20528637278E+02 -0.29846183066E+02  0.84153001777E+03  0.78786720538E+02 0.  0.
         24    2    4    4    0    0  0.86302415962E+02 -0.36030428437E+03 -0.12066069747E+03  0.39784833388E+03  0.80355513290E+02 0.  0.
         11    1    3    3    0    0  0.52404832262E+03  0.19559441804E+03  0.13251284956E+04  0.14383495231E+04  0.00000000000E+00 0.  1.
        -11    1    3    3    0    0  0.22669956092E+03  0.14418122905E+03  0.54298750097E+03  0.60581873852E+03  0.00000000000E+00 0. -1.
          4    1    6    6  502    0  0.49056867850E+02 -0.64916620672E+02 -0.27371441097E+02  0.85848352986E+02  0.00000000000E+00 0. -1.
          3    1    5    5  503    0 -0.87237633660E+02  0.25573303216E+02  0.32939537915E+01  0.90968393937E+02  0.00000000000E+00 0. -1.
         -4    1    5    5    0  503 -0.74981266584E+03 -0.50446659376E+01 -0.33140136857E+02  0.75056162384E+03  0.00000000000E+00 0.  1.
         -1    1    6    6    0  502  0.37245548112E+02 -0.29538766370E+03 -0.93289256368E+02  0.31199998089E+03  0.00000000000E+00 0.  1.
<mgrwt>
<rscale>  0 0.27984812E+04</rscale>
<asrwt>0</asrwt>
<pdfrwt beam="1">  1        2 0.12045673E+00 0.27984812E+04</pdfrwt>
<pdfrwt beam="2">  1       -2 0.38470428E+00 0.27984812E+04</pdfrwt>
<totfact> 0.28787251E-01</totfact>
</mgrwt>
</event>
<event>
12    1  0.2191382E-007  0.1756906E+04  0.7818608E-02  0.8729558E-01
          1   -1    0    0  501    0  0.00000000000E+00  0.00000000000E+00  0.90868930016E+03  0.90868930016E+03  0.00000000000E+00 0. -1.
         -1   -1    0    0    0  501 -0.00000000000E+00 -0.00000000000E+00 -0.84922283540E+03  0.84922283540E+03  0.00000000000E+00 0.  1.
         23    2    1    2    0    0  0.69005095156E+01  0.63567296242E+02 -0.62628010003E+03  0.63617566641E+03  0.91674951073E+02 0.  0.
        254    2    1    2    0    0 -0.69005095156E+01 -0.63567296242E+02  0.68574656479E+03  0.11217364691E+04  0.88541286240E+03 0.  0.
        -24    2    4    4    0    0 -0.15142104268E+03 -0.43807108761E+03  0.29009956246E+03  0.55241407343E+03  0.78542615314E+02 0.  0.
         24    2    4    4    0    0  0.14452053317E+03  0.37450379136E+03  0.39564700233E+03  0.56932239571E+03  0.80325373060E+02 0.  0.
         13    1    3    3    0    0  0.34051282693E+01  0.12140820896E+02 -0.63712575706E+01  0.14127538837E+02  0.00000000000E+00 0. -1.
        -13    1    3    3    0    0  0.34953812463E+01  0.51426475346E+02 -0.61990884246E+03  0.62204812757E+03  0.00000000000E+00 0.  1.
          2    1    6    6  502    0  0.14930913021E+03  0.30404138144E+03  0.32477333855E+03  0.46926762026E+03  0.00000000000E+00 0. -1.
          1    1    5    5  503    0 -0.15811789117E+03 -0.42646978325E+03  0.27223291958E+03  0.53008348969E+03  0.00000000000E+00 0. -1.
         -2    1    5    5    0  503  0.66968484909E+01 -0.11601304353E+02  0.17866642883E+02  0.22330583743E+02  0.00000000000E+00 0.  1.
         -1    1    6    6    0  502 -0.47885970393E+01  0.70462409927E+02  0.70873663779E+02  0.10005477546E+03  0.00000000000E+00 0.  1.
<mgrwt>
<rscale>  0 0.17569060E+04</rscale>
<asrwt>0</asrwt>
<pdfrwt beam="1">  1        1 0.13979835E+00 0.17569060E+04</pdfrwt>
<pdfrwt beam="2">  1       -1 0.13064967E+00 0.17569060E+04</pdfrwt>
<totfact> 0.84912721E+00</totfact>
</mgrwt>
</event>
<event>
12    1  0.1467288E-007  0.1393868E+04  0.7818608E-02  0.8958269E-01
          2   -1    0    0  501    0  0.00000000000E+00  0.00000000000E+00  0.99344445042E+03  0.99344445042E+03  0.00000000000E+00 0. -1.
         -2   -1    0    0    0  501 -0.00000000000E+00 -0.00000000000E+00 -0.48892224944E+03  0.48892224944E+03  0.00000000000E+00 0.  1.
         23    2    1    2    0    0  0.78415700766E+01 -0.35304600607E+03 -0.53944227822E+02  0.36791752216E+03  0.88036076570E+02 0.  0.
        254    2    1    2    0    0 -0.78415700766E+01  0.35304600607E+03  0.55846642879E+03  0.11144491777E+04  0.89744595656E+03 0.  0.
        -24    2    4    4    0    0 -0.39731790628E+01  0.70197266905E+02  0.75428231281E+03  0.76150559819E+03  0.77495330337E+02 0.  0.
         24    2    4    4    0    0 -0.38683910137E+01  0.28284873916E+03 -0.19581588401E+03  0.35294357951E+03  0.78784111261E+02 0.  0.
         13    1    3    3    0    0  0.18535480041E+02 -0.10857034313E+02 -0.52756304316E+01  0.22119482156E+02  0.00000000000E+00 0. -1.
        -13    1    3    3    0    0 -0.10693909964E+02 -0.34218897175E+03 -0.48668597391E+02  0.34579804001E+03  0.00000000000E+00 0.  1.
          4    1    6    6  502    0  0.46170078416E+01  0.13700098402E+02  0.67719539805E+01  0.15964611437E+02  0.00000000000E+00 0. -1.
          1    1    5    5  503    0  0.52849659212E+01  0.18251212853E+01  0.42667390451E+03  0.42671053739E+03  0.00000000000E+00 0. -1.
         -2    1    5    5    0  503 -0.92581449840E+01  0.68372145620E+02  0.32760840830E+03  0.33479506080E+03  0.00000000000E+00 0.  1.
         -3    1    6    6    0  502 -0.84853988553E+01  0.26914864076E+03 -0.20258783800E+03  0.33697896807E+03  0.00000000000E+00 0.  1.
<mgrwt>
<rscale>  0 0.13938681E+04</rscale>
<asrwt>0</asrwt>
<pdfrwt beam="1">  1        2 0.15283761E+00 0.13938681E+04</pdfrwt>
<pdfrwt beam="2">  1       -2 0.75218807E-01 0.13938681E+04</pdfrwt>
<totfact> 0.39302956E+01</totfact>
</mgrwt>
</event>
<event>
12    1  0.1467288E-007  0.1740028E+04  0.7818608E-02  0.8738859E-01
         -2   -1    0    0    0  501 -0.00000000000E+00  0.00000000000E+00  0.51449196141E+03  0.51449196141E+03  0.00000000000E+00 0.  1.
          2   -1    0    0  501    0  0.00000000000E+00 -0.00000000000E+00 -0.14712069782E+04  0.14712069782E+04  0.00000000000E+00 0. -1.
         23    2    1    2    0    0  0.37405377995E+03  0.50480235892E+03 -0.24415343074E+03  0.68031389141E+03  0.92056728316E+02 0.  0.
        254    2    1    2    0    0 -0.37405377995E+03 -0.50480235892E+03 -0.71256158605E+03  0.13053850482E+04  0.89529015314E+03 0.  0.
        -24    2    4    4    0    0 -0.34108370424E+03 -0.73546206575E+03 -0.40200498424E+03  0.90881924172E+03  0.84272553796E+02 0.  0.
         24    2    4    4    0    0 -0.32970075709E+02  0.23065970682E+03 -0.31055660182E+03  0.39656580649E+03  0.80796718364E+02 0.  0.
         11    1    3    3    0    0  0.21153150760E+03  0.33930593619E+03 -0.12131521911E+03  0.41784145250E+03  0.00000000000E+00 0.  1.
        -11    1    3    3    0    0  0.16252227235E+03  0.16549642273E+03 -0.12283821163E+03  0.26247243890E+03  0.00000000000E+00 0. -1.
          4    1    6    6  502    0  0.15299405383E+02  0.16157199129E+03 -0.20781286910E+03  0.26367739520E+03  0.00000000000E+00 0. -1.
          3    1    5    5  503    0 -0.14752949968E+03 -0.24420713251E+03 -0.16971281078E+03  0.33197065381E+03  0.00000000000E+00 0. -1.
         -4    1    5    5    0  503 -0.19355420456E+03 -0.49125493324E+03 -0.23229217345E+03  0.57684858792E+03  0.00000000000E+00 0.  1.
         -3    1    6    6    0  502 -0.48269481092E+02  0.69087715536E+02 -0.10274373271E+03  0.13288841129E+03  0.00000000000E+00 0.  1.
<mgrwt>
<rscale>  0 0.17400278E+04</rscale>
<asrwt>0</asrwt>
<pdfrwt beam="1">  1        2 0.22633953E+00 0.17400278E+04</pdfrwt>
<pdfrwt beam="2">  1       -2 0.79152610E-01 0.17400278E+04</pdfrwt>
<totfact> 0.17699538E+01</totfact>
</mgrwt>
</event>
<event>
12    1  0.1467288E-007  0.2548990E+04  0.7818608E-02  0.8385737E-01
          2   -1    0    0  501    0  0.00000000000E+00  0.00000000000E+00  0.23407475440E+04  0.23407475440E+04  0.00000000000E+00 0. -1.
         -2   -1    0    0    0  501 -0.00000000000E+00 -0.00000000000E+00 -0.69393976445E+03  0.69393976445E+03  0.00000000000E+00 0.  1.
         23    2    1    2    0    0  0.36448779335E+03  0.75323087040E+03 -0.15293292077E+03  0.85576502848E+03  0.93473044729E+02 0.  0.
        254    2    1    2    0    0 -0.36448779335E+03 -0.75323087040E+03  0.17997407003E+04  0.21789222800E+04  0.89912603015E+03 0.  0.
        -24    2    4    4    0    0 -0.47896840083E+03 -0.59451604688E+03  0.63895522422E+03  0.99886530896E+03  0.81290023242E+02 0.  0.
         24    2    4    4    0    0  0.11448060748E+03 -0.15871482352E+03  0.11607854761E+04  0.11800569710E+04  0.82555003486E+02 0.  0.
         13    1    3    3    0    0  0.17334161791E+03  0.43855811005E+03 -0.11676812448E+03  0.48581408716E+03  0.00000000000E+00 0.  1.
        -13    1    3    3    0    0  0.19114617545E+03  0.31467276035E+03 -0.36164796292E+02  0.36995094132E+03  0.00000000000E+00 0. -1.
          2    1    6    6  502    0  0.78836664677E+02 -0.43585560327E+02  0.42224205658E+03  0.43174445580E+03  0.00000000000E+00 0. -1.
          1    1    5    5  503    0 -0.38941038584E+02 -0.51162574677E+02  0.86411932164E+02  0.10770810347E+03  0.00000000000E+00 0. -1.
         -4    1    5    5    0  503 -0.44002736225E+03 -0.54335347221E+03  0.55254329206E+03  0.89115720548E+03  0.00000000000E+00 0.  1.
         -1    1    6    6    0  502  0.35643942801E+02 -0.11512926319E+03  0.73854341952E+03  0.74831251521E+03  0.00000000000E+00 0.  1.
<mgrwt>
<rscale>  0 0.25489902E+04</rscale>
<asrwt>0</asrwt>
<pdfrwt beam="1">  1        2 0.36011500E+00 0.25489902E+04</pdfrwt>
<pdfrwt beam="2">  1       -2 0.10675996E+00 0.25489902E+04</pdfrwt>
<totfact> 0.26959272E+00</totfact>
</mgrwt>
</event>
<event>
12    1  0.1467288E-007  0.2209947E+04  0.7818608E-02  0.8514299E-01
         -1   -1    0    0    0  501 -0.00000000000E+00  0.00000000000E+00  0.14788285752E+04  0.14788285752E+04  0.00000000000E+00 0.  1.
          1   -1    0    0  501    0  0.00000000000E+00 -0.00000000000E+00 -0.82563091241E+03  0.82563091241E+03  0.00000000000E+00 0. -1.
         23    2    1    2    0    0  0.17613311097E+03  0.18474033452E+03 -0.64783003770E+03  0.70212030630E+03  0.90206999665E+02 0.  0.
        254    2    1    2    0    0 -0.17613311097E+03 -0.18474033452E+03  0.13010277005E+04  0.16023391813E+04  0.89981437562E+03 0.  0.
        -24    2    4    4    0    0  0.14550925710E+03  0.29222558078E+03  0.32910913211E+03  0.47012292439E+03  0.78319916002E+02 0.  0.
         24    2    4    4    0    0 -0.32164236807E+03 -0.47696591530E+03  0.97191856841E+03  0.11322162569E+04  0.79609368679E+02 0.  0.
         13    1    3    3    0    0  0.59552320077E+02  0.41879520319E+02 -0.97238990191E+02  0.12147343027E+03  0.00000000000E+00 0.  1.
        -13    1    3    3    0    0  0.11658079089E+03  0.14286081421E+03 -0.55059104751E+03  0.58064687603E+03  0.00000000000E+00 0. -1.
          2    1    6    6  502    0 -0.23894897503E+03 -0.32282181533E+03  0.61167772462E+03  0.73175144409E+03  0.00000000000E+00 0. -1.
          3    1    5    5  503    0  0.19959611201E+02  0.47275633330E+02  0.98375953418E+02  0.11095584616E+03  0.00000000000E+00 0. -1.
         -4    1    5    5    0  503  0.12554964590E+03  0.24494994745E+03  0.23073317869E+03  0.35916707823E+03  0.00000000000E+00 0.  1.
         -1    1    6    6    0  502 -0.82693393030E+02 -0.15414409997E+03  0.36024084379E+03  0.40046481286E+03  0.00000000000E+00 0.  1.
<mgrwt>
<rscale>  0 0.22099471E+04</rscale>
<asrwt>0</asrwt>
<pdfrwt beam="1">  1        1 0.12702014E+00 0.22099471E+04</pdfrwt>
<pdfrwt beam="2">  1       -1 0.22751209E+00 0.22099471E+04</pdfrwt>
<totfact> 0.18762648E+00</totfact>
</mgrwt>
</event>
<event>
12    1  0.1467288E-007  0.1316806E+04  0.7818608E-02  0.9016343E-01
         -2   -1    0    0    0  501 -0.00000000000E+00  0.00000000000E+00  0.11978469051E+03  0.11978469051E+03  0.00000000000E+00 0. -1.
          2   -1    0    0  501    0  0.00000000000E+00 -0.00000000000E+00 -0.36189499798E+04  0.36189499798E+04  0.00000000000E+00 0.  1.
         23    2    1    2    0    0 -0.25673153609E+03  0.11176663148E+03 -0.15114769528E+04  0.15397408164E+04  0.88523112034E+02 0.  0.
        254    2    1    2    0    0  0.25673153609E+03 -0.11176663148E+03 -0.19876883365E+04  0.21989938539E+04  0.89792326228E+03 0.  0.
        -24    2    4    4    0    0  0.22547171518E+03 -0.41006390147E+03 -0.54319794559E+03  0.72140348239E+03  0.79806507704E+02 0.  0.
         24    2    4    4    0    0  0.31259820909E+02  0.29829726998E+03 -0.14444903909E+04  0.14775903715E+04  0.82233684678E+02 0.  0.
         11    1    3    3    0    0 -0.50413721820E+02  0.56186587238E+02 -0.28706207027E+03  0.29682167731E+03  0.00000000000E+00 0. -1.
        -11    1    3    3    0    0 -0.20631781427E+03  0.55580044246E+02 -0.12244148825E+04  0.12429191391E+04  0.00000000000E+00 0.  1.
          4    1    6    6  502    0  0.40687542576E+02  0.27346124010E+03 -0.13866248151E+04  0.14139182805E+04  0.00000000000E+00 0. -1.
          1    1    5    5  503    0  0.17426988122E+03 -0.25611681468E+03 -0.31903454521E+03  0.44468961681E+03  0.00000000000E+00 0. -1.
         -2    1    5    5    0  503  0.51201833961E+02 -0.15394708679E+03 -0.22416340038E+03  0.27671386558E+03  0.00000000000E+00 0.  1.
         -1    1    6    6    0  502 -0.94277216673E+01  0.24836029889E+02 -0.57865575778E+02  0.63672091034E+02  0.00000000000E+00 0.  1.
<mgrwt>
<rscale>  0 0.13168064E+04</rscale>
<asrwt>0</asrwt>
<pdfrwt beam="1">  1        2 0.55676142E+00 0.13168064E+04</pdfrwt>
<pdfrwt beam="2">  1       -2 0.18428418E-01 0.13168064E+04</pdfrwt>
<totfact> 0.16529032E+01</totfact>
</mgrwt>
</event>
<event>
12    1  0.1467288E-007  0.1261063E+04  0.7818608E-02  0.9061025E-01
         -2   -1    0    0    0  501 -0.00000000000E+00  0.00000000000E+00  0.27930938008E+03  0.27930938008E+03  0.00000000000E+00 0.  1.
          2   -1    0    0  501    0  0.00000000000E+00 -0.00000000000E+00 -0.14234046782E+04  0.14234046782E+04  0.00000000000E+00 0. -1.
         23    2    1    2    0    0  0.24046239349E+03  0.15887413828E+03 -0.16473484080E+03  0.34457868580E+03  0.92378289839E+02 0.  0.
        254    2    1    2    0    0 -0.24046239349E+03 -0.15887413828E+03 -0.97936045735E+03  0.13581353725E+04  0.89572408148E+03 0.  0.
        -24    2    4    4    0    0 -0.30479198785E+03  0.25464917187E+03 -0.16333923796E+03  0.43772045882E+03  0.84706179398E+02 0.  0.
         24    2    4    4    0    0  0.64329594357E+02 -0.41352331014E+03 -0.81602121940E+03  0.92041491369E+03  0.78314482031E+02 0.  0.
         11    1    3    3    0    0  0.29418775503E+02  0.49420460341E+02 -0.64932642434E+02  0.86741537373E+02  0.00000000000E+00 0. -1.
        -11    1    3    3    0    0  0.21104361799E+03  0.10945367794E+03 -0.99802198370E+02  0.25783714842E+03  0.00000000000E+00 0.  1.
          4    1    6    6  502    0  0.12540372393E+02 -0.67122603768E+01 -0.43868405185E+02  0.46116725302E+02  0.00000000000E+00 0. -1.
          1    1    5    5  503    0 -0.16241787857E+02  0.69965082098E+01  0.94479124442E+01  0.20050183278E+02  0.00000000000E+00 0. -1.
         -2    1    5    5    0  503 -0.28855019999E+03  0.24765266366E+03 -0.17278715040E+03  0.41767027555E+03  0.00000000000E+00 0.  1.
         -3    1    6    6    0  502  0.51789221964E+02 -0.40681104977E+03 -0.77215281421E+03  0.87429818839E+03  0.00000000000E+00 0.  1.
<mgrwt>
<rscale>  0 0.12610635E+04</rscale>
<asrwt>0</asrwt>
<pdfrwt beam="1">  1        2 0.21898534E+00 0.12610635E+04</pdfrwt>
<pdfrwt beam="2">  1       -2 0.42970673E-01 0.12610635E+04</pdfrwt>
<totfact> 0.70772084E+01</totfact>
</mgrwt>
</event>
<event>
12    1  0.1467288E-007  0.1757141E+04  0.7818608E-02  0.8729429E-01
          1   -1    0    0  501    0  0.00000000000E+00  0.00000000000E+00  0.11532905323E+04  0.11532905323E+04  0.00000000000E+00 0. -1.
         -1   -1    0    0    0  501 -0.00000000000E+00 -0.00000000000E+00 -0.66929049786E+03  0.66929049786E+03  0.00000000000E+00 0.  1.
         23    2    1    2    0    0  0.26079836168E+03 -0.40928758324E+03 -0.26933924372E+03  0.56288655293E+03  0.93624419958E+02 0.  0.
        254    2    1    2    0    0 -0.26079836168E+03  0.40928758324E+03  0.75333927816E+03  0.12596944772E+04  0.88531237239E+03 0.  0.
        -24    2    4    4    0    0 -0.25397317041E+03 -0.23833278231E+03  0.28148049231E+03  0.45451186650E+03  0.77748844508E+02 0.  0.
         24    2    4    4    0    0 -0.68251912648E+01  0.64762036556E+03  0.47185878584E+03  0.80518261073E+03  0.78801026180E+02 0.  0.
         11    1    3    3    0    0 -0.29405580001E+01 -0.24442821448E+02 -0.91840933532E+00  0.24636190400E+02  0.00000000000E+00 0. -1.
        -11    1    3    3    0    0  0.26373891968E+03 -0.38484476180E+03 -0.26842083438E+03  0.53825036253E+03  0.00000000000E+00 0.  1.
          4    1    6    6  502    0  0.79999851609E+01  0.62680792713E+03  0.45211376626E+03  0.77289005357E+03  0.00000000000E+00 0. -1.
          3    1    5    5  503    0 -0.18981908898E+03 -0.16795124465E+03  0.15836242585E+03  0.29886044409E+03  0.00000000000E+00 0. -1.
         -4    1    5    5    0  503 -0.64154081430E+02 -0.70381537662E+02  0.12311806646E+03  0.15565142241E+03  0.00000000000E+00 0.  1.
         -3    1    6    6    0  502 -0.14825176426E+02  0.20812438433E+02  0.19745019582E+02  0.32292557159E+02  0.00000000000E+00 0.  1.
<mgrwt>
<rscale>  0 0.17571413E+04</rscale>
<asrwt>0</asrwt>
<pdfrwt beam="1">  1        1 0.17742931E+00 0.17571413E+04</pdfrwt>
<pdfrwt beam="2">  1       -1 0.10296777E+00 0.17571413E+04</pdfrwt>
<totfact> 0.97612645E+00</totfact>
</mgrwt>
</event>
<event>
12    1  0.1467288E-007  0.2253376E+04  0.7818608E-02  0.8496535E-01
          1   -1    0    0  501    0  0.00000000000E+00  0.00000000000E+00  0.90686765592E+03  0.90686765592E+03  0.00000000000E+00 0. -1.
         -1   -1    0    0    0  501 -0.00000000000E+00 -0.00000000000E+00 -0.13997915740E+04  0.13997915740E+04  0.00000000000E+00 0.  1.
         23    2    1    2    0    0 -0.25484064446E+03  0.90171735798E+03 -0.32369105454E+03  0.99537745346E+03  0.89232439908E+02 0.  0.
        254    2    1    2    0    0  0.25484064446E+03 -0.90171735798E+03 -0.16923286352E+03  0.13112817764E+04  0.90154433465E+03 0.  0.
        -24    2    4    4    0    0  0.54013339818E+03 -0.50205914506E+03 -0.29597211327E+03  0.79865602125E+03  0.80277490497E+02 0.  0.
         24    2    4    4    0    0 -0.28529275372E+03 -0.39965821292E+03  0.12673924975E+03  0.51262575518E+03  0.74857764932E+02 0.  0.
         11    1    3    3    0    0 -0.12053614240E+03  0.31415736352E+03 -0.84496939361E+02  0.34693449445E+03  0.00000000000E+00 0. -1.
        -11    1    3    3    0    0 -0.13430450206E+03  0.58755999446E+03 -0.23919411517E+03  0.64844295901E+03  0.00000000000E+00 0.  1.
          2    1    6    6  502    0 -0.22264753209E+02 -0.93230963125E+01 -0.31603437234E+01  0.24343934209E+02  0.00000000000E+00 0. -1.
          3    1    5    5  503    0  0.96443645191E+02 -0.13435458797E+03 -0.72741930562E+02  0.18067628640E+03  0.00000000000E+00 0. -1.
         -4    1    5    5    0  503  0.44368975299E+03 -0.36770455709E+03 -0.22323018271E+03  0.61797973485E+03  0.00000000000E+00 0.  1.
         -1    1    6    6    0  502 -0.26302800051E+03 -0.39033511660E+03  0.12989959347E+03  0.48828182097E+03  0.00000000000E+00 0.  1.
<mgrwt>
<rscale>  0 0.22533759E+04</rscale>
<asrwt>0</asrwt>
<pdfrwt beam="1">  1        1 0.13951810E+00 0.22533759E+04</pdfrwt>
<pdfrwt beam="2">  1       -1 0.21535255E+00 0.22533759E+04</pdfrwt>
<totfact> 0.19276931E+00</totfact>
</mgrwt>
</event>
<event>
12    1  0.1467288E-007  0.1459822E+04  0.7818608E-02  0.8911619E-01
         -1   -1    0    0    0  501 -0.00000000000E+00  0.00000000000E+00  0.37113431297E+03  0.37113431297E+03  0.00000000000E+00 0.  1.
          1   -1    0    0  501    0  0.00000000000E+00 -0.00000000000E+00 -0.14355182646E+04  0.14355182646E+04  0.00000000000E+00 0. -1.
         23    2    1    2    0    0 -0.16981987460E+03  0.54546767682E+02  0.16442992546E+03  0.26804273125E+03  0.11399809523E+03 0.  0.
        254    2    1    2    0    0  0.16981987460E+03 -0.54546767682E+02 -0.12288138771E+04  0.15386098463E+04  0.90858272875E+03 0.  0.
        -24    2    4    4    0    0 -0.17283953279E+03 -0.38765762383E+03 -0.47436792647E+03  0.64153111564E+03  0.79908105185E+02 0.  0.
         24    2    4    4    0    0  0.34265940739E+03  0.33311085614E+03 -0.75444595060E+03  0.89707873065E+03  0.84754024452E+02 0.  0.
         13    1    3    3    0    0 -0.10981326823E+03  0.61039109552E+00  0.34513757511E+02  0.11511092873E+03  0.00000000000E+00 0.  1.
        -13    1    3    3    0    0 -0.60006606375E+02  0.53936376586E+02  0.12991616795E+03  0.15293180252E+03  0.00000000000E+00 0. -1.
          4    1    6    6  502    0  0.34257604629E+03  0.31264755445E+03 -0.70880756790E+03  0.84706257685E+03  0.00000000000E+00 0. -1.
          1    1    5    5  503    0 -0.15254434547E+03 -0.26997631795E+03 -0.31108458838E+03  0.43923867170E+03  0.00000000000E+00 0. -1.
         -2    1    5    5    0  503 -0.20295187324E+02 -0.11768130587E+03 -0.16328333808E+03  0.20229244394E+03  0.00000000000E+00 0.  1.
         -3    1    6    6    0  502  0.83361098352E-01  0.20463301695E+02 -0.45638382704E+02  0.50016153802E+02  0.00000000000E+00 0.  1.
<mgrwt>
<rscale>  0 0.14598220E+04</rscale>
<asrwt>0</asrwt>
<pdfrwt beam="1">  1        1 0.22084897E+00 0.14598220E+04</pdfrwt>
<pdfrwt beam="2">  1       -1 0.57097586E-01 0.14598220E+04</pdfrwt>
<totfact> 0.21864177E+01</totfact>
</mgrwt>
</event>
<event>
12    1  0.1467288E-007  0.1245157E+04  0.7818608E-02  0.9074224E-01
          1   -1    0    0  501    0  0.00000000000E+00  0.00000000000E+00  0.12077977109E+04  0.12077977109E+04  0.00000000000E+00 0. -1.
         -1   -1    0    0    0  501 -0.00000000000E+00 -0.00000000000E+00 -0.32091783536E+03  0.32091783536E+03  0.00000000000E+00 0.  1.
         23    2    1    2    0    0  0.64851413553E+02 -0.10134241715E+03 -0.10701590193E+03  0.18431471080E+03  0.89685662158E+02 0.  0.
        254    2    1    2    0    0 -0.64851413553E+02  0.10134241715E+03  0.99389577748E+03  0.13444008355E+04  0.89727855127E+03 0.  0.
        -24    2    4    4    0    0 -0.39593794164E+03  0.14398342579E+03  0.88596314232E+03  0.98435696802E+03  0.80807613507E+02 0.  0.
         24    2    4    4    0    0  0.33108652808E+03 -0.42641008646E+02  0.10793263515E+03  0.36004386745E+03  0.80904808633E+02 0.  0.
         13    1    3    3    0    0  0.55218702300E+02 -0.71740251829E+02 -0.12022467454E+03  0.15049830958E+03  0.00000000000E+00 0.  1.
        -13    1    3    3    0    0  0.96327112530E+01 -0.29602165319E+02  0.13208772612E+02  0.33816401221E+02  0.00000000000E+00 0. -1.
          4    1    6    6  502    0  0.15945311392E+03 -0.60072201816E+02  0.43217757167E+02  0.17578890609E+03  0.00000000000E+00 0. -1.
          1    1    5    5  503    0 -0.38924494226E+03  0.13052538555E+03  0.87213305341E+03  0.96393182550E+03  0.00000000000E+00 0. -1.
         -2    1    5    5    0  503 -0.66929993726E+01  0.13458040241E+02  0.13830088909E+02  0.20425142520E+02  0.00000000000E+00 0.  1.
         -3    1    6    6    0  502  0.17163341416E+03  0.17431193169E+02  0.64714877987E+02  0.18425496136E+03  0.00000000000E+00 0.  1.
<mgrwt>
<rscale>  0 0.12451567E+04</rscale>
<asrwt>0</asrwt>
<pdfrwt beam="1">  1        1 0.18581503E+00 0.12451567E+04</pdfrwt>
<pdfrwt beam="2">  1       -1 0.49371975E-01 0.12451567E+04</pdfrwt>
<totfact> 0.42766018E+01</totfact>
</mgrwt>
</event>
<event>
12    1  0.1467288E-007  0.2264236E+04  0.7818608E-02  0.8492157E-01
         -1   -1    0    0    0  501 -0.00000000000E+00  0.00000000000E+00  0.19628085690E+04  0.19628085690E+04  0.00000000000E+00 0.  1.
          1   -1    0    0  501    0  0.00000000000E+00 -0.00000000000E+00 -0.65298849222E+03  0.65298849222E+03  0.00000000000E+00 0. -1.
         23    2    1    2    0    0 -0.91932927712E+03  0.21475526375E+03  0.71032501049E+03  0.11838540879E+04  0.75251164855E+02 0.  0.
        254    2    1    2    0    0  0.91932927712E+03 -0.21475526375E+03  0.59949506626E+03  0.14319429733E+04  0.89430431133E+03 0.  0.
        -24    2    4    4    0    0 -0.12709522576E+03  0.58844338022E+02  0.23890937047E+03  0.28917314075E+03  0.83231998072E+02 0.  0.
         24    2    4    4    0    0  0.10464245029E+04 -0.27359960178E+03  0.36058569579E+03  0.11427698326E+04  0.77716561151E+02 0.  0.
         11    1    3    3    0    0 -0.68617141730E+03  0.16612415329E+03  0.48979044728E+03  0.85925731330E+03  0.00000000000E+00 0.  1.
        -11    1    3    3    0    0 -0.23315785982E+03  0.48631110463E+02  0.22053456321E+03  0.32459677459E+03  0.00000000000E+00 0. -1.
          2    1    6    6  502    0  0.79207764843E+03 -0.17286103349E+03  0.27629682527E+03  0.85650912061E+03  0.00000000000E+00 0. -1.
          1    1    5    5  503    0 -0.12183029165E+03  0.62881272497E+02  0.16307710433E+03  0.21305120594E+03  0.00000000000E+00 0. -1.
         -2    1    5    5    0  503 -0.52649341082E+01 -0.40369344751E+01  0.75832266141E+02  0.76121934810E+02  0.00000000000E+00 0.  1.
         -1    1    6    6    0  502  0.25434685445E+03 -0.10073856829E+03  0.84288870516E+02  0.28626071194E+03  0.00000000000E+00 0.  1.
<mgrwt>
<rscale>  0 0.22642362E+04</rscale>
<asrwt>0</asrwt>
<pdfrwt beam="1">  1        1 0.10045977E+00 0.22642362E+04</pdfrwt>
<pdfrwt beam="2">  1       -1 0.30197055E+00 0.22642362E+04</pdfrwt>
<totfact> 0.87977119E-01</totfact>
</mgrwt>
</event>
<event>
12    1  0.1467288E-007  0.2170013E+04  0.7818608E-02  0.8531014E-01
         -1   -1    0    0    0  501 -0.00000000000E+00  0.00000000000E+00  0.30867900060E+03  0.30867900060E+03  0.00000000000E+00 0.  1.
          1   -1    0    0  501    0  0.00000000000E+00 -0.00000000000E+00 -0.38137984594E+04  0.38137984594E+04  0.00000000000E+00 0. -1.
         23    2    1    2    0    0 -0.36261095890E+03  0.69598241282E+03 -0.22821786446E+04  0.24151754724E+04  0.94100851083E+02 0.  0.
        254    2    1    2    0    0  0.36261095890E+03 -0.69598241282E+03 -0.12229408142E+04  0.17073019876E+04  0.89633565997E+03 0.  0.
        -24    2    4    4    0    0 -0.99958786638E+02 -0.55299448923E+03 -0.25499098872E+03  0.62205719461E+03  0.78358693830E+02 0.  0.
         24    2    4    4    0    0  0.46256974554E+03 -0.14298792360E+03 -0.96794982545E+03  0.10852447930E+04  0.80081709985E+02 0.  0.
         13    1    3    3    0    0 -0.26493865041E+03  0.57980295909E+03 -0.18926750045E+04  0.19971436184E+04  0.00000000000E+00 0. -1.
        -13    1    3    3    0    0 -0.97672308492E+02  0.11617945373E+03 -0.38950364018E+03  0.41803185409E+03  0.00000000000E+00 0.  1.
          2    1    6    6  502    0  0.32577828040E+03 -0.71063284125E+02 -0.60592296683E+03  0.69160980333E+03  0.00000000000E+00 0. -1.
          3    1    5    5  503    0 -0.57627777729E+02 -0.22788194333E+03 -0.14529230294E+03  0.27633493112E+03  0.00000000000E+00 0. -1.
         -4    1    5    5    0  503 -0.42331008910E+02 -0.32511254590E+03 -0.10969868578E+03  0.34572226350E+03  0.00000000000E+00 0.  1.
         -1    1    6    6    0  502  0.13679146514E+03 -0.71924639471E+02 -0.36202685862E+03  0.39363498963E+03  0.00000000000E+00 0.  1.
<mgrwt>
<rscale>  0 0.21700134E+04</rscale>
<asrwt>0</asrwt>
<pdfrwt beam="1">  1        1 0.58673826E+00 0.21700134E+04</pdfrwt>
<pdfrwt beam="2">  1       -1 0.47489074E-01 0.21700134E+04</pdfrwt>
<totfact> 0.56409938E-01</totfact>
</mgrwt>
</event>
<event>
12    1  0.1467288E-007  0.3732199E+04  0.7818608E-02  0.8060863E-01
         -2   -1    0    0    0  501 -0.00000000000E+00  0.00000000000E+00  0.14742293936E+04  0.14742293936E+04  0.00000000000E+00 0. -1.
          2   -1    0    0  501    0  0.00000000000E+00 -0.00000000000E+00 -0.23621335274E+04  0.23621335274E+04  0.00000000000E+00 0.  1.
         23    2    1    2    0    0  0.67565693613E+03  0.12646242043E+03 -0.20811401276E+04  0.21936258073E+04  0.91350493471E+02 0.  0.
        254    2    1    2    0    0 -0.67565693613E+03 -0.12646242043E+03  0.11932359938E+04  0.16427371137E+04  0.89569417154E+03 0.  0.
        -24    2    4    4    0    0 -0.71382690606E+03 -0.39980267377E+02  0.12957872020E+04  0.14821366212E+04  0.80729285232E+02 0.  0.
         24    2    4    4    0    0  0.38169969930E+02 -0.86482153057E+02 -0.10255120821E+03  0.16060049255E+03  0.79621972458E+02 0.  0.
         11    1    3    3    0    0  0.32158646907E+03  0.33944838663E+02 -0.85814179442E+03  0.91704822583E+03  0.00000000000E+00 0. -1.
        -11    1    3    3    0    0  0.35407046705E+03  0.92517581770E+02 -0.12229983331E+04  0.12765775814E+04  0.00000000000E+00 0.  1.
          4    1    6    6  502    0  0.41795088882E+02 -0.53907802552E+02 -0.10763903255E+03  0.12743249962E+03  0.00000000000E+00 0. -1.
          1    1    5    5  503    0 -0.68191480870E+03 -0.51591771165E+02  0.12101443990E+04  0.13900068286E+04  0.00000000000E+00 0. -1.
         -2    1    5    5    0  503 -0.31912097355E+02  0.11611503788E+02  0.85642803035E+02  0.92129792627E+02  0.00000000000E+00 0.  1.
         -3    1    6    6    0  502 -0.36251189525E+01 -0.32574350505E+02  0.50878243384E+01  0.33167992926E+02  0.00000000000E+00 0.  1.
<mgrwt>
<rscale>  0 0.37321986E+04</rscale>
<asrwt>0</asrwt>
<pdfrwt beam="1">  1        2 0.36340515E+00 0.37321986E+04</pdfrwt>
<pdfrwt beam="2">  1       -2 0.22680452E+00 0.37321986E+04</pdfrwt>
<totfact> 0.30168043E-01</totfact>
</mgrwt>
</event>
<event>
12    1  0.1467288E-007  0.2944731E+04  0.7818608E-02  0.8259692E-01
          2   -1    0    0  501    0  0.00000000000E+00  0.00000000000E+00  0.27475231660E+04  0.27475231660E+04  0.00000000000E+00 0. -1.
         -2   -1    0    0    0  501 -0.00000000000E+00 -0.00000000000E+00 -0.78902337106E+03  0.78902337106E+03  0.00000000000E+00 0.  1.
         23    2    1    2    0    0 -0.37342166115E+03 -0.12663207422E+04  0.67702026741E+03  0.14865048334E+04  0.91259071632E+02 0.  0.
        254    2    1    2    0    0  0.37342166115E+03  0.12663207422E+04  0.12814795276E+04  0.20500417037E+04  0.90414005997E+03 0.  0.
        -24    2    4    4    0    0  0.51984273582E+02  0.12571533860E+04  0.92996363893E+03  0.15666823887E+04  0.80773366175E+02 0.  0.
         24    2    4    4    0    0  0.32143738757E+03  0.91673561766E+01  0.35151588863E+03  0.48335931494E+03  0.81650308247E+02 0.  0.
         13    1    3    3    0    0 -0.35401154796E+03 -0.11534603433E+04  0.64210955698E+03  0.13667844098E+04  0.00000000000E+00 0.  1.
        -13    1    3    3    0    0 -0.19410113189E+02 -0.11286039888E+03  0.34910710425E+02  0.11972042362E+03  0.00000000000E+00 0. -1.
          2    1    6    6  502    0  0.19559844915E+03 -0.21922586263E+02  0.16854783221E+03  0.25912878042E+03  0.00000000000E+00 0. -1.
          1    1    5    5  503    0  0.64907790487E+02  0.11580020304E+04  0.87249160136E+03  0.14513522378E+04  0.00000000000E+00 0. -1.
         -2    1    5    5    0  503 -0.12923516905E+02  0.99151355623E+02  0.57472037576E+02  0.11533015093E+03  0.00000000000E+00 0.  1.
         -1    1    6    6    0  502  0.12583893841E+03  0.31089942440E+02  0.18296805642E+03  0.22423053452E+03  0.00000000000E+00 0.  1.
<mgrwt>
<rscale>  0 0.29447309E+04</rscale>
<asrwt>0</asrwt>
<pdfrwt beam="1">  1        2 0.42269587E+00 0.29447309E+04</pdfrwt>
<pdfrwt beam="2">  1       -2 0.12138821E+00 0.29447309E+04</pdfrwt>
<totfact> 0.11031711E+00</totfact>
</mgrwt>
</event>
<event>
12    1  0.1467288E-007  0.1500799E+04  0.7818608E-02  0.8883921E-01
          2   -1    0    0  501    0  0.00000000000E+00  0.00000000000E+00  0.21651866466E+04  0.21651866466E+04  0.00000000000E+00 0. -1.
         -2   -1    0    0    0  501 -0.00000000000E+00 -0.00000000000E+00 -0.26006985731E+03  0.26006985731E+03  0.00000000000E+00 0.  1.
         23    2    1    2    0    0 -0.41789798985E+03  0.75950432621E+02  0.27013840938E+03  0.51166004062E+03  0.91728069920E+02 0.  0.
        254    2    1    2    0    0  0.41789798985E+03 -0.75950432621E+02  0.16349783799E+04  0.19135964632E+04  0.89904945546E+03 0.  0.
        -24    2    4    4    0    0  0.10644922272E+03  0.13628279228E+03 -0.39699000107E+02  0.19496176677E+03  0.80806208941E+02 0.  0.
         24    2    4    4    0    0  0.31144876713E+03 -0.21223322490E+03  0.16746773800E+04  0.17186346965E+04  0.84365968333E+02 0.  0.
         11    1    3    3    0    0 -0.49327343019E+02 -0.20687748148E+02  0.34729107482E+02  0.63775234999E+02  0.00000000000E+00 0. -1.
        -11    1    3    3    0    0 -0.36857064683E+03  0.96638180769E+02  0.23540930190E+03  0.44788480562E+03  0.00000000000E+00 0.  1.
          2    1    6    6  502    0  0.18296747285E+03 -0.14954190246E+03  0.11935352945E+04  0.12167030764E+04  0.00000000000E+00 0. -1.
          1    1    5    5  503    0  0.10178575566E+03  0.14240057853E+03 -0.50061498115E+02  0.18205608590E+03  0.00000000000E+00 0. -1.
         -2    1    5    5    0  503  0.46634670613E+01 -0.61177862518E+01  0.10362498008E+02  0.12905680866E+02  0.00000000000E+00 0.  1.
         -1    1    6    6    0  502  0.12848129428E+03 -0.62691322443E+02  0.48114208544E+03  0.50193162012E+03  0.00000000000E+00 0.  1.
<mgrwt>
<rscale>  0 0.15007995E+04</rscale>
<asrwt>0</asrwt>
<pdfrwt beam="1">  1        2 0.33310563E+00 0.15007995E+04</pdfrwt>
<pdfrwt beam="2">  1       -2 0.40010749E-01 0.15007995E+04</pdfrwt>
<totfact> 0.30878912E+01</totfact>
</mgrwt>
</event>
<event>
12    1  0.1467288E-007  0.2076758E+04  0.7818608E-02  0.8571552E-01
         -2   -1    0    0    0  501 -0.00000000000E+00  0.00000000000E+00  0.55346647415E+03  0.55346647415E+03  0.00000000000E+00 0.  1.
          2   -1    0    0  501    0  0.00000000000E+00 -0.00000000000E+00 -0.19481405558E+04  0.19481405558E+04  0.00000000000E+00 0. -1.
         23    2    1    2    0    0 -0.19455890125E+03 -0.63449117608E+03 -0.12720850035E+04  0.14375863096E+04  0.89565187521E+02 0.  0.
        254    2    1    2    0    0  0.19455890125E+03  0.63449117608E+03 -0.12258907810E+03  0.10640207203E+04  0.82260549026E+03 0.  0.
        -24    2    4    4    0    0 -0.15925928624E+03  0.49491350575E+03  0.19560929059E+03  0.56121277627E+03  0.79961786225E+02 0.  0.
         24    2    4    4    0    0  0.35381818749E+03  0.13957767033E+03 -0.31819836869E+03  0.50280794404E+03  0.83044511572E+02 0.  0.
         11    1    3    3    0    0 -0.16634924910E+03 -0.45467045962E+03 -0.98700903485E+03  0.10993562363E+04  0.00000000000E+00 0. -1.
        -11    1    3    3    0    0 -0.28209652156E+02 -0.17982071646E+03 -0.28507596865E+03  0.33823007324E+03  0.00000000000E+00 0.  1.
          4    1    6    6  502    0  0.58738142632E+02  0.17810310411E+02 -0.95729439709E+02  0.11371676299E+03  0.00000000000E+00 0. -1.
          1    1    5    5  503    0  0.11894814812E+01  0.15931138225E+00 -0.39456991912E+01  0.41241712401E+01  0.00000000000E+00 0. -1.
         -2    1    5    5    0  503 -0.16044876772E+03  0.49475419437E+03  0.19955498978E+03  0.55708860503E+03  0.00000000000E+00 0.  1.
         -3    1    6    6    0  502  0.29508004486E+03  0.12176735992E+03 -0.22246892898E+03  0.38909118106E+03  0.00000000000E+00 0.  1.
<mgrwt>
<rscale>  0 0.20767576E+04</rscale>
<asrwt>0</asrwt>
<pdfrwt beam="1">  1        2 0.29971393E+00 0.20767576E+04</pdfrwt>
<pdfrwt beam="2">  1       -2 0.85148688E-01 0.20767576E+04</pdfrwt>
<totfact> 0.79109058E+00</totfact>
</mgrwt>
</event>
<event>
12    1  0.1467288E-007  0.1250684E+04  0.7818608E-02  0.9069614E-01
          2   -1    0    0  501    0  0.00000000000E+00  0.00000000000E+00  0.87924678524E+03  0.87924678524E+03  0.00000000000E+00 0. -1.
         -2   -1    0    0    0  501 -0.00000000000E+00 -0.00000000000E+00 -0.44475878784E+03  0.44475878784E+03  0.00000000000E+00 0.  1.
         23    2    1    2    0    0 -0.77258255577E+02 -0.40169913041E+02  0.51450022676E+03  0.52936528764E+03  0.89076733567E+02 0.  0.
        254    2    1    2    0    0  0.77258255577E+02  0.40169913041E+02 -0.80012229349E+02  0.79464028544E+03  0.78579180857E+03 0.  0.
        -24    2    4    4    0    0 -0.47018497396E+02 -0.32994812809E+03 -0.17446054715E+03  0.38520340675E+03  0.82877474208E+02 0.  0.
         24    2    4    4    0    0  0.12427675297E+03  0.37011804113E+03  0.94448317805E+02  0.40943687868E+03  0.79284280847E+02 0.  0.
         13    1    3    3    0    0 -0.56045322271E+02 -0.64704665320E+02  0.43778465206E+03  0.44607530019E+03  0.00000000000E+00 0. -1.
        -13    1    3    3    0    0 -0.21212933306E+02  0.24534752279E+02  0.76715574694E+02  0.83289987450E+02  0.00000000000E+00 0.  1.
          4    1    6    6  502    0  0.10862266524E+03  0.36604455632E+03  0.86892323402E+02  0.39158367750E+03  0.00000000000E+00 0. -1.
          3    1    5    5  503    0 -0.44627073329E+02 -0.32799204408E+03 -0.18150529559E+03  0.37751096538E+03  0.00000000000E+00 0. -1.
         -4    1    5    5    0  503 -0.23914240666E+01 -0.19560840109E+01  0.70447484367E+01  0.76924413719E+01  0.00000000000E+00 0.  1.
         -3    1    6    6    0  502  0.15654087728E+02  0.40734848097E+01  0.75559944034E+01  0.17853201184E+02  0.00000000000E+00 0.  1.
<mgrwt>
<rscale>  0 0.12506842E+04</rscale>
<asrwt>0</asrwt>
<pdfrwt beam="1">  1        2 0.13526874E+00 0.12506842E+04</pdfrwt>
<pdfrwt beam="2">  1       -2 0.68424429E-01 0.12506842E+04</pdfrwt>
<totfact> 0.58219780E+01</totfact>
</mgrwt>
</event>
<event>
12    1  0.1467288E-007  0.1337477E+04  0.7818608E-02  0.9000363E-01
         -2   -1    0    0    0  501 -0.00000000000E+00  0.00000000000E+00  0.27324049801E+03  0.27324049801E+03  0.00000000000E+00 0.  1.
          2   -1    0    0  501    0  0.00000000000E+00 -0.00000000000E+00 -0.16366934239E+04  0.16366934239E+04  0.00000000000E+00 0. -1.
         23    2    1    2    0    0  0.26651786823E+03 -0.16267360246E+03 -0.56042197566E+03  0.64775357443E+03  0.89540087979E+02 0.  0.
        254    2    1    2    0    0 -0.26651786823E+03  0.16267360246E+03 -0.80303095019E+03  0.12621803474E+04  0.92235895804E+03 0.  0.
        -24    2    4    4    0    0  0.15044189164E+02  0.49639635562E+03 -0.57140681785E+03  0.76154930032E+03  0.82558560029E+02 0.  0.
         24    2    4    4    0    0 -0.28156205740E+03 -0.33372275316E+03 -0.23162413234E+03  0.50063104712E+03  0.79584159964E+02 0.  0.
         11    1    3    3    0    0  0.90419672646E+02 -0.50930859160E+02 -0.10910464989E+03  0.15057720360E+03  0.00000000000E+00 0.  1.
        -11    1    3    3    0    0  0.17609819559E+03 -0.11174274330E+03 -0.45131732577E+03  0.49717637082E+03  0.00000000000E+00 0. -1.
          2    1    6    6  502    0  0.24317409705E+01  0.14244893324E+01 -0.63479017194E+01  0.69453862560E+01  0.00000000000E+00 0. -1.
          1    1    5    5  503    0 -0.16285912633E+02  0.12751921234E+03 -0.10440157630E+03  0.16560818096E+03  0.00000000000E+00 0. -1.
         -2    1    5    5    0  503  0.31330101797E+02  0.36887714328E+03 -0.46700524155E+03  0.59594111936E+03  0.00000000000E+00 0.  1.
         -1    1    6    6    0  502 -0.28399379837E+03 -0.33514724249E+03 -0.22527623062E+03  0.49368566087E+03  0.00000000000E+00 0.  1.
<mgrwt>
<rscale>  0 0.13374766E+04</rscale>
<asrwt>0</asrwt>
<pdfrwt beam="1">  1        2 0.25179899E+00 0.13374766E+04</pdfrwt>
<pdfrwt beam="2">  1       -2 0.42037000E-01 0.13374766E+04</pdfrwt>
<totfact> 0.55760271E+01</totfact>
</mgrwt>
</event>
<event>
12    1  0.1467288E-007  0.3277924E+04  0.7818608E-02  0.8168535E-01
         -1   -1    0    0    0  501 -0.00000000000E+00  0.00000000000E+00  0.14149070953E+04  0.14149070953E+04  0.00000000000E+00 0.  1.
          1   -1    0    0  501    0  0.00000000000E+00 -0.00000000000E+00 -0.18984969676E+04  0.18984969676E+04  0.00000000000E+00 0. -1.
         23    2    1    2    0    0 -0.82278120508E+03 -0.26881469425E+03 -0.14782119644E+04  0.17147473320E+04  0.77572867769E+02 0.  0.
        254    2    1    2    0    0  0.82278120508E+03  0.26881469425E+03  0.99462209210E+03  0.15986567308E+04  0.90399114247E+03 0.  0.
        -24    2    4    4    0    0  0.28978941432E+03  0.52847319967E+03  0.28819639026E+03  0.67277670579E+03  0.79432418293E+02 0.  0.
         24    2    4    4    0    0  0.53299179076E+03 -0.25965850542E+03  0.70642570184E+03  0.92588002505E+03  0.81937537820E+02 0.  0.
         13    1    3    3    0    0 -0.24249286435E+03 -0.86314076081E+02 -0.51054911741E+03  0.57176333415E+03  0.00000000000E+00 0. -1.
        -13    1    3    3    0    0 -0.58028834073E+03 -0.18250061816E+03 -0.96766284697E+03  0.11429839979E+04  0.00000000000E+00 0.  1.
          2    1    6    6  502    0  0.92330111173E+02 -0.24685063948E+02  0.79178703782E+02  0.12411071245E+03  0.00000000000E+00 0. -1.
          3    1    5    5  503    0  0.32514926600E+02  0.77998303398E+02  0.71024552498E+02  0.11038769335E+03  0.00000000000E+00 0. -1.
         -4    1    5    5    0  503  0.25727448772E+03  0.45047489627E+03  0.21717183776E+03  0.56238901244E+03  0.00000000000E+00 0.  1.
         -1    1    6    6    0  502  0.44066167959E+03 -0.23497344147E+03  0.62724699806E+03  0.80176931260E+03  0.00000000000E+00 0.  1.
<mgrwt>
<rscale>  0 0.32779242E+04</rscale>
<asrwt>0</asrwt>
<pdfrwt beam="1">  1        1 0.29207646E+00 0.32779242E+04</pdfrwt>
<pdfrwt beam="2">  1       -1 0.21767801E+00 0.32779242E+04</pdfrwt>
<totfact> 0.33113842E-01</totfact>
</mgrwt>
</event>
<event>
12    1  0.1467288E-007  0.1796394E+04  0.7818608E-02  0.8708219E-01
          2   -1    0    0  501    0  0.00000000000E+00  0.00000000000E+00  0.11431358040E+04  0.11431358040E+04  0.00000000000E+00 0. -1.
         -2   -1    0    0    0  501 -0.00000000000E+00 -0.00000000000E+00 -0.70574115081E+03  0.70574115081E+03  0.00000000000E+00 0.  1.
         23    2    1    2    0    0 -0.61222164747E+03  0.22886314407E+03  0.29356890464E+03  0.72173733078E+03  0.86766286880E+02 0.  0.
        254    2    1    2    0    0  0.61222164747E+03 -0.22886314407E+03  0.14382574853E+03  0.11271396240E+04  0.90695325221E+03 0.  0.
        -24    2    4    4    0    0  0.15677699953E+03  0.16073271856E+03 -0.29551184668E+03  0.37971787755E+03  0.80276899572E+02 0.  0.
         24    2    4    4    0    0  0.45544464793E+03 -0.38959586263E+03  0.43933759521E+03  0.74742174645E+03  0.80043619310E+02 0.  0.
         13    1    3    3    0    0 -0.47134311353E+03  0.17163546855E+03  0.18394743119E+03  0.53428430838E+03  0.00000000000E+00 0. -1.
        -13    1    3    3    0    0 -0.14087853394E+03  0.57227675516E+02  0.10962147344E+03  0.18745302240E+03  0.00000000000E+00 0.  1.
          4    1    6    6  502    0  0.40697065250E+03 -0.34649240525E+03  0.35765832530E+03  0.64311863334E+03  0.00000000000E+00 0. -1.
          3    1    5    5  503    0  0.13503489296E+03  0.92639846775E+02 -0.23280606858E+03  0.28463174295E+03  0.00000000000E+00 0. -1.
         -4    1    5    5    0  503  0.21742106576E+02  0.68092871784E+02 -0.62705778096E+02  0.95086134598E+02  0.00000000000E+00 0.  1.
         -3    1    6    6    0  502  0.48473995432E+02 -0.43103457374E+02  0.81679269908E+02  0.10430311311E+03  0.00000000000E+00 0.  1.
<mgrwt>
<rscale>  0 0.17963941E+04</rscale>
<asrwt>0</asrwt>
<pdfrwt beam="1">  1        2 0.17586705E+00 0.17963941E+04</pdfrwt>
<pdfrwt beam="2">  1       -2 0.10857556E+00 0.17963941E+04</pdfrwt>
<totfact> 0.13128249E+01</totfact>
</mgrwt>
</event>
<event>
12    1  0.1467288E-007  0.1502316E+04  0.7818608E-02  0.8882915E-01
          1   -1    0    0  501    0  0.00000000000E+00  0.00000000000E+00  0.69229088811E+03  0.69229088811E+03  0.00000000000E+00 0. -1.
         -1   -1    0    0    0  501 -0.00000000000E+00 -0.00000000000E+00 -0.81503024526E+03  0.81503024526E+03  0.00000000000E+00 0.  1.
         23    2    1    2    0    0 -0.26494502993E+03  0.38622273904E+03  0.37797482217E+02  0.47833156270E+03  0.89490564771E+02 0.  0.
        254    2    1    2    0    0  0.26494502993E+03 -0.38622273904E+03 -0.16053683937E+03  0.10289895707E+04  0.90204411573E+03 0.  0.
        -24    2    4    4    0    0  0.48815441236E+03 -0.53536913062E+03 -0.60936806407E+02  0.73147957641E+03  0.80213714581E+02 0.  0.
         24    2    4    4    0    0 -0.22320938243E+03  0.14914639158E+03 -0.99600032959E+02  0.29750999426E+03  0.80777197236E+02 0.  0.
         13    1    3    3    0    0 -0.65275602054E+02  0.94245069963E+02 -0.29241129689E+02  0.11831348656E+03  0.00000000000E+00 0. -1.
        -13    1    3    3    0    0 -0.19966942787E+03  0.29197766908E+03  0.67038611906E+02  0.36001807615E+03  0.00000000000E+00 0.  1.
          2    1    6    6  502    0 -0.11073332780E+02 -0.89888413643E+01  0.13252221937E+01  0.14323902464E+02  0.00000000000E+00 0. -1.
          3    1    5    5  503    0  0.18304503522E+03 -0.25887464578E+03 -0.33414384344E+02  0.31880729011E+03  0.00000000000E+00 0. -1.
         -4    1    5    5    0  503  0.30510937714E+03 -0.27649448484E+03 -0.27522422063E+02  0.41267228630E+03  0.00000000000E+00 0.  1.
         -1    1    6    6    0  502 -0.21213604965E+03  0.15813523294E+03 -0.10092525515E+03  0.28318609180E+03  0.00000000000E+00 0.  1.
<mgrwt>
<rscale>  0 0.15023156E+04</rscale>
<asrwt>0</asrwt>
<pdfrwt beam="1">  1        1 0.10650629E+00 0.15023156E+04</pdfrwt>
<pdfrwt beam="2">  1       -1 0.12538927E+00 0.15023156E+04</pdfrwt>
<totfact> 0.14884822E+01</totfact>
</mgrwt>
</event>
<event>
12    1  0.1467288E-007  0.1768274E+04  0.7818608E-02  0.8723356E-01
         -1   -1    0    0    0  501 -0.00000000000E+00  0.00000000000E+00  0.70735922555E+03  0.70735922555E+03  0.00000000000E+00 0.  1.
          1   -1    0    0  501    0  0.00000000000E+00 -0.00000000000E+00 -0.11050932017E+04  0.11050932017E+04  0.00000000000E+00 0. -1.
         23    2    1    2    0    0 -0.26167591990E+03 -0.89930287305E+01 -0.74930615621E+03  0.79870584801E+03  0.88972772781E+02 0.  0.
        254    2    1    2    0    0  0.26167591990E+03  0.89930287305E+01  0.35157218011E+03  0.10137465792E+04  0.91407000135E+03 0.  0.
        -24    2    4    4    0    0  0.13712509636E+03  0.35286622277E+03  0.48194943351E+03  0.61799939497E+03  0.79562129804E+02 0.  0.
         24    2    4    4    0    0  0.12455082353E+03 -0.34387319404E+03 -0.13037725339E+03  0.39574718423E+03  0.76524011928E+02 0.  0.
         13    1    3    3    0    0 -0.36580202493E+02 -0.34079106352E+02 -0.12971987680E+03  0.13902065725E+03  0.00000000000E+00 0.  1.
        -13    1    3    3    0    0 -0.22509571740E+03  0.25086077621E+02 -0.61958627941E+03  0.65968519076E+03  0.00000000000E+00 0. -1.
          2    1    6    6  502    0  0.36483953263E+02 -0.53330163672E+02  0.17632844740E+01  0.64639727530E+02  0.00000000000E+00 0. -1.
          1    1    5    5  503    0  0.15763902856E+02  0.12139288602E+03  0.11883408302E+03  0.17060560569E+03  0.00000000000E+00 0. -1.
         -2    1    5    5    0  503  0.12136119351E+03  0.23147333675E+03  0.36311535049E+03  0.44739378927E+03  0.00000000000E+00 0.  1.
         -1    1    6    6    0  502  0.88066870271E+02 -0.29054303036E+03 -0.13214053787E+03  0.33110745670E+03  0.00000000000E+00 0.  1.
<mgrwt>
<rscale>  0 0.17682736E+04</rscale>
<asrwt>0</asrwt>
<pdfrwt beam="1">  1        1 0.17001434E+00 0.17682736E+04</pdfrwt>
<pdfrwt beam="2">  1       -1 0.10882450E+00 0.17682736E+04</pdfrwt>
<totfact> 0.93094708E+00</totfact>
</mgrwt>
</event>
<event>
12    1  0.1467288E-007  0.1805946E+04  0.7818608E-02  0.8703144E-01
          1   -1    0    0  501    0  0.00000000000E+00  0.00000000000E+00  0.54302310007E+03  0.54302310007E+03  0.00000000000E+00 0. -1.
         -1   -1    0    0    0  501 -0.00000000000E+00 -0.00000000000E+00 -0.15015197272E+04  0.15015197272E+04  0.00000000000E+00 0.  1.
         23    2    1    2    0    0 -0.20894646489E+03  0.64279892302E+03 -0.47430364882E+03  0.82997670417E+03  0.83954139558E+02 0.  0.
        254    2    1    2    0    0  0.20894646489E+03 -0.64279892302E+03 -0.48419297835E+03  0.12145661231E+04  0.88536938424E+03 0.  0.
        -24    2    4    4    0    0 -0.13791082144E+03 -0.72437833447E+03 -0.26083888247E+03  0.78626186759E+03  0.80171289794E+02 0.  0.
         24    2    4    4    0    0  0.34685728633E+03  0.81579411443E+02 -0.22335409588E+03  0.42830425554E+03  0.81193015192E+02 0.  0.
         11    1    3    3    0    0 -0.47326484399E+01  0.30075692108E+01 -0.15882014516E+02  0.16842856613E+02  0.00000000000E+00 0. -1.
        -11    1    3    3    0    0 -0.20421381645E+03  0.63979135381E+03 -0.45842163430E+03  0.81313384755E+03  0.00000000000E+00 0.  1.
          4    1    6    6  502    0  0.12124490344E+03  0.53187746266E+02 -0.11936868807E+03  0.17826426073E+03  0.00000000000E+00 0. -1.
          1    1    5    5  503    0 -0.28417702223E+02 -0.54546353464E+02 -0.82195383916E+01  0.62051843544E+02  0.00000000000E+00 0. -1.
         -2    1    5    5    0  503 -0.10949311922E+03 -0.66983198100E+03 -0.25261934408E+03  0.72421002405E+03  0.00000000000E+00 0.  1.
         -3    1    6    6    0  502  0.22561238289E+03  0.28391665177E+02 -0.10398540780E+03  0.25003999481E+03  0.00000000000E+00 0.  1.
<mgrwt>
<rscale>  0 0.18059456E+04</rscale>
<asrwt>0</asrwt>
<pdfrwt beam="1">  1        1 0.83542016E-01 0.18059456E+04</pdfrwt>
<pdfrwt beam="2">  1       -1 0.23100303E+00 0.18059456E+04</pdfrwt>
<totfact> 0.34624199E+00</totfact>
</mgrwt>
</event>
<event>
12    1  0.1467288E-007  0.2523541E+04  0.7818608E-02  0.8394647E-01
          1   -1    0    0  501    0  0.00000000000E+00  0.00000000000E+00  0.15719686901E+04  0.15719686901E+04  0.00000000000E+00 0. -1.
         -1   -1    0    0    0  501 -0.00000000000E+00 -0.00000000000E+00 -0.10127842718E+04  0.10127842718E+04  0.00000000000E+00 0.  1.
         23    2    1    2    0    0 -0.13337462602E+03  0.10767311121E+04  0.72194156533E+02  0.10912103966E+04  0.91593967324E+02 0.  0.
        254    2    1    2    0    0  0.13337462602E+03 -0.10767311121E+04  0.48699026174E+03  0.14935425653E+04  0.90353262292E+03 0.  0.
        -24    2    4    4    0    0 -0.22428129278E+03 -0.72917274844E+02 -0.10749986403E+03  0.27070732544E+03  0.78148627715E+02 0.  0.
         24    2    4    4    0    0  0.35765591880E+03 -0.10038138372E+04  0.59449012578E+03  0.12228352398E+04  0.79671438317E+02 0.  0.
         13    1    3    3    0    0 -0.22931438702E+02  0.16569148360E+03 -0.21862310666E+02  0.16869344755E+03  0.00000000000E+00 0.  1.
        -13    1    3    3    0    0 -0.11044318732E+03  0.91103962848E+03  0.94056467199E+02  0.92251694906E+03  0.00000000000E+00 0. -1.
          4    1    6    6  502    0  0.36023796073E+03 -0.10016641824E+04  0.59493417708E+03  0.12194462669E+04  0.00000000000E+00 0. -1.
          3    1    5    5  503    0 -0.69082310775E+02 -0.23325687602E+02 -0.74935806736E+02  0.10455538482E+03  0.00000000000E+00 0. -1.
         -2    1    5    5    0  503 -0.15519898201E+03 -0.49591587242E+02 -0.32564057297E+02  0.16615194061E+03  0.00000000000E+00 0.  1.
         -3    1    6    6    0  502 -0.25820419293E+01 -0.21496548042E+01 -0.44405130123E+00  0.33889729801E+01  0.00000000000E+00 0.  1.
<mgrwt>
<rscale>  0 0.25235413E+04</rscale>
<asrwt>0</asrwt>
<pdfrwt beam="1">  1        1 0.24184134E+00 0.25235413E+04</pdfrwt>
<pdfrwt beam="2">  1       -1 0.15581297E+00 0.25235413E+04</pdfrwt>
<totfact> 0.16269727E+00</totfact>
</mgrwt>
</event>
<event>
12    1  0.1467288E-007  0.2146396E+04  0.7818608E-02  0.8541077E-01
         -2   -1    0    0    0  501 -0.00000000000E+00  0.00000000000E+00  0.70971366884E+03  0.70971366884E+03  0.00000000000E+00 0. -1.
          2   -1    0    0  501    0  0.00000000000E+00 -0.00000000000E+00 -0.16228429737E+04  0.16228429737E+04  0.00000000000E+00 0.  1.
         23    2    1    2    0    0 -0.28296491300E+03  0.17719554609E+03  0.52091457946E+03  0.62534171474E+03  0.90735095483E+02 0.  0.
        254    2    1    2    0    0  0.28296491300E+03 -0.17719554609E+03 -0.14340438843E+04  0.17072149278E+04  0.86407959357E+03 0.  0.
        -24    2    4    4    0    0 -0.26618908622E+03 -0.48230192353E+02 -0.83072746484E+03  0.87722716065E+03  0.78972080284E+02 0.  0.
         24    2    4    4    0    0  0.54915399922E+03 -0.12896535373E+03 -0.60331641947E+03  0.82998776714E+03  0.81772943441E+02 0.  0.
         11    1    3    3    0    0 -0.22841136375E+03  0.17111783499E+03  0.47323599772E+03  0.55263493744E+03  0.00000000000E+00 0. -1.
        -11    1    3    3    0    0 -0.54553549249E+02  0.60777110983E+01  0.47678581739E+02  0.72706777295E+02  0.00000000000E+00 0.  1.
          4    1    6    6  502    0  0.53738160897E+03 -0.11724158521E+03 -0.59813931266E+03  0.81258551569E+03  0.00000000000E+00 0. -1.
          1    1    5    5  503    0 -0.19936246723E+03 -0.48128683516E+02 -0.71239431005E+03  0.74132814361E+03  0.00000000000E+00 0. -1.
         -2    1    5    5    0  503 -0.66826618990E+02 -0.10150883677E+00 -0.11833315479E+03  0.13589901704E+03  0.00000000000E+00 0.  1.
         -3    1    6    6    0  502  0.11772390256E+02 -0.11723768528E+02 -0.51771068141E+01  0.17402251457E+02  0.00000000000E+00 0.  1.
<mgrwt>
<rscale>  0 0.21463959E+04</rscale>
<asrwt>0</asrwt>
<pdfrwt beam="1">  1        2 0.24966815E+00 0.21463959E+04</pdfrwt>
<pdfrwt beam="2">  1       -2 0.10918672E+00 0.21463959E+04</pdfrwt>
<totfact> 0.66507639E+00</totfact>
</mgrwt>
</event>
<event>
12    1  0.1467288E-007  0.1262416E+04  0.7818608E-02  0.9059913E-01
          2   -1    0    0  501    0  0.00000000000E+00  0.00000000000E+00  0.17987185132E+04  0.17987185132E+04  0.00000000000E+00 0. -1.
         -2   -1    0    0    0  501 -0.00000000000E+00 -0.00000000000E+00 -0.22150394390E+03  0.22150394390E+03  0.00000000000E+00 0.  1.
         23    2    1    2    0    0 -0.66170150766E+02  0.13929356930E+03 -0.20748108438E+02  0.18080738352E+03  0.92084953323E+02 0.  0.
        254    2    1    2    0    0  0.66170150766E+02 -0.13929356930E+03  0.15979626778E+04  0.18394150736E+04  0.89787633125E+03 0.  0.
        -24    2    4    4    0    0  0.17790249602E+03 -0.26870834196E+03  0.16144471962E+04  0.16483432197E+04  0.82110593535E+02 0.  0.
         24    2    4    4    0    0 -0.11173234525E+03  0.12941477266E+03 -0.16484518461E+02  0.19107185386E+03  0.83692374993E+02 0.  0.
         13    1    3    3    0    0 -0.21412994979E+02  0.28906656190E+02  0.34193512341E+02  0.49631717805E+02  0.00000000000E+00 0. -1.
        -13    1    3    3    0    0 -0.44757155787E+02  0.11038691311E+03 -0.54941620779E+02  0.13117566571E+03  0.00000000000E+00 0.  1.
          2    1    6    6  502    0 -0.11557955886E+03  0.88840572086E+02 -0.28591231659E+02  0.14855551219E+03  0.00000000000E+00 0. -1.
          3    1    5    5  503    0  0.93009318128E+02 -0.73114665022E+02  0.51542312077E+03  0.52882651307E+03  0.00000000000E+00 0. -1.
         -4    1    5    5    0  503  0.84893177890E+02 -0.19559367694E+03  0.10990240755E+04  0.11195167067E+04  0.00000000000E+00 0.  1.
         -1    1    6    6    0  502  0.38472136073E+01  0.40574200574E+02  0.12106713198E+02  0.42516341673E+02  0.00000000000E+00 0.  1.
<mgrwt>
<rscale>  0 0.12624155E+04</rscale>
<asrwt>0</asrwt>
<pdfrwt beam="1">  1        2 0.27672592E+00 0.12624155E+04</pdfrwt>
<pdfrwt beam="2">  1       -2 0.34077531E-01 0.12624155E+04</pdfrwt>
<totfact> 0.68481061E+01</totfact>
</mgrwt>
</event>
<event>
12    1  0.1467288E-007  0.1822594E+04  0.7818608E-02  0.8694376E-01
         -1   -1    0    0    0  501 -0.00000000000E+00  0.00000000000E+00  0.30833681808E+03  0.30833681808E+03  0.00000000000E+00 0.  1.
          1   -1    0    0  501    0  0.00000000000E+00 -0.00000000000E+00 -0.26933598933E+04  0.26933598933E+04  0.00000000000E+00 0. -1.
         23    2    1    2    0    0 -0.49886107763E+03 -0.27472660856E+03 -0.15221240420E+04  0.16277620887E+04  0.91710054218E+02 0.  0.
        254    2    1    2    0    0  0.49886107763E+03  0.27472660856E+03 -0.86289903322E+03  0.13739346227E+04  0.90485607782E+03 0.  0.
        -24    2    4    4    0    0  0.28543417393E+02  0.47406954698E+03 -0.17318927281E+03  0.51169076859E+03  0.79222827467E+02 0.  0.
         24    2    4    4    0    0  0.47031766024E+03 -0.19934293842E+03 -0.68970976040E+03  0.86224385407E+03  0.82635353501E+02 0.  0.
         13    1    3    3    0    0 -0.18831757464E+03 -0.62765751542E+02 -0.45793562959E+03  0.49910729241E+03  0.00000000000E+00 0.  1.
        -13    1    3    3    0    0 -0.31054350299E+03 -0.21196085702E+03 -0.10641884124E+04  0.11286547963E+04  0.00000000000E+00 0. -1.
          4    1    6    6  502    0  0.19280653810E+03 -0.10206569951E+03 -0.23425263012E+03  0.32010320659E+03  0.00000000000E+00 0. -1.
          1    1    5    5  503    0  0.18538986329E+02  0.15023248228E+03 -0.93924358212E+02  0.17814398057E+03  0.00000000000E+00 0. -1.
         -2    1    5    5    0  503  0.10004431065E+02  0.32383706470E+03 -0.79264914599E+02  0.33354678802E+03  0.00000000000E+00 0.  1.
         -3    1    6    6    0  502  0.27751112214E+03 -0.97277238905E+02 -0.45545713028E+03  0.54214064748E+03  0.00000000000E+00 0.  1.
<mgrwt>
<rscale>  0 0.18225938E+04</rscale>
<asrwt>0</asrwt>
<pdfrwt beam="1">  1        1 0.41436305E+00 0.18225938E+04</pdfrwt>
<pdfrwt beam="2">  1       -1 0.47436435E-01 0.18225938E+04</pdfrwt>
<totfact> 0.41507400E+00</totfact>
</mgrwt>
</event>
<event>
12    1  0.1467288E-007  0.2248600E+04  0.7818608E-02  0.8498468E-01
         -1   -1    0    0    0  501 -0.00000000000E+00  0.00000000000E+00  0.87047517272E+03  0.87047517272E+03  0.00000000000E+00 0.  1.
          1   -1    0    0  501    0  0.00000000000E+00 -0.00000000000E+00 -0.14521387460E+04  0.14521387460E+04  0.00000000000E+00 0. -1.
         23    2    1    2    0    0 -0.23468386253E+03  0.88507746042E+02  0.69319223832E+03  0.74284949229E+03  0.91650163624E+02 0.  0.
        254    2    1    2    0    0  0.23468386253E+03 -0.88507746042E+02 -0.12748558116E+04  0.15797644264E+04  0.89860345322E+03 0.  0.
        -24    2    4    4    0    0  0.21523957899E+03  0.23621391847E+03 -0.11872959469E+04  0.12320646991E+04  0.78655359630E+02 0.  0.
         24    2    4    4    0    0  0.19444283542E+02 -0.32472166451E+03 -0.87559864632E+02  0.34769972725E+03  0.86058880251E+02 0.  0.
         13    1    3    3    0    0 -0.91904758522E+02 -0.11460738463E+02  0.22980491334E+03  0.24776628374E+03  0.00000000000E+00 0. -1.
        -13    1    3    3    0    0 -0.14277910401E+03  0.99968484505E+02  0.46338732498E+03  0.49508320855E+03  0.00000000000E+00 0.  1.
          2    1    6    6  502    0  0.15909142581E+02 -0.15757841085E+03 -0.86614791737E+02  0.18051642178E+03  0.00000000000E+00 0. -1.
          1    1    5    5  503    0  0.17868883294E+03  0.17578102167E+03 -0.10224490381E+04  0.10527253688E+04  0.00000000000E+00 0. -1.
         -2    1    5    5    0  503  0.36550746048E+02  0.60432896798E+02 -0.16484690880E+03  0.17933933030E+03  0.00000000000E+00 0.  1.
         -1    1    6    6    0  502  0.35351409609E+01 -0.16714325366E+03 -0.94507289465E+00  0.16718330547E+03  0.00000000000E+00 0.  1.
<mgrwt>
<rscale>  0 0.22486002E+04</rscale>
<asrwt>0</asrwt>
<pdfrwt beam="1">  1        1 0.22340596E+00 0.22486002E+04</pdfrwt>
<pdfrwt beam="2">  1       -1 0.13391926E+00 0.22486002E+04</pdfrwt>
<totfact> 0.30154893E+00</totfact>
</mgrwt>
</event>
<event>
12    1  0.1467288E-007  0.1459204E+04  0.7818608E-02  0.8912044E-01
          2   -1    0    0  501    0  0.00000000000E+00  0.00000000000E+00  0.84008909716E+03  0.84008909716E+03  0.00000000000E+00 0.  1.
         -2   -1    0    0    0  501 -0.00000000000E+00 -0.00000000000E+00 -0.63364612996E+03  0.63364612996E+03  0.00000000000E+00 0. -1.
         23    2    1    2    0    0 -0.43945630927E+03  0.10458846720E+03  0.71606646992E+02  0.46663451892E+03  0.92518469113E+02 0.  0.
        254    2    1    2    0    0  0.43945630927E+03 -0.10458846720E+03  0.13483632020E+03  0.10071007082E+04  0.88994966599E+03 0.  0.
        -24    2    4    4    0    0  0.44530957933E+03 -0.45084924834E+03  0.13516376755E+03  0.65291478943E+03  0.80391616690E+02 0.  0.
         24    2    4    4    0    0 -0.58532700588E+01  0.34626078113E+03 -0.32744735262E+00  0.35418591877E+03  0.74274952106E+02 0.  0.
         11    1    3    3    0    0 -0.27730133272E+03  0.22822139430E+02  0.26399801286E+02  0.27948851262E+03  0.00000000000E+00 0. -1.
        -11    1    3    3    0    0 -0.16215497655E+03  0.81766327774E+02  0.45206845706E+02  0.18714600630E+03  0.00000000000E+00 0.  1.
          4    1    6    6  502    0  0.13815773223E+02  0.31766020924E+03 -0.10114657093E+02  0.31812134542E+03  0.00000000000E+00 0. -1.
          3    1    5    5  503    0  0.26603207667E+03 -0.28830305518E+03  0.45835813023E+02  0.39495903483E+03  0.00000000000E+00 0. -1.
         -4    1    5    5    0  503  0.17927750266E+03 -0.16254619316E+03  0.89327954531E+02  0.25795575460E+03  0.00000000000E+00 0.  1.
         -3    1    6    6    0  502 -0.19669043282E+02  0.28600571895E+02  0.97872097400E+01  0.36064573349E+02  0.00000000000E+00 0.  1.
<mgrwt>
<rscale>  0 0.14592042E+04</rscale>
<asrwt>0</asrwt>
<pdfrwt beam="1">  1        2 0.12924448E+00 0.14592042E+04</pdfrwt>
<pdfrwt beam="2">  1       -2 0.97484020E-01 0.14592042E+04</pdfrwt>
<totfact> 0.27424587E+01</totfact>
</mgrwt>
</event>
<event>
12    1  0.1467288E-007  0.1748142E+04  0.7818608E-02  0.8734374E-01
          2   -1    0    0  501    0  0.00000000000E+00  0.00000000000E+00  0.53199871754E+03  0.53199871754E+03  0.00000000000E+00 0. -1.
         -2   -1    0    0    0  501 -0.00000000000E+00 -0.00000000000E+00 -0.14360939709E+04  0.14360939709E+04  0.00000000000E+00 0.  1.
         23    2    1    2    0    0  0.28748039724E+03  0.36170368215E+03 -0.83146137778E+03  0.95568494063E+03  0.92364227491E+02 0.  0.
        254    2    1    2    0    0 -0.28748039724E+03 -0.36170368215E+03 -0.72633875571E+02  0.10124077478E+04  0.89789711853E+03 0.  0.
        -24    2    4    4    0    0  0.10935231500E+02 -0.60218306384E+03  0.28529987708E+02  0.60819955133E+03  0.79678807558E+02 0.  0.
         24    2    4    4    0    0 -0.29841562874E+03  0.24047938169E+03 -0.10116386328E+03  0.40420819647E+03  0.79170186092E+02 0.  0.
         11    1    3    3    0    0  0.24869356729E+03  0.33822623048E+03 -0.69571087932E+03  0.81256329046E+03  0.00000000000E+00 0. -1.
        -11    1    3    3    0    0  0.38786829952E+02  0.23477451672E+02 -0.13575049846E+03  0.14312165017E+03  0.00000000000E+00 0.  1.
          4    1    6    6  502    0 -0.10233959833E+03  0.59599645597E+02  0.13158044750E+01  0.11843666021E+03  0.00000000000E+00 0. -1.
          3    1    5    5  503    0  0.19427065223E+02 -0.42429103374E+03 -0.14490286232E+02  0.42498265914E+03  0.00000000000E+00 0. -1.
         -4    1    5    5    0  503 -0.84918337231E+01 -0.17789203010E+03  0.43020273939E+02  0.18321689219E+03  0.00000000000E+00 0.  1.
         -3    1    6    6    0  502 -0.19607603042E+03  0.18087973610E+03 -0.10247966775E+03  0.28577153626E+03  0.00000000000E+00 0.  1.
<mgrwt>
<rscale>  0 0.17481420E+04</rscale>
<asrwt>0</asrwt>
<pdfrwt beam="1">  1        2 0.81845956E-01 0.17481420E+04</pdfrwt>
<pdfrwt beam="2">  1       -2 0.22093753E+00 0.17481420E+04</pdfrwt>
<totfact> 0.52885273E+00</totfact>
</mgrwt>
</event>
<event>
12    1  0.1467288E-007  0.1252222E+04  0.7818608E-02  0.9068336E-01
          2   -1    0    0  501    0  0.00000000000E+00  0.00000000000E+00  0.13610195300E+04  0.13610195300E+04  0.00000000000E+00 0. -1.
         -2   -1    0    0    0  501 -0.00000000000E+00 -0.00000000000E+00 -0.28803028102E+03  0.28803028102E+03  0.00000000000E+00 0.  1.
         23    2    1    2    0    0 -0.70083369956E+02 -0.27544005960E+03  0.25596198049E+03  0.39336403685E+03  0.91868519386E+02 0.  0.
        254    2    1    2    0    0  0.70083369956E+02  0.27544005960E+03  0.81702726850E+03  0.12556857742E+04  0.91018366322E+03 0.  0.
        -24    2    4    4    0    0 -0.92406392366E+02  0.58349488960E+03  0.49236509273E+03  0.77311328637E+03  0.79218315356E+02 0.  0.
         24    2    4    4    0    0  0.16248976232E+03 -0.30805483000E+03  0.32466217577E+03  0.48257248779E+03  0.78549197643E+02 0.  0.
         13    1    3    3    0    0 -0.32625770657E+02 -0.13501471876E+03  0.18579596266E+03  0.23197748799E+03  0.00000000000E+00 0. -1.
        -13    1    3    3    0    0 -0.37457599300E+02 -0.14042534084E+03  0.70166017830E+02  0.16138654886E+03  0.00000000000E+00 0.  1.
          4    1    6    6  502    0 -0.86920077256E+01 -0.97981421408E+01  0.10545398527E+02  0.16815469598E+02  0.00000000000E+00 0. -1.
          1    1    5    5  503    0  0.51890279252E+01  0.12389426540E+03  0.76826201523E+02  0.14587316494E+03  0.00000000000E+00 0. -1.
         -2    1    5    5    0  503 -0.97595420291E+02  0.45960062420E+03  0.41553889120E+03  0.62724012143E+03  0.00000000000E+00 0.  1.
         -3    1    6    6    0  502  0.17118177005E+03 -0.29825668786E+03  0.31411677724E+03  0.46575701819E+03  0.00000000000E+00 0.  1.
<mgrwt>
<rscale>  0 0.12522218E+04</rscale>
<asrwt>0</asrwt>
<pdfrwt beam="1">  1        2 0.20938762E+00 0.12522218E+04</pdfrwt>
<pdfrwt beam="2">  1       -2 0.44312352E-01 0.12522218E+04</pdfrwt>
<totfact> 0.72331965E+01</totfact>
</mgrwt>
</event>
<event>
12    1  0.1467288E-007  0.1843247E+04  0.7818608E-02  0.8683633E-01
          2   -1    0    0  501    0  0.00000000000E+00  0.00000000000E+00  0.13430258347E+04  0.13430258347E+04  0.00000000000E+00 0. -1.
         -2   -1    0    0    0  501 -0.00000000000E+00 -0.00000000000E+00 -0.63244489756E+03  0.63244489756E+03  0.00000000000E+00 0.  1.
         23    2    1    2    0    0 -0.43475951656E+03 -0.21991645243E+03  0.80763662388E+03  0.94768439870E+03  0.91922358670E+02 0.  0.
        254    2    1    2    0    0  0.43475951656E+03  0.21991645243E+03 -0.97055686711E+02  0.10277863336E+04  0.89974766346E+03 0.  0.
        -24    2    4    4    0    0  0.88945106276E+02  0.43483886129E+03  0.22390145292E+03  0.50310413726E+03  0.77368243434E+02 0.  0.
         24    2    4    4    0    0  0.34581441028E+03 -0.21492240886E+03 -0.32095713963E+03  0.52468219633E+03  0.80614350308E+02 0.  0.
         13    1    3    3    0    0 -0.37055238045E+02 -0.45319694496E+02  0.13310057515E+03  0.14540539358E+03  0.00000000000E+00 0.  1.
        -13    1    3    3    0    0 -0.39770427852E+03 -0.17459675794E+03  0.67453604873E+03  0.80227900513E+03  0.00000000000E+00 0. -1.
          4    1    6    6  502    0  0.23801852365E+03 -0.18334377863E+03 -0.20827114029E+03  0.36557437908E+03  0.00000000000E+00 0. -1.
          3    1    5    5  503    0  0.10096642737E+03  0.34188088000E+03  0.16943376123E+03  0.39469552190E+03  0.00000000000E+00 0. -1.
         -4    1    5    5    0  503 -0.12021321091E+02  0.92957981290E+02  0.54467691687E+02  0.10840861536E+03  0.00000000000E+00 0.  1.
         -3    1    6    6    0  502  0.10779588664E+03 -0.31578630230E+02 -0.11268599934E+03  0.15910781725E+03  0.00000000000E+00 0.  1.
<mgrwt>
<rscale>  0 0.18432470E+04</rscale>
<asrwt>0</asrwt>
<pdfrwt beam="1">  1        2 0.20661936E+00 0.18432470E+04</pdfrwt>
<pdfrwt beam="2">  1       -2 0.97299215E-01 0.18432470E+04</pdfrwt>
<totfact> 0.12939470E+01</totfact>
</mgrwt>
</event>
<event>
12    1  0.1467288E-007  0.2686619E+04  0.7818608E-02  0.8339360E-01
         -2   -1    0    0    0  501 -0.00000000000E+00  0.00000000000E+00  0.93247500474E+03  0.93247500474E+03  0.00000000000E+00 0.  1.
          2   -1    0    0  501    0  0.00000000000E+00 -0.00000000000E+00 -0.19351518473E+04  0.19351518473E+04  0.00000000000E+00 0. -1.
         23    2    1    2    0    0 -0.91974274652E+02 -0.11301907742E+04 -0.65883265307E+02  0.11395267520E+04  0.91597819757E+02 0.  0.
        254    2    1    2    0    0  0.91974274652E+02  0.11301907742E+04 -0.93679357725E+03  0.17281001000E+04  0.90716993772E+03 0.  0.
        -24    2    4    4    0    0 -0.23053335518E+02  0.11936548068E+04 -0.10033709011E+04  0.15615016132E+04  0.78682074478E+02 0.  0.
         24    2    4    4    0    0  0.11502761017E+03 -0.63464032524E+02  0.66577323880E+02  0.16659848680E+03  0.77868358284E+02 0.  0.
         13    1    3    3    0    0 -0.94755071121E+02 -0.11273762563E+04 -0.70378615664E+02  0.11335382201E+04  0.00000000000E+00 0.  1.
        -13    1    3    3    0    0  0.27807964689E+01 -0.28145178963E+01  0.44953503575E+01  0.59885319426E+01  0.00000000000E+00 0. -1.
          2    1    6    6  502    0  0.97911881471E+02 -0.40439678664E+02  0.14204324537E+02  0.10688249145E+03  0.00000000000E+00 0. -1.
          3    1    5    5  503    0 -0.86325404007E+01  0.18802686812E+03 -0.12270480856E+03  0.22468888253E+03  0.00000000000E+00 0. -1.
         -4    1    5    5    0  503 -0.14420795118E+02  0.10056279386E+04 -0.88066609257E+03  0.13368127307E+04  0.00000000000E+00 0.  1.
         -1    1    6    6    0  502  0.17115728700E+02 -0.23024353860E+02  0.52372999343E+02  0.59715995343E+02  0.00000000000E+00 0.  1.
<mgrwt>
<rscale>  0 0.26866192E+04</rscale>
<asrwt>0</asrwt>
<pdfrwt beam="1">  1        2 0.29771567E+00 0.26866192E+04</pdfrwt>
<pdfrwt beam="2">  1       -2 0.14345769E+00 0.26866192E+04</pdfrwt>
<totfact> 0.21488462E+00</totfact>
</mgrwt>
</event>
<event>
12    1  0.1467288E-007  0.2044946E+04  0.7818608E-02  0.8585891E-01
          2   -1    0    0  501    0  0.00000000000E+00  0.00000000000E+00  0.32572923171E+04  0.32572923171E+04  0.00000000000E+00 0.  1.
         -2   -1    0    0    0  501 -0.00000000000E+00 -0.00000000000E+00 -0.32095693355E+03  0.32095693355E+03  0.00000000000E+00 0. -1.
         23    2    1    2    0    0 -0.79769833055E+03 -0.48211460906E+02  0.85739097524E+03  0.11756353380E+04  0.91390327406E+02 0.  0.
        254    2    1    2    0    0  0.79769833055E+03  0.48211460906E+02  0.20789444083E+04  0.24026139127E+04  0.90105315552E+03 0.  0.
        -24    2    4    4    0    0  0.81588479431E+03 -0.20159418827E+03  0.19160961150E+04  0.20937360271E+04  0.77446852241E+02 0.  0.
         24    2    4    4    0    0 -0.18186463765E+02  0.24980564918E+03  0.16284829335E+03  0.30887788562E+03  0.78437055997E+02 0.  0.
         11    1    3    3    0    0 -0.36232716774E+03 -0.67440526378E+02  0.38906579795E+03  0.53591174293E+03  0.00000000000E+00 0.  1.
        -11    1    3    3    0    0 -0.43537116281E+03  0.19229065472E+02  0.46832517729E+03  0.63972359504E+03  0.00000000000E+00 0. -1.
          4    1    6    6  502    0 -0.33938531704E+02  0.15437984237E+03  0.63845351253E+02  0.17047342473E+03  0.00000000000E+00 0. -1.
          3    1    5    5  503    0  0.75827772359E+03 -0.17484191849E+03  0.18081086955E+04  0.19684541796E+04  0.00000000000E+00 0. -1.
         -4    1    5    5    0  503  0.57607070726E+02 -0.26752269780E+02  0.10798741951E+03  0.12528184748E+03  0.00000000000E+00 0.  1.
         -3    1    6    6    0  502  0.15752067939E+02  0.95425806810E+02  0.99002942099E+02  0.13840446089E+03  0.00000000000E+00 0.  1.
<mgrwt>
<rscale>  0 0.20449455E+04</rscale>
<asrwt>0</asrwt>
<pdfrwt beam="1">  1        2 0.50112187E+00 0.20449455E+04</pdfrwt>
<pdfrwt beam="2">  1       -2 0.49377992E-01 0.20449455E+04</pdfrwt>
<totfact> 0.42880595E+00</totfact>
</mgrwt>
</event>
<event>
12    1  0.1467288E-007  0.1939219E+04  0.7818608E-02  0.8635577E-01
          1   -1    0    0  501    0  0.00000000000E+00  0.00000000000E+00  0.12067959030E+04  0.12067959030E+04  0.00000000000E+00 0. -1.
         -1   -1    0    0    0  501 -0.00000000000E+00 -0.00000000000E+00 -0.77904064177E+03  0.77904064177E+03  0.00000000000E+00 0.  1.
         23    2    1    2    0    0  0.56246327646E+03 -0.40714361310E+03 -0.14345402066E+03  0.71644700820E+03  0.10289023500E+03 0.  0.
        254    2    1    2    0    0 -0.56246327646E+03  0.40714361310E+03  0.57120928191E+03  0.12693895366E+04  0.89606857596E+03 0.  0.
        -24    2    4    4    0    0  0.92700616748E+02  0.25283857323E+03 -0.11561919513E+03  0.30441737777E+03  0.82349214585E+02 0.  0.
         24    2    4    4    0    0 -0.65516389321E+03  0.15430503986E+03  0.68682847705E+03  0.96497215883E+03  0.79925829050E+02 0.  0.
         13    1    3    3    0    0  0.79166273874E+02 -0.10337926478E+03 -0.40851640892E+02  0.13646768067E+03  0.00000000000E+00 0.  1.
        -13    1    3    3    0    0  0.48329700259E+03 -0.30376434832E+03 -0.10260237977E+03  0.57997932752E+03  0.00000000000E+00 0. -1.
          2    1    6    6  502    0 -0.27100473649E+03  0.34636504060E+02  0.31669249034E+03  0.41825517098E+03  0.00000000000E+00 0. -1.
          3    1    5    5  503    0  0.40423153160E+02  0.18162054256E+03 -0.45292351955E+02  0.19149791105E+03  0.00000000000E+00 0. -1.
         -4    1    5    5    0  503  0.52277463588E+02  0.71218030676E+02 -0.70326843176E+02  0.11291946672E+03  0.00000000000E+00 0.  1.
         -1    1    6    6    0  502 -0.38415915672E+03  0.11966853580E+03  0.37013598670E+03  0.54671698785E+03  0.00000000000E+00 0.  1.
<mgrwt>
<rscale>  0 0.19392195E+04</rscale>
<asrwt>0</asrwt>
<pdfrwt beam="1">  1        1 0.18566091E+00 0.19392195E+04</pdfrwt>
<pdfrwt beam="2">  1       -1 0.11985241E+00 0.19392195E+04</pdfrwt>
<totfact> 0.61175375E+00</totfact>
</mgrwt>
</event>
<event>
12    1  0.1467288E-007  0.2255214E+04  0.7818608E-02  0.8495792E-01
          1   -1    0    0  501    0  0.00000000000E+00  0.00000000000E+00  0.96068866678E+03  0.96068866678E+03  0.00000000000E+00 0. -1.
         -1   -1    0    0    0  501 -0.00000000000E+00 -0.00000000000E+00 -0.13235269238E+04  0.13235269238E+04  0.00000000000E+00 0.  1.
         23    2    1    2    0    0 -0.57246562601E+03  0.63865660670E+03 -0.45849495756E+03  0.97675671482E+03  0.90757366642E+02 0.  0.
        254    2    1    2    0    0  0.57246562601E+03 -0.63865660670E+03  0.95656700570E+02  0.13074588757E+04  0.98219109807E+03 0.  0.
        -24    2    4    4    0    0  0.77505943816E+03 -0.68443744171E+03  0.20843149275E+03  0.10577650287E+04  0.79065949940E+02 0.  0.
         24    2    4    4    0    0 -0.20259381215E+03  0.45780835011E+02 -0.11277479218E+03  0.24969384705E+03  0.80552628308E+02 0.  0.
         13    1    3    3    0    0 -0.50038970013E+03  0.58565999157E+03 -0.43327584722E+03  0.88380735317E+03  0.00000000000E+00 0.  1.
        -13    1    3    3    0    0 -0.72075925876E+02  0.52996615130E+02 -0.25219110340E+02  0.92949361657E+02  0.00000000000E+00 0. -1.
          2    1    6    6  502    0 -0.73179776182E+01  0.19687963256E+02 -0.28525814691E+02  0.35424437855E+02  0.00000000000E+00 0. -1.
          3    1    5    5  503    0  0.30470958889E+02 -0.36959075352E+02 -0.51681941634E+01  0.48178447644E+02  0.00000000000E+00 0. -1.
         -4    1    5    5    0  503  0.74458847927E+03 -0.64747836636E+03  0.21359968691E+03  0.10095865810E+04  0.00000000000E+00 0.  1.
         -1    1    6    6    0  502 -0.19527583453E+03  0.26092871755E+02 -0.84248977488E+02  0.21426940919E+03  0.00000000000E+00 0.  1.
<mgrwt>
<rscale>  0 0.22552138E+04</rscale>
<asrwt>0</asrwt>
<pdfrwt beam="1">  1        1 0.14779826E+00 0.22552138E+04</pdfrwt>
<pdfrwt beam="2">  1       -1 0.20361953E+00 0.22552138E+04</pdfrwt>
<totfact> 0.20956508E+00</totfact>
</mgrwt>
</event>
<event>
12    1  0.1467288E-007  0.2111710E+04  0.7818608E-02  0.8556102E-01
          1   -1    0    0  501    0  0.00000000000E+00  0.00000000000E+00  0.73739294004E+03  0.73739294004E+03  0.00000000000E+00 0. -1.
         -1   -1    0    0    0  501 -0.00000000000E+00 -0.00000000000E+00 -0.15118536734E+04  0.15118536734E+04  0.00000000000E+00 0.  1.
         23    2    1    2    0    0  0.27422116968E+03 -0.42647301949E+02  0.57190011775E+03  0.64216246209E+03  0.91032086501E+02 0.  0.
        254    2    1    2    0    0 -0.27422116968E+03  0.42647301949E+02 -0.13463608511E+04  0.16070841514E+04  0.83247575693E+03 0.  0.
        -24    2    4    4    0    0  0.10678980354E+03 -0.10061943962E+03  0.26989863915E+02  0.17243828537E+03  0.86476446137E+02 0.  0.
         24    2    4    4    0    0 -0.38101097322E+03  0.14326674157E+03 -0.13733507150E+04  0.14346458660E+04  0.80136467166E+02 0.  0.
         11    1    3    3    0    0  0.19699251237E+03 -0.10753049448E+01  0.32380996148E+03  0.37902519358E+03  0.00000000000E+00 0.  1.
        -11    1    3    3    0    0  0.77228657310E+02 -0.41571997004E+02  0.24809015627E+03  0.26313726851E+03  0.00000000000E+00 0. -1.
          2    1    6    6  502    0 -0.32609279981E+03  0.93028074102E+02 -0.11676314646E+04  0.12158758052E+04  0.00000000000E+00 0. -1.
          1    1    5    5  503    0  0.91968365097E+02 -0.79447923825E+02  0.55804183114E+02  0.13373204415E+03  0.00000000000E+00 0. -1.
         -2    1    5    5    0  503  0.14821438447E+02 -0.21171515798E+02 -0.28814319199E+02  0.38706241224E+02  0.00000000000E+00 0.  1.
         -1    1    6    6    0  502 -0.54918173412E+02  0.50238667471E+02 -0.20571925044E+03  0.21877006076E+03  0.00000000000E+00 0.  1.
<mgrwt>
<rscale>  0 0.21117104E+04</rscale>
<asrwt>0</asrwt>
<pdfrwt beam="1">  1        1 0.11344507E+00 0.21117104E+04</pdfrwt>
<pdfrwt beam="2">  1       -1 0.23259287E+00 0.21117104E+04</pdfrwt>
<totfact> 0.20960844E+00</totfact>
</mgrwt>
</event>
<event>
12    1  0.1467288E-007  0.1565425E+04  0.7818608E-02  0.8842075E-01
         -1   -1    0    0    0  501 -0.00000000000E+00  0.00000000000E+00  0.95050380512E+03  0.95050380512E+03  0.00000000000E+00 0.  1.
          1   -1    0    0  501    0  0.00000000000E+00 -0.00000000000E+00 -0.64454092993E+03  0.64454092993E+03  0.00000000000E+00 0. -1.
         23    2    1    2    0    0  0.38638164451E+03  0.28465056711E+03 -0.95447363874E+02  0.49753607429E+03  0.90084545729E+02 0.  0.
        254    2    1    2    0    0 -0.38638164451E+03 -0.28465056711E+03  0.40141023906E+03  0.10975086608E+04  0.90170857812E+03 0.  0.
        -24    2    4    4    0    0 -0.42206349190E+03 -0.46641735703E+03 -0.15522545744E+02  0.63435008892E+03  0.80475733934E+02 0.  0.
         24    2    4    4    0    0  0.35681847390E+02  0.18176678993E+03  0.41693278480E+03  0.46315857184E+03  0.79815759531E+02 0.  0.
         11    1    3    3    0    0  0.35682860379E+03  0.23197387165E+03 -0.99225961762E+02  0.43701752951E+03  0.00000000000E+00 0. -1.
        -11    1    3    3    0    0  0.29553040721E+02  0.52676695460E+02  0.37785978876E+01  0.60518544781E+02  0.00000000000E+00 0.  1.
          4    1    6    6  502    0  0.20533385951E+02  0.17865820239E+03  0.33941292436E+03  0.38411132038E+03  0.00000000000E+00 0. -1.
          1    1    5    5  503    0 -0.39424063030E+03 -0.40202039203E+03 -0.29163633645E+01  0.56307599430E+03  0.00000000000E+00 0. -1.
         -2    1    5    5    0  503 -0.27822861601E+02 -0.64396965006E+02 -0.12606182379E+02  0.71274094619E+02  0.00000000000E+00 0.  1.
         -3    1    6    6    0  502  0.15148461440E+02  0.31085875403E+01  0.77519860442E+02  0.79047251461E+02  0.00000000000E+00 0.  1.
<mgrwt>
<rscale>  0 0.15654247E+04</rscale>
<asrwt>0</asrwt>
<pdfrwt beam="1">  1        1 0.99160143E-01 0.15654247E+04</pdfrwt>
<pdfrwt beam="2">  1       -1 0.14623135E+00 0.15654247E+04</pdfrwt>
<totfact> 0.11086911E+01</totfact>
</mgrwt>
</event>
<event>
12    1  0.1467288E-007  0.1192040E+04  0.7818608E-02  0.9119852E-01
         -1   -1    0    0    0  501 -0.00000000000E+00  0.00000000000E+00  0.48121501963E+03  0.48121501963E+03  0.00000000000E+00 0.  1.
          1   -1    0    0  501    0  0.00000000000E+00 -0.00000000000E+00 -0.73821480167E+03  0.73821480167E+03  0.00000000000E+00 0. -1.
         23    2    1    2    0    0 -0.98346159568E+02  0.24838921052E+03  0.70864447648E+02  0.29122875138E+03  0.91778258248E+02 0.  0.
        254    2    1    2    0    0  0.98346159568E+02 -0.24838921052E+03 -0.32786422968E+03  0.92820106992E+03  0.82625244696E+03 0.  0.
        -24    2    4    4    0    0  0.31066867660E+03 -0.45072970191E+03 -0.13979932508E+03  0.57065508689E+03  0.80194052725E+02 0.  0.
         24    2    4    4    0    0 -0.21232251704E+03  0.20234049139E+03 -0.18806490461E+03  0.35754598304E+03  0.80300659685E+02 0.  0.
         13    1    3    3    0    0 -0.79458884664E+02  0.25085225715E+03  0.69350909952E+02  0.27212151327E+03  0.00000000000E+00 0.  1.
        -13    1    3    3    0    0 -0.18887274905E+02 -0.24630466350E+01  0.15135376953E+01  0.19107238116E+02  0.00000000000E+00 0. -1.
          4    1    6    6  502    0 -0.20837637072E+01  0.35513356176E+02 -0.18728549026E+02  0.40203222343E+02  0.00000000000E+00 0. -1.
          3    1    5    5  503    0  0.10352738518E+03 -0.12089901000E+03 -0.74488694574E+02  0.17573575539E+03  0.00000000000E+00 0. -1.
         -4    1    5    5    0  503  0.20714129142E+03 -0.32983069191E+03 -0.65310630504E+02  0.39491933150E+03  0.00000000000E+00 0.  1.
         -3    1    6    6    0  502 -0.21023875333E+03  0.16682713521E+03 -0.16933635558E+03  0.31734276070E+03  0.00000000000E+00 0.  1.
<mgrwt>
<rscale>  0 0.11920404E+04</rscale>
<asrwt>0</asrwt>
<pdfrwt beam="1">  1        1 0.11357151E+00 0.11920404E+04</pdfrwt>
<pdfrwt beam="2">  1       -1 0.74033080E-01 0.11920404E+04</pdfrwt>
<totfact> 0.45689864E+01</totfact>
</mgrwt>
</event>
<event>
12    1  0.1467288E-007  0.2025298E+04  0.7818608E-02  0.8594884E-01
          1   -1    0    0  501    0  0.00000000000E+00  0.00000000000E+00  0.19449184196E+04  0.19449184196E+04  0.00000000000E+00 0. -1.
         -1   -1    0    0    0  501 -0.00000000000E+00 -0.00000000000E+00 -0.52724970893E+03  0.52724970893E+03  0.00000000000E+00 0.  1.
         23    2    1    2    0    0  0.18201861953E+03 -0.18127936176E+03  0.15114426923E+04  0.15357992376E+04  0.90704472149E+02 0.  0.
        254    2    1    2    0    0 -0.18201861953E+03  0.18127936176E+03 -0.93773981649E+02  0.93636889091E+03  0.89554461384E+03 0.  0.
        -24    2    4    4    0    0  0.11070497661E+03  0.48305230301E+03 -0.78491779156E+02  0.50813943688E+03  0.80309455448E+02 0.  0.
         24    2    4    4    0    0 -0.29272359614E+03 -0.30177294124E+03 -0.15282202493E+02  0.42822945403E+03  0.79955661333E+02 0.  0.
         13    1    3    3    0    0  0.66623657045E+02 -0.44064341388E+02  0.71380352861E+03  0.71825890549E+03  0.00000000000E+00 0. -1.
        -13    1    3    3    0    0  0.11539496249E+03 -0.13721502037E+03  0.79763916365E+03  0.81754033208E+03  0.00000000000E+00 0.  1.
          4    1    6    6  502    0 -0.26650467071E+03 -0.29641215634E+03 -0.25929999403E+01  0.39861212925E+03  0.00000000000E+00 0. -1.
          1    1    5    5  503    0  0.43494367504E+01  0.17624913408E+03 -0.43154380166E+02  0.18150750781E+03  0.00000000000E+00 0. -1.
         -2    1    5    5    0  503  0.10635553986E+03  0.30680316892E+03 -0.35337398990E+02  0.32663192907E+03  0.00000000000E+00 0.  1.
         -3    1    6    6    0  502 -0.26218925429E+02 -0.53607849020E+01 -0.12689202553E+02  0.29617324776E+02  0.00000000000E+00 0.  1.
<mgrwt>
<rscale>  0 0.20252977E+04</rscale>
<asrwt>0</asrwt>
<pdfrwt beam="1">  1        1 0.29921822E+00 0.20252977E+04</pdfrwt>
<pdfrwt beam="2">  1       -1 0.81115340E-01 0.20252977E+04</pdfrwt>
<totfact> 0.45524135E+00</totfact>
</mgrwt>
</event>
<event>
12    1  0.1467288E-007  0.1406645E+04  0.7818608E-02  0.8949023E-01
          2   -1    0    0  501    0  0.00000000000E+00  0.00000000000E+00  0.16589281119E+04  0.16589281119E+04  0.00000000000E+00 0. -1.
         -2   -1    0    0    0  501 -0.00000000000E+00 -0.00000000000E+00 -0.29818185408E+03  0.29818185408E+03  0.00000000000E+00 0.  1.
         23    2    1    2    0    0 -0.24587995296E+03  0.28110624503E+03  0.54326014971E+03  0.66393609261E+03  0.78751968499E+02 0.  0.
        254    2    1    2    0    0  0.24587995296E+03 -0.28110624503E+03  0.81748610813E+03  0.12931738734E+04  0.92980506430E+03 0.  0.
        -24    2    4    4    0    0 -0.12707786633E+03  0.10190935394E+03  0.72141963437E+03  0.74389828985E+03  0.80025472532E+02 0.  0.
         24    2    4    4    0    0  0.37295781930E+03 -0.38301559898E+03  0.96066473757E+02  0.54927558355E+03  0.81709334030E+02 0.  0.
         13    1    3    3    0    0 -0.15336477108E+03  0.18372332781E+03  0.40992729603E+03  0.47467399573E+03  0.00000000000E+00 0. -1.
        -13    1    3    3    0    0 -0.92515181886E+02  0.97382917224E+02  0.13333285368E+03  0.18926209688E+03  0.00000000000E+00 0.  1.
          4    1    6    6  502    0  0.33417536747E+02 -0.18604375805E+02  0.26104491327E+02  0.46306576518E+02  0.00000000000E+00 0. -1.
          1    1    5    5  503    0  0.89704596402E+01  0.21807270078E+02  0.98465062827E+02  0.10124917171E+03  0.00000000000E+00 0. -1.
         -2    1    5    5    0  503 -0.13604832597E+03  0.80102083865E+02  0.62295457154E+03  0.64264911814E+03  0.00000000000E+00 0.  1.
         -3    1    6    6    0  502  0.33954028255E+03 -0.36441122317E+03  0.69961982430E+02  0.50296900703E+03  0.00000000000E+00 0.  1.
<mgrwt>
<rscale>  0 0.14066446E+04</rscale>
<asrwt>0</asrwt>
<pdfrwt beam="1">  1        2 0.25521970E+00 0.14066446E+04</pdfrwt>
<pdfrwt beam="2">  1       -2 0.45874132E-01 0.14066446E+04</pdfrwt>
<totfact> 0.45306907E+01</totfact>
</mgrwt>
</event>
<event>
12    1  0.1467288E-007  0.2141947E+04  0.7818608E-02  0.8542987E-01
         -1   -1    0    0    0  501 -0.00000000000E+00  0.00000000000E+00  0.10332797430E+04  0.10332797430E+04  0.00000000000E+00 0.  1.
          1   -1    0    0  501    0  0.00000000000E+00 -0.00000000000E+00 -0.11100422350E+04  0.11100422350E+04  0.00000000000E+00 0. -1.
         23    2    1    2    0    0  0.20463163883E+03 -0.83547595223E+03  0.15163543909E+03  0.87800681320E+03  0.89490129464E+02 0.  0.
        254    2    1    2    0    0 -0.20463163883E+03  0.83547595223E+03 -0.22839793113E+03  0.12653151648E+04  0.89942352481E+03 0.  0.
        -24    2    4    4    0    0  0.11026663716E+03 -0.11784883138E+03 -0.18229333453E+03  0.25703809613E+03  0.82405368278E+02 0.  0.
         24    2    4    4    0    0 -0.31489827599E+03  0.95332478361E+03 -0.46104596606E+02  0.10082770687E+04  0.80671842198E+02 0.  0.
         11    1    3    3    0    0 -0.61401702161E+01 -0.51271662112E+01 -0.51234526812E-01  0.79995092735E+01  0.00000000000E+00 0. -1.
        -11    1    3    3    0    0  0.21077180904E+03 -0.83034878602E+03  0.15168667362E+03  0.87000730393E+03  0.00000000000E+00 0.  1.
          2    1    6    6  502    0 -0.23093398206E+03  0.79673696203E+03 -0.39959619651E+02  0.83049206013E+03  0.00000000000E+00 0. -1.
          3    1    5    5  503    0  0.72084115058E+02 -0.11241093159E+03 -0.10225336763E+03  0.16819063107E+03  0.00000000000E+00 0. -1.
         -4    1    5    5    0  503  0.38182522105E+02 -0.54378997855E+01 -0.80039966895E+02  0.88847465067E+02  0.00000000000E+00 0.  1.
         -1    1    6    6    0  502 -0.83964293931E+02  0.15658782159E+03 -0.61449769553E+01  0.17778500855E+03  0.00000000000E+00 0.  1.
<mgrwt>
<rscale>  0 0.21419469E+04</rscale>
<asrwt>0</asrwt>
<pdfrwt beam="1">  1        1 0.17077573E+00 0.21419469E+04</pdfrwt>
<pdfrwt beam="2">  1       -1 0.15896611E+00 0.21419469E+04</pdfrwt>
<totfact> 0.33977838E+00</totfact>
</mgrwt>
</event>
<event>
12    1  0.1467288E-007  0.1735203E+04  0.7818608E-02  0.8741538E-01
         -2   -1    0    0    0  501 -0.00000000000E+00  0.00000000000E+00  0.16771679178E+03  0.16771679178E+03  0.00000000000E+00 0.  1.
          2   -1    0    0  501    0  0.00000000000E+00 -0.00000000000E+00 -0.44881166297E+04  0.44881166297E+04  0.00000000000E+00 0. -1.
         23    2    1    2    0    0  0.19430467314E+03  0.43896727326E+03 -0.48565195732E+03  0.68827291316E+03  0.86111592418E+02 0.  0.
        254    2    1    2    0    0 -0.19430467314E+03 -0.43896727326E+03 -0.38347478806E+04  0.39675605083E+04  0.89766280221E+03 0.  0.
        -24    2    4    4    0    0 -0.29404467694E+03 -0.68016416059E+03 -0.27816225696E+04  0.28796589854E+04  0.76981780861E+02 0.  0.
         24    2    4    4    0    0  0.99740003801E+02  0.24119688733E+03 -0.10531253110E+04  0.10879015230E+04  0.79578868420E+02 0.  0.
         11    1    3    3    0    0  0.20284173342E+03  0.42327573585E+03 -0.46164349124E+03  0.65834780351E+03  0.00000000000E+00 0.  1.
        -11    1    3    3    0    0 -0.85370602820E+01  0.15691537412E+02 -0.24008466077E+02  0.29925109657E+02  0.00000000000E+00 0. -1.
          2    1    6    6  502    0  0.47794991306E+02  0.16978694735E+03 -0.56634880286E+03  0.59318035637E+03  0.00000000000E+00 0. -1.
          1    1    5    5  503    0 -0.19692435654E+03 -0.47680248087E+03 -0.17973666007E+04  0.18699322194E+04  0.00000000000E+00 0. -1.
         -2    1    5    5    0  503 -0.97120320400E+02 -0.20336167972E+03 -0.98425596897E+03  0.10097267659E+04  0.00000000000E+00 0.  1.
         -1    1    6    6    0  502  0.51945012494E+02  0.71409939982E+02 -0.48677650811E+03  0.49472116662E+03  0.00000000000E+00 0.  1.
<mgrwt>
<rscale>  0 0.17352032E+04</rscale>
<asrwt>0</asrwt>
<pdfrwt beam="1">  1        2 0.69047932E+00 0.17352032E+04</pdfrwt>
<pdfrwt beam="2">  1       -2 0.25802589E-01 0.17352032E+04</pdfrwt>
<totfact> 0.16655184E+00</totfact>
</mgrwt>
</event>
<event>
12    1  0.1467288E-007  0.1941685E+04  0.7818608E-02  0.8634381E-01
          2   -1    0    0  501    0  0.00000000000E+00  0.00000000000E+00  0.17342173877E+04  0.17342173877E+04  0.00000000000E+00 0. -1.
         -2   -1    0    0    0  501 -0.00000000000E+00 -0.00000000000E+00 -0.54349288218E+03  0.54349288218E+03  0.00000000000E+00 0.  1.
         23    2    1    2    0    0  0.26722720672E+03 -0.24555227287E+03 -0.31559704416E+03  0.49012774247E+03  0.94432043961E+02 0.  0.
        254    2    1    2    0    0 -0.26722720672E+03  0.24555227287E+03  0.15063215496E+04  0.17875825274E+04  0.89148212687E+03 0.  0.
        -24    2    4    4    0    0  0.17898484342E+03  0.18325727022E+03  0.12170113013E+04  0.12462558442E+04  0.80114421579E+02 0.  0.
         24    2    4    4    0    0 -0.44621205015E+03  0.62295002646E+02  0.28931024837E+03  0.54132668315E+03  0.79676201181E+02 0.  0.
         13    1    3    3    0    0  0.14328941311E+02  0.22658090991E+01 -0.36498824479E+02  0.39276158650E+02  0.00000000000E+00 0. -1.
        -13    1    3    3    0    0  0.25289826541E+03 -0.24781808197E+03 -0.27909821968E+03  0.45085158382E+03  0.00000000000E+00 0.  1.
          4    1    6    6  502    0 -0.14233417387E+03 -0.15314901733E+02  0.76538075767E+02  0.16233188321E+03  0.00000000000E+00 0. -1.
          3    1    5    5  503    0  0.11724152194E+03  0.16394560696E+03  0.98403431845E+03  0.10044636760E+04  0.00000000000E+00 0. -1.
         -4    1    5    5    0  503  0.61743321487E+02  0.19311663266E+02  0.23297698283E+03  0.24179216823E+03  0.00000000000E+00 0.  1.
         -3    1    6    6    0  502 -0.30387787628E+03  0.77609904379E+02  0.21277217260E+03  0.37899479994E+03  0.00000000000E+00 0.  1.
<mgrwt>
<rscale>  0 0.19416846E+04</rscale>
<asrwt>0</asrwt>
<pdfrwt beam="1">  1        2 0.26680267E+00 0.19416846E+04</pdfrwt>
<pdfrwt beam="2">  1       -2 0.83614290E-01 0.19416846E+04</pdfrwt>
<totfact> 0.10958601E+01</totfact>
</mgrwt>
</event>
<event>
12    1  0.1467288E-007  0.2001424E+04  0.7818608E-02  0.8605955E-01
         -1   -1    0    0    0  501 -0.00000000000E+00  0.00000000000E+00  0.70453462033E+03  0.70453462033E+03  0.00000000000E+00 0.  1.
          1   -1    0    0  501    0  0.00000000000E+00 -0.00000000000E+00 -0.14213992360E+04  0.14213992360E+04  0.00000000000E+00 0. -1.
         23    2    1    2    0    0 -0.64864009278E+03  0.24604113177E+03  0.10031169865E+03  0.70711821438E+03  0.93185426595E+02 0.  0.
        254    2    1    2    0    0  0.64864009278E+03 -0.24604113177E+03 -0.81717631431E+03  0.14188156419E+04  0.92951088678E+03 0.  0.
        -24    2    4    4    0    0  0.79899213090E+03 -0.42232771277E+03 -0.70657109552E+03  0.11499899995E+04  0.80530514076E+02 0.  0.
         24    2    4    4    0    0 -0.15035203812E+03  0.17628658100E+03 -0.11060521879E+03  0.26882564244E+03  0.79693272015E+02 0.  0.
         13    1    3    3    0    0 -0.18454373808E+03  0.29040990735E+02  0.11625599348E+02  0.18717618697E+03  0.00000000000E+00 0. -1.
        -13    1    3    3    0    0 -0.46409635470E+03  0.21700014103E+03  0.88686099304E+02  0.51994202741E+03  0.00000000000E+00 0.  1.
          4    1    6    6  502    0 -0.13053484485E+03  0.14860051965E+03 -0.57922192445E+02  0.20609813327E+03  0.00000000000E+00 0. -1.
          3    1    5    5  503    0  0.57017381197E+03 -0.34067303339E+03 -0.52728688023E+03  0.84804937686E+03  0.00000000000E+00 0. -1.
         -2    1    5    5    0  503  0.22881831893E+03 -0.81654679384E+02 -0.17928421530E+03  0.30194062264E+03  0.00000000000E+00 0.  1.
         -3    1    6    6    0  502 -0.19817193267E+02  0.27686061351E+02 -0.52683026344E+02  0.62727509172E+02  0.00000000000E+00 0.  1.
<mgrwt>
<rscale>  0 0.20014245E+04</rscale>
<asrwt>0</asrwt>
<pdfrwt beam="1">  1        1 0.21867680E+00 0.20014245E+04</pdfrwt>
<pdfrwt beam="2">  1       -1 0.10838994E+00 0.20014245E+04</pdfrwt>
<totfact> 0.54398403E+00</totfact>
</mgrwt>
</event>
<event>
12    1  0.1641408E-007  0.2109922E+04  0.7818608E-02  0.8556885E-01
          2   -1    0    0  501    0  0.00000000000E+00  0.00000000000E+00  0.29467782008E+04  0.29467782008E+04  0.00000000000E+00 0. -1.
         -2   -1    0    0    0  501 -0.00000000000E+00 -0.00000000000E+00 -0.37768117985E+03  0.37768117985E+03  0.00000000000E+00 0.  1.
         23    2    1    2    0    0 -0.63681051370E+03 -0.83025335735E+02  0.19626933178E+04  0.20672167032E+04  0.93802994354E+02 0.  0.
        254    2    1    2    0    0  0.63681051370E+03  0.83025335735E+02  0.60640370314E+03  0.12572426774E+04  0.89471384359E+03 0.  0.
        -24    2    4    4    0    0  0.61420898318E+03  0.19454121280E+03  0.14762424309E+02  0.64949051690E+03  0.80752980615E+02 0.  0.
         24    2    4    4    0    0  0.22601530525E+02 -0.11151587707E+03  0.59164127884E+03  0.60775216049E+03  0.79854027652E+02 0.  0.
         13    1    3    3    0    0 -0.63363631752E+03 -0.73045806793E+02  0.19412913651E+04  0.20433900354E+04  0.00000000000E+00 0. -1.
        -13    1    3    3    0    0 -0.31741961785E+01 -0.99795289424E+01  0.21401952712E+02  0.23826667816E+02  0.00000000000E+00 0.  1.
          2    1    6    6  502    0 -0.23983187498E+02 -0.26510401477E+02  0.90165478101E+02  0.96993856044E+02  0.00000000000E+00 0. -1.
          1    1    5    5  503    0  0.91964385293E+02  0.21138794820E+02  0.29949075128E+02  0.99001231860E+02  0.00000000000E+00 0. -1.
         -2    1    5    5    0  503  0.52224459788E+03  0.17340241798E+03 -0.15186650819E+02  0.55048928504E+03  0.00000000000E+00 0.  1.
         -1    1    6    6    0  502  0.46584718024E+02 -0.85005475592E+02  0.50147580073E+03  0.51075830444E+03  0.00000000000E+00 0.  1.
<mgrwt>
<rscale>  0 0.21099220E+04</rscale>
<asrwt>0</asrwt>
<pdfrwt beam="1">  1        2 0.45335048E+00 0.21099220E+04</pdfrwt>
<pdfrwt beam="2">  1       -2 0.58104799E-01 0.21099220E+04</pdfrwt>
<totfact> 0.48038835E+00</totfact>
</mgrwt>
</event>
<event>
12    1  0.1467288E-007  0.1727849E+04  0.7818608E-02  0.8745639E-01
         -2   -1    0    0    0  501 -0.00000000000E+00  0.00000000000E+00  0.36725679377E+03  0.36725679377E+03  0.00000000000E+00 0.  1.
          2   -1    0    0  501    0  0.00000000000E+00 -0.00000000000E+00 -0.20322713834E+04  0.20322713834E+04  0.00000000000E+00 0. -1.
         23    2    1    2    0    0  0.45527368177E+03  0.33552249114E+03 -0.98788236480E+03  0.11419561952E+04  0.91120347594E+02 0.  0.
        254    2    1    2    0    0 -0.45527368177E+03 -0.33552249114E+03 -0.67713222485E+03  0.12575719820E+04  0.89617507918E+03 0.  0.
        -24    2    4    4    0    0  0.25855654962E+02  0.15938987721E+03  0.10759942034E+03  0.20925596532E+03  0.78337576645E+02 0.  0.
         24    2    4    4    0    0 -0.48112933673E+03 -0.49491236835E+03 -0.78473164519E+03  0.10483160167E+04  0.82091563592E+02 0.  0.
         11    1    3    3    0    0  0.21222247498E+03  0.14325824882E+03 -0.36013880697E+03  0.44188376868E+03  0.00000000000E+00 0. -1.
        -11    1    3    3    0    0  0.24305120678E+03  0.19226424233E+03 -0.62774355783E+03  0.70007242654E+03  0.00000000000E+00 0.  1.
          4    1    6    6  502    0 -0.42499205074E+03 -0.39527952371E+03 -0.64315098355E+03  0.86631826294E+03  0.00000000000E+00 0. -1.
          1    1    5    5  503    0  0.96011482272E+01  0.16145713462E+03  0.89547424474E+02  0.18487652527E+03  0.00000000000E+00 0. -1.
         -2    1    5    5    0  503  0.16254506735E+02 -0.20672574095E+01  0.18051995866E+02  0.24379440050E+02  0.00000000000E+00 0.  1.
         -3    1    6    6    0  502 -0.56137285986E+02 -0.99632844634E+02 -0.14158066164E+03  0.18199775372E+03  0.00000000000E+00 0.  1.
<mgrwt>
<rscale>  0 0.17278489E+04</rscale>
<asrwt>0</asrwt>
<pdfrwt beam="1">  1        2 0.31265714E+00 0.17278489E+04</pdfrwt>
<pdfrwt beam="2">  1       -2 0.56501045E-01 0.17278489E+04</pdfrwt>
<totfact> 0.17890639E+01</totfact>
</mgrwt>
</event>
<event>
12    1  0.1467288E-007  0.1796780E+04  0.7818608E-02  0.8708014E-01
          1   -1    0    0  501    0  0.00000000000E+00  0.00000000000E+00  0.30474126212E+04  0.30474126212E+04  0.00000000000E+00 0. -1.
         -1   -1    0    0    0  501 -0.00000000000E+00 -0.00000000000E+00 -0.26484924111E+03  0.26484924111E+03  0.00000000000E+00 0.  1.
         23    2    1    2    0    0  0.11255295886E+03  0.28308883689E+03 -0.48744757875E+02  0.32183949593E+03  0.91635973306E+02 0.  0.
        254    2    1    2    0    0 -0.11255295886E+03 -0.28308883689E+03  0.28313081380E+04  0.29904223664E+04  0.91296916659E+03 0.  0.
        -24    2    4    4    0    0 -0.42500574901E+03  0.11746016349E+03  0.13935234079E+04  0.14638423066E+04  0.80622785702E+02 0.  0.
         24    2    4    4    0    0  0.31245279015E+03 -0.40054900038E+03  0.14377847301E+04  0.15265800598E+04  0.71801818212E+02 0.  0.
         11    1    3    3    0    0  0.21051183839E+02  0.12884936722E+03 -0.56668474071E+02  0.14232578027E+03  0.00000000000E+00 0.  1.
        -11    1    3    3    0    0  0.91501775019E+02  0.15423946966E+03  0.79237161956E+01  0.17951371567E+03  0.00000000000E+00 0. -1.
          2    1    6    6  502    0  0.20084206062E+02 -0.36500501806E+02  0.71948109309E+02  0.83139595851E+02  0.00000000000E+00 0. -1.
          3    1    5    5  503    0 -0.21797083968E+03  0.66852229405E+02  0.84941201910E+03  0.87947784834E+03  0.00000000000E+00 0. -1.
         -4    1    5    5    0  503 -0.20703490933E+03  0.50607934087E+02  0.54411138875E+03  0.58436445823E+03  0.00000000000E+00 0.  1.
         -1    1    6    6    0  502  0.29236858409E+03 -0.36404849857E+03  0.13658366208E+04  0.14434404639E+04  0.00000000000E+00 0.  1.
<mgrwt>
<rscale>  0 0.17967804E+04</rscale>
<asrwt>0</asrwt>
<pdfrwt beam="1">  1        1 0.46883269E+00 0.17967804E+04</pdfrwt>
<pdfrwt beam="2">  1       -1 0.40746039E-01 0.17967804E+04</pdfrwt>
<totfact> 0.30770328E+00</totfact>
</mgrwt>
</event>
<event>
12    1  0.1467288E-007  0.1404779E+04  0.7818608E-02  0.8950367E-01
          4   -1    0    0  501    0  0.00000000000E+00  0.00000000000E+00  0.60322029583E+03  0.60322029583E+03  0.00000000000E+00 0.  1.
         -4   -1    0    0    0  501 -0.00000000000E+00 -0.00000000000E+00 -0.81786154125E+03  0.81786154125E+03  0.00000000000E+00 0. -1.
         23    2    1    2    0    0  0.32204526539E+03 -0.17484150050E+03  0.11793464218E+03  0.39502715156E+03  0.88629382184E+02 0.  0.
        254    2    1    2    0    0 -0.32204526539E+03  0.17484150050E+03 -0.33257588761E+03  0.10260546855E+04  0.89883190497E+03 0.  0.
        -24    2    4    4    0    0 -0.48236453014E+02  0.10046770666E+03  0.29896305382E+03  0.32891188347E+03  0.79897459631E+02 0.  0.
         24    2    4    4    0    0 -0.27380881237E+03  0.74373793841E+02 -0.63153894143E+03  0.69714280205E+03  0.81632866951E+02 0.  0.
         13    1    3    3    0    0  0.16132185149E+03 -0.65638284541E+02  0.14157401301E+02  0.17473853661E+03  0.00000000000E+00 0.  1.
        -13    1    3    3    0    0  0.16072341390E+03 -0.10920321596E+03  0.10377724088E+03  0.22028861495E+03  0.00000000000E+00 0. -1.
          4    1    6    6  502    0 -0.13723321086E+03  0.78690862937E+02 -0.32063735613E+03  0.35753813813E+03  0.00000000000E+00 0. -1.
          1    1    5    5  503    0  0.43133015402E+01  0.40801526718E+01 -0.36713795012E+01  0.69807767078E+01  0.00000000000E+00 0. -1.
         -2    1    5    5    0  503 -0.52549754555E+02  0.96387553987E+02  0.30263443332E+03  0.32193110676E+03  0.00000000000E+00 0.  1.
         -3    1    6    6    0  502 -0.13657560151E+03 -0.43170690957E+01 -0.31090158530E+03  0.33960466392E+03  0.00000000000E+00 0.  1.
<mgrwt>
<rscale>  0 0.14047785E+04</rscale>
<asrwt>0</asrwt>
<pdfrwt beam="1">  1        4 0.92803122E-01 0.14047785E+04</pdfrwt>
<pdfrwt beam="2">  1       -4 0.12582485E+00 0.14047785E+04</pdfrwt>
<totfact> 0.90003275E-01</totfact>
</mgrwt>
</event>
<event>
12    1  0.1467288E-007  0.1683857E+04  0.7818608E-02  0.8770625E-01
          1   -1    0    0  501    0  0.00000000000E+00  0.00000000000E+00  0.12659988373E+04  0.12659988373E+04  0.00000000000E+00 0. -1.
         -1   -1    0    0    0  501 -0.00000000000E+00 -0.00000000000E+00 -0.55990842235E+03  0.55990842235E+03  0.00000000000E+00 0.  1.
         23    2    1    2    0    0  0.28474796684E+03  0.14119793666E+02 -0.31528732392E+03  0.43685079746E+03  0.10075589028E+03 0.  0.
        254    2    1    2    0    0 -0.28474796684E+03 -0.14119793666E+02  0.10213777389E+04  0.13890564622E+04  0.89720933819E+03 0.  0.
        -24    2    4    4    0    0 -0.16646387379E+03  0.42455461932E+03  0.37759341185E+03  0.59740862958E+03  0.79771172487E+02 0.  0.
         24    2    4    4    0    0 -0.11828409304E+03 -0.43867441298E+03  0.64378432705E+03  0.79164783265E+03  0.76299828994E+02 0.  0.
         13    1    3    3    0    0  0.28343094287E+03  0.31106261443E+02 -0.30106336252E+03  0.41465630000E+03  0.00000000000E+00 0.  1.
        -13    1    3    3    0    0  0.13170239681E+01 -0.16986467778E+02 -0.14223961395E+02  0.22194497459E+02  0.00000000000E+00 0. -1.
          2    1    6    6  502    0 -0.25822268768E+02 -0.46388051800E+02  0.11601645747E+03  0.12758706564E+03  0.00000000000E+00 0. -1.
          3    1    5    5  503    0 -0.14642644968E+02  0.17118794768E+02  0.16013396559E+01  0.22583721453E+02  0.00000000000E+00 0. -1.
         -4    1    5    5    0  503 -0.15182122882E+03  0.40743582455E+03  0.37599207220E+03  0.57482490813E+03  0.00000000000E+00 0.  1.
         -1    1    6    6    0  502 -0.92461824275E+02 -0.39228636118E+03  0.52776786958E+03  0.66406076701E+03  0.00000000000E+00 0.  1.
<mgrwt>
<rscale>  0 0.16838568E+04</rscale>
<asrwt>0</asrwt>
<pdfrwt beam="1">  1        1 0.19476905E+00 0.16838568E+04</pdfrwt>
<pdfrwt beam="2">  1       -1 0.86139757E-01 0.16838568E+04</pdfrwt>
<totfact> 0.12127680E+01</totfact>
</mgrwt>
</event>
<event>
12    1  0.1467288E-007  0.1460544E+04  0.7818608E-02  0.8911123E-01
          1   -1    0    0  501    0  0.00000000000E+00  0.00000000000E+00  0.42489721507E+03  0.42489721507E+03  0.00000000000E+00 0. -1.
         -1   -1    0    0    0  501 -0.00000000000E+00 -0.00000000000E+00 -0.12551206125E+04  0.12551206125E+04  0.00000000000E+00 0.  1.
         23    2    1    2    0    0 -0.19323476859E+03  0.32824439223E+03  0.19085147356E+01  0.39194602903E+03  0.92379599616E+02 0.  0.
        254    2    1    2    0    0  0.19323476859E+03 -0.32824439223E+03 -0.83213191218E+03  0.12880717985E+04  0.90642229789E+03 0.  0.
        -24    2    4    4    0    0  0.52097594421E+03 -0.24827287790E+03 -0.71287356010E+03  0.92145047971E+03  0.88469867857E+02 0.  0.
         24    2    4    4    0    0 -0.32774117562E+03 -0.79971514327E+02 -0.11925835208E+03  0.36662131884E+03  0.79868113689E+02 0.  0.
         11    1    3    3    0    0 -0.64670764907E+02  0.96599541935E+02  0.42802310227E+02  0.12387823496E+03  0.00000000000E+00 0. -1.
        -11    1    3    3    0    0 -0.12856400369E+03  0.23164485029E+03 -0.40893795491E+02  0.26806779407E+03  0.00000000000E+00 0.  1.
          4    1    6    6  502    0 -0.28505533712E+03 -0.53334999514E+02 -0.74835275209E+02  0.29950206312E+03  0.00000000000E+00 0. -1.
          3    1    5    5  503    0  0.50698913089E+03 -0.25488615635E+03 -0.70133217188E+03  0.90214840622E+03  0.00000000000E+00 0. -1.
         -4    1    5    5    0  503  0.13986813323E+02  0.66132784501E+01 -0.11541388220E+02  0.19302073485E+02  0.00000000000E+00 0.  1.
         -3    1    6    6    0  502 -0.42685838493E+02 -0.26636514813E+02 -0.44423076872E+02  0.67119255717E+02  0.00000000000E+00 0.  1.
<mgrwt>
<rscale>  0 0.14605441E+04</rscale>
<asrwt>0</asrwt>
<pdfrwt beam="1">  1        1 0.65368803E-01 0.14605441E+04</pdfrwt>
<pdfrwt beam="2">  1       -1 0.19309548E+00 0.14605441E+04</pdfrwt>
<totfact> 0.90242925E+00</totfact>
</mgrwt>
</event>
<event>
12    1  0.1467288E-007  0.1147459E+04  0.7818608E-02  0.9160130E-01
         -2   -1    0    0    0  501 -0.00000000000E+00  0.00000000000E+00  0.11931266726E+04  0.11931266726E+04  0.00000000000E+00 0.  1.
          2   -1    0    0  501    0  0.00000000000E+00 -0.00000000000E+00 -0.27588505701E+03  0.27588505701E+03  0.00000000000E+00 0. -1.
         23    2    1    2    0    0 -0.15298161059E+03 -0.13075287616E+03  0.23883801893E+03  0.32109574662E+03  0.74559985294E+02 0.  0.
        254    2    1    2    0    0  0.15298161059E+03  0.13075287616E+03  0.67840359669E+03  0.11479159830E+04  0.90386944648E+03 0.  0.
        -24    2    4    4    0    0  0.50417157722E+03  0.11235297090E+03  0.56495956019E+03  0.76954137678E+03  0.78755676459E+02 0.  0.
         24    2    4    4    0    0 -0.35118996663E+03  0.18399905265E+02  0.11344403650E+03  0.37837460624E+03  0.81393145030E+02 0.  0.
         13    1    3    3    0    0 -0.12726492701E+03 -0.13814489233E+03  0.20742810286E+03  0.27983350547E+03  0.00000000000E+00 0.  1.
        -13    1    3    3    0    0 -0.25716683586E+02  0.73920161721E+01  0.31409916065E+02  0.41262241153E+02  0.00000000000E+00 0. -1.
          2    1    6    6  502    0 -0.16682551387E+03  0.47827817989E+02  0.42695589249E+02  0.17872091538E+03  0.00000000000E+00 0. -1.
          1    1    5    5  503    0  0.30047343278E+03  0.27204654621E+02  0.32236271938E+03  0.44152247948E+03  0.00000000000E+00 0. -1.
         -2    1    5    5    0  503  0.20369814445E+03  0.85148316275E+02  0.24259684081E+03  0.32801889730E+03  0.00000000000E+00 0.  1.
         -3    1    6    6    0  502 -0.18436445276E+03 -0.29427912725E+02  0.70748447250E+02  0.19965369087E+03  0.00000000000E+00 0.  1.
<mgrwt>
<rscale>  0 0.11474595E+04</rscale>
<asrwt>0</asrwt>
<pdfrwt beam="1">  1        2 0.42443856E-01 0.11474595E+04</pdfrwt>
<pdfrwt beam="2">  1       -2 0.18355795E+00 0.11474595E+04</pdfrwt>
<totfact> 0.20437627E+01</totfact>
</mgrwt>
</event>
<event>
12    1  0.1467288E-007  0.2877909E+04  0.7818608E-02  0.8279481E-01
          2   -1    0    0  501    0  0.00000000000E+00  0.00000000000E+00  0.14483881057E+04  0.14483881057E+04  0.00000000000E+00 0. -1.
         -2   -1    0    0    0  501 -0.00000000000E+00 -0.00000000000E+00 -0.14295824436E+04  0.14295824436E+04  0.00000000000E+00 0.  1.
         23    2    1    2    0    0  0.10537942967E+04 -0.71828878357E+03 -0.19047777791E+03  0.12924998745E+04  0.88616845781E+02 0.  0.
        254    2    1    2    0    0 -0.10537942967E+04  0.71828878357E+03  0.20928343997E+03  0.15854706748E+04  0.91842065867E+03 0.  0.
        -24    2    4    4    0    0 -0.77932268616E+03  0.14134165078E+03  0.42950388632E+03  0.90495506608E+03  0.84550410103E+02 0.  0.
         24    2    4    4    0    0 -0.27447161050E+03  0.57694713279E+03 -0.22022044634E+03  0.68051560877E+03  0.80011185369E+02 0.  0.
         11    1    3    3    0    0  0.27266411764E+03 -0.21768996593E+03 -0.81955064921E+02  0.35840099746E+03  0.00000000000E+00 0.  1.
        -11    1    3    3    0    0  0.78113017902E+03 -0.50059881764E+03 -0.10852271299E+03  0.93409887701E+03  0.00000000000E+00 0. -1.
          2    1    6    6  502    0 -0.14764548499E+03  0.29517352187E+03 -0.71988887021E+02  0.33780023254E+03  0.00000000000E+00 0. -1.
          1    1    5    5  503    0 -0.60764233107E+03  0.89156388173E+02  0.36412910018E+03  0.71398043787E+03  0.00000000000E+00 0. -1.
         -2    1    5    5    0  503 -0.17168035509E+03  0.52185262602E+02  0.65374786134E+02  0.19097462821E+03  0.00000000000E+00 0.  1.
         -1    1    6    6    0  502 -0.12682612551E+03  0.28177361093E+03 -0.14823155932E+03  0.34271537623E+03  0.00000000000E+00 0.  1.
<mgrwt>
<rscale>  0 0.28779091E+04</rscale>
<asrwt>0</asrwt>
<pdfrwt beam="1">  1        2 0.22282894E+00 0.28779091E+04</pdfrwt>
<pdfrwt beam="2">  1       -2 0.21993576E+00 0.28779091E+04</pdfrwt>
<totfact> 0.11615412E+00</totfact>
</mgrwt>
</event>
<event>
12    1  0.1467288E-007  0.1229989E+04  0.7818608E-02  0.9087005E-01
          2   -1    0    0  501    0  0.00000000000E+00  0.00000000000E+00  0.34503458146E+03  0.34503458146E+03  0.00000000000E+00 0. -1.
         -2   -1    0    0    0  501 -0.00000000000E+00 -0.00000000000E+00 -0.10961745495E+04  0.10961745495E+04  0.00000000000E+00 0.  1.
         23    2    1    2    0    0 -0.13784733023E+03  0.19167629048E+02  0.10065973861E+03  0.19433929966E+03  0.90918072789E+02 0.  0.
        254    2    1    2    0    0  0.13784733023E+03 -0.19167629048E+02 -0.85179970661E+03  0.12468698313E+04  0.89986240697E+03 0.  0.
        -24    2    4    4    0    0  0.36279523774E+02  0.12183319272E+03 -0.99593521413E+03  0.10073893466E+04  0.82382123268E+02 0.  0.
         24    2    4    4    0    0  0.10156780646E+03 -0.14100082177E+03  0.14413550752E+03  0.23948048465E+03  0.79866181512E+02 0.  0.
         13    1    3    3    0    0 -0.50111616554E+02  0.34428678109E+02  0.84074954696E+02  0.10375502878E+03  0.00000000000E+00 0. -1.
        -13    1    3    3    0    0 -0.87735713680E+02 -0.15261049062E+02  0.16584783912E+02  0.90584270880E+02  0.00000000000E+00 0.  1.
          4    1    6    6  502    0  0.76463094647E+02 -0.14219546700E+03  0.10374668807E+03  0.19191021589E+03  0.00000000000E+00 0. -1.
          1    1    5    5  503    0  0.40327754520E+02  0.51945400857E+02 -0.70877488229E+03  0.71181913870E+03  0.00000000000E+00 0. -1.
         -2    1    5    5    0  503 -0.40482307457E+01  0.69887791866E+02 -0.28716033184E+03  0.29557020792E+03  0.00000000000E+00 0.  1.
         -3    1    6    6    0  502  0.25104711814E+02  0.11946452322E+01  0.40388819455E+02  0.47570268755E+02  0.00000000000E+00 0.  1.
<mgrwt>
<rscale>  0 0.12299888E+04</rscale>
<asrwt>0</asrwt>
<pdfrwt beam="1">  1        2 0.53082243E-01 0.12299888E+04</pdfrwt>
<pdfrwt beam="2">  1       -2 0.16864224E+00 0.12299888E+04</pdfrwt>
<totfact> 0.20130005E+01</totfact>
</mgrwt>
</event>
<event>
12    1  0.1467288E-007  0.2158765E+04  0.7818608E-02  0.8535790E-01
         -2   -1    0    0    0  501 -0.00000000000E+00  0.00000000000E+00  0.85473629642E+03  0.85473629642E+03  0.00000000000E+00 0.  1.
          2   -1    0    0  501    0  0.00000000000E+00 -0.00000000000E+00 -0.13630711000E+04  0.13630711000E+04  0.00000000000E+00 0. -1.
         23    2    1    2    0    0  0.70341021346E+03  0.22356302620E+03  0.25691683333E+03  0.78652764395E+03  0.88617833266E+02 0.  0.
        254    2    1    2    0    0 -0.70341021346E+03 -0.22356302620E+03 -0.76525163693E+03  0.14312797525E+04  0.95821986358E+03 0.  0.
        -24    2    4    4    0    0 -0.36288033222E+03  0.21543247685E+03  0.60843381773E+02  0.43283449485E+03  0.74501645826E+02 0.  0.
         24    2    4    4    0    0 -0.34052988123E+03 -0.43899550305E+03 -0.82609501871E+03  0.99844525763E+03  0.76041441607E+02 0.  0.
         13    1    3    3    0    0  0.10632909112E+03  0.37603274095E+02  0.67730129723E+01  0.11298564309E+03  0.00000000000E+00 0. -1.
        -13    1    3    3    0    0  0.59708112234E+03  0.18595975210E+03  0.25014382036E+03  0.67354200086E+03  0.00000000000E+00 0.  1.
          4    1    6    6  502    0 -0.22288386453E+03 -0.26090055000E+03 -0.56706790581E+03  0.66280639998E+03  0.00000000000E+00 0. -1.
          1    1    5    5  503    0 -0.28149624478E+03  0.15543202810E+03  0.76464601660E+02  0.33052395752E+03  0.00000000000E+00 0. -1.
         -2    1    5    5    0  503 -0.81384087445E+02  0.60000448748E+02 -0.15621219887E+02  0.10231053734E+03  0.00000000000E+00 0.  1.
         -1    1    6    6    0  502 -0.11764601670E+03 -0.17809495305E+03 -0.25902711290E+03  0.33563885765E+03  0.00000000000E+00 0.  1.
<mgrwt>
<rscale>  0 0.21587648E+04</rscale>
<asrwt>0</asrwt>
<pdfrwt beam="1">  1        2 0.20970325E+00 0.21587648E+04</pdfrwt>
<pdfrwt beam="2">  1       -2 0.13149789E+00 0.21587648E+04</pdfrwt>
<totfact> 0.58801842E+00</totfact>
</mgrwt>
</event>
<event>
12    1  0.1467288E-007  0.1956950E+04  0.7818608E-02  0.8627017E-01
          2   -1    0    0  501    0  0.00000000000E+00  0.00000000000E+00  0.10186024291E+04  0.10186024291E+04  0.00000000000E+00 0.  1.
         -2   -1    0    0    0  501 -0.00000000000E+00 -0.00000000000E+00 -0.93992828210E+03  0.93992828210E+03  0.00000000000E+00 0. -1.
         23    2    1    2    0    0 -0.10203900624E+03  0.73096710445E+03  0.24527644258E+03  0.78299096600E+03  0.90495596388E+02 0.  0.
        254    2    1    2    0    0  0.10203900624E+03 -0.73096710445E+03 -0.16660229555E+03  0.11755397452E+04  0.89967355254E+03 0.  0.
        -24    2    4    4    0    0  0.15943567279E+02 -0.92040352977E+03 -0.21385412024E+03  0.94842208616E+03  0.79837421141E+02 0.  0.
         24    2    4    4    0    0  0.86095438961E+02  0.18943642532E+03  0.47251824683E+02  0.22711765907E+03  0.77788895593E+02 0.  0.
         11    1    3    3    0    0 -0.58496262624E+01  0.32597670583E+01 -0.39779443076E+01  0.77889825778E+01  0.00000000000E+00 0. -1.
        -11    1    3    3    0    0 -0.96189379977E+02  0.72770733739E+03  0.24925438688E+03  0.77520198342E+03  0.00000000000E+00 0.  1.
          4    1    6    6  502    0  0.82771367027E+02  0.92170567395E+02  0.16054422358E+02  0.12491700113E+03  0.00000000000E+00 0. -1.
          3    1    5    5  503    0 -0.17828285019E+02 -0.84173810313E+02 -0.69950592621E+01  0.86325019220E+02  0.00000000000E+00 0. -1.
         -4    1    5    5    0  503  0.33771852297E+02 -0.83622971946E+03 -0.20685906097E+03  0.86209706694E+03  0.00000000000E+00 0.  1.
         -3    1    6    6    0  502  0.33240719338E+01  0.97265857923E+02  0.31197402324E+02  0.10220065794E+03  0.00000000000E+00 0.  1.
<mgrwt>
<rscale>  0 0.19569499E+04</rscale>
<asrwt>0</asrwt>
<pdfrwt beam="1">  1        2 0.15670807E+00 0.19569499E+04</pdfrwt>
<pdfrwt beam="2">  1       -2 0.14460435E+00 0.19569499E+04</pdfrwt>
<totfact> 0.75399473E+00</totfact>
</mgrwt>
</event>
<event>
12    1  0.1467288E-007  0.2719979E+04  0.7818608E-02  0.8328551E-01
         -1   -1    0    0    0  501 -0.00000000000E+00  0.00000000000E+00  0.10566124274E+04  0.10566124274E+04  0.00000000000E+00 0.  1.
          1   -1    0    0  501    0  0.00000000000E+00 -0.00000000000E+00 -0.17504728624E+04  0.17504728624E+04  0.00000000000E+00 0. -1.
         23    2    1    2    0    0 -0.13020250920E+02 -0.11525337454E+04 -0.47666242252E+03  0.12504280370E+04  0.88654664423E+02 0.  0.
        254    2    1    2    0    0  0.13020250920E+02  0.11525337454E+04 -0.21719801254E+03  0.15566572528E+04  0.10234760695E+04 0.  0.
        -24    2    4    4    0    0  0.91998585143E+02  0.12836604675E+04 -0.14576039159E+02  0.12897442431E+04  0.83545294800E+02 0.  0.
         24    2    4    4    0    0 -0.78978334223E+02 -0.13112672209E+03 -0.20262197338E+03  0.26691300966E+03  0.82189391684E+02 0.  0.
         11    1    3    3    0    0 -0.16694959891E+02 -0.27570750632E+03 -0.15305883915E+03  0.31578530518E+03  0.00000000000E+00 0. -1.
        -11    1    3    3    0    0  0.36747089712E+01 -0.87682623905E+03 -0.32360358338E+03  0.93464273183E+03  0.00000000000E+00 0.  1.
          2    1    6    6  502    0 -0.85629590077E+02 -0.12428576308E+03 -0.20719047816E+03  0.25633429705E+03  0.00000000000E+00 0. -1.
          3    1    5    5  503    0  0.85657494662E+02  0.68148648867E+03  0.11956101426E+02  0.68695268322E+03  0.00000000000E+00 0. -1.
         -4    1    5    5    0  503  0.63410904816E+01  0.60217397881E+03 -0.26532140585E+02  0.60279155988E+03  0.00000000000E+00 0.  1.
         -1    1    6    6    0  502  0.66512558540E+01 -0.68409590144E+01  0.45685047799E+01  0.10578712615E+02  0.00000000000E+00 0.  1.
<mgrwt>
<rscale>  0 0.27199790E+04</rscale>
<asrwt>0</asrwt>
<pdfrwt beam="1">  1        1 0.26930351E+00 0.27199790E+04</pdfrwt>
<pdfrwt beam="2">  1       -1 0.16255576E+00 0.27199790E+04</pdfrwt>
<totfact> 0.10727981E+00</totfact>
</mgrwt>
</event>
<event>
12    1  0.1467288E-007  0.2243412E+04  0.7818608E-02  0.8500573E-01
          1   -1    0    0  501    0  0.00000000000E+00  0.00000000000E+00  0.71194512761E+03  0.71194512761E+03  0.00000000000E+00 0. -1.
         -1   -1    0    0    0  501 -0.00000000000E+00 -0.00000000000E+00 -0.17673052487E+04  0.17673052487E+04  0.00000000000E+00 0.  1.
         23    2    1    2    0    0  0.44070669124E+03 -0.27027989289E+03  0.42452976655E+03  0.67507681564E+03  0.90717011204E+02 0.  0.
        254    2    1    2    0    0 -0.44070669124E+03  0.27027989289E+03 -0.14798898876E+04  0.18041735607E+04  0.89313747502E+03 0.  0.
        -24    2    4    4    0    0 -0.63966448286E+03  0.13606555678E+03 -0.60789475548E+03  0.89646548036E+03  0.80186266624E+02 0.  0.
         24    2    4    4    0    0  0.19895779163E+03  0.13421433611E+03 -0.87199513216E+03  0.90770808031E+03  0.77205943370E+02 0.  0.
         13    1    3    3    0    0  0.34866487306E+03 -0.19765221969E+03  0.37116779538E+03  0.54625921134E+03  0.00000000000E+00 0. -1.
        -13    1    3    3    0    0  0.92041818181E+02 -0.72627673202E+02  0.53361971171E+02  0.12881760429E+03  0.00000000000E+00 0.  1.
          4    1    6    6  502    0  0.12518061904E+03  0.11444835028E+03 -0.68564217807E+03  0.70630999470E+03  0.00000000000E+00 0. -1.
          3    1    5    5  503    0 -0.52951076118E+03  0.88313646049E+02 -0.46866492013E+03  0.71262034327E+03  0.00000000000E+00 0. -1.
         -4    1    5    5    0  503 -0.11015372169E+03  0.47751910729E+02 -0.13922983535E+03  0.18384513708E+03  0.00000000000E+00 0.  1.
         -3    1    6    6    0  502  0.73777172593E+02  0.19765985838E+02 -0.18635295408E+03  0.20139808561E+03  0.00000000000E+00 0.  1.
<mgrwt>
<rscale>  0 0.22434120E+04</rscale>
<asrwt>0</asrwt>
<pdfrwt beam="1">  1        1 0.10953002E+00 0.22434120E+04</pdfrwt>
<pdfrwt beam="2">  1       -1 0.27189311E+00 0.22434120E+04</pdfrwt>
<totfact> 0.12112992E+00</totfact>
</mgrwt>
</event>
<event>
12    1  0.1467288E-007  0.1836397E+04  0.7818608E-02  0.8687180E-01
          1   -1    0    0  501    0  0.00000000000E+00  0.00000000000E+00  0.75093604280E+03  0.75093604280E+03  0.00000000000E+00 0. -1.
         -1   -1    0    0    0  501 -0.00000000000E+00 -0.00000000000E+00 -0.11227165569E+04  0.11227165569E+04  0.00000000000E+00 0.  1.
         23    2    1    2    0    0  0.40754659861E+03 -0.18617414036E+03 -0.69303538926E+03  0.83246681517E+03  0.10930648208E+03 0.  0.
        254    2    1    2    0    0 -0.40754659861E+03  0.18617414036E+03  0.32125487519E+03  0.10411857845E+04  0.88323728545E+03 0.  0.
        -24    2    4    4    0    0  0.12840529542E+03  0.33785403746E+03  0.30435281405E+03  0.47917926587E+03  0.79679752115E+02 0.  0.
         24    2    4    4    0    0 -0.53595189403E+03 -0.15167989710E+03  0.16902061135E+02  0.56200651862E+03  0.72900091931E+02 0.  0.
         13    1    3    3    0    0  0.75961735908E+02 -0.17102956985E+02 -0.20069045349E+03  0.21526577661E+03  0.00000000000E+00 0. -1.
        -13    1    3    3    0    0  0.33158486270E+03 -0.16907118337E+03 -0.49234493577E+03  0.61720103856E+03  0.00000000000E+00 0.  1.
          2    1    6    6  502    0 -0.40195823933E+03 -0.94991002960E+02  0.38912984027E+02  0.41485893643E+03  0.00000000000E+00 0. -1.
          1    1    5    5  503    0 -0.58762150335E+01  0.14150580546E+02  0.47603545255E+00  0.15329561072E+02  0.00000000000E+00 0. -1.
         -2    1    5    5    0  503  0.13428151046E+03  0.32370345691E+03  0.30387677860E+03  0.46384970479E+03  0.00000000000E+00 0.  1.
         -1    1    6    6    0  502 -0.13399365470E+03 -0.56688894139E+02 -0.22010922892E+02  0.14714758220E+03  0.00000000000E+00 0.  1.
<mgrwt>
<rscale>  0 0.18363968E+04</rscale>
<asrwt>0</asrwt>
<pdfrwt beam="1">  1        1 0.11552862E+00 0.18363968E+04</pdfrwt>
<pdfrwt beam="2">  1       -1 0.17272563E+00 0.18363968E+04</pdfrwt>
<totfact> 0.54034554E+00</totfact>
</mgrwt>
</event>
<event>
12    1  0.1467288E-007  0.1564733E+04  0.7818608E-02  0.8842512E-01
          1   -1    0    0  501    0  0.00000000000E+00  0.00000000000E+00  0.88815866532E+03  0.88815866532E+03  0.00000000000E+00 0. -1.
         -1   -1    0    0    0  501 -0.00000000000E+00 -0.00000000000E+00 -0.68917553238E+03  0.68917553238E+03  0.00000000000E+00 0.  1.
         23    2    1    2    0    0 -0.10925105873E+03  0.41260134197E+03 -0.22586022305E+03  0.49095887383E+03  0.88612156093E+02 0.  0.
        254    2    1    2    0    0  0.10925105873E+03 -0.41260134197E+03  0.42484335600E+03  0.10863753239E+04  0.90418129042E+03 0.  0.
        -24    2    4    4    0    0  0.50235008360E+03 -0.23870151578E+03  0.21713590619E+03  0.60228283079E+03  0.79136504721E+02 0.  0.
         24    2    4    4    0    0 -0.39309902487E+03 -0.17389982619E+03  0.20770744981E+03  0.48409249308E+03  0.80219475473E+02 0.  0.
         11    1    3    3    0    0  0.84456578162E+01  0.36958655638E+02 -0.16760311053E+01  0.37948391834E+02  0.00000000000E+00 0. -1.
        -11    1    3    3    0    0 -0.11769671655E+03  0.37564268633E+03 -0.22418419195E+03  0.45301048200E+03  0.00000000000E+00 0.  1.
          2    1    6    6  502    0 -0.30779045180E+03 -0.10031947934E+03  0.14040979180E+03  0.35286522892E+03  0.00000000000E+00 0. -1.
          3    1    5    5  503    0  0.49117814745E+03 -0.24054817749E+03  0.20124107843E+03  0.58276699450E+03  0.00000000000E+00 0. -1.
         -4    1    5    5    0  503  0.11171936147E+02  0.18466617109E+01  0.15894827754E+02  0.19515836289E+02  0.00000000000E+00 0.  1.
         -1    1    6    6    0  502 -0.85308573071E+02 -0.73580346854E+02  0.67297658018E+02  0.13122726415E+03  0.00000000000E+00 0.  1.
<mgrwt>
<rscale>  0 0.15647328E+04</rscale>
<asrwt>0</asrwt>
<pdfrwt beam="1">  1        1 0.13663980E+00 0.15647328E+04</pdfrwt>
<pdfrwt beam="2">  1       -1 0.10602700E+00 0.15647328E+04</pdfrwt>
<totfact> 0.14908166E+01</totfact>
</mgrwt>
</event>
<event>
12    1  0.1467288E-007  0.3556959E+04  0.7818608E-02  0.8100423E-01
          2   -1    0    0  501    0  0.00000000000E+00  0.00000000000E+00  0.21637159624E+04  0.21637159624E+04  0.00000000000E+00 0.  1.
         -2   -1    0    0    0  501 -0.00000000000E+00 -0.00000000000E+00 -0.14618320435E+04  0.14618320435E+04  0.00000000000E+00 0. -1.
         23    2    1    2    0    0  0.24367678225E+03  0.13432890234E+04  0.12985890845E+04  0.18863967853E+04  0.91408132435E+02 0.  0.
        254    2    1    2    0    0 -0.24367678225E+03 -0.13432890234E+04 -0.59670516564E+03  0.17391512206E+04  0.89709873425E+03 0.  0.
        -24    2    4    4    0    0 -0.14797040436E+03 -0.13731419360E+04 -0.72173764688E+03  0.15603166900E+04  0.79176545635E+02 0.  0.
         24    2    4    4    0    0 -0.95706377890E+02  0.29852912587E+02  0.12503248124E+03  0.17883453060E+03  0.79358432520E+02 0.  0.
         11    1    3    3    0    0  0.62946012013E+02  0.34728146998E+03  0.28190305849E+03  0.45170339185E+03  0.00000000000E+00 0. -1.
        -11    1    3    3    0    0  0.18073077024E+03  0.99600755341E+03  0.10166860260E+04  0.14346933935E+04  0.00000000000E+00 0.  1.
          4    1    6    6  502    0 -0.49204735916E+02 -0.22898139522E+02  0.34939091319E+02  0.64545882381E+02  0.00000000000E+00 0. -1.
          1    1    5    5  503    0  0.14956424577E+01 -0.28322222478E+03 -0.14508088738E+03  0.31822245276E+03  0.00000000000E+00 0. -1.
         -2    1    5    5    0  503 -0.14946604682E+03 -0.10899197112E+04 -0.57665675951E+03  0.12420942373E+04  0.00000000000E+00 0.  1.
         -3    1    6    6    0  502 -0.46501641974E+02  0.52751052109E+02  0.90093389923E+02  0.11428864822E+03  0.00000000000E+00 0.  1.
<mgrwt>
<rscale>  0 0.35569590E+04</rscale>
<asrwt>0</asrwt>
<pdfrwt beam="1">  1        2 0.33287938E+00 0.35569590E+04</pdfrwt>
<pdfrwt beam="2">  1       -2 0.22489724E+00 0.35569590E+04</pdfrwt>
<totfact> 0.40744905E-01</totfact>
</mgrwt>
</event>
<event>
12    1  0.1467288E-007  0.2302198E+04  0.7818608E-02  0.8477055E-01
          3   -1    0    0  501    0  0.00000000000E+00  0.00000000000E+00  0.97959733765E+03  0.97959733765E+03  0.00000000000E+00 0. -1.
         -3   -1    0    0    0  501 -0.00000000000E+00 -0.00000000000E+00 -0.13526265382E+04  0.13526265382E+04  0.00000000000E+00 0.  1.
         23    2    1    2    0    0  0.46310877189E+03 -0.28202296342E+03  0.67173400184E+03  0.86889538329E+03  0.98721483860E+02 0.  0.
        254    2    1    2    0    0 -0.46310877189E+03  0.28202296342E+03 -0.10447632024E+04  0.14633284925E+04  0.86936381428E+03 0.  0.
        -24    2    4    4    0    0  0.30329461261E+02  0.37909908326E+03 -0.81644861891E+03  0.90493999348E+03  0.87704351867E+02 0.  0.
         24    2    4    4    0    0 -0.49343823315E+03 -0.97076119832E+02 -0.22831458345E+03  0.55838849906E+03  0.82250251632E+02 0.  0.
         13    1    3    3    0    0  0.37114723270E+03 -0.25644184450E+03  0.59342693162E+03  0.74543156033E+03  0.00000000000E+00 0. -1.
        -13    1    3    3    0    0  0.91961539185E+02 -0.25581118921E+02  0.78307070213E+02  0.12346382296E+03  0.00000000000E+00 0.  1.
          2    1    6    6  502    0 -0.38813720987E+03 -0.41070377568E+02 -0.17601812121E+03  0.42815843865E+03  0.00000000000E+00 0. -1.
          3    1    5    5  503    0 -0.13579828365E+00  0.28618294698E+03 -0.53102929733E+03  0.60323528760E+03  0.00000000000E+00 0. -1.
         -4    1    5    5    0  503  0.30465259544E+02  0.92916136273E+02 -0.28541932157E+03  0.30170470588E+03  0.00000000000E+00 0.  1.
         -1    1    6    6    0  502 -0.10530102328E+03 -0.56005742264E+02 -0.52296462235E+02  0.13023006041E+03  0.00000000000E+00 0.  1.
<mgrwt>
<rscale>  0 0.23021984E+04</rscale>
<asrwt>0</asrwt>
<pdfrwt beam="1">  1        3 0.15070728E+00 0.23021984E+04</pdfrwt>
<pdfrwt beam="2">  1       -3 0.20809639E+00 0.23021984E+04</pdfrwt>
<totfact> 0.98417096E-02</totfact>
</mgrwt>
</event>
<event>
12    1  0.1467288E-007  0.1389192E+04  0.7818608E-02  0.8961679E-01
         -2   -1    0    0    0  501 -0.00000000000E+00  0.00000000000E+00  0.24113745747E+03  0.24113745747E+03  0.00000000000E+00 0.  1.
          2   -1    0    0  501    0  0.00000000000E+00 -0.00000000000E+00 -0.20007819092E+04  0.20007819092E+04  0.00000000000E+00 0. -1.
         23    2    1    2    0    0 -0.53302780176E+02 -0.28941773869E+03 -0.80620658509E+02  0.31671670371E+03  0.84887961382E+02 0.  0.
        254    2    1    2    0    0  0.53302780176E+02  0.28941773869E+03 -0.16790237932E+04  0.19252026630E+04  0.89480756671E+03 0.  0.
        -24    2    4    4    0    0  0.24670512639E+03  0.20309535561E+03 -0.16648839034E+04  0.16971192318E+04  0.79146272222E+02 0.  0.
         24    2    4    4    0    0 -0.19340234621E+03  0.86322383078E+02 -0.14139889844E+02  0.22808343115E+03  0.83463128019E+02 0.  0.
         13    1    3    3    0    0 -0.44439582153E+02 -0.29176482710E+03 -0.84149984800E+02  0.30689218096E+03  0.00000000000E+00 0.  1.
        -13    1    3    3    0    0 -0.88631980236E+01  0.23470884068E+01  0.35293262910E+01  0.98245227499E+01  0.00000000000E+00 0. -1.
          4    1    6    6  502    0  0.11672823511E+00 -0.10786448501E+02 -0.33585721909E+01  0.11297836248E+02  0.00000000000E+00 0. -1.
          1    1    5    5  503    0  0.34676040588E+02  0.70057884390E+02 -0.35018201216E+03  0.35880074776E+03  0.00000000000E+00 0. -1.
         -2    1    5    5    0  503  0.21202908580E+03  0.13303747122E+03 -0.13147018912E+04  0.13383184841E+04  0.00000000000E+00 0.  1.
         -3    1    6    6    0  502 -0.19351907445E+03  0.97108831579E+02 -0.10781317653E+02  0.21678559490E+03  0.00000000000E+00 0.  1.
<mgrwt>
<rscale>  0 0.13891918E+04</rscale>
<asrwt>0</asrwt>
<pdfrwt beam="1">  1        2 0.30781259E+00 0.13891918E+04</pdfrwt>
<pdfrwt beam="2">  1       -2 0.37098072E-01 0.13891918E+04</pdfrwt>
<totfact> 0.44553889E+01</totfact>
</mgrwt>
</event>
<event>
12    1  0.1467288E-007  0.1680523E+04  0.7818608E-02  0.8772551E-01
         -1   -1    0    0    0  501 -0.00000000000E+00  0.00000000000E+00  0.84964738869E+03  0.84964738869E+03  0.00000000000E+00 0.  1.
          1   -1    0    0  501    0  0.00000000000E+00 -0.00000000000E+00 -0.83097937097E+03  0.83097937097E+03  0.00000000000E+00 0. -1.
         23    2    1    2    0    0 -0.38772609387E+03 -0.45309479387E+03 -0.46681484011E+02  0.60146001118E+03  0.62837632036E+02 0.  0.
        254    2    1    2    0    0  0.38772609387E+03  0.45309479387E+03  0.65349501735E+02  0.10791667485E+04  0.89705289562E+03 0.  0.
        -24    2    4    4    0    0 -0.13962639133E+03 -0.16415963154E+03  0.12406996183E+03  0.26132940403E+03  0.80347919679E+02 0.  0.
         24    2    4    4    0    0  0.52735248520E+03  0.61725442541E+03 -0.58720460096E+02  0.81783734445E+03  0.79411335494E+02 0.  0.
         11    1    3    3    0    0 -0.32252707786E+03 -0.35675326891E+03 -0.58740119151E+02  0.48450697872E+03  0.00000000000E+00 0. -1.
        -11    1    3    3    0    0 -0.65199016014E+02 -0.96341524957E+02  0.12058635140E+02  0.11695303246E+03  0.00000000000E+00 0.  1.
          4    1    6    6  502    0  0.28202913930E+02  0.28551776788E+02 -0.20492210364E+02  0.45061502389E+02  0.00000000000E+00 0. -1.
          1    1    5    5  503    0 -0.39547892040E+02 -0.31547717711E+02 -0.51558622032E+01  0.50851520849E+02  0.00000000000E+00 0. -1.
         -2    1    5    5    0  503 -0.10007849929E+03 -0.13261191383E+03  0.12922582403E+03  0.21047788318E+03  0.00000000000E+00 0.  1.
         -3    1    6    6    0  502  0.49914957127E+03  0.58870264862E+03 -0.38228249733E+02  0.77277584206E+03  0.00000000000E+00 0.  1.
<mgrwt>
<rscale>  0 0.16805231E+04</rscale>
<asrwt>0</asrwt>
<pdfrwt beam="1">  1        1 0.12784298E+00 0.16805231E+04</pdfrwt>
<pdfrwt beam="2">  1       -1 0.13071498E+00 0.16805231E+04</pdfrwt>
<totfact> 0.99118375E+00</totfact>
</mgrwt>
</event>
<event>
12    1  0.1467288E-007  0.1446370E+04  0.7818608E-02  0.8920921E-01
          4   -1    0    0  501    0  0.00000000000E+00  0.00000000000E+00  0.34201908085E+03  0.34201908085E+03  0.00000000000E+00 0.  1.
         -4   -1    0    0    0  501 -0.00000000000E+00 -0.00000000000E+00 -0.15291440710E+04  0.15291440710E+04  0.00000000000E+00 0. -1.
         23    2    1    2    0    0 -0.31712796986E+03 -0.31283034089E+03 -0.30578359747E+03  0.54774377030E+03  0.89925847107E+02 0.  0.
        254    2    1    2    0    0  0.31712796986E+03  0.31283034089E+03 -0.88134139272E+03  0.13234193816E+04  0.88104667161E+03 0.  0.
        -24    2    4    4    0    0 -0.19543888706E+03 -0.17312358002E+03 -0.29110976344E+03  0.39939644558E+03  0.81268037007E+02 0.  0.
         24    2    4    4    0    0  0.51256685691E+03  0.48595392091E+03 -0.59023162928E+03  0.92402293600E+03  0.81049453979E+02 0.  0.
         13    1    3    3    0    0 -0.18864979303E+03 -0.14149078882E+03 -0.12182503617E+03  0.26542367484E+03  0.00000000000E+00 0.  1.
        -13    1    3    3    0    0 -0.12847817683E+03 -0.17133955207E+03 -0.18395856129E+03  0.28232009546E+03  0.00000000000E+00 0. -1.
          4    1    6    6  502    0  0.42766924621E+03  0.44192737838E+03 -0.50095829961E+03  0.79319607277E+03  0.00000000000E+00 0. -1.
          1    1    5    5  503    0 -0.17217306434E+03 -0.11830368608E+03 -0.25542188604E+03  0.32996918961E+03  0.00000000000E+00 0. -1.
         -2    1    5    5    0  503 -0.23265822716E+02 -0.54819893937E+02 -0.35687877403E+02  0.69427255969E+02  0.00000000000E+00 0.  1.
         -3    1    6    6    0  502  0.84897610703E+02  0.44026542532E+02 -0.89273329673E+02  0.13082686322E+03  0.00000000000E+00 0.  1.
<mgrwt>
<rscale>  0 0.14463699E+04</rscale>
<asrwt>0</asrwt>
<pdfrwt beam="1">  1        4 0.52618321E-01 0.14463699E+04</pdfrwt>
<pdfrwt beam="2">  1       -4 0.23525293E+00 0.14463699E+04</pdfrwt>
<totfact> 0.52614927E-01</totfact>
</mgrwt>
</event>
<event>
12    1  0.1858277E-007  0.2337059E+04  0.7818608E-02  0.8463451E-01
          1   -1    0    0  501    0  0.00000000000E+00  0.00000000000E+00  0.18710890980E+04  0.18710890980E+04  0.00000000000E+00 0. -1.
         -1   -1    0    0    0  501 -0.00000000000E+00 -0.00000000000E+00 -0.72976819888E+03  0.72976819888E+03  0.00000000000E+00 0.  1.
         23    2    1    2    0    0  0.33552985938E+01 -0.48707635399E+03  0.14473884981E+04  0.15299015923E+04  0.91710332445E+02 0.  0.
        254    2    1    2    0    0 -0.33552985938E+01  0.48707635399E+03 -0.30606759899E+03  0.10709557046E+04  0.90333499509E+03 0.  0.
        -24    2    4    4    0    0 -0.29541541300E+03  0.30026523771E+03  0.18289398935E+03  0.46611895606E+03  0.79919901410E+02 0.  0.
         24    2    4    4    0    0  0.29206011440E+03  0.18681111628E+03 -0.48896158834E+03  0.60483674851E+03  0.80910777358E+02 0.  0.
         11    1    3    3    0    0 -0.18181784425E+02 -0.46292566969E+03  0.13545664385E+04  0.14316008484E+04  0.00000000000E+00 0. -1.
        -11    1    3    3    0    0  0.21537083019E+02 -0.24150684298E+02  0.92822059591E+02  0.98300743862E+02  0.00000000000E+00 0.  1.
          4    1    6    6  502    0  0.24152148331E+03  0.13624392956E+03 -0.43238915433E+03  0.51366858579E+03  0.00000000000E+00 0. -1.
          1    1    5    5  503    0 -0.26914970379E+03  0.28020128572E+03  0.18971124588E+03  0.43237099855E+03  0.00000000000E+00 0. -1.
         -2    1    5    5    0  503 -0.26265709203E+02  0.20063951990E+02 -0.68172565305E+01  0.33747957509E+02  0.00000000000E+00 0.  1.
         -3    1    6    6    0  502  0.50538631090E+02  0.50567186718E+02 -0.56572434005E+02  0.91168162723E+02  0.00000000000E+00 0.  1.
<mgrwt>
<rscale>  0 0.23370591E+04</rscale>
<asrwt>0</asrwt>
<pdfrwt beam="1">  1        1 0.28785986E+00 0.23370591E+04</pdfrwt>
<pdfrwt beam="2">  1       -1 0.11227203E+00 0.23370591E+04</pdfrwt>
<totfact> 0.23873413E+00</totfact>
</mgrwt>
</event>
<event>
12    1  0.1467288E-007  0.1725660E+04  0.7818608E-02  0.8746863E-01
         -1   -1    0    0    0  501 -0.00000000000E+00  0.00000000000E+00  0.19749927094E+04  0.19749927094E+04  0.00000000000E+00 0.  1.
          1   -1    0    0  501    0  0.00000000000E+00 -0.00000000000E+00 -0.37695100577E+03  0.37695100577E+03  0.00000000000E+00 0. -1.
         23    2    1    2    0    0 -0.51710806120E+03 -0.16723911764E+03  0.97387989441E+03  0.11190995180E+04  0.92585165783E+02 0.  0.
        254    2    1    2    0    0  0.51710806120E+03  0.16723911764E+03  0.62416180920E+03  0.12328441972E+04  0.91375991433E+03 0.  0.
        -24    2    4    4    0    0 -0.22496962747E+03 -0.11579816566E+03  0.14888991926E+03  0.30419484798E+03  0.79660209784E+02 0.  0.
         24    2    4    4    0    0  0.74207768867E+03  0.28303728330E+03  0.47527188993E+03  0.92864934920E+03  0.75609818513E+02 0.  0.
         13    1    3    3    0    0 -0.11018479137E+03 -0.14441422918E+02  0.26797130906E+03  0.29009975081E+03  0.00000000000E+00 0.  1.
        -13    1    3    3    0    0 -0.40692326983E+03 -0.15279769473E+03  0.70590858536E+03  0.82899976714E+03  0.00000000000E+00 0. -1.
          2    1    6    6  502    0  0.14191889389E+03  0.56828011166E+02  0.58115259494E+02  0.16354748143E+03  0.00000000000E+00 0. -1.
          1    1    5    5  503    0 -0.19101501002E+02  0.11473430936E+02  0.57857748911E+01  0.23021341166E+02  0.00000000000E+00 0. -1.
         -2    1    5    5    0  503 -0.20586812647E+03 -0.12727159659E+03  0.14310414437E+03  0.28117350681E+03  0.00000000000E+00 0.  1.
         -1    1    6    6    0  502  0.60015879478E+03  0.22620927214E+03  0.41715663044E+03  0.76510186778E+03  0.00000000000E+00 0.  1.
<mgrwt>
<rscale>  0 0.17256599E+04</rscale>
<asrwt>0</asrwt>
<pdfrwt beam="1">  1        1 0.57992464E-01 0.17256599E+04</pdfrwt>
<pdfrwt beam="2">  1       -1 0.30384503E+00 0.17256599E+04</pdfrwt>
<totfact> 0.19253446E+00</totfact>
</mgrwt>
</event>
<event>
12    1  0.1467288E-007  0.1187533E+04  0.7818608E-02  0.9123839E-01
         -1   -1    0    0    0  501 -0.00000000000E+00  0.00000000000E+00  0.28158648670E+03  0.28158648670E+03  0.00000000000E+00 0.  1.
          1   -1    0    0  501    0  0.00000000000E+00 -0.00000000000E+00 -0.12520438149E+04  0.12520438149E+04  0.00000000000E+00 0. -1.
         23    2    1    2    0    0 -0.16432206527E+03 -0.88078151621E+02 -0.21036884114E+02  0.20889838432E+03  0.91850326898E+02 0.  0.
        254    2    1    2    0    0  0.16432206527E+03  0.88078151621E+02 -0.94942044406E+03  0.13247319173E+04  0.90485135302E+03 0.  0.
        -24    2    4    4    0    0  0.49636402124E+03 -0.33957074876E+02 -0.76931259176E+03  0.91969148957E+03  0.80375665691E+02 0.  0.
         24    2    4    4    0    0 -0.33204195597E+03  0.12203522650E+03 -0.18010785230E+03  0.40504042768E+03  0.80463983045E+02 0.  0.
         13    1    3    3    0    0 -0.83022549357E+02 -0.66661409472E+02 -0.53024401037E+02  0.11894567802E+03  0.00000000000E+00 0. -1.
        -13    1    3    3    0    0 -0.81299515909E+02 -0.21416742150E+02  0.31987516923E+02  0.89952706298E+02  0.00000000000E+00 0.  1.
          4    1    6    6  502    0 -0.13320897554E+02  0.21008860704E+02 -0.28776536569E+02  0.38038238611E+02  0.00000000000E+00 0. -1.
          3    1    5    5  503    0  0.72886197121E+02 -0.34047247822E+02 -0.11809151167E+03  0.14288883072E+03  0.00000000000E+00 0. -1.
         -4    1    5    5    0  503  0.42347782411E+03  0.90172946483E-01 -0.65122108009E+03  0.77680265886E+03  0.00000000000E+00 0.  1.
         -3    1    6    6    0  502 -0.31872105842E+03  0.10102636579E+03 -0.15133131573E+03  0.36700218907E+03  0.00000000000E+00 0.  1.
<mgrwt>
<rscale>  0 0.11875329E+04</rscale>
<asrwt>0</asrwt>
<pdfrwt beam="1">  1        1 0.19262213E+00 0.11875329E+04</pdfrwt>
<pdfrwt beam="2">  1       -1 0.43320998E-01 0.11875329E+04</pdfrwt>
<totfact> 0.50978773E+01</totfact>
</mgrwt>
</event>
<event>
12    1  0.1467288E-007  0.1248420E+04  0.7818608E-02  0.9071499E-01
         -2   -1    0    0    0  501 -0.00000000000E+00  0.00000000000E+00  0.24956706125E+04  0.24956706125E+04  0.00000000000E+00 0. -1.
          2   -1    0    0  501    0  0.00000000000E+00 -0.00000000000E+00 -0.15612562545E+03  0.15612562545E+03  0.00000000000E+00 0.  1.
         23    2    1    2    0    0  0.17077954324E+01  0.13275711908E+03  0.10811867879E+04  0.10940006029E+04  0.10121798038E+03 0.  0.
        254    2    1    2    0    0 -0.17077954324E+01 -0.13275711908E+03  0.12583581991E+04  0.15577956350E+04  0.90864432757E+03 0.  0.
        -24    2    4    4    0    0  0.33897251350E+03 -0.24445296084E+03  0.10554341744E+04  0.11380023386E+04  0.80302000208E+02 0.  0.
         24    2    4    4    0    0 -0.34068030894E+03  0.11169584176E+03  0.20292402472E+03  0.41979329642E+03  0.80679724501E+02 0.  0.
         13    1    3    3    0    0 -0.33406128226E+02  0.12056371693E+03  0.70811644885E+03  0.71908308586E+03  0.00000000000E+00 0. -1.
        -13    1    3    3    0    0  0.35113923658E+02  0.12193402149E+02  0.37307033905E+03  0.37491751702E+03  0.00000000000E+00 0.  1.
          2    1    6    6  502    0 -0.57663165519E+02 -0.44196878082E+01  0.55720391973E+02  0.80307760395E+02  0.00000000000E+00 0. -1.
          3    1    5    5  503    0  0.27676552419E+03 -0.15714118944E+03  0.77880761394E+03  0.84132859712E+03  0.00000000000E+00 0. -1.
         -4    1    5    5    0  503  0.62206989317E+02 -0.87311771400E+02  0.27662656044E+03  0.29667374149E+03  0.00000000000E+00 0.  1.
         -1    1    6    6    0  502 -0.28301714342E+03  0.11611552957E+03  0.14720363275E+03  0.33948553603E+03  0.00000000000E+00 0.  1.
<mgrwt>
<rscale>  0 0.12484200E+04</rscale>
<asrwt>0</asrwt>
<pdfrwt beam="1">  1        2 0.24019329E-01 0.12484200E+04</pdfrwt>
<pdfrwt beam="2">  1       -2 0.38394930E+00 0.12484200E+04</pdfrwt>
<totfact> 0.21679182E+00</totfact>
</mgrwt>
</event>
<event>
12    1  0.1467288E-007  0.2298893E+04  0.7818608E-02  0.8478358E-01
         -2   -1    0    0    0  501 -0.00000000000E+00  0.00000000000E+00  0.54710995267E+03  0.54710995267E+03  0.00000000000E+00 0.  1.
          2   -1    0    0  501    0  0.00000000000E+00 -0.00000000000E+00 -0.24149198877E+04  0.24149198877E+04  0.00000000000E+00 0. -1.
         23    2    1    2    0    0  0.60530773861E+03  0.34068129599E+03 -0.16631878509E+04  0.18047499594E+04  0.92018394092E+02 0.  0.
        254    2    1    2    0    0 -0.60530773861E+03 -0.34068129599E+03 -0.20462208414E+03  0.11572798809E+04  0.90275429749E+03 0.  0.
        -24    2    4    4    0    0 -0.31456306751E+03  0.50688023306E+00 -0.51320707780E+03  0.60713707601E+03  0.79270070014E+02 0.  0.
         24    2    4    4    0    0 -0.29074467110E+03 -0.34118817622E+03  0.30858499366E+03  0.55014280492E+03  0.80564087040E+02 0.  0.
         11    1    3    3    0    0  0.57875110749E+03  0.31059413076E+03 -0.15156677984E+04  0.16518687701E+04  0.00000000000E+00 0. -1.
        -11    1    3    3    0    0  0.26556631117E+02  0.30087165227E+02 -0.14752005246E+03  0.15288118931E+03  0.00000000000E+00 0.  1.
          2    1    6    6  502    0 -0.10656534208E+02 -0.46472218798E+02  0.20792711463E+02  0.52015052546E+02  0.00000000000E+00 0. -1.
          1    1    5    5  503    0 -0.65777880688E+02 -0.31734530670E+02 -0.13023118693E+03  0.14931166088E+03  0.00000000000E+00 0. -1.
         -2    1    5    5    0  503 -0.24878518682E+03  0.32241410903E+02 -0.38297589087E+03  0.45782541514E+03  0.00000000000E+00 0.  1.
         -1    1    6    6    0  502 -0.28008813689E+03 -0.29471595742E+03  0.28779228220E+03  0.49812775237E+03  0.00000000000E+00 0.  1.
<mgrwt>
<rscale>  0 0.22988925E+04</rscale>
<asrwt>0</asrwt>
<pdfrwt beam="1">  1        2 0.37152613E+00 0.22988925E+04</pdfrwt>
<pdfrwt beam="2">  1       -2 0.84170763E-01 0.22988925E+04</pdfrwt>
<totfact> 0.43541426E+00</totfact>
</mgrwt>
</event>
<event>
12    1  0.1467288E-007  0.3000597E+04  0.7818608E-02  0.8243560E-01
          2   -1    0    0  501    0  0.00000000000E+00  0.00000000000E+00  0.13604517225E+04  0.13604517225E+04  0.00000000000E+00 0. -1.
         -2   -1    0    0    0  501 -0.00000000000E+00 -0.00000000000E+00 -0.16545211965E+04  0.16545211965E+04  0.00000000000E+00 0.  1.
         23    2    1    2    0    0 -0.14555077360E+03  0.69414911790E+03 -0.13026640825E+04  0.14859977560E+04  0.90706082026E+02 0.  0.
        254    2    1    2    0    0  0.14555077360E+03 -0.69414911790E+03  0.10085946085E+04  0.15289751630E+04  0.90414265421E+03 0.  0.
        -24    2    4    4    0    0 -0.21004794447E+02  0.18015354758E+03  0.24111969323E+02  0.19951100349E+03  0.79540878496E+02 0.  0.
         24    2    4    4    0    0  0.16655556805E+03 -0.87430266548E+03  0.98448263921E+03  0.13294641595E+04  0.78249450036E+02 0.  0.
         11    1    3    3    0    0 -0.11631099723E+03  0.42768971489E+03 -0.88363519175E+03  0.98856355001E+03  0.00000000000E+00 0.  1.
        -11    1    3    3    0    0 -0.29239776367E+02  0.26645940301E+03 -0.41902889076E+03  0.49743420597E+03  0.00000000000E+00 0. -1.
          4    1    6    6  502    0  0.11021614944E+03 -0.37190810413E+03  0.42309029841E+03  0.57399358718E+03  0.00000000000E+00 0. -1.
          1    1    5    5  503    0 -0.43523090070E+02  0.94704837362E+02 -0.10183202079E+02  0.10472326959E+03  0.00000000000E+00 0. -1.
         -2    1    5    5    0  503  0.22518295624E+02  0.85448710220E+02  0.34295171401E+02  0.94787733898E+02  0.00000000000E+00 0.  1.
         -3    1    6    6    0  502  0.56339418602E+02 -0.50239456136E+03  0.56139234080E+03  0.75547057235E+03  0.00000000000E+00 0.  1.
<mgrwt>
<rscale>  0 0.30005974E+04</rscale>
<asrwt>0</asrwt>
<pdfrwt beam="1">  1        2 0.20930027E+00 0.30005974E+04</pdfrwt>
<pdfrwt beam="2">  1       -2 0.25454172E+00 0.30005974E+04</pdfrwt>
<totfact> 0.78654778E-01</totfact>
</mgrwt>
</event>
<event>
12    1  0.1467288E-007  0.3270421E+04  0.7818608E-02  0.8170463E-01
          1   -1    0    0  501    0  0.00000000000E+00  0.00000000000E+00  0.20347599456E+04  0.20347599456E+04  0.00000000000E+00 0. -1.
         -1   -1    0    0    0  501 -0.00000000000E+00 -0.00000000000E+00 -0.13141173312E+04  0.13141173312E+04  0.00000000000E+00 0.  1.
         23    2    1    2    0    0  0.26994787334E+03  0.91838405623E+03  0.15289029780E+04  0.18060342787E+04  0.88962748957E+02 0.  0.
        254    2    1    2    0    0 -0.26994787334E+03 -0.91838405623E+03 -0.80826036355E+03  0.15428429982E+04  0.90043243646E+03 0.  0.
        -24    2    4    4    0    0 -0.33746570830E+03 -0.72951833922E+03 -0.11391537692E+03  0.81574050771E+03  0.79848301603E+02 0.  0.
         24    2    4    4    0    0  0.67517834956E+02 -0.18886571700E+03 -0.69434498663E+03  0.72710249046E+03  0.79587399003E+02 0.  0.
         11    1    3    3    0    0  0.17186254990E+03  0.42764785170E+03  0.73999727864E+03  0.87178861745E+03  0.00000000000E+00 0.  1.
        -11    1    3    3    0    0  0.98085323441E+02  0.49073620453E+03  0.78890569934E+03  0.93424566125E+03  0.00000000000E+00 0. -1.
          2    1    6    6  502    0 -0.57945560624E+01 -0.38897883208E+02 -0.64780797431E+02  0.75783731195E+02  0.00000000000E+00 0. -1.
          1    1    5    5  503    0 -0.11473978958E+03 -0.29157525718E+03 -0.79179603519E+02  0.32318842728E+03  0.00000000000E+00 0. -1.
         -2    1    5    5    0  503 -0.22272591872E+03 -0.43794308205E+03 -0.34735773404E+02  0.49255208043E+03  0.00000000000E+00 0.  1.
         -1    1    6    6    0  502  0.73312391018E+02 -0.14996783380E+03 -0.62956418920E+03  0.65131875926E+03  0.00000000000E+00 0.  1.
<mgrwt>
<rscale>  0 0.32704210E+04</rscale>
<asrwt>0</asrwt>
<pdfrwt beam="1">  1        1 0.31303999E+00 0.32704210E+04</pdfrwt>
<pdfrwt beam="2">  1       -1 0.20217190E+00 0.32704210E+04</pdfrwt>
<totfact> 0.34132620E-01</totfact>
</mgrwt>
</event>
<event>
12    1  0.1467288E-007  0.3322593E+04  0.7818608E-02  0.8157170E-01
         -2   -1    0    0    0  501 -0.00000000000E+00  0.00000000000E+00  0.32950990371E+04  0.32950990371E+04  0.00000000000E+00 0.  1.
          2   -1    0    0  501    0  0.00000000000E+00 -0.00000000000E+00 -0.83757886828E+03  0.83757886828E+03  0.00000000000E+00 0. -1.
         23    2    1    2    0    0 -0.41739809779E+03 -0.84283947667E+03 -0.35399086148E+03  0.10089715392E+04  0.90080416274E+02 0.  0.
        254    2    1    2    0    0  0.41739809779E+03  0.84283947667E+03  0.28115110303E+04  0.31237063662E+04  0.98404656045E+03 0.  0.
        -24    2    4    4    0    0  0.56411139719E+03  0.96989567679E+03  0.21109091155E+04  0.23918937901E+04  0.79368237602E+02 0.  0.
         24    2    4    4    0    0 -0.14671329941E+03 -0.12705620012E+03  0.70060191482E+03  0.73181257605E+03  0.83895966556E+02 0.  0.
         11    1    3    3    0    0 -0.12442753226E+03 -0.33977823018E+03 -0.11510798125E+03  0.37971213286E+03  0.00000000000E+00 0. -1.
        -11    1    3    3    0    0 -0.29297056552E+03 -0.50306124649E+03 -0.23888288023E+03  0.62925940633E+03  0.00000000000E+00 0.  1.
          2    1    6    6  502    0 -0.24496633285E+02 -0.63220348539E+02  0.31734826965E+03  0.32451012583E+03  0.00000000000E+00 0. -1.
          1    1    5    5  503    0  0.46981011949E+03  0.74683736309E+03  0.16322410483E+04  0.18554510058E+04  0.00000000000E+00 0. -1.
         -2    1    5    5    0  503  0.94301277702E+02  0.22305831370E+03  0.47866806719E+03  0.53644278431E+03  0.00000000000E+00 0.  1.
         -1    1    6    6    0  502 -0.12221666612E+03 -0.63835851577E+02  0.38325364516E+03  0.40730245022E+03  0.00000000000E+00 0.  1.
<mgrwt>
<rscale>  0 0.33225926E+04</rscale>
<asrwt>0</asrwt>
<pdfrwt beam="1">  1        2 0.12885829E+00 0.33225926E+04</pdfrwt>
<pdfrwt beam="2">  1       -2 0.50693831E+00 0.33225926E+04</pdfrwt>
<totfact> 0.40270531E-02</totfact>
</mgrwt>
</event>
<event>
12    1  0.1467288E-007  0.2304486E+04  0.7818608E-02  0.8476155E-01
          1   -1    0    0  501    0  0.00000000000E+00  0.00000000000E+00  0.15833208218E+04  0.15833208218E+04  0.00000000000E+00 0. -1.
         -1   -1    0    0    0  501 -0.00000000000E+00 -0.00000000000E+00 -0.83853090936E+03  0.83853090936E+03  0.00000000000E+00 0.  1.
         23    2    1    2    0    0  0.18980368866E+03 -0.93981935007E+03  0.31325915727E+03  0.10129444581E+04  0.92947967485E+02 0.  0.
        254    2    1    2    0    0 -0.18980368866E+03  0.93981935007E+03  0.43153075519E+03  0.14089072731E+04  0.93782464267E+03 0.  0.
        -24    2    4    4    0    0  0.36499233107E+03  0.52330358735E+03  0.21017449594E+03  0.67635818790E+03  0.78873527379E+02 0.  0.
         24    2    4    4    0    0 -0.55479601973E+03  0.41651576272E+03  0.22135625925E+03  0.73254908516E+03  0.79659051910E+02 0.  0.
         11    1    3    3    0    0 -0.41495486097E+01 -0.12226520853E+03  0.52924844019E+02  0.13329305715E+03  0.00000000000E+00 0. -1.
        -11    1    3    3    0    0  0.19395323727E+03 -0.81755414153E+03  0.26033431325E+03  0.87965140098E+03  0.00000000000E+00 0.  1.
          4    1    6    6  502    0 -0.16094134625E+03  0.16382661364E+03  0.57489553396E+02  0.23674105056E+03  0.00000000000E+00 0. -1.
          3    1    5    5  503    0  0.18578548831E+03  0.20378459761E+03  0.73925000674E+02  0.28549836359E+03  0.00000000000E+00 0. -1.
         -2    1    5    5    0  503  0.17920684276E+03  0.31951898974E+03  0.13624949527E+03  0.39085982431E+03  0.00000000000E+00 0.  1.
         -3    1    6    6    0  502 -0.39385467348E+03  0.25268914908E+03  0.16386670585E+03  0.49580803460E+03  0.00000000000E+00 0.  1.
<mgrwt>
<rscale>  0 0.23044856E+04</rscale>
<asrwt>0</asrwt>
<pdfrwt beam="1">  1        1 0.24358782E+00 0.23044856E+04</pdfrwt>
<pdfrwt beam="2">  1       -1 0.12900476E+00 0.23044856E+04</pdfrwt>
<totfact> 0.26768028E+00</totfact>
</mgrwt>
</event>
<event>
12    1  0.1467288E-007  0.2693748E+04  0.7818608E-02  0.8337036E-01
         -1   -1    0    0    0  501 -0.00000000000E+00  0.00000000000E+00  0.42278546622E+03  0.42278546622E+03  0.00000000000E+00 0.  1.
          1   -1    0    0  501    0  0.00000000000E+00 -0.00000000000E+00 -0.42907573995E+04  0.42907573995E+04  0.00000000000E+00 0. -1.
         23    2    1    2    0    0  0.99273275002E+03 -0.53251805248E+03 -0.10329575416E+04  0.15309924299E+04  0.88559294145E+02 0.  0.
        254    2    1    2    0    0 -0.99273275002E+03  0.53251805248E+03 -0.28350143917E+04  0.31825504358E+04  0.90676727236E+03 0.  0.
        -24    2    4    4    0    0 -0.53972669221E+03  0.63889038682E+03 -0.10971939723E+04  0.13819332553E+04  0.80119164677E+02 0.  0.
         24    2    4    4    0    0 -0.45300605781E+03 -0.10637233434E+03 -0.17378204194E+04  0.18006171805E+04  0.75318383126E+02 0.  0.
         11    1    3    3    0    0  0.36245623510E+03 -0.19284274470E+03 -0.43504398259E+03  0.59818568466E+03  0.00000000000E+00 0. -1.
        -11    1    3    3    0    0  0.63027651492E+03 -0.33967530778E+03 -0.59791355904E+03  0.93280674529E+03  0.00000000000E+00 0.  1.
          4    1    6    6  502    0 -0.12268701279E+02  0.50560266307E+01 -0.99964843309E+02  0.10084172913E+03  0.00000000000E+00 0. -1.
          3    1    5    5  503    0 -0.37262744202E+03  0.39041975206E+03 -0.73832213166E+03  0.91454817448E+03  0.00000000000E+00 0. -1.
         -4    1    5    5    0  503 -0.16709925019E+03  0.24847063476E+03 -0.35887184062E+03  0.46738508079E+03  0.00000000000E+00 0.  1.
         -3    1    6    6    0  502 -0.44073735653E+03 -0.11142836097E+03 -0.16378555761E+04  0.16997754514E+04  0.00000000000E+00 0.  1.
<mgrwt>
<rscale>  0 0.26937482E+04</rscale>
<asrwt>0</asrwt>
<pdfrwt beam="1">  1        1 0.66011653E+00 0.26937482E+04</pdfrwt>
<pdfrwt beam="2">  1       -1 0.65043917E-01 0.26937482E+04</pdfrwt>
<totfact> 0.10891197E-01</totfact>
</mgrwt>
</event>
<event>
12    1  0.1467288E-007  0.1425554E+04  0.7818608E-02  0.8935526E-01
         -2   -1    0    0    0  501 -0.00000000000E+00  0.00000000000E+00  0.23966202173E+03  0.23966202173E+03  0.00000000000E+00 0.  1.
          2   -1    0    0  501    0  0.00000000000E+00 -0.00000000000E+00 -0.21198651429E+04  0.21198651429E+04  0.00000000000E+00 0. -1.
         23    2    1    2    0    0  0.40343186014E+03 -0.11699701232E+03 -0.47765771838E+03  0.64253924836E+03  0.90852754967E+02 0.  0.
        254    2    1    2    0    0 -0.40343186014E+03  0.11699701232E+03 -0.14025454028E+04  0.17169879163E+04  0.89692158581E+03 0.  0.
        -24    2    4    4    0    0 -0.30599848543E+03  0.66416580474E+02 -0.15095418468E+04  0.15439237315E+04  0.83292654427E+02 0.  0.
         24    2    4    4    0    0 -0.97433374708E+02  0.50580431845E+02  0.10699644400E+03  0.17306418476E+03  0.80320174454E+02 0.  0.
         13    1    3    3    0    0  0.12551104596E+03 -0.11090281360E+02 -0.94516456304E+02  0.15750992830E+03  0.00000000000E+00 0. -1.
        -13    1    3    3    0    0  0.27792081418E+03 -0.10590673096E+03 -0.38314126208E+03  0.48502932006E+03  0.00000000000E+00 0.  1.
          4    1    6    6  502    0 -0.51002355661E+02 -0.16597248211E+02  0.51287229686E+02  0.74209762566E+02  0.00000000000E+00 0. -1.
          3    1    5    5  503    0 -0.18600558509E+03  0.81474544267E+02 -0.93987009947E+03  0.96155706171E+03  0.00000000000E+00 0. -1.
         -4    1    5    5    0  503 -0.11999290034E+03 -0.15057963793E+02 -0.56967174732E+03  0.58236666980E+03  0.00000000000E+00 0.  1.
         -3    1    6    6    0  502 -0.46431019047E+02  0.67177680056E+02  0.55709214318E+02  0.98854422194E+02  0.00000000000E+00 0.  1.
<mgrwt>
<rscale>  0 0.14255542E+04</rscale>
<asrwt>0</asrwt>
<pdfrwt beam="1">  1        2 0.32613308E+00 0.14255542E+04</pdfrwt>
<pdfrwt beam="2">  1       -2 0.36871082E-01 0.14255542E+04</pdfrwt>
<totfact> 0.38601467E+01</totfact>
</mgrwt>
</event>
<event>
12    1  0.1467288E-007  0.1700050E+04  0.7818608E-02  0.8761336E-01
          2   -1    0    0  501    0  0.00000000000E+00  0.00000000000E+00  0.14602833746E+04  0.14602833746E+04  0.00000000000E+00 0. -1.
         -2   -1    0    0    0  501 -0.00000000000E+00 -0.00000000000E+00 -0.49479635554E+03  0.49479635554E+03  0.00000000000E+00 0.  1.
         23    2    1    2    0    0  0.16107591178E+03  0.24966761641E+03  0.95027690732E+03  0.10001008136E+04  0.94318973372E+02 0.  0.
        254    2    1    2    0    0 -0.16107591178E+03 -0.24966761641E+03  0.15210111751E+02  0.95497891655E+03  0.90745469061E+03 0.  0.
        -24    2    4    4    0    0 -0.39868171411E+03  0.15520743748E+03  0.15006084655E+03  0.46033576819E+03  0.79713888322E+02 0.  0.
         24    2    4    4    0    0  0.23760580233E+03 -0.40487505388E+03 -0.13485073480E+03  0.49464314836E+03  0.78145997887E+02 0.  0.
         11    1    3    3    0    0  0.14924389006E+03  0.25699709828E+03  0.91922316976E+03  0.96607064082E+03  0.00000000000E+00 0. -1.
        -11    1    3    3    0    0  0.11832021727E+02 -0.73294818685E+01  0.31053737562E+02  0.34030172777E+02  0.00000000000E+00 0.  1.
          4    1    6    6  502    0 -0.40740143309E+01 -0.26925907726E+02 -0.95588142240E+01  0.28861272131E+02  0.00000000000E+00 0. -1.
          1    1    5    5  503    0 -0.29749491746E+02 -0.86354301383E+01  0.16746954942E+02  0.35214534111E+02  0.00000000000E+00 0. -1.
         -2    1    5    5    0  503 -0.36893222236E+03  0.16384286762E+03  0.13331389161E+03  0.42512123408E+03  0.00000000000E+00 0.  1.
         -3    1    6    6    0  502  0.24167981666E+03 -0.37794914616E+03 -0.12529192058E+03  0.46578187623E+03  0.00000000000E+00 0.  1.
<mgrwt>
<rscale>  0 0.17000505E+04</rscale>
<asrwt>0</asrwt>
<pdfrwt beam="1">  1        2 0.22465898E+00 0.17000505E+04</pdfrwt>
<pdfrwt beam="2">  1       -2 0.76122517E-01 0.17000505E+04</pdfrwt>
<totfact> 0.19653016E+01</totfact>
</mgrwt>
</event>
<event>
12    1  0.1467288E-007  0.1612778E+04  0.7818608E-02  0.8812736E-01
          1   -1    0    0  501    0  0.00000000000E+00  0.00000000000E+00  0.18925655909E+04  0.18925655909E+04  0.00000000000E+00 0. -1.
         -1   -1    0    0    0  501 -0.00000000000E+00 -0.00000000000E+00 -0.34358840603E+03  0.34358840603E+03  0.00000000000E+00 0.  1.
         23    2    1    2    0    0  0.52143132929E+03 -0.79663430383E+02  0.74757907963E+03  0.91982985719E+03  0.94739603990E+02 0.  0.
        254    2    1    2    0    0 -0.52143132929E+03  0.79663430383E+02  0.80139810522E+03  0.13163241397E+04  0.90123993725E+03 0.  0.
        -24    2    4    4    0    0  0.15883105447E+03 -0.15873020922E+03  0.45323947992E+03  0.51183137772E+03  0.78248002402E+02 0.  0.
         24    2    4    4    0    0 -0.68026238376E+03  0.23839363960E+03  0.34815862530E+03  0.80449276201E+03  0.80035851893E+02 0.  0.
         13    1    3    3    0    0  0.27125086486E+03 -0.33839537051E+02  0.30662388096E+03  0.41078017276E+03  0.00000000000E+00 0. -1.
        -13    1    3    3    0    0  0.25018046442E+03 -0.45823893332E+02  0.44095519867E+03  0.50904968443E+03  0.00000000000E+00 0.  1.
          2    1    6    6  502    0 -0.31236870781E+03  0.14858409319E+03  0.18323444535E+03  0.39144131658E+03  0.00000000000E+00 0. -1.
          1    1    5    5  503    0  0.76981815010E+02 -0.99976897916E+02  0.17373338093E+03  0.21472044059E+03  0.00000000000E+00 0. -1.
         -2    1    5    5    0  503  0.81849239464E+02 -0.58753311304E+02  0.27950609899E+03  0.29711093713E+03  0.00000000000E+00 0.  1.
         -1    1    6    6    0  502 -0.36789367596E+03  0.89809546410E+02  0.16492417995E+03  0.41305144542E+03  0.00000000000E+00 0.  1.
<mgrwt>
<rscale>  0 0.16127785E+04</rscale>
<asrwt>0</asrwt>
<pdfrwt beam="1">  1        1 0.29116393E+00 0.16127785E+04</pdfrwt>
<pdfrwt beam="2">  1       -1 0.52859756E-01 0.16127785E+04</pdfrwt>
<totfact> 0.12192460E+01</totfact>
</mgrwt>
</event>
<event>
12    1  0.1467288E-007  0.1879873E+04  0.7818608E-02  0.8664940E-01
          2   -1    0    0  501    0  0.00000000000E+00  0.00000000000E+00  0.11920091745E+04  0.11920091745E+04  0.00000000000E+00 0. -1.
         -2   -1    0    0    0  501 -0.00000000000E+00 -0.00000000000E+00 -0.74116961957E+03  0.74116961957E+03  0.00000000000E+00 0.  1.
         23    2    1    2    0    0 -0.12358619294E+03  0.66369832299E+03 -0.85633292524E+02  0.68724182455E+03  0.95912739512E+02 0.  0.
        254    2    1    2    0    0  0.12358619294E+03 -0.66369832299E+03  0.53647284744E+03  0.12459369695E+04  0.89932575017E+03 0.  0.
        -24    2    4    4    0    0 -0.10151443593E+03  0.19306626739E+03  0.14678249086E+03  0.27498223122E+03  0.80562792645E+02 0.  0.
         24    2    4    4    0    0  0.22510062886E+03 -0.85676459039E+03  0.38969035658E+03  0.97095473829E+03  0.78604537595E+02 0.  0.
         13    1    3    3    0    0 -0.31016457612E+02  0.30425241943E+03 -0.79598945569E+02  0.31601827085E+03  0.00000000000E+00 0.  1.
        -13    1    3    3    0    0 -0.92569735323E+02  0.35944590356E+03 -0.60343469549E+01  0.37122355370E+03  0.00000000000E+00 0. -1.
          4    1    6    6  502    0  0.21479903275E+03 -0.79539546995E+03  0.38238027623E+03  0.90829909927E+03  0.00000000000E+00 0. -1.
          1    1    5    5  503    0 -0.40538054897E+02  0.87636999845E+02  0.18915519413E+02  0.98393975991E+02  0.00000000000E+00 0. -1.
         -2    1    5    5    0  503 -0.60976381032E+02  0.10542926755E+03  0.12786697144E+03  0.17658825523E+03  0.00000000000E+00 0.  1.
         -3    1    6    6    0  502  0.10301596115E+02 -0.61369120439E+02  0.73100803563E+01  0.62655639018E+02  0.00000000000E+00 0.  1.
<mgrwt>
<rscale>  0 0.18798734E+04</rscale>
<asrwt>0</asrwt>
<pdfrwt beam="1">  1        2 0.18338603E+00 0.18798734E+04</pdfrwt>
<pdfrwt beam="2">  1       -2 0.11402610E+00 0.18798734E+04</pdfrwt>
<totfact> 0.10817077E+01</totfact>
</mgrwt>
</event>
<event>
12    1  0.1467288E-007  0.1437386E+04  0.7818608E-02  0.8927193E-01
         -2   -1    0    0    0  501 -0.00000000000E+00  0.00000000000E+00  0.18796378066E+03  0.18796378066E+03  0.00000000000E+00 0.  1.
          2   -1    0    0  501    0  0.00000000000E+00 -0.00000000000E+00 -0.27479731836E+04  0.27479731836E+04  0.00000000000E+00 0. -1.
         23    2    1    2    0    0 -0.20914312376E+03 -0.71429738573E+02 -0.39123744176E+02  0.24200868987E+03  0.90523393916E+02 0.  0.
        254    2    1    2    0    0  0.20914312376E+03  0.71429738573E+02 -0.25208856588E+04  0.26939282744E+04  0.92387336211E+03 0.  0.
        -24    2    4    4    0    0 -0.45089988511E+01 -0.40956327469E+03 -0.11473090010E+04  0.12208240826E+04  0.79568145783E+02 0.  0.
         24    2    4    4    0    0  0.21365212261E+03  0.48099301326E+03 -0.13735766578E+04  0.14731041918E+04  0.79508595904E+02 0.  0.
         13    1    3    3    0    0 -0.48958385506E+02  0.63402232792E+01 -0.40629997517E+02  0.63936833209E+02  0.00000000000E+00 0. -1.
        -13    1    3    3    0    0 -0.16018473825E+03 -0.77769961852E+02  0.15062533407E+01  0.17807185666E+03  0.00000000000E+00 0.  1.
          2    1    6    6  502    0  0.77085894315E+02  0.93261109963E+02 -0.29545649374E+03  0.31927168592E+03  0.00000000000E+00 0. -1.
          1    1    5    5  503    0 -0.54433746241E+01 -0.58933184484E+02 -0.26215553703E+03  0.26875318818E+03  0.00000000000E+00 0. -1.
         -2    1    5    5    0  503  0.93437577306E+00 -0.35063009021E+03 -0.88515346393E+03  0.95207089438E+03  0.00000000000E+00 0.  1.
         -1    1    6    6    0  502  0.13656622830E+03  0.38773190330E+03 -0.10781201641E+04  0.11538325059E+04  0.00000000000E+00 0.  1.
<mgrwt>
<rscale>  0 0.14373857E+04</rscale>
<asrwt>0</asrwt>
<pdfrwt beam="1">  1        2 0.42276507E+00 0.14373857E+04</pdfrwt>
<pdfrwt beam="2">  1       -2 0.28917507E-01 0.14373857E+04</pdfrwt>
<totfact> 0.26642661E+01</totfact>
</mgrwt>
</event>
<event>
12    1  0.1467288E-007  0.1424419E+04  0.7818608E-02  0.8936330E-01
          2   -1    0    0  501    0  0.00000000000E+00  0.00000000000E+00  0.12028965727E+04  0.12028965727E+04  0.00000000000E+00 0. -1.
         -2   -1    0    0    0  501 -0.00000000000E+00 -0.00000000000E+00 -0.42168437418E+03  0.42168437418E+03  0.00000000000E+00 0.  1.
         23    2    1    2    0    0 -0.19357621047E+03 -0.37875377679E+03  0.31696530561E+03  0.53853248625E+03  0.92865823063E+02 0.  0.
        254    2    1    2    0    0  0.19357621047E+03  0.37875377679E+03  0.46424689289E+03  0.10860484606E+04  0.88490107275E+03 0.  0.
        -24    2    4    4    0    0  0.51401036509E+03  0.23469098173E+03  0.44473505178E+03  0.72375472527E+03  0.82128702347E+02 0.  0.
         24    2    4    4    0    0 -0.32043415462E+03  0.14406279506E+03  0.19511841112E+02  0.36229373535E+03  0.86278052603E+02 0.  0.
         13    1    3    3    0    0 -0.12625250187E+03 -0.26296006196E+03  0.16185455274E+03  0.33359344217E+03  0.00000000000E+00 0.  1.
        -13    1    3    3    0    0 -0.67323708602E+02 -0.11579371483E+03  0.15511075286E+03  0.20493904408E+03  0.00000000000E+00 0. -1.
          2    1    6    6  502    0 -0.25803030477E+03  0.87228388211E+02  0.40363871989E+02  0.27535008998E+03  0.00000000000E+00 0. -1.
          3    1    5    5  503    0  0.48254448937E+03  0.19539005699E+03  0.40804828990E+03  0.66146040357E+03  0.00000000000E+00 0. -1.
         -4    1    5    5    0  503  0.31465875716E+02  0.39300924735E+02  0.36686761880E+02  0.62294321707E+02  0.00000000000E+00 0.  1.
         -1    1    6    6    0  502 -0.62403849847E+02  0.56834406852E+02 -0.20852030877E+02  0.86943645367E+02  0.00000000000E+00 0.  1.
<mgrwt>
<rscale>  0 0.14244194E+04</rscale>
<asrwt>0</asrwt>
<pdfrwt beam="1">  1        2 0.18506101E+00 0.14244194E+04</pdfrwt>
<pdfrwt beam="2">  1       -2 0.64874520E-01 0.14244194E+04</pdfrwt>
<totfact> 0.40184477E+01</totfact>
</mgrwt>
</event>
<event>
12    1  0.1467288E-007  0.2291246E+04  0.7818608E-02  0.8481381E-01
         -2   -1    0    0    0  501 -0.00000000000E+00  0.00000000000E+00  0.91936682104E+03  0.91936682104E+03  0.00000000000E+00 0.  1.
          2   -1    0    0  501    0  0.00000000000E+00 -0.00000000000E+00 -0.14275605548E+04  0.14275605548E+04  0.00000000000E+00 0. -1.
         23    2    1    2    0    0  0.71312742412E+03  0.18636753074E+03  0.42202504102E+03  0.85404591921E+03  0.89474674192E+02 0.  0.
        254    2    1    2    0    0 -0.71312742412E+03 -0.18636753074E+03 -0.93021877475E+03  0.14928814566E+04  0.90559620969E+03 0.  0.
        -24    2    4    4    0    0 -0.23772981969E+03 -0.43554664986E+03 -0.78336338996E+03  0.93069520914E+03  0.79492265132E+02 0.  0.
         24    2    4    4    0    0 -0.47539760443E+03  0.24917911912E+03 -0.14685538479E+03  0.56218624746E+03  0.79960972271E+02 0.  0.
         11    1    3    3    0    0  0.58912217926E+03  0.16148754907E+03  0.30963436237E+03  0.68484787286E+03  0.00000000000E+00 0.  1.
        -11    1    3    3    0    0  0.12400524486E+03  0.24879981666E+02  0.11239067865E+03  0.16919804635E+03  0.00000000000E+00 0. -1.
          4    1    6    6  502    0 -0.45619028353E+03  0.25434424223E+03 -0.14578718249E+03  0.54226789589E+03  0.00000000000E+00 0. -1.
          3    1    5    5  503    0 -0.16354906870E+03 -0.26665773912E+03 -0.42581737860E+03  0.52837021833E+03  0.00000000000E+00 0. -1.
         -4    1    5    5    0  503 -0.74180750993E+02 -0.16888891073E+03 -0.35754601136E+03  0.40232499081E+03  0.00000000000E+00 0.  1.
         -3    1    6    6    0  502 -0.19207320899E+02 -0.51651231058E+01 -0.10682023023E+01  0.19918351563E+02  0.00000000000E+00 0.  1.
<mgrwt>
<rscale>  0 0.22912458E+04</rscale>
<asrwt>0</asrwt>
<pdfrwt beam="1">  1        2 0.21962470E+00 0.22912458E+04</pdfrwt>
<pdfrwt beam="2">  1       -2 0.14144105E+00 0.22912458E+04</pdfrwt>
<totfact> 0.44283164E+00</totfact>
</mgrwt>
</event>
<event>
12    1  0.1467288E-007  0.1606703E+04  0.7818608E-02  0.8816441E-01
         -1   -1    0    0    0  501 -0.00000000000E+00  0.00000000000E+00  0.59889246646E+03  0.59889246646E+03  0.00000000000E+00 0.  1.
          1   -1    0    0  501    0  0.00000000000E+00 -0.00000000000E+00 -0.10776112575E+04  0.10776112575E+04  0.00000000000E+00 0. -1.
         23    2    1    2    0    0  0.19901531072E+03  0.49170080205E+03 -0.41650732274E+02  0.54034660897E+03  0.94142985327E+02 0.  0.
        254    2    1    2    0    0 -0.19901531072E+03 -0.49170080205E+03 -0.43706805878E+03  0.11361571150E+04  0.90468100970E+03 0.  0.
        -24    2    4    4    0    0  0.25985390389E+03  0.80109032030E+02 -0.98389937952E+01  0.28386429031E+03  0.80874106686E+02 0.  0.
         24    2    4    4    0    0 -0.45886921461E+03 -0.57180983408E+03 -0.42722906498E+03  0.85229282469E+03  0.79692801287E+02 0.  0.
         13    1    3    3    0    0 -0.78102607390E+01  0.95692051229E+01  0.56782169476E+01  0.13594557999E+02  0.00000000000E+00 0. -1.
        -13    1    3    3    0    0  0.20682557146E+03  0.48213159693E+03 -0.47328949222E+02  0.52675205097E+03  0.00000000000E+00 0.  1.
          4    1    6    6  502    0 -0.44816670183E+03 -0.55715516443E+03 -0.39926084158E+03  0.81895328896E+03  0.00000000000E+00 0. -1.
          1    1    5    5  503    0  0.18072810141E+03  0.81180538146E+02 -0.34227353024E+02  0.20105829530E+03  0.00000000000E+00 0. -1.
         -2    1    5    5    0  503  0.79125802483E+02 -0.10715061157E+01  0.24388359229E+02  0.82805995011E+02  0.00000000000E+00 0.  1.
         -3    1    6    6    0  502 -0.10702512787E+02 -0.14654669654E+02 -0.27968223397E+02  0.33339535728E+02  0.00000000000E+00 0.  1.
<mgrwt>
<rscale>  0 0.16067025E+04</rscale>
<asrwt>0</asrwt>
<pdfrwt beam="1">  1        1 0.16578635E+00 0.16067025E+04</pdfrwt>
<pdfrwt beam="2">  1       -1 0.92137303E-01 0.16067025E+04</pdfrwt>
<totfact> 0.14499648E+01</totfact>
</mgrwt>
</event>
<event>
12    1  0.1467288E-007  0.1652486E+04  0.7818608E-02  0.8788937E-01
         -1   -1    0    0    0  501 -0.00000000000E+00  0.00000000000E+00  0.54344954169E+03  0.54344954169E+03  0.00000000000E+00 0.  1.
          1   -1    0    0  501    0  0.00000000000E+00 -0.00000000000E+00 -0.12561933983E+04  0.12561933983E+04  0.00000000000E+00 0. -1.
         23    2    1    2    0    0  0.26296206142E+03 -0.24572348251E+03 -0.74654527865E+03  0.83368865979E+03  0.90431481147E+02 0.  0.
        254    2    1    2    0    0 -0.26296206142E+03  0.24572348251E+03  0.33801422058E+02  0.96595428019E+03  0.89576562765E+03 0.  0.
        -24    2    4    4    0    0  0.79024625916E+01  0.15029403403E+03  0.43452055559E+03  0.46659246211E+03  0.79054834699E+02 0.  0.
         24    2    4    4    0    0 -0.27086452401E+03  0.95429448476E+02 -0.40071913353E+03  0.49936181808E+03  0.79448293676E+02 0.  0.
         11    1    3    3    0    0  0.48160896490E+02 -0.48821400803E+02 -0.74879959313E+02  0.10153821662E+03  0.00000000000E+00 0. -1.
        -11    1    3    3    0    0  0.21480116493E+03 -0.19690208171E+03 -0.67166531934E+03  0.73215044317E+03  0.00000000000E+00 0.  1.
          2    1    6    6  502    0 -0.19830758009E+03  0.60976357545E+02 -0.34145122357E+03  0.39954092479E+03  0.00000000000E+00 0. -1.
          1    1    5    5  503    0  0.33260559936E+02  0.93648297299E+02  0.33385997994E+03  0.34833712785E+03  0.00000000000E+00 0. -1.
         -2    1    5    5    0  503 -0.25358097345E+02  0.56645736734E+02  0.10066057565E+03  0.11825533426E+03  0.00000000000E+00 0.  1.
         -1    1    6    6    0  502 -0.72556943920E+02  0.34453090931E+02 -0.59267909961E+02  0.99820893289E+02  0.00000000000E+00 0.  1.
<mgrwt>
<rscale>  0 0.16524863E+04</rscale>
<asrwt>0</asrwt>
<pdfrwt beam="1">  1        1 0.19326052E+00 0.16524863E+04</pdfrwt>
<pdfrwt beam="2">  1       -1 0.83607621E-01 0.16524863E+04</pdfrwt>
<totfact> 0.13186111E+01</totfact>
</mgrwt>
</event>
<event>
12    1  0.1467288E-007  0.1320540E+04  0.7818608E-02  0.9013434E-01
         -1   -1    0    0    0  501 -0.00000000000E+00  0.00000000000E+00  0.17640484660E+03  0.17640484660E+03  0.00000000000E+00 0.  1.
          1   -1    0    0  501    0  0.00000000000E+00 -0.00000000000E+00 -0.24713390429E+04  0.24713390429E+04  0.00000000000E+00 0. -1.
         23    2    1    2    0    0  0.18413951532E+03 -0.20416407201E+03 -0.19187203958E+03  0.34842347285E+03  0.94835159398E+02 0.  0.
        254    2    1    2    0    0 -0.18413951532E+03  0.20416407201E+03 -0.21030621568E+04  0.22993204167E+04  0.88792658144E+03 0.  0.
        -24    2    4    4    0    0  0.34795141995E+03  0.18296569241E+02 -0.72255998061E+03  0.80613889081E+03  0.79762338376E+02 0.  0.
         24    2    4    4    0    0 -0.53209093526E+03  0.18586750277E+03 -0.13805021762E+04  0.14931815259E+04  0.78341042103E+02 0.  0.
         11    1    3    3    0    0  0.79698987482E+02 -0.52709639413E+02 -0.22074872558E+02  0.98069030234E+02  0.00000000000E+00 0. -1.
        -11    1    3    3    0    0  0.10444052784E+03 -0.15145443259E+03 -0.16979716702E+03  0.25035444261E+03  0.00000000000E+00 0.  1.
          4    1    6    6  502    0 -0.42549344719E+03  0.11412166682E+03 -0.10644705405E+04  0.11520268921E+04  0.00000000000E+00 0. -1.
          1    1    5    5  503    0  0.25222717133E+03  0.44481559895E+02 -0.55797450342E+03  0.61394845190E+03  0.00000000000E+00 0. -1.
         -2    1    5    5    0  503  0.95724248616E+02 -0.26184990654E+02 -0.16458547719E+03  0.19219043892E+03  0.00000000000E+00 0.  1.
         -3    1    6    6    0  502 -0.10659748808E+03  0.71745835951E+02 -0.31603163564E+03  0.34115463381E+03  0.00000000000E+00 0.  1.
<mgrwt>
<rscale>  0 0.13205396E+04</rscale>
<asrwt>0</asrwt>
<pdfrwt beam="1">  1        1 0.38020600E+00 0.13205396E+04</pdfrwt>
<pdfrwt beam="2">  1       -1 0.27139207E-01 0.13205396E+04</pdfrwt>
<totfact> 0.16982763E+01</totfact>
</mgrwt>
</event>
<event>
12    1  0.1467288E-007  0.2187073E+04  0.7818608E-02  0.8523828E-01
          2   -1    0    0  501    0  0.00000000000E+00  0.00000000000E+00  0.13879023384E+04  0.13879023384E+04  0.00000000000E+00 0. -1.
         -2   -1    0    0    0  501 -0.00000000000E+00 -0.00000000000E+00 -0.86160354601E+03  0.86160354601E+03  0.00000000000E+00 0.  1.
         23    2    1    2    0    0 -0.30999685174E+03 -0.52361705787E+03  0.90475729671E+03  0.10942404598E+04  0.92214676241E+02 0.  0.
        254    2    1    2    0    0  0.30999685174E+03  0.52361705787E+03 -0.37845850436E+03  0.11552654246E+04  0.90616471478E+03 0.  0.
        -24    2    4    4    0    0 -0.52234515093E+01  0.98302068843E+02  0.27935367547E+03  0.30675500939E+03  0.79809639798E+02 0.  0.
         24    2    4    4    0    0  0.31522030325E+03  0.42531498903E+03 -0.65781217983E+03  0.84851041518E+03  0.83644373777E+02 0.  0.
         11    1    3    3    0    0 -0.88749703285E+02 -0.23478562472E+03  0.34546129841E+03  0.42701792481E+03  0.00000000000E+00 0.  1.
        -11    1    3    3    0    0 -0.22124714845E+03 -0.28883143315E+03  0.55929599830E+03  0.66722253498E+03  0.00000000000E+00 0. -1.
          2    1    6    6  502    0  0.10771803137E+03  0.15303690161E+03 -0.17186491089E+03  0.25408859702E+03  0.00000000000E+00 0. -1.
          1    1    5    5  503    0  0.12755241112E+02 -0.98325448328E+01  0.24417645713E+02  0.29250581804E+02  0.00000000000E+00 0. -1.
         -2    1    5    5    0  503 -0.17978692622E+02  0.10813461368E+03  0.25493602976E+03  0.27750442759E+03  0.00000000000E+00 0.  1.
         -1    1    6    6    0  502  0.20750227188E+03  0.27227808742E+03 -0.48594726894E+03  0.59442181817E+03  0.00000000000E+00 0.  1.
<mgrwt>
<rscale>  0 0.21870725E+04</rscale>
<asrwt>0</asrwt>
<pdfrwt beam="1">  1        2 0.21352344E+00 0.21870725E+04</pdfrwt>
<pdfrwt beam="2">  1       -2 0.13255439E+00 0.21870725E+04</pdfrwt>
<totfact> 0.55623137E+00</totfact>
</mgrwt>
</event>
<event>
12    1  0.1467288E-007  0.1181528E+04  0.7818608E-02  0.9129181E-01
          2   -1    0    0  501    0  0.00000000000E+00  0.00000000000E+00  0.20509207271E+03  0.20509207271E+03  0.00000000000E+00 0.  1.
         -2   -1    0    0    0  501 -0.00000000000E+00 -0.00000000000E+00 -0.17016845997E+04  0.17016845997E+04  0.00000000000E+00 0. -1.
         23    2    1    2    0    0  0.45269388925E+02 -0.33671612419E+02 -0.70685542314E+03  0.71510863862E+03  0.92480704735E+02 0.  0.
        254    2    1    2    0    0 -0.45269388925E+02  0.33671612419E+02 -0.78973710389E+03  0.11916680338E+04  0.89062052219E+03 0.  0.
        -24    2    4    4    0    0  0.24366225114E+02 -0.21466343187E+02 -0.97055665390E+03  0.97456342644E+03  0.82092246348E+02 0.  0.
         24    2    4    4    0    0 -0.69635614039E+02  0.55137955606E+02  0.18081955001E+03  0.21710460740E+03  0.80928289235E+02 0.  0.
         13    1    3    3    0    0  0.68047867242E+02 -0.34059683013E+01 -0.52067426251E+03  0.52511313114E+03  0.00000000000E+00 0. -1.
        -13    1    3    3    0    0 -0.22778478316E+02 -0.30265644118E+02 -0.18618116063E+03  0.18999550748E+03  0.00000000000E+00 0.  1.
          4    1    6    6  502    0 -0.39629119249E+02 -0.13986965512E+02  0.43609564130E+02  0.60563160257E+02  0.00000000000E+00 0. -1.
          1    1    5    5  503    0  0.17901654253E+02  0.24763617293E+02 -0.63977472040E+03  0.64050401937E+03  0.00000000000E+00 0. -1.
         -2    1    5    5    0  503  0.64645708603E+01 -0.46229960480E+02 -0.33078193350E+03  0.33405940707E+03  0.00000000000E+00 0.  1.
         -3    1    6    6    0  502 -0.30006494790E+02  0.69124921118E+02  0.13720998588E+03  0.15654144714E+03  0.00000000000E+00 0.  1.
<mgrwt>
<rscale>  0 0.11815279E+04</rscale>
<asrwt>0</asrwt>
<pdfrwt beam="1">  1        2 0.31552628E-01 0.11815279E+04</pdfrwt>
<pdfrwt beam="2">  1       -2 0.26179762E+00 0.11815279E+04</pdfrwt>
<totfact> 0.90773201E+00</totfact>
</mgrwt>
</event>
<event>
12    1  0.1467288E-007  0.1784058E+04  0.7818608E-02  0.8714823E-01
          2   -1    0    0  501    0  0.00000000000E+00  0.00000000000E+00  0.16905922120E+04  0.16905922120E+04  0.00000000000E+00 0. -1.
         -2   -1    0    0    0  501 -0.00000000000E+00 -0.00000000000E+00 -0.47067284159E+03  0.47067284159E+03  0.00000000000E+00 0.  1.
         23    2    1    2    0    0 -0.30616061569E+03 -0.44365034086E+03 -0.14940356455E+02  0.54989593645E+03  0.10771434037E+03 0.  0.
        254    2    1    2    0    0  0.30616061569E+03  0.44365034086E+03  0.12348597269E+04  0.16113691172E+04  0.88378274429E+03 0.  0.
        -24    2    4    4    0    0 -0.71196036327E+02  0.53522113706E+03  0.10266986913E+04  0.11629647877E+04  0.82742695452E+02 0.  0.
         24    2    4    4    0    0  0.37735665202E+03 -0.91570796193E+02  0.20816103558E+03  0.44840432942E+03  0.83379687994E+02 0.  0.
         11    1    3    3    0    0 -0.15303778602E+03 -0.13409421097E+03  0.93196470242E+01  0.20368769522E+03  0.00000000000E+00 0. -1.
        -11    1    3    3    0    0 -0.15312282967E+03 -0.30955612990E+03 -0.24260003479E+02  0.34620824122E+03  0.00000000000E+00 0.  1.
          2    1    6    6  502    0  0.31724994879E+03 -0.90992574453E+02  0.14281162668E+03  0.35961415341E+03  0.00000000000E+00 0. -1.
          1    1    5    5  503    0 -0.53694388282E+02  0.46320061283E+03  0.93692101781E+03  0.10465461713E+04  0.00000000000E+00 0. -1.
         -2    1    5    5    0  503 -0.17501648046E+02  0.72020524224E+02  0.89777673497E+02  0.11641861643E+03  0.00000000000E+00 0.  1.
         -1    1    6    6    0  502  0.60106703226E+02 -0.57822174029E+00  0.65349408897E+02  0.88790176012E+02  0.00000000000E+00 0.  1.
<mgrwt>
<rscale>  0 0.17840581E+04</rscale>
<asrwt>0</asrwt>
<pdfrwt beam="1">  1        2 0.26009111E+00 0.17840581E+04</pdfrwt>
<pdfrwt beam="2">  1       -2 0.72411207E-01 0.17840581E+04</pdfrwt>
<totfact> 0.16190713E+01</totfact>
</mgrwt>
</event>
<event>
12    1  0.1467288E-007  0.1407858E+04  0.7818608E-02  0.8948150E-01
         -1   -1    0    0    0  501 -0.00000000000E+00  0.00000000000E+00  0.37578759794E+03  0.37578759794E+03  0.00000000000E+00 0.  1.
          1   -1    0    0  501    0  0.00000000000E+00 -0.00000000000E+00 -0.13186072506E+04  0.13186072506E+04  0.00000000000E+00 0. -1.
         23    2    1    2    0    0 -0.14314182149E+03  0.37977090058E+03 -0.23588941012E+03  0.47817784589E+03  0.91075356203E+02 0.  0.
        254    2    1    2    0    0  0.14314182149E+03 -0.37977090058E+03 -0.70693024251E+03  0.12162170026E+04  0.90261725650E+03 0.  0.
        -24    2    4    4    0    0 -0.31302881729E+03  0.84190342811E+02 -0.22702867308E+03  0.40380054514E+03  0.80235949386E+02 0.  0.
         24    2    4    4    0    0  0.45617063878E+03 -0.46396124339E+03 -0.47990156943E+03  0.81241645750E+03  0.79770276540E+02 0.  0.
         11    1    3    3    0    0 -0.70679705142E+02  0.21485947092E+03 -0.79868473963E+02  0.23987327091E+03  0.00000000000E+00 0. -1.
        -11    1    3    3    0    0 -0.72462116345E+02  0.16491142966E+03 -0.15602093616E+03  0.23830457498E+03  0.00000000000E+00 0.  1.
          4    1    6    6  502    0  0.14419352648E+03 -0.10423164197E+03 -0.10707245039E+03  0.20765480466E+03  0.00000000000E+00 0. -1.
          3    1    5    5  503    0 -0.11517505365E+02  0.15864480994E+02  0.10251771587E+01  0.19631242326E+02  0.00000000000E+00 0. -1.
         -4    1    5    5    0  503 -0.30151131193E+03  0.68325861816E+02 -0.22805385024E+03  0.38416930281E+03  0.00000000000E+00 0.  1.
         -3    1    6    6    0  502  0.31197711230E+03 -0.35972960142E+03 -0.37282911904E+03  0.60476165284E+03  0.00000000000E+00 0.  1.
<mgrwt>
<rscale>  0 0.14078583E+04</rscale>
<asrwt>0</asrwt>
<pdfrwt beam="1">  1        1 0.20286265E+00 0.14078583E+04</pdfrwt>
<pdfrwt beam="2">  1       -1 0.57813478E-01 0.14078583E+04</pdfrwt>
<totfact> 0.25907311E+01</totfact>
</mgrwt>
</event>
<event>
12    1  0.1467288E-007  0.1492073E+04  0.7818608E-02  0.8889742E-01
         -2   -1    0    0    0  501 -0.00000000000E+00  0.00000000000E+00  0.21333467292E+03  0.21333467292E+03  0.00000000000E+00 0. -1.
          2   -1    0    0  501    0  0.00000000000E+00 -0.00000000000E+00 -0.26089068681E+04  0.26089068681E+04  0.00000000000E+00 0.  1.
         23    2    1    2    0    0  0.44122389144E+03  0.51138798586E+02 -0.47668586955E+03  0.65773734990E+03  0.89973908034E+02 0.  0.
        254    2    1    2    0    0 -0.44122389144E+03 -0.51138798586E+02 -0.19188863257E+04  0.21645041912E+04  0.89758563022E+03 0.  0.
        -24    2    4    4    0    0 -0.17259304980E+03 -0.22047074393E+03 -0.17888150822E+04  0.18123537253E+04  0.79818027867E+02 0.  0.
         24    2    4    4    0    0 -0.26863084164E+03  0.16933194535E+03 -0.13007124349E+03  0.35215046586E+03  0.79092258978E+02 0.  0.
         11    1    3    3    0    0  0.15413850015E+03  0.41692993897E+02 -0.22453893993E+03  0.27552625739E+03  0.00000000000E+00 0.  1.
        -11    1    3    3    0    0  0.28708539129E+03  0.94458046887E+01 -0.25214692962E+03  0.38221109251E+03  0.00000000000E+00 0. -1.
          2    1    6    6  502    0 -0.13528888987E+03  0.10476544469E+03 -0.10805253278E+03  0.20237151965E+03  0.00000000000E+00 0. -1.
          3    1    5    5  503    0 -0.11632356452E+03 -0.16976444083E+03 -0.14872927436E+04  0.15014629007E+04  0.00000000000E+00 0. -1.
         -4    1    5    5    0  503 -0.56269485282E+02 -0.50706303109E+02 -0.30152233859E+03  0.31089082460E+03  0.00000000000E+00 0.  1.
         -1    1    6    6    0  502 -0.13334195177E+03  0.64566500660E+02 -0.22018710708E+02  0.14977894622E+03  0.00000000000E+00 0.  1.
<mgrwt>
<rscale>  0 0.14920728E+04</rscale>
<asrwt>0</asrwt>
<pdfrwt beam="1">  1        2 0.40137026E+00 0.14920728E+04</pdfrwt>
<pdfrwt beam="2">  1       -2 0.32820721E-01 0.14920728E+04</pdfrwt>
<totfact> 0.25263435E+01</totfact>
</mgrwt>
</event>
<event>
12    1  0.1467288E-007  0.1709538E+04  0.7818608E-02  0.8755943E-01
          1   -1    0    0  501    0  0.00000000000E+00  0.00000000000E+00  0.16328462603E+04  0.16328462603E+04  0.00000000000E+00 0. -1.
         -1   -1    0    0    0  501 -0.00000000000E+00 -0.00000000000E+00 -0.44745770461E+03  0.44745770461E+03  0.00000000000E+00 0.  1.
         23    2    1    2    0    0 -0.21662185879E+03 -0.32763948392E+03  0.10153739329E+04  0.10908444429E+04  0.68444969288E+02 0.  0.
        254    2    1    2    0    0  0.21662185879E+03  0.32763948392E+03  0.17001462283E+03  0.98945952208E+03  0.89210566231E+03 0.  0.
        -24    2    4    4    0    0  0.49600382880E+03  0.13931868996E+03  0.31934728778E+03  0.61211060378E+03  0.85247906080E+02 0.  0.
         24    2    4    4    0    0 -0.27938197000E+03  0.18832079396E+03 -0.14933266495E+03  0.37734891830E+03  0.81073761009E+02 0.  0.
         13    1    3    3    0    0 -0.92210568164E+01  0.13485056227E+01  0.32989169010E+02  0.34280192942E+02  0.00000000000E+00 0.  1.
        -13    1    3    3    0    0 -0.20740080198E+03 -0.32898798954E+03  0.98238476388E+03  0.10565642499E+04  0.00000000000E+00 0. -1.
          2    1    6    6  502    0 -0.56170606423E+02  0.31322663013E+01 -0.19004896826E+02  0.59381261535E+02  0.00000000000E+00 0. -1.
          3    1    5    5  503    0  0.13032664834E+03  0.54835792241E+02  0.12851648881E+03  0.19107194267E+03  0.00000000000E+00 0. -1.
         -4    1    5    5    0  503  0.36567718046E+03  0.84482897718E+02  0.19083079897E+03  0.42103866111E+03  0.00000000000E+00 0.  1.
         -1    1    6    6    0  502 -0.22321136358E+03  0.18518852766E+03 -0.13032776812E+03  0.31796765677E+03  0.00000000000E+00 0.  1.
<mgrwt>
<rscale>  0 0.17095375E+04</rscale>
<asrwt>0</asrwt>
<pdfrwt beam="1">  1        1 0.25120711E+00 0.17095375E+04</pdfrwt>
<pdfrwt beam="2">  1       -1 0.68839648E-01 0.17095375E+04</pdfrwt>
<totfact> 0.10755759E+01</totfact>
</mgrwt>
</event>
<event>
12    1  0.1467288E-007  0.1317390E+04  0.7818608E-02  0.9015888E-01
         -2   -1    0    0    0  501 -0.00000000000E+00  0.00000000000E+00  0.40602775728E+03  0.40602775728E+03  0.00000000000E+00 0.  1.
          2   -1    0    0  501    0  0.00000000000E+00 -0.00000000000E+00 -0.10685939420E+04  0.10685939420E+04  0.00000000000E+00 0. -1.
         23    2    1    2    0    0 -0.33435759339E+03  0.10705079163E+03 -0.76308259825E+02  0.37005340121E+03  0.88666211061E+02 0.  0.
        254    2    1    2    0    0  0.33435759339E+03 -0.10705079163E+03 -0.58625792494E+03  0.11045682981E+04  0.86782365628E+03 0.  0.
        -24    2    4    4    0    0 -0.40735013315E+01 -0.20690151510E+03  0.16107377947E+03  0.27407204736E+03  0.79661121935E+02 0.  0.
         24    2    4    4    0    0  0.33843109472E+03  0.99850723469E+02 -0.74733170441E+03  0.83049625075E+03  0.81936397516E+02 0.  0.
         11    1    3    3    0    0 -0.27492518749E+03  0.94869543471E+02 -0.96002757273E+02  0.30626886619E+03  0.00000000000E+00 0.  1.
        -11    1    3    3    0    0 -0.59432405902E+02  0.12181248160E+02  0.19694497448E+02  0.63784535020E+02  0.00000000000E+00 0. -1.
          2    1    6    6  502    0  0.27963078684E+03  0.58227897834E+02 -0.53809082231E+03  0.60920078635E+03  0.00000000000E+00 0. -1.
          3    1    5    5  503    0 -0.45975772361E+01 -0.12822389288E+03  0.14527359912E+03  0.19382188479E+03  0.00000000000E+00 0. -1.
         -4    1    5    5    0  503  0.52407590456E+00 -0.78677622222E+02  0.15800180352E+02  0.80250162574E+02  0.00000000000E+00 0.  1.
         -1    1    6    6    0  502  0.58800307880E+02  0.41622825635E+02 -0.20924088210E+03  0.22129546440E+03  0.00000000000E+00 0.  1.
<mgrwt>
<rscale>  0 0.13173895E+04</rscale>
<asrwt>0</asrwt>
<pdfrwt beam="1">  1        2 0.16439907E+00 0.13173895E+04</pdfrwt>
<pdfrwt beam="2">  1       -2 0.62465809E-01 0.13173895E+04</pdfrwt>
<totfact> 0.53044191E+01</totfact>
</mgrwt>
</event>
<event>
12    1  0.1467288E-007  0.3816974E+04  0.7818608E-02  0.8042522E-01
         -1   -1    0    0    0  501 -0.00000000000E+00  0.00000000000E+00  0.13935069573E+04  0.13935069573E+04  0.00000000000E+00 0.  1.
          1   -1    0    0  501    0  0.00000000000E+00 -0.00000000000E+00 -0.26137810679E+04  0.26137810679E+04  0.00000000000E+00 0. -1.
         23    2    1    2    0    0  0.11533702320E+04  0.79570365792E+03 -0.17698347341E+04  0.22591859021E+04  0.90546955951E+02 0.  0.
        254    2    1    2    0    0 -0.11533702320E+04 -0.79570365792E+03  0.54956062350E+03  0.17481021231E+04  0.88906521157E+03 0.  0.
        -24    2    4    4    0    0 -0.10174309029E+04 -0.74734130799E+03  0.99573381633E+02  0.12687580095E+04  0.78405073502E+02 0.  0.
         24    2    4    4    0    0 -0.13593932914E+03 -0.48362349937E+02  0.44998724187E+03  0.47934411358E+03  0.80398030321E+02 0.  0.
         11    1    3    3    0    0  0.28639729533E+03  0.21155010922E+03 -0.51200263740E+03  0.62363736273E+03  0.00000000000E+00 0.  1.
        -11    1    3    3    0    0  0.86697293667E+03  0.58415354870E+03 -0.12578320967E+04  0.16355485394E+04  0.00000000000E+00 0. -1.
          2    1    6    6  502    0 -0.91076778530E+00 -0.16592866654E+02  0.13704219901E+02  0.21539692776E+02  0.00000000000E+00 0. -1.
          1    1    5    5  503    0 -0.33304386758E+03 -0.20525692701E+03  0.48376464026E+02  0.39419399550E+03  0.00000000000E+00 0. -1.
         -2    1    5    5    0  503 -0.68438703528E+03 -0.54208438098E+03  0.51196917606E+02  0.87456401397E+03  0.00000000000E+00 0.  1.
         -1    1    6    6    0  502 -0.13502856136E+03 -0.31769483282E+02  0.43628302197E+03  0.45780442081E+03  0.00000000000E+00 0.  1.
<mgrwt>
<rscale>  0 0.38169737E+04</rscale>
<asrwt>0</asrwt>
<pdfrwt beam="1">  1        1 0.40212016E+00 0.38169737E+04</pdfrwt>
<pdfrwt beam="2">  1       -1 0.21438569E+00 0.38169737E+04</pdfrwt>
<totfact> 0.10763199E-01</totfact>
</mgrwt>
</event>
<event>
12    1  0.1467288E-007  0.2843433E+04  0.7818608E-02  0.8289910E-01
          2   -1    0    0  501    0  0.00000000000E+00  0.00000000000E+00  0.32806929651E+04  0.32806929651E+04  0.00000000000E+00 0.  1.
         -2   -1    0    0    0  501 -0.00000000000E+00 -0.00000000000E+00 -0.61611314120E+03  0.61611314120E+03  0.00000000000E+00 0. -1.
         23    2    1    2    0    0  0.24108763434E+03  0.17011002543E+02 -0.51672202954E+03  0.58197399995E+03  0.11523653570E+03 0.  0.
        254    2    1    2    0    0 -0.24108763434E+03 -0.17011002543E+02  0.31813018534E+04  0.33148321063E+04  0.89945416166E+03 0.  0.
        -24    2    4    4    0    0  0.20947324525E+03 -0.30631534547E+03  0.15628076904E+04  0.16082244230E+04  0.79434163547E+02 0.  0.
         24    2    4    4    0    0 -0.45056087959E+03  0.28930434293E+03  0.16184941630E+04  0.17066076833E+04  0.79273702299E+02 0.  0.
         11    1    3    3    0    0  0.70779712204E+01 -0.27032784915E+02 -0.77071973764E+02  0.81981450809E+02  0.00000000000E+00 0.  1.
        -11    1    3    3    0    0  0.23400966312E+03  0.44043787458E+02 -0.43965005578E+03  0.49999254914E+03  0.00000000000E+00 0. -1.
          2    1    6    6  502    0 -0.33258921704E+03  0.24787934578E+03  0.12939894422E+04  0.13588482012E+04  0.00000000000E+00 0. -1.
          3    1    5    5  503    0  0.10079338776E+03 -0.19437605384E+03  0.78737944441E+03  0.81725623082E+03  0.00000000000E+00 0. -1.
         -4    1    5    5    0  503  0.10867985748E+03 -0.11193929163E+03  0.77542824597E+03  0.79096819221E+03  0.00000000000E+00 0.  1.
         -1    1    6    6    0  502 -0.11797166255E+03  0.41424997151E+02  0.32450472078E+03  0.34775948206E+03  0.00000000000E+00 0.  1.
<mgrwt>
<rscale>  0 0.28434332E+04</rscale>
<asrwt>0</asrwt>
<pdfrwt beam="1">  1        2 0.50472198E+00 0.28434332E+04</pdfrwt>
<pdfrwt beam="2">  1       -2 0.94786639E-01 0.28434332E+04</pdfrwt>
<totfact> 0.93166003E-01</totfact>
</mgrwt>
</event>
<event>
12    1  0.1467288E-007  0.1941341E+04  0.7818608E-02  0.8634548E-01
          2   -1    0    0  501    0  0.00000000000E+00  0.00000000000E+00  0.84454908571E+03  0.84454908571E+03  0.00000000000E+00 0. -1.
         -2   -1    0    0    0  501 -0.00000000000E+00 -0.00000000000E+00 -0.11156260310E+04  0.11156260310E+04  0.00000000000E+00 0.  1.
         23    2    1    2    0    0  0.74306786010E+02 -0.38070574018E+02  0.65427146053E+03  0.66495970301E+03  0.84435747800E+02 0.  0.
        254    2    1    2    0    0 -0.74306786010E+02  0.38070574018E+02 -0.92534840587E+03  0.12952154137E+04  0.90240923571E+03 0.  0.
        -24    2    4    4    0    0 -0.28171356869E+03 -0.58968029735E+02 -0.99834993658E+03  0.10420433445E+04  0.79447924197E+02 0.  0.
         24    2    4    4    0    0  0.20740678268E+03  0.97038603753E+02  0.73001530704E+02  0.25317206924E+03  0.79578948445E+02 0.  0.
         13    1    3    3    0    0  0.24046263784E+02 -0.30953072474E+02  0.87002495122E+02  0.95424051764E+02  0.00000000000E+00 0.  1.
        -13    1    3    3    0    0  0.50260522226E+02 -0.71175015442E+01  0.56726896541E+03  0.56953565124E+03  0.00000000000E+00 0. -1.
          4    1    6    6  502    0  0.15321476082E+03  0.92188961639E+02  0.84166278746E+02  0.19762978029E+03  0.00000000000E+00 0. -1.
          1    1    5    5  503    0 -0.26974715713E+03 -0.72023661569E+02 -0.90726693124E+03  0.94925456076E+03  0.00000000000E+00 0. -1.
         -2    1    5    5    0  503 -0.11966411559E+02  0.13055631833E+02 -0.91083005338E+02  0.92788783749E+02  0.00000000000E+00 0.  1.
         -3    1    6    6    0  502  0.54192021863E+02  0.48496421140E+01 -0.11164748041E+02  0.55542288944E+02  0.00000000000E+00 0.  1.
<mgrwt>
<rscale>  0 0.19413407E+04</rscale>
<asrwt>0</asrwt>
<pdfrwt beam="1">  1        2 0.12993063E+00 0.19413407E+04</pdfrwt>
<pdfrwt beam="2">  1       -2 0.17163478E+00 0.19413407E+04</pdfrwt>
<totfact> 0.61995935E+00</totfact>
</mgrwt>
</event>
<event>
12    1  0.1467288E-007  0.1253031E+04  0.7818608E-02  0.9067665E-01
          2   -1    0    0  501    0  0.00000000000E+00  0.00000000000E+00  0.23143670736E+04  0.23143670736E+04  0.00000000000E+00 0. -1.
         -2   -1    0    0    0  501 -0.00000000000E+00 -0.00000000000E+00 -0.16960204467E+03  0.16960204467E+03  0.00000000000E+00 0.  1.
         23    2    1    2    0    0 -0.23394051971E+03 -0.71576725160E+01  0.17599860451E+03  0.30636356099E+03  0.90020684695E+02 0.  0.
        254    2    1    2    0    0  0.23394051971E+03  0.71576725160E+01  0.19687664244E+04  0.21776055573E+04  0.90063606976E+03 0.  0.
        -24    2    4    4    0    0  0.26946922649E+03  0.25493100168E+03  0.18511708544E+04  0.18896172301E+04  0.78843291481E+02 0.  0.
         24    2    4    4    0    0 -0.35528706778E+02 -0.24777332917E+03  0.11759557005E+03  0.28798832717E+03  0.80340816781E+02 0.  0.
         13    1    3    3    0    0 -0.14991315146E+03  0.73485790683E+01  0.58290035017E+02  0.16101454213E+03  0.00000000000E+00 0.  1.
        -13    1    3    3    0    0 -0.84027368245E+02 -0.14506251584E+02  0.11770856949E+03  0.14534901885E+03  0.00000000000E+00 0. -1.
          2    1    6    6  502    0 -0.21829000889E+02 -0.10669866911E+03  0.87138614329E+01  0.10925677394E+03  0.00000000000E+00 0. -1.
          1    1    5    5  503    0  0.14736376743E+03  0.16658294806E+03  0.12636283708E+04  0.12830520715E+04  0.00000000000E+00 0. -1.
         -4    1    5    5    0  503  0.12210545906E+03  0.88348053620E+02  0.58754248353E+03  0.60656515862E+03  0.00000000000E+00 0.  1.
         -1    1    6    6    0  502 -0.13699705890E+02 -0.14107466005E+03  0.10888170861E+03  0.17873155323E+03  0.00000000000E+00 0.  1.
<mgrwt>
<rscale>  0 0.12530305E+04</rscale>
<asrwt>0</asrwt>
<pdfrwt beam="1">  1        2 0.35605645E+00 0.12530305E+04</pdfrwt>
<pdfrwt beam="2">  1       -2 0.26092624E-01 0.12530305E+04</pdfrwt>
<totfact> 0.58259837E+01</totfact>
</mgrwt>
</event>
<event>
12    1  0.1467288E-007  0.1183136E+04  0.7818608E-02  0.9127747E-01
          2   -1    0    0  501    0  0.00000000000E+00  0.00000000000E+00  0.85255737401E+03  0.85255737401E+03  0.00000000000E+00 0.  1.
         -2   -1    0    0    0  501 -0.00000000000E+00 -0.00000000000E+00 -0.41047404576E+03  0.41047404576E+03  0.00000000000E+00 0. -1.
         23    2    1    2    0    0 -0.79997431301E+02 -0.12135282145E+03 -0.85912677927E+02  0.19179288200E+03  0.90980355401E+02 0.  0.
        254    2    1    2    0    0  0.79997431301E+02  0.12135282145E+03  0.52799600618E+03  0.10712385378E+04  0.92067699330E+03 0.  0.
        -24    2    4    4    0    0 -0.88537212677E+02  0.17106279512E+03  0.74959552031E+03  0.77749866748E+03  0.74225440131E+02 0.  0.
         24    2    4    4    0    0  0.16853464398E+03 -0.49709973675E+02 -0.22159951414E+03  0.29373987029E+03  0.79383619397E+02 0.  0.
         13    1    3    3    0    0  0.37127429442E+01 -0.43994585784E+02 -0.60696505273E+02  0.75055804511E+02  0.00000000000E+00 0. -1.
        -13    1    3    3    0    0 -0.83710174245E+02 -0.77358235666E+02 -0.25216172654E+02  0.11673707749E+03  0.00000000000E+00 0.  1.
          2    1    6    6  502    0  0.14521447474E+03 -0.69935637949E+02 -0.17574479557E+03  0.23846272308E+03  0.00000000000E+00 0. -1.
          1    1    5    5  503    0 -0.94034111733E+02  0.16048399746E+03  0.73718819307E+03  0.76029202259E+03  0.00000000000E+00 0. -1.
         -2    1    5    5    0  503  0.54968990564E+01  0.10578797664E+02  0.12407327243E+02  0.17206644896E+02  0.00000000000E+00 0.  1.
         -1    1    6    6    0  502  0.23320169235E+02  0.20225664274E+02 -0.45854718567E+02  0.55277147207E+02  0.00000000000E+00 0.  1.
<mgrwt>
<rscale>  0 0.11831360E+04</rscale>
<asrwt>0</asrwt>
<pdfrwt beam="1">  1        2 0.13116267E+00 0.11831360E+04</pdfrwt>
<pdfrwt beam="2">  1       -2 0.63149853E-01 0.11831360E+04</pdfrwt>
<totfact> 0.72546204E+01</totfact>
</mgrwt>
</event>
<event>
12    1  0.1467288E-007  0.3566032E+04  0.7818608E-02  0.8098317E-01
          2   -1    0    0  501    0  0.00000000000E+00  0.00000000000E+00  0.19799936844E+04  0.19799936844E+04  0.00000000000E+00 0. -1.
         -2   -1    0    0    0  501 -0.00000000000E+00 -0.00000000000E+00 -0.16056343101E+04  0.16056343101E+04  0.00000000000E+00 0.  1.
         23    2    1    2    0    0  0.11329104601E+04  0.72365902385E+03  0.11645832667E+04  0.17810054730E+04  0.92508467064E+02 0.  0.
        254    2    1    2    0    0 -0.11329104601E+04 -0.72365902385E+03 -0.79022389236E+03  0.18046225215E+04  0.90831720870E+03 0.  0.
        -24    2    4    4    0    0 -0.36083931543E+03 -0.34639770037E+02 -0.66207566627E+03  0.75885205798E+03  0.78149426153E+02 0.  0.
         24    2    4    4    0    0 -0.77207114467E+03 -0.68901925381E+03 -0.12814822610E+03  0.10457704635E+04  0.79828002297E+02 0.  0.
         11    1    3    3    0    0  0.12596038873E+03  0.11626727544E+03  0.15598056493E+03  0.23176288638E+03  0.00000000000E+00 0.  1.
        -11    1    3    3    0    0  0.10069500714E+04  0.60739174841E+03  0.10086027018E+04  0.15492425867E+04  0.00000000000E+00 0. -1.
          2    1    6    6  502    0 -0.76041598340E+03 -0.68894269734E+03 -0.12489673914E+03  0.10336700167E+04  0.00000000000E+00 0. -1.
          1    1    5    5  503    0 -0.31698993577E+03 -0.27713967091E+02 -0.62366237239E+03  0.70014672611E+03  0.00000000000E+00 0. -1.
         -2    1    5    5    0  503 -0.43849379662E+02 -0.69258029463E+01 -0.38413293878E+02  0.58705331868E+02  0.00000000000E+00 0.  1.
         -1    1    6    6    0  502 -0.11655161270E+02 -0.76556475192E-01 -0.32514869538E+01  0.12100446791E+02  0.00000000000E+00 0.  1.
<mgrwt>
<rscale>  0 0.35660319E+04</rscale>
<asrwt>0</asrwt>
<pdfrwt beam="1">  1        2 0.30461441E+00 0.35660319E+04</pdfrwt>
<pdfrwt beam="2">  1       -2 0.24702066E+00 0.35660319E+04</pdfrwt>
<totfact> 0.37558360E-01</totfact>
</mgrwt>
</event>
<event>
12    1  0.1467288E-007  0.1525897E+04  0.7818608E-02  0.8867412E-01
         -1   -1    0    0    0  501 -0.00000000000E+00  0.00000000000E+00  0.12320034958E+04  0.12320034958E+04  0.00000000000E+00 0.  1.
          1   -1    0    0  501    0  0.00000000000E+00 -0.00000000000E+00 -0.47247452598E+03  0.47247452598E+03  0.00000000000E+00 0. -1.
         23    2    1    2    0    0  0.45961989092E+03  0.71883141941E+02  0.42813808971E+03  0.63863718150E+03  0.90208622148E+02 0.  0.
        254    2    1    2    0    0 -0.45961989092E+03 -0.71883141941E+02  0.33139088012E+03  0.10658408403E+04  0.89987729784E+03 0.  0.
        -24    2    4    4    0    0 -0.69895875960E+03 -0.16788103225E+03  0.14357686174E+03  0.73730764006E+03  0.79251828126E+02 0.  0.
         24    2    4    4    0    0  0.23933886868E+03  0.95997890305E+02  0.18781401837E+03  0.32853320022E+03  0.78493752292E+02 0.  0.
         13    1    3    3    0    0  0.16244984583E+03 -0.30830632962E+00  0.19676321954E+03  0.25515840576E+03  0.00000000000E+00 0.  1.
        -13    1    3    3    0    0  0.29717004509E+03  0.72191448271E+02  0.23137487017E+03  0.38347877575E+03  0.00000000000E+00 0. -1.
          2    1    6    6  502    0  0.30395140656E+02 -0.49132729070E+01  0.49815172798E+02  0.58562413433E+02  0.00000000000E+00 0. -1.
          3    1    5    5  503    0 -0.10813147876E+01  0.40021144096E+01  0.25578656621E+01  0.48712255299E+01  0.00000000000E+00 0. -1.
         -4    1    5    5    0  503 -0.69787744481E+03 -0.17188314666E+03  0.14101899608E+03  0.73243641453E+03  0.00000000000E+00 0.  1.
         -1    1    6    6    0  502  0.20894372802E+03  0.10091116321E+03  0.13799884557E+03  0.26997078679E+03  0.00000000000E+00 0.  1.
<mgrwt>
<rscale>  0 0.15258968E+04</rscale>
<asrwt>0</asrwt>
<pdfrwt beam="1">  1        1 0.72688389E-01 0.15258968E+04</pdfrwt>
<pdfrwt beam="2">  1       -1 0.18953900E+00 0.15258968E+04</pdfrwt>
<totfact> 0.82324693E+00</totfact>
</mgrwt>
</event>
<event>
12    1  0.1467288E-007  0.1450315E+04  0.7818608E-02  0.8918182E-01
         -1   -1    0    0    0  501 -0.00000000000E+00  0.00000000000E+00  0.36832276398E+03  0.36832276398E+03  0.00000000000E+00 0.  1.
          1   -1    0    0  501    0  0.00000000000E+00 -0.00000000000E+00 -0.14276965470E+04  0.14276965470E+04  0.00000000000E+00 0. -1.
         23    2    1    2    0    0 -0.18623298796E+03 -0.38101274304E+03 -0.18734136307E+03  0.47219103171E+03  0.89521773588E+02 0.  0.
        254    2    1    2    0    0  0.18623298796E+03  0.38101274304E+03 -0.87203241999E+03  0.13238282793E+04  0.90123655909E+03 0.  0.
        -24    2    4    4    0    0  0.24202602937E+02  0.14625133845E+03 -0.98987525359E+03  0.10041467043E+04  0.80513142573E+02 0.  0.
         24    2    4    4    0    0  0.16203038503E+03  0.23476140460E+03  0.11784283360E+03  0.31968157500E+03  0.83322345188E+02 0.  0.
         13    1    3    3    0    0 -0.12108214239E+03 -0.15304200650E+03 -0.10204024343E+03  0.22021569481E+03  0.00000000000E+00 0. -1.
        -13    1    3    3    0    0 -0.65150845576E+02 -0.22797073654E+03 -0.85301119639E+02  0.25197533690E+03  0.00000000000E+00 0.  1.
          4    1    6    6  502    0  0.15201444014E+03  0.24087280876E+03  0.11698136493E+03  0.30791677407E+03  0.00000000000E+00 0. -1.
          1    1    5    5  503    0  0.27879021595E+02  0.15569961612E+03 -0.91215452273E+03  0.92576751058E+03  0.00000000000E+00 0. -1.
         -2    1    5    5    0  503 -0.36764186572E+01 -0.94482776745E+01 -0.77720730857E+02  0.78379193732E+02  0.00000000000E+00 0.  1.
         -3    1    6    6    0  502  0.10015944885E+02 -0.61114041661E+01  0.86146867261E+00  0.11764800937E+02  0.00000000000E+00 0.  1.
<mgrwt>
<rscale>  0 0.14503146E+04</rscale>
<asrwt>0</asrwt>
<pdfrwt beam="1">  1        1 0.21964562E+00 0.14503146E+04</pdfrwt>
<pdfrwt beam="2">  1       -1 0.56665040E-01 0.14503146E+04</pdfrwt>
<totfact> 0.22490529E+01</totfact>
</mgrwt>
</event>
<event>
12    1  0.1467288E-007  0.1510313E+04  0.7818608E-02  0.8877624E-01
          2   -1    0    0  501    0  0.00000000000E+00  0.00000000000E+00  0.14532067567E+04  0.14532067567E+04  0.00000000000E+00 0.  1.
         -2   -1    0    0    0  501 -0.00000000000E+00 -0.00000000000E+00 -0.39241597630E+03  0.39241597630E+03  0.00000000000E+00 0. -1.
         23    2    1    2    0    0 -0.24827848415E+03  0.19721175148E+03 -0.10662684375E+03  0.34660239981E+03  0.90715264076E+02 0.  0.
        254    2    1    2    0    0  0.24827848415E+03 -0.19721175148E+03  0.11674176241E+04  0.14990203332E+04  0.88524763174E+03 0.  0.
        -24    2    4    4    0    0  0.52640106699E+03 -0.32505673348E+03  0.77297215892E+03  0.99322234890E+03  0.79023493816E+02 0.  0.
         24    2    4    4    0    0 -0.27812258285E+03  0.12784498200E+03  0.39444546522E+03  0.50579798427E+03  0.80918881313E+02 0.  0.
         11    1    3    3    0    0 -0.17416688592E+03  0.99828163823E+02 -0.99408167471E+02  0.22401283490E+03  0.00000000000E+00 0. -1.
        -11    1    3    3    0    0 -0.74111598230E+02  0.97383587659E+02 -0.72186762785E+01  0.12258956491E+03  0.00000000000E+00 0.  1.
          4    1    6    6  502    0 -0.13704204994E+03  0.10727399922E+03  0.21842027796E+03  0.27927701693E+03  0.00000000000E+00 0. -1.
          3    1    5    5  503    0  0.37245345983E+02 -0.47014991105E+02  0.92720748151E+02  0.11042989778E+03  0.00000000000E+00 0. -1.
         -4    1    5    5    0  503  0.48915572101E+03 -0.27804174238E+03  0.68025141077E+03  0.88279245112E+03  0.00000000000E+00 0.  1.
         -3    1    6    6    0  502 -0.14108053291E+03  0.20570982780E+02  0.17602518726E+03  0.22652096735E+03  0.00000000000E+00 0.  1.
<mgrwt>
<rscale>  0 0.15103133E+04</rscale>
<asrwt>0</asrwt>
<pdfrwt beam="1">  1        2 0.22357027E+00 0.15103133E+04</pdfrwt>
<pdfrwt beam="2">  1       -2 0.60371690E-01 0.15103133E+04</pdfrwt>
<totfact> 0.33296889E+01</totfact>
</mgrwt>
</event>
<event>
12    1  0.1467288E-007  0.2271698E+04  0.7818608E-02  0.8489165E-01
         -1   -1    0    0    0  501 -0.00000000000E+00  0.00000000000E+00  0.17480953850E+04  0.17480953850E+04  0.00000000000E+00 0.  1.
          1   -1    0    0  501    0  0.00000000000E+00 -0.00000000000E+00 -0.73803343876E+03  0.73803343876E+03  0.00000000000E+00 0. -1.
         23    2    1    2    0    0  0.23854616382E+03 -0.91548421885E+03  0.25786766886E+03  0.98479862851E+03  0.91197460707E+02 0.  0.
        254    2    1    2    0    0 -0.23854616382E+03  0.91548421885E+03  0.75219427743E+03  0.15013301953E+04  0.89060681396E+03 0.  0.
        -24    2    4    4    0    0  0.52569647481E+02  0.98319316800E+03  0.53260232934E+03  0.11222101277E+04  0.79107244513E+02 0.  0.
         24    2    4    4    0    0 -0.29111581130E+03 -0.67708949150E+02  0.21959194809E+03  0.37912006756E+03  0.78603336934E+02 0.  0.
         11    1    3    3    0    0  0.24600183648E+03 -0.89584867083E+03  0.24771394636E+03  0.96146967908E+03  0.00000000000E+00 0. -1.
        -11    1    3    3    0    0 -0.74556726566E+01 -0.19635548023E+02  0.10153722499E+02  0.23328949430E+02  0.00000000000E+00 0.  1.
          2    1    6    6  502    0 -0.14761458507E+03 -0.58129812403E+02  0.15381669433E+03  0.22097220701E+03  0.00000000000E+00 0. -1.
          1    1    5    5  503    0  0.37064497669E+02  0.74455719304E+03  0.36391623214E+03  0.82956266473E+03  0.00000000000E+00 0. -1.
         -2    1    5    5    0  503  0.15505149811E+02  0.23863597496E+03  0.16868609721E+03  0.29264746301E+03  0.00000000000E+00 0.  1.
         -1    1    6    6    0  502 -0.14350122623E+03 -0.95791367473E+01  0.65775253758E+02  0.15814786055E+03  0.00000000000E+00 0.  1.
<mgrwt>
<rscale>  0 0.22716979E+04</rscale>
<asrwt>0</asrwt>
<pdfrwt beam="1">  1        1 0.11354361E+00 0.22716979E+04</pdfrwt>
<pdfrwt beam="2">  1       -1 0.26893775E+00 0.22716979E+04</pdfrwt>
<totfact> 0.11946282E+00</totfact>
</mgrwt>
</event>
<event>
12    1  0.1467288E-007  0.1107506E+04  0.7818608E-02  0.9197906E-01
         -1   -1    0    0    0  501 -0.00000000000E+00  0.00000000000E+00  0.35035637214E+03  0.35035637214E+03  0.00000000000E+00 0.  1.
          1   -1    0    0  501    0  0.00000000000E+00 -0.00000000000E+00 -0.87523036926E+03  0.87523036926E+03  0.00000000000E+00 0. -1.
         23    2    1    2    0    0 -0.16754178606E+03 -0.17455143241E+02 -0.15684667108E+03  0.24634952551E+03  0.87819578610E+02 0.  0.
        254    2    1    2    0    0  0.16754178606E+03  0.17455143241E+02 -0.36802732605E+03  0.97923721590E+03  0.89167621936E+03 0.  0.
        -24    2    4    4    0    0  0.18595839630E+02 -0.62468272791E+02  0.28368001369E+03  0.30113631288E+03  0.77205170887E+02 0.  0.
         24    2    4    4    0    0  0.14894594643E+03  0.79923416032E+02 -0.65170733973E+03  0.67810090302E+03  0.80781994444E+02 0.  0.
         11    1    3    3    0    0  0.14352190216E+01  0.10855819242E+02 -0.33475991849E+02  0.35221452203E+02  0.00000000000E+00 0.  1.
        -11    1    3    3    0    0 -0.16897700508E+03 -0.28310962483E+02 -0.12337067923E+03  0.21112807330E+03  0.00000000000E+00 0. -1.
          4    1    6    6  502    0  0.13346978382E+03  0.43938075005E+02 -0.57561242691E+03  0.59251531933E+03  0.00000000000E+00 0. -1.
          1    1    5    5  503    0 -0.18422441704E+02 -0.31387127667E+01  0.14107791904E+03  0.14231028465E+03  0.00000000000E+00 0. -1.
         -2    1    5    5    0  503  0.37018281335E+02 -0.59329560024E+02  0.14260209465E+03  0.15882602823E+03  0.00000000000E+00 0.  1.
         -3    1    6    6    0  502  0.15476162611E+02  0.35985341026E+02 -0.76094912822E+02  0.85585583689E+02  0.00000000000E+00 0.  1.
<mgrwt>
<rscale>  0 0.11075063E+04</rscale>
<asrwt>0</asrwt>
<pdfrwt beam="1">  1        1 0.13465082E+00 0.11075063E+04</pdfrwt>
<pdfrwt beam="2">  1       -1 0.53900981E-01 0.11075063E+04</pdfrwt>
<totfact> 0.66000141E+01</totfact>
</mgrwt>
</event>
<event>
12    1  0.1935575E-007  0.1825098E+04  0.7818608E-02  0.8693065E-01
         -1   -1    0    0    0  501 -0.00000000000E+00  0.00000000000E+00  0.55896355855E+03  0.55896355855E+03  0.00000000000E+00 0.  1.
          1   -1    0    0  501    0  0.00000000000E+00 -0.00000000000E+00 -0.14898027744E+04  0.14898027744E+04  0.00000000000E+00 0. -1.
         23    2    1    2    0    0 -0.19891855202E+02  0.30166348250E+03 -0.10352001131E+04  0.10826613952E+04  0.95498062159E+02 0.  0.
        254    2    1    2    0    0  0.19891855202E+02 -0.30166348250E+03  0.10436089722E+03  0.96610493780E+03  0.91163096229E+03 0.  0.
        -24    2    4    4    0    0  0.10673501597E+03 -0.46041793183E+02  0.47734226279E+03  0.49782123404E+03  0.80362521456E+02 0.  0.
         24    2    4    4    0    0 -0.86843160765E+02 -0.25562168931E+03 -0.37298136558E+03  0.46828370377E+03  0.85383520213E+02 0.  0.
         11    1    3    3    0    0 -0.74111410270E+01  0.26781454887E+03 -0.98536580490E+03  0.10211392300E+04  0.00000000000E+00 0. -1.
        -11    1    3    3    0    0 -0.12480714175E+02  0.33848933625E+02 -0.49834308219E+02  0.61522165189E+02  0.00000000000E+00 0.  1.
          2    1    6    6  502    0 -0.40162258753E+02 -0.68976563424E+02 -0.56067991733E+02  0.97541750174E+02  0.00000000000E+00 0. -1.
          3    1    5    5  503    0  0.94770019046E+00  0.16744629574E+02  0.37100042218E+02  0.40714787090E+02  0.00000000000E+00 0. -1.
         -2    1    5    5    0  503  0.10578731578E+03 -0.62786422757E+02  0.44024222058E+03  0.45710644695E+03  0.00000000000E+00 0.  1.
         -1    1    6    6    0  502 -0.46680902013E+02 -0.18664512589E+03 -0.31691337384E+03  0.37074195359E+03  0.00000000000E+00 0.  1.
<mgrwt>
<rscale>  0 0.18250978E+04</rscale>
<asrwt>0</asrwt>
<pdfrwt beam="1">  1        1 0.22920042E+00 0.18250978E+04</pdfrwt>
<pdfrwt beam="2">  1       -1 0.85994395E-01 0.18250978E+04</pdfrwt>
<totfact> 0.83570941E+00</totfact>
</mgrwt>
</event>
<event>
12    1  0.1467288E-007  0.1171206E+04  0.7818608E-02  0.9138440E-01
          1   -1    0    0  501    0  0.00000000000E+00  0.00000000000E+00  0.16212072187E+04  0.16212072187E+04  0.00000000000E+00 0. -1.
         -1   -1    0    0    0  501 -0.00000000000E+00 -0.00000000000E+00 -0.21152809075E+03  0.21152809075E+03  0.00000000000E+00 0.  1.
         23    2    1    2    0    0 -0.78388453346E+02 -0.91476383089E+01  0.64412949179E+03  0.65560465802E+03  0.93199981324E+02 0.  0.
        254    2    1    2    0    0  0.78388453346E+02  0.91476383089E+01  0.76554963611E+03  0.11771306514E+04  0.89069742121E+03 0.  0.
        -24    2    4    4    0    0 -0.15909465746E+03 -0.21052119508E+03  0.79617828429E+03  0.84245839409E+03  0.78778180904E+02 0.  0.
         24    2    4    4    0    0  0.23748311080E+03  0.21966883339E+03 -0.30628648181E+02  0.33467225728E+03  0.80092330634E+02 0.  0.
         11    1    3    3    0    0 -0.64683677616E+02 -0.20868293184E+02  0.62719405785E+03  0.63086595249E+03  0.00000000000E+00 0. -1.
        -11    1    3    3    0    0 -0.13704775730E+02  0.11720654875E+02  0.16935433941E+02  0.24738705530E+02  0.00000000000E+00 0.  1.
          2    1    6    6  502    0  0.20535458458E+03  0.16636547443E+03 -0.51044471576E+02  0.26917190524E+03  0.00000000000E+00 0. -1.
          3    1    5    5  503    0 -0.12071879732E+03 -0.20262214942E+03  0.69681958040E+03  0.73565364887E+03  0.00000000000E+00 0. -1.
         -4    1    5    5    0  503 -0.38375860133E+02 -0.78990456628E+01  0.99358703891E+02  0.10680474522E+03  0.00000000000E+00 0.  1.
         -1    1    6    6    0  502  0.32128526228E+02  0.53303358957E+02  0.20415823394E+02  0.65500352049E+02  0.00000000000E+00 0.  1.
<mgrwt>
<rscale>  0 0.11712060E+04</rscale>
<asrwt>0</asrwt>
<pdfrwt beam="1">  1        1 0.24941649E+00 0.11712060E+04</pdfrwt>
<pdfrwt beam="2">  1       -1 0.32542784E-01 0.11712060E+04</pdfrwt>
<totfact> 0.47296678E+01</totfact>
</mgrwt>
</event>
<event>
12    1  0.1467288E-007  0.1996235E+04  0.7818608E-02  0.8608383E-01
          1   -1    0    0  501    0  0.00000000000E+00  0.00000000000E+00  0.17100893363E+04  0.17100893363E+04  0.00000000000E+00 0. -1.
         -1   -1    0    0    0  501 -0.00000000000E+00 -0.00000000000E+00 -0.58256514163E+03  0.58256514163E+03  0.00000000000E+00 0.  1.
         23    2    1    2    0    0 -0.77602836186E+02 -0.39738606964E+02 -0.45855019377E+03  0.47527765866E+03  0.89550072830E+02 0.  0.
        254    2    1    2    0    0  0.77602836186E+02  0.39738606964E+02  0.15860743884E+04  0.18173768192E+04  0.88296386134E+03 0.  0.
        -24    2    4    4    0    0  0.40821962450E+03 -0.20847204245E+03  0.87447977317E+03  0.99058440792E+03  0.80241767237E+02 0.  0.
         24    2    4    4    0    0 -0.33061678832E+03  0.24821064941E+03  0.71159461526E+03  0.82679241133E+03  0.79390224626E+02 0.  0.
         11    1    3    3    0    0 -0.40068315627E+02  0.23856172057E+02 -0.11944628073E+03  0.12822636563E+03  0.00000000000E+00 0. -1.
        -11    1    3    3    0    0 -0.37534520559E+02 -0.63594779021E+02 -0.33910391304E+03  0.34705129303E+03  0.00000000000E+00 0.  1.
          4    1    6    6  502    0 -0.33190839335E+03  0.25186672432E+03  0.70057669425E+03  0.81511209838E+03  0.00000000000E+00 0. -1.
          3    1    5    5  503    0  0.11274284340E+03 -0.45263521682E+02  0.16505139527E+03  0.20494315850E+03  0.00000000000E+00 0. -1.
         -4    1    5    5    0  503  0.29547678110E+03 -0.16320852077E+03  0.70942837790E+03  0.78564124942E+03  0.00000000000E+00 0.  1.
         -3    1    6    6    0  502  0.12916050372E+01 -0.36560749022E+01  0.11017921009E+02  0.11680312950E+02  0.00000000000E+00 0.  1.
<mgrwt>
<rscale>  0 0.19962349E+04</rscale>
<asrwt>0</asrwt>
<pdfrwt beam="1">  1        1 0.26309066E+00 0.19962349E+04</pdfrwt>
<pdfrwt beam="2">  1       -1 0.89625407E-01 0.19962349E+04</pdfrwt>
<totfact> 0.53063210E+00</totfact>
</mgrwt>
</event>
<event>
12    1  0.1648809E-007  0.2782190E+04  0.7818608E-02  0.8308819E-01
         -1   -1    0    0    0  501 -0.00000000000E+00  0.00000000000E+00  0.71491759521E+03  0.71491759521E+03  0.00000000000E+00 0. -1.
          1   -1    0    0  501    0  0.00000000000E+00 -0.00000000000E+00 -0.27068097242E+04  0.27068097242E+04  0.00000000000E+00 0.  1.
         23    2    1    2    0    0  0.50730154326E+03 -0.10670997697E+04 -0.41560168088E+03  0.12554685778E+04  0.86138367556E+02 0.  0.
        254    2    1    2    0    0 -0.50730154326E+03  0.10670997697E+04 -0.15762904481E+04  0.21662587417E+04  0.90107079896E+03 0.  0.
        -24    2    4    4    0    0 -0.67329372808E+03  0.78613263197E+03 -0.77037652498E+03  0.12926908046E+04  0.78997257040E+02 0.  0.
         24    2    4    4    0    0  0.16599218482E+03  0.28096713771E+03 -0.80591392314E+03  0.87356793710E+03  0.84426010955E+02 0.  0.
         11    1    3    3    0    0  0.47721977612E+03 -0.10327978651E+04 -0.41070791709E+03  0.12095830431E+04  0.00000000000E+00 0.  1.
        -11    1    3    3    0    0  0.30081767139E+02 -0.34301904570E+02 -0.48937637879E+01  0.45885534707E+02  0.00000000000E+00 0. -1.
          4    1    6    6  502    0  0.44974551173E+02  0.55469938453E+02 -0.10148616246E+03  0.12409297118E+03  0.00000000000E+00 0. -1.
          1    1    5    5  503    0 -0.16129396619E+03  0.18842902905E+03 -0.22780867515E+03  0.33677594182E+03  0.00000000000E+00 0. -1.
         -2    1    5    5    0  503 -0.51199976190E+03  0.59770360292E+03 -0.54256784983E+03  0.95591486273E+03  0.00000000000E+00 0.  1.
         -3    1    6    6    0  502  0.12101763365E+03  0.22549719925E+03 -0.70442776069E+03  0.74947496593E+03  0.00000000000E+00 0.  1.
<mgrwt>
<rscale>  0 0.27821904E+04</rscale>
<asrwt>0</asrwt>
<pdfrwt beam="1">  1        1 0.41643226E+00 0.27821904E+04</pdfrwt>
<pdfrwt beam="2">  1       -1 0.10998732E+00 0.27821904E+04</pdfrwt>
<totfact> 0.64206644E-01</totfact>
</mgrwt>
</event>
<event>
12    1  0.1467288E-007  0.1772861E+04  0.7818608E-02  0.8720866E-01
         -2   -1    0    0    0  501 -0.00000000000E+00  0.00000000000E+00  0.36074371890E+03  0.36074371890E+03  0.00000000000E+00 0.  1.
          2   -1    0    0  501    0  0.00000000000E+00 -0.00000000000E+00 -0.21781644453E+04  0.21781644453E+04  0.00000000000E+00 0. -1.
         23    2    1    2    0    0  0.51684899525E+03 -0.97063627046E+02 -0.11120423361E+03  0.54541762117E+03  0.92519015985E+02 0.  0.
        254    2    1    2    0    0 -0.51684899525E+03  0.97063627046E+02 -0.17062164928E+04  0.19934905430E+04  0.88672182408E+03 0.  0.
        -24    2    4    4    0    0 -0.66823169620E+03 -0.11404684968E+03 -0.82320974396E+03  0.10700737016E+04  0.88561620783E+02 0.  0.
         24    2    4    4    0    0  0.15138270094E+03  0.21111047673E+03 -0.88300674880E+03  0.92341684136E+03  0.74252198316E+02 0.  0.
         13    1    3    3    0    0  0.13058351422E+03 -0.28350047213E+02 -0.70221836972E+02  0.15095325684E+03  0.00000000000E+00 0. -1.
        -13    1    3    3    0    0  0.38626548103E+03 -0.68713579833E+02 -0.40982396642E+02  0.39446436433E+03  0.00000000000E+00 0.  1.
          4    1    6    6  502    0  0.46043159390E+01 -0.21699696814E+01 -0.69900871822E+02  0.70085949912E+02  0.00000000000E+00 0. -1.
          1    1    5    5  503    0 -0.15665747919E+03 -0.12405945672E+02 -0.13949745005E+03  0.21013093976E+03  0.00000000000E+00 0. -1.
         -2    1    5    5    0  503 -0.51157421701E+03 -0.10164090401E+03 -0.68371229390E+03  0.85994276188E+03  0.00000000000E+00 0.  1.
         -1    1    6    6    0  502  0.14677838500E+03  0.21328044641E+03 -0.81310587698E+03  0.85333089145E+03  0.00000000000E+00 0.  1.
<mgrwt>
<rscale>  0 0.17728611E+04</rscale>
<asrwt>0</asrwt>
<pdfrwt beam="1">  1        2 0.33510223E+00 0.17728611E+04</pdfrwt>
<pdfrwt beam="2">  1       -2 0.55499032E-01 0.17728611E+04</pdfrwt>
<totfact> 0.15338062E+01</totfact>
</mgrwt>
</event>
<event>
12    1  0.1467288E-007  0.1314880E+04  0.7818608E-02  0.9017848E-01
         -2   -1    0    0    0  501 -0.00000000000E+00  0.00000000000E+00  0.25145531197E+03  0.25145531197E+03  0.00000000000E+00 0.  1.
          2   -1    0    0  501    0  0.00000000000E+00 -0.00000000000E+00 -0.17189026418E+04  0.17189026418E+04  0.00000000000E+00 0. -1.
         23    2    1    2    0    0  0.31434575777E+03  0.83047555830E+02 -0.29504828546E+03  0.45442930534E+03  0.11722777331E+03 0.  0.
        254    2    1    2    0    0 -0.31434575777E+03 -0.83047555830E+02 -0.11723990444E+04  0.15159286484E+04  0.90432847791E+03 0.  0.
        -24    2    4    4    0    0 -0.40755393181E+03  0.45105511033E+02 -0.12515650804E+04  0.13195981258E+04  0.82397503572E+02 0.  0.
         24    2    4    4    0    0  0.93208174044E+02 -0.12815306686E+03  0.79166036030E+02  0.19633052267E+03  0.84660738346E+02 0.  0.
         11    1    3    3    0    0  0.82515378954E+02  0.55660396811E+02 -0.14859486858E+03  0.17884994410E+03  0.00000000000E+00 0. -1.
        -11    1    3    3    0    0  0.23183037882E+03  0.27387159018E+02 -0.14645341688E+03  0.27557936123E+03  0.00000000000E+00 0.  1.
          2    1    6    6  502    0  0.10059644667E+03 -0.83740978472E+02  0.40582168776E+02  0.13703688912E+03  0.00000000000E+00 0. -1.
          1    1    5    5  503    0 -0.38269105154E+03  0.44997168177E+02 -0.12200707674E+04  0.12794724942E+04  0.00000000000E+00 0. -1.
         -2    1    5    5    0  503 -0.24862880275E+02  0.10834285533E+00 -0.31494313003E+02  0.40125631525E+02  0.00000000000E+00 0.  1.
         -1    1    6    6    0  502 -0.73882726219E+01 -0.44412088390E+02  0.38583867254E+02  0.59293633552E+02  0.00000000000E+00 0.  1.
<mgrwt>
<rscale>  0 0.13148798E+04</rscale>
<asrwt>0</asrwt>
<pdfrwt beam="1">  1        2 0.26444657E+00 0.13148798E+04</pdfrwt>
<pdfrwt beam="2">  1       -2 0.38685432E-01 0.13148798E+04</pdfrwt>
<totfact> 0.59168329E+01</totfact>
</mgrwt>
</event>
<event>
12    1  0.1467288E-007  0.1302993E+04  0.7818608E-02  0.9027195E-01
         -1   -1    0    0    0  501 -0.00000000000E+00  0.00000000000E+00  0.41845350299E+03  0.41845350299E+03  0.00000000000E+00 0.  1.
          1   -1    0    0  501    0  0.00000000000E+00 -0.00000000000E+00 -0.10143240178E+04  0.10143240178E+04  0.00000000000E+00 0. -1.
         23    2    1    2    0    0 -0.19734511376E+03 -0.15936444980E+03  0.76862335936E+02  0.27991716897E+03  0.90020447760E+02 0.  0.
        254    2    1    2    0    0  0.19734511376E+03  0.15936444980E+03 -0.67273285078E+03  0.11528603519E+04  0.90120773442E+03 0.  0.
        -24    2    4    4    0    0  0.51518798998E+03  0.27439282597E+03 -0.43434480550E+03  0.73184425520E+03  0.78933616661E+02 0.  0.
         24    2    4    4    0    0 -0.31784287623E+03 -0.11502837617E+03 -0.23838804529E+03  0.42101609666E+03  0.78549807233E+02 0.  0.
         11    1    3    3    0    0 -0.20302288448E+03 -0.14513098536E+03  0.59112444252E+02  0.25646749424E+03  0.00000000000E+00 0.  1.
        -11    1    3    3    0    0  0.56777707229E+01 -0.14233464441E+02  0.17749891685E+02  0.23449674735E+02  0.00000000000E+00 0. -1.
          2    1    6    6  502    0 -0.26612422763E+03 -0.12539094235E+03 -0.20558491308E+03  0.35890130878E+03  0.00000000000E+00 0. -1.
          1    1    5    5  503    0  0.49013612347E+03  0.27503338963E+03 -0.40235027826E+03  0.69120368297E+03  0.00000000000E+00 0. -1.
         -2    1    5    5    0  503  0.25051866514E+02 -0.64056365968E+00 -0.31994527240E+02  0.40640572227E+02  0.00000000000E+00 0.  1.
         -1    1    6    6    0  502 -0.51718648602E+02  0.10362566186E+02 -0.32803132201E+02  0.62114787880E+02  0.00000000000E+00 0.  1.
<mgrwt>
<rscale>  0 0.13029926E+04</rscale>
<asrwt>0</asrwt>
<pdfrwt beam="1">  1        1 0.15604985E+00 0.13029926E+04</pdfrwt>
<pdfrwt beam="2">  1       -1 0.64377462E-01 0.13029926E+04</pdfrwt>
<totfact> 0.35445240E+01</totfact>
</mgrwt>
</event>
<event>
12    1  0.1467288E-007  0.1735112E+04  0.7818608E-02  0.8741588E-01
         -2   -1    0    0    0  501 -0.00000000000E+00  0.00000000000E+00  0.35159981076E+03  0.35159981076E+03  0.00000000000E+00 0.  1.
          2   -1    0    0  501    0  0.00000000000E+00 -0.00000000000E+00 -0.21406538174E+04  0.21406538174E+04  0.00000000000E+00 0. -1.
         23    2    1    2    0    0 -0.94088749531E+02  0.12463518442E+03 -0.15419123365E+04  0.15525017560E+04  0.91550133817E+02 0.  0.
        254    2    1    2    0    0  0.94088749531E+02 -0.12463518442E+03 -0.24714167011E+03  0.93975187211E+03  0.89312258623E+03 0.  0.
        -24    2    4    4    0    0 -0.34891029388E+03 -0.24597710789E+03 -0.17313416876E+03  0.46791537030E+03  0.82013551271E+02 0.  0.
         24    2    4    4    0    0  0.44299904342E+03  0.12134192347E+03 -0.74007501352E+02  0.47183650180E+03  0.78616533372E+02 0.  0.
         13    1    3    3    0    0 -0.89194987193E+02  0.85308334281E+02 -0.79354879226E+03  0.80308962348E+03  0.00000000000E+00 0.  1.
        -13    1    3    3    0    0 -0.48937623376E+01  0.39326850135E+02 -0.74836354424E+03  0.74941213254E+03  0.00000000000E+00 0. -1.
          4    1    6    6  502    0  0.15045978878E+03  0.11739653150E+02 -0.47964765752E+02  0.15835588480E+03  0.00000000000E+00 0. -1.
          1    1    5    5  503    0 -0.15134007174E+03 -0.65219346137E+02 -0.43691693733E+02  0.17048854661E+03  0.00000000000E+00 0. -1.
         -2    1    5    5    0  503 -0.19757022215E+03 -0.18075776175E+03 -0.12944247502E+03  0.29742682369E+03  0.00000000000E+00 0.  1.
         -1    1    6    6    0  502  0.29253925463E+03  0.10960227032E+03 -0.26042735600E+02  0.31348061700E+03  0.00000000000E+00 0.  1.
<mgrwt>
<rscale>  0 0.17351121E+04</rscale>
<asrwt>0</asrwt>
<pdfrwt beam="1">  1        2 0.32933135E+00 0.17351121E+04</pdfrwt>
<pdfrwt beam="2">  1       -2 0.54092280E-01 0.17351121E+04</pdfrwt>
<totfact> 0.17033865E+01</totfact>
</mgrwt>
</event>
<event>
12    1  0.1467288E-007  0.1189731E+04  0.7818608E-02  0.9121893E-01
         -2   -1    0    0    0  501 -0.00000000000E+00  0.00000000000E+00  0.10940906975E+04  0.10940906975E+04  0.00000000000E+00 0.  1.
          2   -1    0    0  501    0  0.00000000000E+00 -0.00000000000E+00 -0.32343281453E+03  0.32343281453E+03  0.00000000000E+00 0. -1.
         23    2    1    2    0    0 -0.18312689805E+02  0.15242177945E+03 -0.53189513582E+02  0.19094053739E+03  0.10030658504E+03 0.  0.
        254    2    1    2    0    0  0.18312689805E+02 -0.15242177945E+03  0.82384739651E+03  0.12265829746E+04  0.89566372451E+03 0.  0.
        -24    2    4    4    0    0 -0.12259438146E+03  0.30242518282E+03  0.61441527183E+03  0.70031200862E+03  0.80252162549E+02 0.  0.
         24    2    4    4    0    0  0.14090707126E+03 -0.45484696227E+03  0.20943212468E+03  0.52627096599E+03  0.79741789389E+02 0.  0.
         13    1    3    3    0    0 -0.22779485914E+02  0.11457120729E+03  0.98997041860E+01  0.11723254949E+03  0.00000000000E+00 0. -1.
        -13    1    3    3    0    0  0.44667961087E+01  0.37850572164E+02 -0.63089217768E+02  0.73707987893E+02  0.00000000000E+00 0.  1.
          2    1    6    6  502    0  0.86614471022E+02 -0.29343456435E+03  0.17520798481E+03  0.35256736674E+03  0.00000000000E+00 0. -1.
          3    1    5    5  503    0 -0.85268961455E+02  0.18461074137E+03  0.29946688933E+03  0.36198389387E+03  0.00000000000E+00 0. -1.
         -4    1    5    5    0  503 -0.37325420002E+02  0.11781444145E+03  0.31494838250E+03  0.33832811475E+03  0.00000000000E+00 0.  1.
         -1    1    6    6    0  502  0.54292600239E+02 -0.16141239792E+03  0.34224139870E+02  0.17370359925E+03  0.00000000000E+00 0.  1.
<mgrwt>
<rscale>  0 0.11897308E+04</rscale>
<asrwt>0</asrwt>
<pdfrwt beam="1">  1        2 0.49758895E-01 0.11897308E+04</pdfrwt>
<pdfrwt beam="2">  1       -2 0.16832164E+00 0.11897308E+04</pdfrwt>
<totfact> 0.21812321E+01</totfact>
</mgrwt>
</event>
<event>
12    1  0.1467288E-007  0.1506579E+04  0.7818608E-02  0.8880090E-01
          2   -1    0    0  501    0  0.00000000000E+00  0.00000000000E+00  0.27736454876E+04  0.27736454876E+04  0.00000000000E+00 0. -1.
         -2   -1    0    0    0  501 -0.00000000000E+00 -0.00000000000E+00 -0.20458466074E+03  0.20458466074E+03  0.00000000000E+00 0.  1.
         23    2    1    2    0    0 -0.99197229364E+02 -0.20617213468E+03  0.18224781298E+04  0.18390071767E+04  0.90409197791E+02 0.  0.
        254    2    1    2    0    0  0.99197229364E+02  0.20617213468E+03  0.74658269702E+03  0.11392229716E+04  0.82951565146E+03 0.  0.
        -24    2    4    4    0    0  0.15976466082E+03  0.40602802510E+03  0.99257606988E+02  0.45439820319E+03  0.79007281358E+02 0.  0.
         24    2    4    4    0    0 -0.60567431455E+02 -0.19985589042E+03  0.64732509003E+03  0.68482476837E+03  0.79651745160E+02 0.  0.
         11    1    3    3    0    0 -0.49878788833E+02 -0.25580598794E+02  0.54686212665E+03  0.54972761089E+03  0.00000000000E+00 0.  1.
        -11    1    3    3    0    0 -0.49318440531E+02 -0.18059153589E+03  0.12756160032E+04  0.12892795659E+04  0.00000000000E+00 0. -1.
          4    1    6    6  502    0  0.15792128725E+02 -0.12103821979E+02  0.42163430522E+02  0.46622405660E+02  0.00000000000E+00 0. -1.
          1    1    5    5  503    0  0.46779702781E+02  0.12745365079E+03 -0.59695809971E+01  0.13589852681E+03  0.00000000000E+00 0. -1.
         -2    1    5    5    0  503  0.11298495804E+03  0.27857437431E+03  0.10522718799E+03  0.31849967638E+03  0.00000000000E+00 0.  1.
         -1    1    6    6    0  502 -0.76359560180E+02 -0.18775206844E+03  0.60516165951E+03  0.63820236271E+03  0.00000000000E+00 0.  1.
<mgrwt>
<rscale>  0 0.15065793E+04</rscale>
<asrwt>0</asrwt>
<pdfrwt beam="1">  1        2 0.42671467E+00 0.15065793E+04</pdfrwt>
<pdfrwt beam="2">  1       -2 0.31474565E-01 0.15065793E+04</pdfrwt>
<totfact> 0.21818201E+01</totfact>
</mgrwt>
</event>
<event>
12    1  0.1467288E-007  0.1420833E+04  0.7818608E-02  0.8938875E-01
          2   -1    0    0  501    0  0.00000000000E+00  0.00000000000E+00  0.50700888329E+03  0.50700888329E+03  0.00000000000E+00 0. -1.
         -2   -1    0    0    0  501 -0.00000000000E+00 -0.00000000000E+00 -0.99542975954E+03  0.99542975954E+03  0.00000000000E+00 0.  1.
         23    2    1    2    0    0 -0.36227561823E+03  0.58043506786E+02 -0.36254409875E+03  0.52387766048E+03  0.91634640669E+02 0.  0.
        254    2    1    2    0    0  0.36227561823E+03 -0.58043506786E+02 -0.12587677750E+03  0.97856098235E+03  0.89840077961E+03 0.  0.
        -24    2    4    4    0    0  0.41869828111E+03 -0.18716152932E+03  0.27815018754E+03  0.54247846265E+03  0.81102817185E+02 0.  0.
         24    2    4    4    0    0 -0.56422662880E+02  0.12911802253E+03 -0.40402696504E+03  0.43608251969E+03  0.84114177574E+02 0.  0.
         13    1    3    3    0    0 -0.29713157302E+03  0.74383950546E+02 -0.26257330324E+03  0.40344130101E+03  0.00000000000E+00 0.  1.
        -13    1    3    3    0    0 -0.65144045208E+02 -0.16340443760E+02 -0.99970795513E+02  0.12043635948E+03  0.00000000000E+00 0. -1.
          4    1    6    6  502    0 -0.13885067398E+02 -0.10971638114E+02 -0.44246946161E+02  0.47654634446E+02  0.00000000000E+00 0. -1.
          3    1    5    5  503    0  0.50230300747E+02 -0.14482688524E+02  0.64026296416E+02  0.82657111084E+02  0.00000000000E+00 0. -1.
         -4    1    5    5    0  503  0.36846798036E+03 -0.17267884080E+03  0.21412389112E+03  0.45982135157E+03  0.00000000000E+00 0.  1.
         -3    1    6    6    0  502 -0.42537595482E+02  0.14008966065E+03 -0.35978001888E+03  0.38842788525E+03  0.00000000000E+00 0.  1.
<mgrwt>
<rscale>  0 0.14208332E+04</rscale>
<asrwt>0</asrwt>
<pdfrwt beam="1">  1        2 0.78001368E-01 0.14208332E+04</pdfrwt>
<pdfrwt beam="2">  1       -2 0.15314304E+00 0.14208332E+04</pdfrwt>
<totfact> 0.16679061E+01</totfact>
</mgrwt>
</event>
<event>
12    1  0.1467288E-007  0.1341918E+04  0.7818608E-02  0.8996969E-01
         -2   -1    0    0    0  501 -0.00000000000E+00  0.00000000000E+00  0.44868091498E+03  0.44868091498E+03  0.00000000000E+00 0.  1.
          2   -1    0    0  501    0  0.00000000000E+00 -0.00000000000E+00 -0.10033539596E+04  0.10033539596E+04  0.00000000000E+00 0. -1.
         23    2    1    2    0    0  0.22065717564E+03 -0.77294049519E+02  0.13457620330E+03  0.28943517259E+03  0.10487137544E+03 0.  0.
        254    2    1    2    0    0 -0.22065717564E+03  0.77294049519E+02 -0.68924924792E+03  0.11625997020E+04  0.90659229097E+03 0.  0.
        -24    2    4    4    0    0  0.18557939448E+03 -0.10511388780E+03 -0.67189940342E+03  0.70975639315E+03  0.82563237803E+02 0.  0.
         24    2    4    4    0    0 -0.40623657012E+03  0.18240793732E+03 -0.17349844492E+02  0.45284330883E+03  0.80406708364E+02 0.  0.
         11    1    3    3    0    0  0.20904020657E+03 -0.95918010778E+02  0.13641508142E+03  0.26740820331E+03  0.00000000000E+00 0.  1.
        -11    1    3    3    0    0  0.11616969064E+02  0.18623961259E+02 -0.18388781197E+01  0.22026969286E+02  0.00000000000E+00 0. -1.
          4    1    6    6  502    0 -0.39057701400E+03  0.18755457733E+03 -0.26326415257E+02  0.43407396085E+03  0.00000000000E+00 0. -1.
          3    1    5    5  503    0  0.14785616331E+03 -0.93186784618E+02 -0.62193256136E+03  0.64602270296E+03  0.00000000000E+00 0. -1.
         -4    1    5    5    0  503  0.37723231167E+02 -0.11927103187E+02 -0.49966842060E+02  0.63733690192E+02  0.00000000000E+00 0.  1.
         -3    1    6    6    0  502 -0.15659556113E+02 -0.51466400062E+01  0.89765707653E+01  0.18769347983E+02  0.00000000000E+00 0.  1.
<mgrwt>
<rscale>  0 0.13419177E+04</rscale>
<asrwt>0</asrwt>
<pdfrwt beam="1">  1        2 0.15436215E+00 0.13419177E+04</pdfrwt>
<pdfrwt beam="2">  1       -2 0.69027833E-01 0.13419177E+04</pdfrwt>
<totfact> 0.46957718E+01</totfact>
</mgrwt>
</event>
<event>
12    1  0.1467288E-007  0.1628446E+04  0.7818608E-02  0.8803261E-01
         -1   -1    0    0    0  501 -0.00000000000E+00  0.00000000000E+00  0.35065891048E+03  0.35065891048E+03  0.00000000000E+00 0.  1.
          1   -1    0    0  501    0  0.00000000000E+00 -0.00000000000E+00 -0.18906088055E+04  0.18906088055E+04  0.00000000000E+00 0. -1.
         23    2    1    2    0    0 -0.42311640220E+03  0.78533487475E+02 -0.11296112469E+04  0.12121085402E+04  0.89389852688E+02 0.  0.
        254    2    1    2    0    0  0.42311640220E+03 -0.78533487475E+02 -0.41033864815E+03  0.10291591758E+04  0.83999750263E+03 0.  0.
        -24    2    4    4    0    0 -0.24423355379E+02  0.19555564317E+03 -0.44911296211E+03  0.49700152011E+03  0.80433502915E+02 0.  0.
         24    2    4    4    0    0  0.44753975758E+03 -0.27408913065E+03  0.38774313952E+02  0.53215765565E+03  0.79193667027E+02 0.  0.
         11    1    3    3    0    0 -0.59222356402E+02  0.24286307926E+02 -0.99940620488E+02  0.11868125325E+03  0.00000000000E+00 0.  1.
        -11    1    3    3    0    0 -0.36389404580E+03  0.54247179549E+02 -0.10296706264E+04  0.10934272870E+04  0.00000000000E+00 0. -1.
          2    1    6    6  502    0  0.57981865618E+02 -0.17836571353E+02 -0.15810018661E+02  0.62689685820E+02  0.00000000000E+00 0. -1.
          1    1    5    5  503    0 -0.31252026927E+01  0.20856009902E+02 -0.13763852720E+03  0.13924476367E+03  0.00000000000E+00 0. -1.
         -2    1    5    5    0  503 -0.21298152687E+02  0.17469963327E+03 -0.31147443491E+03  0.35775675644E+03  0.00000000000E+00 0.  1.
         -1    1    6    6    0  502  0.38955789196E+03 -0.25625255930E+03  0.54584332613E+02  0.46946796983E+03  0.00000000000E+00 0.  1.
<mgrwt>
<rscale>  0 0.16284457E+04</rscale>
<asrwt>0</asrwt>
<pdfrwt beam="1">  1        1 0.29086289E+00 0.16284457E+04</pdfrwt>
<pdfrwt beam="2">  1       -1 0.53947526E-01 0.16284457E+04</pdfrwt>
<totfact> 0.11742506E+01</totfact>
</mgrwt>
</event>
<event>
12    1  0.1467288E-007  0.1916525E+04  0.7818608E-02  0.8646674E-01
         -1   -1    0    0    0  501 -0.00000000000E+00  0.00000000000E+00  0.14155776201E+04  0.14155776201E+04  0.00000000000E+00 0.  1.
          1   -1    0    0  501    0  0.00000000000E+00 -0.00000000000E+00 -0.64868719288E+03  0.64868719288E+03  0.00000000000E+00 0. -1.
         23    2    1    2    0    0 -0.64827102048E+03  0.31612078548E+02 -0.81797467318E+02  0.66030413929E+03  0.89755730758E+02 0.  0.
        254    2    1    2    0    0  0.64827102048E+03 -0.31612078548E+02  0.84868789450E+03  0.14039606737E+04  0.91081270928E+03 0.  0.
        -24    2    4    4    0    0  0.31190840018E+03 -0.38776919894E+03  0.11335618448E+03  0.51663404147E+03  0.80058144459E+02 0.  0.
         24    2    4    4    0    0  0.33636262030E+03  0.35615712040E+03  0.73533171002E+03  0.88732663218E+03  0.81536014613E+02 0.  0.
         13    1    3    3    0    0 -0.39199429374E+03  0.59654370264E+02 -0.66490637799E+02  0.40204374778E+03  0.00000000000E+00 0.  1.
        -13    1    3    3    0    0 -0.25627672674E+03 -0.28042291716E+02 -0.15306829518E+02  0.25826039151E+03  0.00000000000E+00 0. -1.
          2    1    6    6  502    0  0.27264996679E+03  0.31933833375E+03  0.65813013821E+03  0.78067294984E+03  0.00000000000E+00 0. -1.
          3    1    5    5  503    0 -0.19444219360E+01  0.13920119649E+01  0.43114561443E+01  0.49302259644E+01  0.00000000000E+00 0. -1.
         -4    1    5    5    0  503  0.31385282211E+03 -0.38916121091E+03  0.10904472834E+03  0.51170381551E+03  0.00000000000E+00 0.  1.
         -1    1    6    6    0  502  0.63712653514E+02  0.36818786649E+02  0.77201571811E+02  0.10665368235E+03  0.00000000000E+00 0.  1.
<mgrwt>
<rscale>  0 0.19165251E+04</rscale>
<asrwt>0</asrwt>
<pdfrwt beam="1">  1        1 0.99798030E-01 0.19165251E+04</pdfrwt>
<pdfrwt beam="2">  1       -1 0.21778117E+00 0.19165251E+04</pdfrwt>
<totfact> 0.32500810E+00</totfact>
</mgrwt>
</event>
<event>
12    1  0.1467288E-007  0.1363946E+04  0.7818608E-02  0.8980338E-01
          2   -1    0    0  501    0  0.00000000000E+00  0.00000000000E+00  0.27079802711E+04  0.27079802711E+04  0.00000000000E+00 0.  1.
         -2   -1    0    0    0  501 -0.00000000000E+00 -0.00000000000E+00 -0.17174680757E+03  0.17174680757E+03  0.00000000000E+00 0. -1.
         23    2    1    2    0    0 -0.25853953088E+03  0.30497827762E+02  0.14561486890E+03  0.31170626679E+03  0.90467122148E+02 0.  0.
        254    2    1    2    0    0  0.25853953088E+03 -0.30497827762E+02  0.23906185947E+04  0.25680208119E+04  0.90105539158E+03 0.  0.
        -24    2    4    4    0    0 -0.49549544497E+02  0.15324188714E+03  0.20794600482E+04  0.20872088710E+04  0.79677762095E+02 0.  0.
         24    2    4    4    0    0  0.30808907538E+03 -0.18373971490E+03  0.31115854645E+03  0.48081194089E+03  0.75374533344E+02 0.  0.
         13    1    3    3    0    0 -0.20055508429E+03  0.34105110934E+00  0.71571074688E+02  0.21294336543E+03  0.00000000000E+00 0. -1.
        -13    1    3    3    0    0 -0.57984446590E+02  0.30156776653E+02  0.74043794210E+02  0.98762901362E+02  0.00000000000E+00 0.  1.
          4    1    6    6  502    0  0.13183485593E+03 -0.38362259935E+02  0.13210532714E+03  0.19053584882E+03  0.00000000000E+00 0. -1.
          3    1    5    5  503    0 -0.14241404728E+02 -0.44255212675E+01  0.31949081796E+03  0.31983868686E+03  0.00000000000E+00 0. -1.
         -4    1    5    5    0  503 -0.35308139770E+02  0.15766740841E+03  0.17599692303E+04  0.17673701842E+04  0.00000000000E+00 0.  1.
         -3    1    6    6    0  502  0.17625421944E+03 -0.14537745497E+03  0.17905321931E+03  0.29027609207E+03  0.00000000000E+00 0.  1.
<mgrwt>
<rscale>  0 0.13639457E+04</rscale>
<asrwt>0</asrwt>
<pdfrwt beam="1">  1        2 0.41661232E+00 0.13639457E+04</pdfrwt>
<pdfrwt beam="2">  1       -2 0.26422588E-01 0.13639457E+04</pdfrwt>
<totfact> 0.33446187E+01</totfact>
</mgrwt>
</event>
<event>
12    1  0.1467288E-007  0.1908588E+04  0.7818608E-02  0.8650593E-01
         -1   -1    0    0    0  501 -0.00000000000E+00  0.00000000000E+00  0.59493734746E+03  0.59493734746E+03  0.00000000000E+00 0.  1.
          1   -1    0    0  501    0  0.00000000000E+00 -0.00000000000E+00 -0.15307104692E+04  0.15307104692E+04  0.00000000000E+00 0. -1.
         23    2    1    2    0    0 -0.27045601262E+03  0.27582589926E+02 -0.11293280321E+04  0.11657020983E+04  0.97838253366E+02 0.  0.
        254    2    1    2    0    0  0.27045601262E+03 -0.27582589926E+02  0.19355491033E+03  0.95994571840E+03  0.90006945562E+03 0.  0.
        -24    2    4    4    0    0  0.53901150000E+03 -0.23104208697E+03  0.14831111707E+03  0.61041346113E+03  0.81820309234E+02 0.  0.
         24    2    4    4    0    0 -0.26855548738E+03  0.20345949704E+03  0.45243793263E+02  0.34953225727E+03  0.81289490745E+02 0.  0.
         11    1    3    3    0    0 -0.30629329327E+01 -0.14664721623E+02 -0.11097549226E+03  0.11198212135E+03  0.00000000000E+00 0.  1.
        -11    1    3    3    0    0 -0.26739307968E+03  0.42247311549E+02 -0.10183525398E+04  0.10537199769E+04  0.00000000000E+00 0. -1.
          2    1    6    6  502    0 -0.19608868183E+03  0.16162118626E+03 -0.61767238552E+00  0.25411131519E+03  0.00000000000E+00 0. -1.
          1    1    5    5  503    0  0.25891667223E+03 -0.92710339462E+02  0.10787580136E+03  0.29541536643E+03  0.00000000000E+00 0. -1.
         -2    1    5    5    0  503  0.28009482777E+03 -0.13833174750E+03  0.40435315705E+02  0.31499809470E+03  0.00000000000E+00 0.  1.
         -1    1    6    6    0  502 -0.72466805553E+02  0.41838310785E+02  0.45861465649E+02  0.95420942083E+02  0.00000000000E+00 0.  1.
<mgrwt>
<rscale>  0 0.19085878E+04</rscale>
<asrwt>0</asrwt>
<pdfrwt beam="1">  1        1 0.23549391E+00 0.19085878E+04</pdfrwt>
<pdfrwt beam="2">  1       -1 0.91528824E-01 0.19085878E+04</pdfrwt>
<totfact> 0.67764610E+00</totfact>
</mgrwt>
</event>
<event>
12    1  0.1467288E-007  0.1202781E+04  0.7818608E-02  0.9110426E-01
          2   -1    0    0  501    0  0.00000000000E+00  0.00000000000E+00  0.44384182137E+03  0.44384182137E+03  0.00000000000E+00 0.  1.
         -2   -1    0    0    0  501 -0.00000000000E+00 -0.00000000000E+00 -0.81486356163E+03  0.81486356163E+03  0.00000000000E+00 0. -1.
         23    2    1    2    0    0 -0.16526235847E+03  0.10922318701E+03 -0.27608950643E+03  0.35186401826E+03  0.91331922534E+02 0.  0.
        254    2    1    2    0    0  0.16526235847E+03 -0.10922318701E+03 -0.94932233831E+02  0.90684136474E+03  0.87983395028E+03 0.  0.
        -24    2    4    4    0    0  0.15066728800E+03  0.34596416422E+03 -0.19709667433E+03  0.43327624708E+03  0.80556642548E+02 0.  0.
         24    2    4    4    0    0  0.14595070471E+02 -0.45518735123E+03  0.10216444050E+03  0.47356511766E+03  0.80111216165E+02 0.  0.
         13    1    3    3    0    0 -0.15658112494E+03  0.10801736113E+03 -0.20280106998E+03  0.27805336354E+03  0.00000000000E+00 0. -1.
        -13    1    3    3    0    0 -0.86812335330E+01  0.12058258795E+01 -0.73288436450E+02  0.73810654712E+02  0.00000000000E+00 0.  1.
          2    1    6    6  502    0  0.35438497303E+02 -0.10026656879E+03  0.33190024122E+02  0.11140399279E+03  0.00000000000E+00 0. -1.
          1    1    5    5  503    0 -0.28863305073E+01  0.66667589821E+02 -0.26815977407E+02  0.71916584184E+02  0.00000000000E+00 0. -1.
         -2    1    5    5    0  503  0.15355361851E+03  0.27929657439E+03 -0.17028069693E+03  0.36135966290E+03  0.00000000000E+00 0.  1.
         -1    1    6    6    0  502 -0.20843426832E+02 -0.35492078244E+03  0.68974416380E+02  0.36216112487E+03  0.00000000000E+00 0.  1.
<mgrwt>
<rscale>  0 0.12027810E+04</rscale>
<asrwt>0</asrwt>
<pdfrwt beam="1">  1        2 0.68283357E-01 0.12027810E+04</pdfrwt>
<pdfrwt beam="2">  1       -2 0.12536362E+00 0.12027810E+04</pdfrwt>
<totfact> 0.33162749E+01</totfact>
</mgrwt>
</event>
<event>
12    1  0.1467288E-007  0.2062806E+04  0.7818608E-02  0.8577807E-01
         -2   -1    0    0    0  501 -0.00000000000E+00  0.00000000000E+00  0.11069801335E+04  0.11069801335E+04  0.00000000000E+00 0.  1.
          2   -1    0    0  501    0  0.00000000000E+00 -0.00000000000E+00 -0.96098607474E+03  0.96098607474E+03  0.00000000000E+00 0. -1.
         23    2    1    2    0    0  0.30261611756E+03  0.16997993732E+03  0.81701894059E+03  0.89189085810E+03  0.86485026363E+02 0.  0.
        254    2    1    2    0    0 -0.30261611756E+03 -0.16997993732E+03 -0.67102488178E+03  0.11760753502E+04  0.90133741942E+03 0.  0.
        -24    2    4    4    0    0 -0.23192077447E+03 -0.30083892105E+03  0.88211969670E+02  0.39832971038E+03  0.81202860380E+02 0.  0.
         24    2    4    4    0    0 -0.70695343090E+02  0.13085898373E+03 -0.75923685145E+03  0.77774563980E+03  0.79534762662E+02 0.  0.
         13    1    3    3    0    0  0.13130518004E+02  0.11514492921E+02  0.10292880884E+02  0.20271592122E+02  0.00000000000E+00 0. -1.
        -13    1    3    3    0    0  0.28948559955E+03  0.15846544440E+03  0.80672605970E+03  0.87161926598E+03  0.00000000000E+00 0.  1.
          4    1    6    6  502    0 -0.64009344512E+02  0.36414170587E+02 -0.30784113306E+03  0.31652701497E+03  0.00000000000E+00 0. -1.
          3    1    5    5  503    0 -0.28138469947E+02 -0.80292829332E+02 -0.97160919245E+00  0.85086167839E+02  0.00000000000E+00 0. -1.
         -4    1    5    5    0  503 -0.20378230452E+03 -0.22054609172E+03  0.89183578863E+02  0.31324354255E+03  0.00000000000E+00 0.  1.
         -3    1    6    6    0  502 -0.66859985778E+01  0.94444813141E+02 -0.45139571839E+03  0.46121862483E+03  0.00000000000E+00 0.  1.
<mgrwt>
<rscale>  0 0.20628063E+04</rscale>
<asrwt>0</asrwt>
<pdfrwt beam="1">  1        2 0.14784401E+00 0.20628063E+04</pdfrwt>
<pdfrwt beam="2">  1       -2 0.17030464E+00 0.20628063E+04</pdfrwt>
<totfact> 0.52330700E+00</totfact>
</mgrwt>
</event>
<event>
12    1  0.1467288E-007  0.1928756E+04  0.7818608E-02  0.8640674E-01
          2   -1    0    0  501    0  0.00000000000E+00  0.00000000000E+00  0.23798227585E+04  0.23798227585E+04  0.00000000000E+00 0.  1.
         -2   -1    0    0    0  501 -0.00000000000E+00 -0.00000000000E+00 -0.39079574208E+03  0.39079574208E+03  0.00000000000E+00 0. -1.
         23    2    1    2    0    0  0.71806706100E+03 -0.14772430953E+03  0.96053598636E+03  0.12117957108E+04  0.91524247973E+02 0.  0.
        254    2    1    2    0    0 -0.71806706100E+03  0.14772430953E+03  0.10284910301E+04  0.15588227898E+04  0.91361475210E+03 0.  0.
        -24    2    4    4    0    0 -0.56087306146E+03  0.51375501132E+03  0.66072484382E+03  0.10107213642E+04  0.80483253889E+02 0.  0.
         24    2    4    4    0    0 -0.15719399954E+03 -0.36603070180E+03  0.36776618625E+03  0.54810142553E+03  0.80465997604E+02 0.  0.
         13    1    3    3    0    0  0.66714820716E+03 -0.13931619349E+03  0.92570683116E+03  0.11495341967E+04  0.00000000000E+00 0. -1.
        -13    1    3    3    0    0  0.50918853847E+02 -0.84081160356E+01  0.34829155208E+02  0.62261514154E+02  0.00000000000E+00 0.  1.
          4    1    6    6  502    0 -0.15883038048E+03 -0.29504181090E+03  0.31150808382E+03  0.45750852039E+03  0.00000000000E+00 0. -1.
          3    1    5    5  503    0 -0.18753872640E+03  0.18091912428E+03  0.27714845613E+03  0.38041263145E+03  0.00000000000E+00 0. -1.
         -4    1    5    5    0  503 -0.37333433507E+03  0.33283588704E+03  0.38357638769E+03  0.63030873279E+03  0.00000000000E+00 0.  1.
         -3    1    6    6    0  502  0.16363809368E+01 -0.70988890897E+02  0.56258102437E+02  0.90592905148E+02  0.00000000000E+00 0.  1.
<mgrwt>
<rscale>  0 0.19287557E+04</rscale>
<asrwt>0</asrwt>
<pdfrwt beam="1">  1        2 0.36612657E+00 0.19287557E+04</pdfrwt>
<pdfrwt beam="2">  1       -2 0.60122423E-01 0.19287557E+04</pdfrwt>
<totfact> 0.98421489E+00</totfact>
</mgrwt>
</event>
<event>
12    1  0.1467288E-007  0.1369537E+04  0.7818608E-02  0.8976169E-01
         -2   -1    0    0    0  501 -0.00000000000E+00  0.00000000000E+00  0.19075404190E+03  0.19075404190E+03  0.00000000000E+00 0.  1.
          2   -1    0    0  501    0  0.00000000000E+00 -0.00000000000E+00 -0.24581819052E+04  0.24581819052E+04  0.00000000000E+00 0. -1.
         23    2    1    2    0    0  0.24011011755E+03 -0.95958181884E+02 -0.11129826837E+03  0.29627108321E+03  0.92349385385E+02 0.  0.
        254    2    1    2    0    0 -0.24011011755E+03  0.95958181884E+02 -0.21561295949E+04  0.23526648639E+04  0.90513882386E+03 0.  0.
        -24    2    4    4    0    0 -0.55774714785E+03  0.61997484143E+02 -0.98780621802E+03  0.11388949509E+04  0.79968843339E+02 0.  0.
         24    2    4    4    0    0  0.31763703030E+03  0.33960697741E+02 -0.11683233769E+04  0.12137699130E+04  0.78811652669E+02 0.  0.
         11    1    3    3    0    0  0.19391232496E+01 -0.22123320436E+02 -0.22405252395E+02  0.31546740576E+02  0.00000000000E+00 0. -1.
        -11    1    3    3    0    0  0.23817099430E+03 -0.73834861448E+02 -0.88893015974E+02  0.26472434263E+03  0.00000000000E+00 0.  1.
          4    1    6    6  502    0  0.25348256042E+03 -0.50321454612E+01 -0.92629867995E+03  0.96036866640E+03  0.00000000000E+00 0. -1.
          3    1    5    5  503    0 -0.43687177328E+03  0.15399076429E+02 -0.77327264794E+03  0.88828186174E+03  0.00000000000E+00 0. -1.
         -4    1    5    5    0  503 -0.12087537458E+03  0.46598407715E+02 -0.21453357008E+03  0.25061308919E+03  0.00000000000E+00 0.  1.
         -3    1    6    6    0  502  0.64154469881E+02  0.38992843202E+02 -0.24202469694E+03  0.25340124656E+03  0.00000000000E+00 0.  1.
<mgrwt>
<rscale>  0 0.13695373E+04</rscale>
<asrwt>0</asrwt>
<pdfrwt beam="1">  1        2 0.37818182E+00 0.13695373E+04</pdfrwt>
<pdfrwt beam="2">  1       -2 0.29346777E-01 0.13695373E+04</pdfrwt>
<totfact> 0.38496835E+01</totfact>
</mgrwt>
</event>
<event>
12    1  0.1467288E-007  0.2385474E+04  0.7818608E-02  0.8444962E-01
          1   -1    0    0  501    0  0.00000000000E+00  0.00000000000E+00  0.15617613697E+04  0.15617613697E+04  0.00000000000E+00 0. -1.
         -1   -1    0    0    0  501 -0.00000000000E+00 -0.00000000000E+00 -0.91090851964E+03  0.91090851964E+03  0.00000000000E+00 0.  1.
         23    2    1    2    0    0 -0.51837760686E+03 -0.86685286268E+03  0.18474866473E+03  0.10311340958E+04  0.94637336696E+02 0.  0.
        254    2    1    2    0    0  0.51837760686E+03  0.86685286268E+03  0.46610418538E+03  0.14415357936E+04  0.91685500700E+03 0.  0.
        -24    2    4    4    0    0  0.53142697554E+03  0.46291383889E+02  0.16077819835E+03  0.56276757070E+03  0.79373717353E+02 0.  0.
         24    2    4    4    0    0 -0.13049368688E+02  0.82056147879E+03  0.30532598703E+03  0.87876822293E+03  0.74284620053E+02 0.  0.
         13    1    3    3    0    0 -0.46316428965E+03 -0.72309037520E+03  0.13472841501E+03  0.86921378022E+03  0.00000000000E+00 0.  1.
        -13    1    3    3    0    0 -0.55213317208E+02 -0.14376248748E+03  0.50020249716E+02  0.16192031554E+03  0.00000000000E+00 0. -1.
          4    1    6    6  502    0  0.84100922047E+00  0.96987663496E+02  0.62612188915E+02  0.11544522670E+03  0.00000000000E+00 0. -1.
          1    1    5    5  503    0  0.33132358315E+03  0.33935743939E+01  0.68849213534E+02  0.33841845000E+03  0.00000000000E+00 0. -1.
         -2    1    5    5    0  503  0.20010339239E+03  0.42897809495E+02  0.91928984815E+02  0.22434912069E+03  0.00000000000E+00 0.  1.
         -3    1    6    6    0  502 -0.13890377908E+02  0.72357381529E+03  0.24271379812E+03  0.76332299623E+03  0.00000000000E+00 0.  1.
<mgrwt>
<rscale>  0 0.23854742E+04</rscale>
<asrwt>0</asrwt>
<pdfrwt beam="1">  1        1 0.24027098E+00 0.23854742E+04</pdfrwt>
<pdfrwt beam="2">  1       -1 0.14013977E+00 0.23854742E+04</pdfrwt>
<totfact> 0.22239732E+00</totfact>
</mgrwt>
</event>
<event>
12    1  0.1633945E-007  0.1525611E+04  0.7818608E-02  0.8867598E-01
         -2   -1    0    0    0  501 -0.00000000000E+00  0.00000000000E+00  0.22187227130E+03  0.22187227130E+03  0.00000000000E+00 0.  1.
          2   -1    0    0  501    0  0.00000000000E+00 -0.00000000000E+00 -0.26225552032E+04  0.26225552032E+04  0.00000000000E+00 0. -1.
         23    2    1    2    0    0 -0.32039107415E+03  0.31475057935E+03 -0.46932214587E+03  0.66150037111E+03  0.12490435053E+03 0.  0.
        254    2    1    2    0    0  0.32039107415E+03 -0.31475057935E+03 -0.19313607860E+04  0.21829271034E+04  0.91285151328E+03 0.  0.
        -24    2    4    4    0    0  0.58137075561E+03 -0.37013171296E+03 -0.16346446161E+04  0.17758155368E+04  0.80426110643E+02 0.  0.
         24    2    4    4    0    0 -0.26097968147E+03  0.55381133610E+02 -0.29671616988E+03  0.40711156658E+03  0.80758145535E+02 0.  0.
         11    1    3    3    0    0 -0.20330269021E+03  0.15316985975E+03 -0.18732580722E+03  0.31604421816E+03  0.00000000000E+00 0.  1.
        -11    1    3    3    0    0 -0.11708838394E+03  0.16158071960E+03 -0.28199633865E+03  0.34545615295E+03  0.00000000000E+00 0. -1.
          2    1    6    6  502    0 -0.18975865423E+03  0.75840704083E+02 -0.20938142798E+03  0.29257604419E+03  0.00000000000E+00 0. -1.
          1    1    5    5  503    0  0.48244076719E+03 -0.33847273750E+03 -0.13607978086E+04  0.14829307347E+04  0.00000000000E+00 0. -1.
         -2    1    5    5    0  503  0.98929988426E+02 -0.31658975464E+02 -0.27384680747E+03  0.29288480209E+03  0.00000000000E+00 0.  1.
         -1    1    6    6    0  502 -0.71221027242E+02 -0.20459570473E+02 -0.87334741906E+02  0.11453552239E+03  0.00000000000E+00 0.  1.
<mgrwt>
<rscale>  0 0.15256111E+04</rscale>
<asrwt>0</asrwt>
<pdfrwt beam="1">  1        2 0.40347006E+00 0.15256111E+04</pdfrwt>
<pdfrwt beam="2">  1       -2 0.34134193E-01 0.15256111E+04</pdfrwt>
<totfact> 0.22954284E+01</totfact>
</mgrwt>
</event>
<event>
12    1  0.1467288E-007  0.1859402E+04  0.7818608E-02  0.8675333E-01
          1   -1    0    0  501    0  0.00000000000E+00  0.00000000000E+00  0.16071649431E+04  0.16071649431E+04  0.00000000000E+00 0. -1.
         -1   -1    0    0    0  501 -0.00000000000E+00 -0.00000000000E+00 -0.53780682816E+03  0.53780682816E+03  0.00000000000E+00 0.  1.
         23    2    1    2    0    0  0.65979995602E+03 -0.18093556041E+03  0.19469668705E+03  0.71725250695E+03  0.92036404773E+02 0.  0.
        254    2    1    2    0    0 -0.65979995602E+03  0.18093556041E+03  0.87466142786E+03  0.14277192643E+04  0.89737173192E+03 0.  0.
        -24    2    4    4    0    0 -0.31936465526E+03 -0.19407473290E+03 -0.34761457781E+02  0.38372150633E+03  0.79843913335E+02 0.  0.
         24    2    4    4    0    0 -0.34043530075E+03  0.37501029330E+03  0.90942288565E+03  0.10439977580E+04  0.79702067704E+02 0.  0.
         13    1    3    3    0    0  0.12282748034E+03 -0.63683601449E+02  0.15843519934E+02  0.13925949929E+03  0.00000000000E+00 0. -1.
        -13    1    3    3    0    0  0.53697247568E+03 -0.11725195896E+03  0.17885316712E+03  0.57799300766E+03  0.00000000000E+00 0.  1.
          2    1    6    6  502    0 -0.12572704846E+03  0.16763360973E+03  0.44577793717E+03  0.49257109851E+03  0.00000000000E+00 0. -1.
          3    1    5    5  503    0 -0.13915041805E+02  0.49825103715E+01  0.77088997271E+01  0.16669761037E+02  0.00000000000E+00 0. -1.
         -4    1    5    5    0  503 -0.30544961346E+03 -0.19905724327E+03 -0.42470357508E+02  0.36705174530E+03  0.00000000000E+00 0.  1.
         -1    1    6    6    0  502 -0.21470825230E+03  0.20737668358E+03  0.46364494848E+03  0.55142665944E+03  0.00000000000E+00 0.  1.
<mgrwt>
<rscale>  0 0.18594024E+04</rscale>
<asrwt>0</asrwt>
<pdfrwt beam="1">  1        1 0.24725614E+00 0.18594024E+04</pdfrwt>
<pdfrwt beam="2">  1       -1 0.82739513E-01 0.18594024E+04</pdfrwt>
<totfact> 0.75168119E+00</totfact>
</mgrwt>
</event>
<event>
12    1  0.1467288E-007  0.1866062E+04  0.7818608E-02  0.8671936E-01
          2   -1    0    0  501    0  0.00000000000E+00  0.00000000000E+00  0.12958753686E+04  0.12958753686E+04  0.00000000000E+00 0. -1.
         -2   -1    0    0    0  501 -0.00000000000E+00 -0.00000000000E+00 -0.67178263974E+03  0.67178263974E+03  0.00000000000E+00 0.  1.
         23    2    1    2    0    0  0.15144295915E+03  0.44048302001E+03 -0.32075862177E+03  0.57379729173E+03  0.96938009865E+02 0.  0.
        254    2    1    2    0    0 -0.15144295915E+03 -0.44048302001E+03  0.94485135067E+03  0.13938607167E+04  0.91276687155E+03 0.  0.
        -24    2    4    4    0    0  0.21766493882E+03 -0.57128547398E+03  0.66016385007E+03  0.90331029385E+03  0.80050357146E+02 0.  0.
         24    2    4    4    0    0 -0.36910789797E+03  0.13080245397E+03  0.28468750061E+03  0.49055042281E+03  0.79011530846E+02 0.  0.
         13    1    3    3    0    0  0.59684058548E+01  0.13413860937E+03 -0.11746862602E+03  0.17840310113E+03  0.00000000000E+00 0. -1.
        -13    1    3    3    0    0  0.14547455329E+03  0.30634441064E+03 -0.20328999575E+03  0.39539419060E+03  0.00000000000E+00 0.  1.
          2    1    6    6  502    0 -0.20047060340E+02 -0.95833955891E+01  0.83471695185E+01  0.23736076724E+02  0.00000000000E+00 0. -1.
          1    1    5    5  503    0  0.99887400206E+02 -0.23621042730E+03  0.33393688694E+03  0.42105427577E+03  0.00000000000E+00 0. -1.
         -2    1    5    5    0  503  0.11777753862E+03 -0.33507504668E+03  0.32622696313E+03  0.48225601809E+03  0.00000000000E+00 0.  1.
         -1    1    6    6    0  502 -0.34906083763E+03  0.14038584956E+03  0.27634033109E+03  0.46681434608E+03  0.00000000000E+00 0.  1.
<mgrwt>
<rscale>  0 0.18660617E+04</rscale>
<asrwt>0</asrwt>
<pdfrwt beam="1">  1        2 0.19936544E+00 0.18660617E+04</pdfrwt>
<pdfrwt beam="2">  1       -2 0.10335118E+00 0.18660617E+04</pdfrwt>
<totfact> 0.11921548E+01</totfact>
</mgrwt>
</event>
<event>
12    1  0.1467288E-007  0.1991155E+04  0.7818608E-02  0.8610767E-01
          2   -1    0    0  501    0  0.00000000000E+00  0.00000000000E+00  0.10563452503E+04  0.10563452503E+04  0.00000000000E+00 0. -1.
         -2   -1    0    0    0  501 -0.00000000000E+00 -0.00000000000E+00 -0.93830512864E+03  0.93830512864E+03  0.00000000000E+00 0.  1.
         23    2    1    2    0    0 -0.74035201570E+03 -0.19009898710E+03 -0.15221981361E+03  0.78650320490E+03  0.10562995607E+03 0.  0.
        254    2    1    2    0    0  0.74035201570E+03  0.19009898710E+03  0.27025993528E+03  0.12081471740E+04  0.89572341126E+03 0.  0.
        -24    2    4    4    0    0  0.80362303263E+03  0.43146104692E+03  0.20546747031E+03  0.93849199387E+03  0.81127847407E+02 0.  0.
         24    2    4    4    0    0 -0.63271016929E+02 -0.24136205982E+03  0.64792464974E+02  0.26965518017E+03  0.79101119905E+02 0.  0.
         13    1    3    3    0    0 -0.80573049951E+02 -0.10043061193E+02 -0.49040666016E+02  0.94857083973E+02  0.00000000000E+00 0. -1.
        -13    1    3    3    0    0 -0.65977896575E+03 -0.18005592591E+03 -0.10317914760E+03  0.69164612093E+03  0.00000000000E+00 0.  1.
          4    1    6    6  502    0 -0.30787952485E+02 -0.30590021755E+02  0.31922172656E+02  0.53876456419E+02  0.00000000000E+00 0. -1.
          1    1    5    5  503    0  0.28487613381E+03  0.19095601594E+03  0.56066646451E+02  0.34750838908E+03  0.00000000000E+00 0. -1.
         -2    1    5    5    0  503  0.51874689882E+03  0.24050503099E+03  0.14940082386E+03  0.59098360479E+03  0.00000000000E+00 0.  1.
         -3    1    6    6    0  502 -0.32483064444E+02 -0.21077203807E+03  0.32870292319E+02  0.21577872375E+03  0.00000000000E+00 0.  1.
<mgrwt>
<rscale>  0 0.19911546E+04</rscale>
<asrwt>0</asrwt>
<pdfrwt beam="1">  1        2 0.16251465E+00 0.19911546E+04</pdfrwt>
<pdfrwt beam="2">  1       -2 0.14435464E+00 0.19911546E+04</pdfrwt>
<totfact> 0.71492288E+00</totfact>
</mgrwt>
</event>
<event>
12    1  0.1467288E-007  0.2032809E+04  0.7818608E-02  0.8591433E-01
          2   -1    0    0  501    0  0.00000000000E+00  0.00000000000E+00  0.21614769452E+04  0.21614769452E+04  0.00000000000E+00 0. -1.
         -2   -1    0    0    0  501 -0.00000000000E+00 -0.00000000000E+00 -0.47795004441E+03  0.47795004441E+03  0.00000000000E+00 0.  1.
         23    2    1    2    0    0 -0.32455432807E+03 -0.73640734633E+03  0.82545443030E+03  0.11565058142E+04  0.92192137700E+02 0.  0.
        254    2    1    2    0    0  0.32455432807E+03  0.73640734633E+03  0.85807247046E+03  0.14829211753E+04  0.90284857873E+03 0.  0.
        -24    2    4    4    0    0 -0.16357503398E+03  0.35104794467E+02 -0.88401885092E+02  0.20521311198E+03  0.79425371918E+02 0.  0.
         24    2    4    4    0    0  0.48812936205E+03  0.70130255186E+03  0.94647435555E+03  0.12777080634E+04  0.81416497857E+02 0.  0.
         13    1    3    3    0    0 -0.30108477595E+03 -0.60962310160E+03  0.71574125249E+03  0.98720712560E+03  0.00000000000E+00 0. -1.
        -13    1    3    3    0    0 -0.23469552119E+02 -0.12678424473E+03  0.10971317781E+03  0.16929868863E+03  0.00000000000E+00 0.  1.
          2    1    6    6  502    0  0.32830965380E+03  0.40759964051E+03  0.55451873538E+03  0.76250621218E+03  0.00000000000E+00 0. -1.
          3    1    5    5  503    0  0.70452336516E+01  0.19917029661E+01 -0.14711790023E+02  0.16432862306E+02  0.00000000000E+00 0. -1.
         -4    1    5    5    0  503 -0.17062026763E+03  0.33113091501E+02 -0.73690095069E+02  0.18878024967E+03  0.00000000000E+00 0.  1.
         -1    1    6    6    0  502  0.15981970825E+03  0.29370291135E+03  0.39195562017E+03  0.51520185118E+03  0.00000000000E+00 0.  1.
<mgrwt>
<rscale>  0 0.20328089E+04</rscale>
<asrwt>0</asrwt>
<pdfrwt beam="1">  1        2 0.33253491E+00 0.20328089E+04</pdfrwt>
<pdfrwt beam="2">  1       -2 0.73530777E-01 0.20328089E+04</pdfrwt>
<totfact> 0.83904722E+00</totfact>
</mgrwt>
</event>
<event>
12    1  0.1467288E-007  0.2081777E+04  0.7818608E-02  0.8569313E-01
         -2   -1    0    0    0  501 -0.00000000000E+00  0.00000000000E+00  0.54821216336E+03  0.54821216336E+03  0.00000000000E+00 0.  1.
          2   -1    0    0  501    0  0.00000000000E+00 -0.00000000000E+00 -0.19763313954E+04  0.19763313954E+04  0.00000000000E+00 0. -1.
         23    2    1    2    0    0  0.19511437383E+03  0.81806151980E+03 -0.64131819437E+03  0.10614809055E+04  0.90323957461E+02 0.  0.
        254    2    1    2    0    0 -0.19511437383E+03 -0.81806151980E+03 -0.78680103770E+03  0.14630626533E+04  0.90233152744E+03 0.  0.
        -24    2    4    4    0    0 -0.28122299812E+03 -0.98530845289E+03 -0.63965675643E+03  0.12110064475E+04  0.86352347166E+02 0.  0.
         24    2    4    4    0    0  0.86108624291E+02  0.16724693310E+03 -0.14714428126E+03  0.25205620574E+03  0.80589450540E+02 0.  0.
         11    1    3    3    0    0  0.94748624916E+02  0.22184606331E+03 -0.18081850426E+03  0.30147688006E+03  0.00000000000E+00 0.  1.
        -11    1    3    3    0    0  0.10036574892E+03  0.59621545649E+03 -0.46049969011E+03  0.76000402545E+03  0.00000000000E+00 0. -1.
          2    1    6    6  502    0  0.54585450044E+02  0.71313803994E+02 -0.24301267880E+02  0.93036453163E+02  0.00000000000E+00 0. -1.
          3    1    5    5  503    0 -0.57848903578E+02 -0.10818593397E+03 -0.88682959079E+02  0.15137819917E+03  0.00000000000E+00 0. -1.
         -4    1    5    5    0  503 -0.22337409455E+03 -0.87712251892E+03 -0.55097379735E+03  0.10596282483E+04  0.00000000000E+00 0.  1.
         -1    1    6    6    0  502  0.31523174247E+02  0.95933129104E+02 -0.12284301338E+03  0.15901975258E+03  0.00000000000E+00 0.  1.
<mgrwt>
<rscale>  0 0.20817770E+04</rscale>
<asrwt>0</asrwt>
<pdfrwt beam="1">  1        2 0.30405099E+00 0.20817770E+04</pdfrwt>
<pdfrwt beam="2">  1       -2 0.84340332E-01 0.20817770E+04</pdfrwt>
<totfact> 0.77948982E+00</totfact>
</mgrwt>
</event>
<event>
12    1  0.1467288E-007  0.1641698E+04  0.7818608E-02  0.8795333E-01
         -2   -1    0    0    0  501 -0.00000000000E+00  0.00000000000E+00  0.45976433125E+03  0.45976433125E+03  0.00000000000E+00 0.  1.
          2   -1    0    0  501    0  0.00000000000E+00 -0.00000000000E+00 -0.14655187135E+04  0.14655187135E+04  0.00000000000E+00 0. -1.
         23    2    1    2    0    0  0.54581959442E+03 -0.15435810261E+03 -0.60208600673E+03  0.83231001890E+03  0.92124668592E+02 0.  0.
        254    2    1    2    0    0 -0.54581959442E+03  0.15435810261E+03 -0.40366837556E+03  0.10929730259E+04  0.84255351426E+03 0.  0.
        -24    2    4    4    0    0 -0.27082832756E+03  0.47100056100E+03 -0.37757734054E+03  0.66640122657E+03  0.79601728675E+02 0.  0.
         24    2    4    4    0    0 -0.27499126687E+03 -0.31664245839E+03 -0.26091035017E+02  0.42657179932E+03  0.73485471762E+02 0.  0.
         11    1    3    3    0    0  0.47246863773E+03 -0.16314470910E+03 -0.50785314042E+03  0.71257113468E+03  0.00000000000E+00 0. -1.
        -11    1    3    3    0    0  0.73350956687E+02  0.87866064822E+01 -0.94232866312E+02  0.11973888422E+03  0.00000000000E+00 0.  1.
          4    1    6    6  502    0 -0.26989974987E+03 -0.29116304746E+03 -0.12417084882E+02  0.39721024556E+03  0.00000000000E+00 0. -1.
          1    1    5    5  503    0 -0.95570388494E+02  0.18713416632E+03 -0.19207833532E+03  0.28468751687E+03  0.00000000000E+00 0. -1.
         -2    1    5    5    0  503 -0.17525793906E+03  0.28386639468E+03 -0.18549900522E+03  0.38171370970E+03  0.00000000000E+00 0.  1.
         -3    1    6    6    0  502 -0.50915169983E+01 -0.25479410931E+02 -0.13673950135E+02  0.29361553757E+02  0.00000000000E+00 0.  1.
<mgrwt>
<rscale>  0 0.16416982E+04</rscale>
<asrwt>0</asrwt>
<pdfrwt beam="1">  1        2 0.22546442E+00 0.16416982E+04</pdfrwt>
<pdfrwt beam="2">  1       -2 0.70732975E-01 0.16416982E+04</pdfrwt>
<totfact> 0.23059925E+01</totfact>
</mgrwt>
</event>
<event>
12    1  0.1555363E-007  0.1570729E+04  0.7818608E-02  0.8838735E-01
          2   -1    0    0  501    0  0.00000000000E+00  0.00000000000E+00  0.20633750654E+04  0.20633750654E+04  0.00000000000E+00 0. -1.
         -2   -1    0    0    0  501 -0.00000000000E+00 -0.00000000000E+00 -0.29892645042E+03  0.29892645042E+03  0.00000000000E+00 0.  1.
         23    2    1    2    0    0 -0.28633522643E+03  0.35148474713E+03  0.10065177696E+04  0.11077358427E+04  0.92039596168E+02 0.  0.
        254    2    1    2    0    0  0.28633522643E+03 -0.35148474713E+03  0.75793084544E+03  0.12545656732E+04  0.89103674029E+03 0.  0.
        -24    2    4    4    0    0  0.28388441021E+03 -0.19215952446E+02  0.85065649330E+03  0.90051852763E+03  0.79734169720E+02 0.  0.
         24    2    4    4    0    0  0.24508162204E+01 -0.33226879468E+03 -0.92725647863E+02  0.35404714557E+03  0.79641553799E+02 0.  0.
         11    1    3    3    0    0 -0.19769261911E+03  0.17650408071E+03  0.53493483277E+03  0.59698520708E+03  0.00000000000E+00 0.  1.
        -11    1    3    3    0    0 -0.88642607321E+02  0.17498066642E+03  0.47158293681E+03  0.51075063558E+03  0.00000000000E+00 0. -1.
          4    1    6    6  502    0  0.10676619809E+01 -0.33372316661E+03 -0.82695326179E+02  0.34381798791E+03  0.00000000000E+00 0. -1.
          3    1    5    5  503    0  0.25888427493E+03  0.71858969014E+01  0.75505482486E+03  0.79823586331E+03  0.00000000000E+00 0. -1.
         -2    1    5    5    0  503  0.25000135285E+02 -0.26401849347E+02  0.95601668441E+02  0.10228266433E+03  0.00000000000E+00 0.  1.
         -1    1    6    6    0  502  0.13831542395E+01  0.14543719286E+01 -0.10030321684E+02  0.10229157661E+02  0.00000000000E+00 0.  1.
<mgrwt>
<rscale>  0 0.15707290E+04</rscale>
<asrwt>0</asrwt>
<pdfrwt beam="1">  1        2 0.31744231E+00 0.15707290E+04</pdfrwt>
<pdfrwt beam="2">  1       -2 0.45988686E-01 0.15707290E+04</pdfrwt>
<totfact> 0.26550208E+01</totfact>
</mgrwt>
</event>
<event>
12    1  0.1467288E-007  0.1435751E+04  0.7818608E-02  0.8928339E-01
          2   -1    0    0  501    0  0.00000000000E+00  0.00000000000E+00  0.21744019234E+04  0.21744019234E+04  0.00000000000E+00 0. -1.
         -2   -1    0    0    0  501 -0.00000000000E+00 -0.00000000000E+00 -0.23700537592E+03  0.23700537592E+03  0.00000000000E+00 0.  1.
         23    2    1    2    0    0 -0.36132646710E+03  0.22785130441E+03  0.48815192487E+03  0.65511989560E+03  0.91742809553E+02 0.  0.
        254    2    1    2    0    0  0.36132646710E+03 -0.22785130441E+03  0.14492446226E+04  0.17562874037E+04  0.89541188041E+03 0.  0.
        -24    2    4    4    0    0 -0.15550317555E+03 -0.32520527735E+03  0.97999089289E+03  0.10470733781E+04  0.77722577145E+02 0.  0.
         24    2    4    4    0    0  0.51682964265E+03  0.97353972944E+02  0.46925372974E+03  0.70921402562E+03  0.78707024434E+02 0.  0.
         11    1    3    3    0    0 -0.32953747808E+03  0.21918866745E+03  0.47812714261E+03  0.62068042172E+03  0.00000000000E+00 0. -1.
        -11    1    3    3    0    0 -0.31788989015E+02  0.86626369567E+01  0.10024782256E+02  0.34439473877E+02  0.00000000000E+00 0.  1.
          4    1    6    6  502    0  0.24252497811E+03  0.59134375762E+02  0.27205043604E+03  0.36922442924E+03  0.00000000000E+00 0. -1.
          3    1    5    5  503    0 -0.15862749600E+03 -0.32106633336E+03  0.97802526358E+03  0.10415275748E+04  0.00000000000E+00 0. -1.
         -4    1    5    5    0  503  0.31243204508E+01 -0.41389439984E+01  0.19656293080E+01  0.55458033032E+01  0.00000000000E+00 0.  1.
         -3    1    6    6    0  502  0.27430466454E+03  0.38219597182E+02  0.19720329370E+03  0.33998959638E+03  0.00000000000E+00 0.  1.
<mgrwt>
<rscale>  0 0.14357506E+04</rscale>
<asrwt>0</asrwt>
<pdfrwt beam="1">  1        2 0.33452336E+00 0.14357506E+04</pdfrwt>
<pdfrwt beam="2">  1       -2 0.36462367E-01 0.14357506E+04</pdfrwt>
<totfact> 0.36739577E+01</totfact>
</mgrwt>
</event>
<event>
12    1  0.1467288E-007  0.1351897E+04  0.7818608E-02  0.8989393E-01
          2   -1    0    0  501    0  0.00000000000E+00  0.00000000000E+00  0.27657642806E+04  0.27657642806E+04  0.00000000000E+00 0. -1.
         -2   -1    0    0    0  501 -0.00000000000E+00 -0.00000000000E+00 -0.16520072688E+03  0.16520072688E+03  0.00000000000E+00 0.  1.
         23    2    1    2    0    0 -0.96314739056E+02 -0.35305256553E+03  0.61971974473E+03  0.72517912478E+03  0.88935695989E+02 0.  0.
        254    2    1    2    0    0  0.96314739056E+02  0.35305256553E+03  0.19808438090E+04  0.22057858827E+04  0.89879170096E+03 0.  0.
        -24    2    4    4    0    0 -0.10770215248E+03  0.27375777145E+03  0.11792800704E+03  0.32830125889E+03  0.85624941838E+02 0.  0.
         24    2    4    4    0    0  0.20401689153E+03  0.79294794085E+02  0.18629158019E+04  0.18774846238E+04  0.81133661998E+02 0.  0.
         11    1    3    3    0    0  0.91631410547E+01 -0.39823156716E+02  0.36368027318E+02  0.54703568219E+02  0.00000000000E+00 0.  1.
        -11    1    3    3    0    0 -0.10547788011E+03 -0.31322940882E+03  0.58335171741E+03  0.67047555656E+03  0.00000000000E+00 0. -1.
          2    1    6    6  502    0  0.30191394248E+01  0.21277326699E+02  0.10594393567E+03  0.10810160656E+03  0.00000000000E+00 0. -1.
          1    1    5    5  503    0 -0.32788801818E+01  0.36901854596E+02  0.47116777566E+02  0.59937372782E+02  0.00000000000E+00 0. -1.
         -2    1    5    5    0  503 -0.10442327230E+03  0.23685591685E+03  0.70811229478E+02  0.26836388610E+03  0.00000000000E+00 0.  1.
         -1    1    6    6    0  502  0.20099775211E+03  0.58017467386E+02  0.17569718663E+04  0.17693830172E+04  0.00000000000E+00 0.  1.
<mgrwt>
<rscale>  0 0.13518968E+04</rscale>
<asrwt>0</asrwt>
<pdfrwt beam="1">  1        2 0.42550216E+00 0.13518968E+04</pdfrwt>
<pdfrwt beam="2">  1       -2 0.25415498E-01 0.13518968E+04</pdfrwt>
<totfact> 0.33209031E+01</totfact>
</mgrwt>
</event>
<event>
12    1  0.1467288E-007  0.1447873E+04  0.7818608E-02  0.8919877E-01
         -2   -1    0    0    0  501 -0.00000000000E+00  0.00000000000E+00  0.11078495412E+04  0.11078495412E+04  0.00000000000E+00 0.  1.
          2   -1    0    0  501    0  0.00000000000E+00 -0.00000000000E+00 -0.47306416967E+03  0.47306416967E+03  0.00000000000E+00 0. -1.
         23    2    1    2    0    0  0.62055576856E+02  0.71653018823E+02  0.69393654503E+03  0.70641259153E+03  0.92118245915E+02 0.  0.
        254    2    1    2    0    0 -0.62055576856E+02 -0.71653018823E+02 -0.59151173521E+02  0.87450111932E+03  0.86733401676E+03 0.  0.
        -24    2    4    4    0    0 -0.28980239325E+02 -0.37852752239E+03  0.22435023999E+03  0.44813530676E+03  0.79807791001E+02 0.  0.
         24    2    4    4    0    0 -0.33075337532E+02  0.30687450357E+03 -0.28350141351E+03  0.42636581255E+03  0.78414384872E+02 0.  0.
         13    1    3    3    0    0  0.73998838560E+02  0.50318848006E+02  0.33825784455E+03  0.34989453265E+03  0.00000000000E+00 0.  1.
        -13    1    3    3    0    0 -0.11943261704E+02  0.21334170817E+02  0.35567870047E+03  0.35651805889E+03  0.00000000000E+00 0. -1.
          2    1    6    6  502    0 -0.56895035272E+01  0.61656952718E+02 -0.19285482795E+02  0.64852757193E+02  0.00000000000E+00 0. -1.
          1    1    5    5  503    0 -0.73813506192E+01 -0.99866752557E+00  0.12871030859E+02  0.14870948496E+02  0.00000000000E+00 0. -1.
         -2    1    5    5    0  503 -0.21598888706E+02 -0.37752885487E+03  0.21147920913E+03  0.43326435827E+03  0.00000000000E+00 0.  1.
         -1    1    6    6    0  502 -0.27385834004E+02  0.24521755085E+03 -0.26421593072E+03  0.36151305536E+03  0.00000000000E+00 0.  1.
<mgrwt>
<rscale>  0 0.14478728E+04</rscale>
<asrwt>0</asrwt>
<pdfrwt beam="1">  1        2 0.72779104E-01 0.14478728E+04</pdfrwt>
<pdfrwt beam="2">  1       -2 0.17043839E+00 0.14478728E+04</pdfrwt>
<totfact> 0.13462125E+01</totfact>
</mgrwt>
</event>
<event>
12    1  0.1467288E-007  0.2277562E+04  0.7818608E-02  0.8486821E-01
          2   -1    0    0  501    0  0.00000000000E+00  0.00000000000E+00  0.21573117852E+04  0.21573117852E+04  0.00000000000E+00 0. -1.
         -2   -1    0    0    0  501 -0.00000000000E+00 -0.00000000000E+00 -0.60112861655E+03  0.60112861655E+03  0.00000000000E+00 0.  1.
         23    2    1    2    0    0  0.56954625658E+03  0.47131692744E+03  0.14012717755E+04  0.15869664911E+04  0.91528523373E+02 0.  0.
        254    2    1    2    0    0 -0.56954625658E+03 -0.47131692744E+03  0.15491139318E+03  0.11714739107E+04  0.89545016567E+03 0.  0.
        -24    2    4    4    0    0 -0.79457231701E+03 -0.27371257122E+03  0.17009422638E+03  0.86098568505E+03  0.78106116364E+02 0.  0.
         24    2    4    4    0    0  0.22502606043E+03 -0.19760435622E+03 -0.15182833198E+02  0.31048822564E+03  0.80549428077E+02 0.  0.
         13    1    3    3    0    0  0.36192332355E+03  0.33908301562E+03  0.86982300183E+03  0.10012781023E+04  0.00000000000E+00 0. -1.
        -13    1    3    3    0    0  0.20762293302E+03  0.13223391182E+03  0.53144877362E+03  0.58568838877E+03  0.00000000000E+00 0.  1.
          2    1    6    6  502    0  0.17343171833E+03 -0.10541766261E+03  0.46019595426E+01  0.20300892232E+03  0.00000000000E+00 0. -1.
          3    1    5    5  503    0 -0.59425828006E+03 -0.23277062645E+03  0.10787487038E+03  0.64727278301E+03  0.00000000000E+00 0. -1.
         -4    1    5    5    0  503 -0.20031403694E+03 -0.40941944769E+02  0.62219356000E+02  0.21371290204E+03  0.00000000000E+00 0.  1.
         -1    1    6    6    0  502  0.51594342105E+02 -0.92186693614E+02 -0.19784792740E+02  0.10747930331E+03  0.00000000000E+00 0.  1.
<mgrwt>
<rscale>  0 0.22775617E+04</rscale>
<asrwt>0</asrwt>
<pdfrwt beam="1">  1        2 0.33189412E+00 0.22775617E+04</pdfrwt>
<pdfrwt beam="2">  1       -2 0.92481327E-01 0.22775617E+04</pdfrwt>
<totfact> 0.49176590E+00</totfact>
</mgrwt>
</event>
<event>
12    1  0.1467288E-007  0.1798103E+04  0.7818608E-02  0.8707309E-01
          1   -1    0    0  501    0  0.00000000000E+00  0.00000000000E+00  0.17738521340E+04  0.17738521340E+04  0.00000000000E+00 0. -1.
         -1   -1    0    0    0  501 -0.00000000000E+00 -0.00000000000E+00 -0.45567144455E+03  0.45567144455E+03  0.00000000000E+00 0.  1.
         23    2    1    2    0    0  0.25232648423E+03 -0.61253609763E+03  0.62143622886E+03  0.91292488378E+03  0.91540872480E+02 0.  0.
        254    2    1    2    0    0 -0.25232648423E+03  0.61253609763E+03  0.69674446059E+03  0.13165986948E+04  0.89950550535E+03 0.  0.
        -24    2    4    4    0    0 -0.52246263130E+03  0.58065425825E+03  0.32703272344E+03  0.85053720657E+03  0.79602568039E+02 0.  0.
         24    2    4    4    0    0  0.27013614707E+03  0.31881839388E+02  0.36971173715E+03  0.46606148819E+03  0.80848948994E+02 0.  0.
         11    1    3    3    0    0  0.11925823187E+03 -0.24343847714E+03  0.19824248991E+03  0.33583463613E+03  0.00000000000E+00 0.  1.
        -11    1    3    3    0    0  0.13306825236E+03 -0.36909762049E+03  0.42319373895E+03  0.57709024765E+03  0.00000000000E+00 0. -1.
          4    1    6    6  502    0  0.20605294538E+03  0.46387903394E+02  0.23363462189E+03  0.31495204465E+03  0.00000000000E+00 0. -1.
          1    1    5    5  503    0 -0.52051267420E+03  0.57939274300E+03  0.33072697437E+03  0.84617357925E+03  0.00000000000E+00 0. -1.
         -2    1    5    5    0  503 -0.19499571009E+01  0.12615152463E+01 -0.36942509365E+01  0.43636273207E+01  0.00000000000E+00 0.  1.
         -3    1    6    6    0  502  0.64083201692E+02 -0.14506064006E+02  0.13607711526E+03  0.15110944355E+03  0.00000000000E+00 0.  1.
<mgrwt>
<rscale>  0 0.17981032E+04</rscale>
<asrwt>0</asrwt>
<pdfrwt beam="1">  1        1 0.27290032E+00 0.17981032E+04</pdfrwt>
<pdfrwt beam="2">  1       -1 0.70103300E-01 0.17981032E+04</pdfrwt>
<totfact> 0.82391942E+00</totfact>
</mgrwt>
</event>
<event>
12    1  0.1467288E-007  0.1848494E+04  0.7818608E-02  0.8680928E-01
          2   -1    0    0  501    0  0.00000000000E+00  0.00000000000E+00  0.41764454694E+04  0.41764454694E+04  0.00000000000E+00 0. -1.
         -2   -1    0    0    0  501 -0.00000000000E+00 -0.00000000000E+00 -0.20453576497E+03  0.20453576497E+03  0.00000000000E+00 0.  1.
         23    2    1    2    0    0 -0.54270447985E+03 -0.17149648486E+03  0.25023065069E+04  0.25678437786E+04  0.91348891917E+02 0.  0.
        254    2    1    2    0    0  0.54270447985E+03  0.17149648486E+03  0.14696031975E+04  0.18131374558E+04  0.89654597126E+03 0.  0.
        -24    2    4    4    0    0 -0.97395724540E+01  0.43621296242E+03  0.62631187106E+03  0.76776824348E+03  0.82613001528E+02 0.  0.
         24    2    4    4    0    0  0.55244405230E+03 -0.26471647756E+03  0.84329132646E+03  0.10453692123E+04  0.79920487291E+02 0.  0.
         13    1    3    3    0    0 -0.44567135301E+03 -0.13120519270E+03  0.18686822970E+04  0.19255677824E+04  0.00000000000E+00 0. -1.
        -13    1    3    3    0    0 -0.97033126842E+02 -0.40291292159E+02  0.63362420986E+03  0.64227599616E+03  0.00000000000E+00 0.  1.
          2    1    6    6  502    0  0.44864063273E+03 -0.24240645915E+03  0.66741588363E+03  0.83993051528E+03  0.00000000000E+00 0. -1.
          3    1    5    5  503    0  0.22379838414E+01  0.36353586217E+03  0.56538372719E+03  0.67217712742E+03  0.00000000000E+00 0. -1.
         -2    1    5    5    0  503 -0.11977556295E+02  0.72677100249E+02  0.60928143872E+02  0.95591116068E+02  0.00000000000E+00 0.  1.
         -1    1    6    6    0  502  0.10380341957E+03 -0.22310018414E+02  0.17587544283E+03  0.20543869700E+03  0.00000000000E+00 0.  1.
<mgrwt>
<rscale>  0 0.18484939E+04</rscale>
<asrwt>0</asrwt>
<pdfrwt beam="1">  1        2 0.64253001E+00 0.18484939E+04</pdfrwt>
<pdfrwt beam="2">  1       -2 0.31467044E-01 0.18484939E+04</pdfrwt>
<totfact> 0.21833948E+00</totfact>
</mgrwt>
</event>
<event>
12    1  0.1467288E-007  0.2011178E+04  0.7818608E-02  0.8601412E-01
          1   -1    0    0  501    0  0.00000000000E+00  0.00000000000E+00  0.10123075415E+04  0.10123075415E+04  0.00000000000E+00 0. -1.
         -1   -1    0    0    0  501 -0.00000000000E+00 -0.00000000000E+00 -0.99891508523E+03  0.99891508523E+03  0.00000000000E+00 0.  1.
         23    2    1    2    0    0 -0.10564515228E+03  0.47282827210E+03  0.64559359345E+03  0.81269490149E+03  0.94627912948E+02 0.  0.
        254    2    1    2    0    0  0.10564515228E+03 -0.47282827210E+03 -0.63220113716E+03  0.11985277253E+04  0.89557967668E+03 0.  0.
        -24    2    4    4    0    0  0.16231498453E+03  0.22540858667E+03 -0.71271419083E+02  0.29748880206E+03  0.79150407615E+02 0.  0.
         24    2    4    4    0    0 -0.56669832247E+02 -0.69823685877E+03 -0.56092971808E+03  0.90103892320E+03  0.80515909316E+02 0.  0.
         11    1    3    3    0    0 -0.10624705047E+03  0.36748702913E+03  0.55315950070E+03  0.67254783140E+03  0.00000000000E+00 0. -1.
        -11    1    3    3    0    0  0.60189818384E+00  0.10534124297E+03  0.92434092751E+02  0.14014707009E+03  0.00000000000E+00 0.  1.
          2    1    6    6  502    0 -0.40425316641E+02 -0.67674952142E+03 -0.53468147453E+03  0.86342828317E+03  0.00000000000E+00 0. -1.
          1    1    5    5  503    0  0.11082801669E+03  0.91392297371E+02 -0.19969173596E+02  0.14503161447E+03  0.00000000000E+00 0. -1.
         -2    1    5    5    0  503  0.51486967837E+02  0.13401628930E+03 -0.51302245487E+02  0.15245718759E+03  0.00000000000E+00 0.  1.
         -1    1    6    6    0  502 -0.16244515606E+02 -0.21487337348E+02 -0.26248243554E+02  0.37610640027E+02  0.00000000000E+00 0.  1.
<mgrwt>
<rscale>  0 0.20111780E+04</rscale>
<asrwt>0</asrwt>
<pdfrwt beam="1">  1        1 0.15573962E+00 0.20111780E+04</pdfrwt>
<pdfrwt beam="2">  1       -1 0.15367924E+00 0.20111780E+04</pdfrwt>
<totfact> 0.44810955E+00</totfact>
</mgrwt>
</event>
<event>
12    1  0.1467288E-007  0.1164188E+04  0.7818608E-02  0.9144793E-01
          1   -1    0    0  501    0  0.00000000000E+00  0.00000000000E+00  0.62679692938E+03  0.62679692938E+03  0.00000000000E+00 0. -1.
         -1   -1    0    0    0  501 -0.00000000000E+00 -0.00000000000E+00 -0.54057963572E+03  0.54057963572E+03  0.00000000000E+00 0.  1.
         23    2    1    2    0    0 -0.77934925225E+02  0.35814818748E+02 -0.18636339784E+03  0.22469826838E+03  0.91659380045E+02 0.  0.
        254    2    1    2    0    0  0.77934925225E+02 -0.35814818748E+02  0.27258069150E+03  0.94267829672E+03  0.89832376341E+03 0.  0.
        -24    2    4    4    0    0  0.15541786247E+03  0.20545040804E+02  0.58211235198E+03  0.60778883056E+03  0.77302403255E+02 0.  0.
         24    2    4    4    0    0 -0.77482937247E+02 -0.56359859552E+02 -0.30953166048E+03  0.33488946616E+03  0.84623084172E+02 0.  0.
         11    1    3    3    0    0  0.67501327134E+01  0.75826137080E+01  0.65851662127E+01  0.12100608924E+02  0.00000000000E+00 0. -1.
        -11    1    3    3    0    0 -0.84685057939E+02  0.28232205040E+02 -0.19294856405E+03  0.21259765946E+03  0.00000000000E+00 0.  1.
          2    1    6    6  502    0 -0.80080011024E+02 -0.47950948759E+02 -0.16101809783E+03  0.18611536606E+03  0.00000000000E+00 0. -1.
          3    1    5    5  503    0  0.82467602077E+01 -0.20367215009E+02  0.67779702640E+02  0.71252512876E+02  0.00000000000E+00 0. -1.
         -4    1    5    5    0  503  0.14717110226E+03  0.40912255813E+02  0.51433264934E+03  0.53653631768E+03  0.00000000000E+00 0.  1.
         -1    1    6    6    0  502  0.25970737767E+01 -0.84089107937E+01 -0.14851356264E+03  0.14877410010E+03  0.00000000000E+00 0.  1.
<mgrwt>
<rscale>  0 0.11641884E+04</rscale>
<asrwt>0</asrwt>
<pdfrwt beam="1">  1        1 0.96430297E-01 0.11641884E+04</pdfrwt>
<pdfrwt beam="2">  1       -1 0.83166098E-01 0.11641884E+04</pdfrwt>
<totfact> 0.45788302E+01</totfact>
</mgrwt>
</event>
<event>
12    1  0.1467288E-007  0.1590599E+04  0.7818608E-02  0.8826344E-01
         -2   -1    0    0    0  501 -0.00000000000E+00  0.00000000000E+00  0.67160971305E+03  0.67160971305E+03  0.00000000000E+00 0.  1.
          2   -1    0    0  501    0  0.00000000000E+00 -0.00000000000E+00 -0.94176950135E+03  0.94176950135E+03  0.00000000000E+00 0. -1.
         23    2    1    2    0    0  0.34611654209E+03 -0.10880606925E+03  0.41487195961E+03  0.55751792975E+03  0.84095646211E+02 0.  0.
        254    2    1    2    0    0 -0.34611654209E+03  0.10880606925E+03 -0.68503174790E+03  0.10558612846E+04  0.71689548427E+03 0.  0.
        -24    2    4    4    0    0 -0.24920788758E+03 -0.18938672152E+03 -0.29449455984E+02  0.32482299197E+03  0.81674990875E+02 0.  0.
         24    2    4    4    0    0 -0.96908654508E+02  0.29819279077E+03 -0.65558229192E+03  0.73103829268E+03  0.79489723190E+02 0.  0.
         11    1    3    3    0    0  0.22911952035E+03 -0.49892154655E+02  0.21250364308E+03  0.31645344053E+03  0.00000000000E+00 0.  1.
        -11    1    3    3    0    0  0.11699702174E+03 -0.58913914598E+02  0.20236831653E+03  0.24106448922E+03  0.00000000000E+00 0. -1.
          4    1    6    6  502    0 -0.27180212187E+02  0.20205330704E+03 -0.43901462225E+03  0.48404353251E+03  0.00000000000E+00 0. -1.
          3    1    5    5  503    0 -0.11952708224E+03 -0.48894153191E+02  0.10262642517E+02  0.12954799665E+03  0.00000000000E+00 0. -1.
         -2    1    5    5    0  503 -0.12968080534E+03 -0.14049256833E+03 -0.39712098501E+02  0.19527499532E+03  0.00000000000E+00 0.  1.
         -3    1    6    6    0  502 -0.69728442321E+02  0.96139483737E+02 -0.21656766967E+03  0.24699476016E+03  0.00000000000E+00 0.  1.
<mgrwt>
<rscale>  0 0.15905993E+04</rscale>
<asrwt>0</asrwt>
<pdfrwt beam="1">  1        2 0.14488762E+00 0.15905993E+04</pdfrwt>
<pdfrwt beam="2">  1       -2 0.10332457E+00 0.15905993E+04</pdfrwt>
<totfact> 0.20159365E+01</totfact>
</mgrwt>
</event>
<event>
12    1  0.1467288E-007  0.1715816E+04  0.7818608E-02  0.8752395E-01
          1   -1    0    0  501    0  0.00000000000E+00  0.00000000000E+00  0.64183311813E+03  0.64183311813E+03  0.00000000000E+00 0. -1.
         -1   -1    0    0    0  501 -0.00000000000E+00 -0.00000000000E+00 -0.11467246304E+04  0.11467246304E+04  0.00000000000E+00 0.  1.
         23    2    1    2    0    0  0.82689031016E+02  0.17520948796E+03 -0.78473355985E+03  0.81332384619E+03  0.90294397983E+02 0.  0.
        254    2    1    2    0    0 -0.82689031016E+02 -0.17520948796E+03  0.27984204761E+03  0.97523390231E+03  0.91391123862E+03 0.  0.
        -24    2    4    4    0    0 -0.41823841598E+03 -0.30458251999E+03  0.30314423942E+03  0.60505450234E+03  0.80626526782E+02 0.  0.
         24    2    4    4    0    0  0.33554938497E+03  0.12937303202E+03 -0.23302191808E+02  0.37017939997E+03  0.84611020870E+02 0.  0.
         13    1    3    3    0    0  0.15299819606E+02 -0.88418945523E+01 -0.71199398229E+02  0.73359511226E+02  0.00000000000E+00 0. -1.
        -13    1    3    3    0    0  0.67389211410E+02  0.18405138252E+03 -0.71353416162E+03  0.73996433497E+03  0.00000000000E+00 0.  1.
          2    1    6    6  502    0  0.12078335114E+03  0.19389929228E+02  0.23037557224E+02  0.12448018441E+03  0.00000000000E+00 0. -1.
          3    1    5    5  503    0 -0.40288749406E+03 -0.27024889605E+03  0.27171125133E+03  0.55603938959E+03  0.00000000000E+00 0. -1.
         -4    1    5    5    0  503 -0.15350921926E+02 -0.34333623942E+02  0.31432988095E+02  0.49015112746E+02  0.00000000000E+00 0.  1.
         -1    1    6    6    0  502  0.21476603383E+03  0.10998310279E+03 -0.46339749032E+02  0.24569921556E+03  0.00000000000E+00 0.  1.
<mgrwt>
<rscale>  0 0.17158157E+04</rscale>
<asrwt>0</asrwt>
<pdfrwt beam="1">  1        1 0.98743558E-01 0.17158157E+04</pdfrwt>
<pdfrwt beam="2">  1       -1 0.17641917E+00 0.17158157E+04</pdfrwt>
<totfact> 0.65134592E+00</totfact>
</mgrwt>
</event>
<event>
12    1  0.1467288E-007  0.3953875E+04  0.7818608E-02  0.8013917E-01
         -1   -1    0    0    0  501 -0.00000000000E+00  0.00000000000E+00  0.16870742412E+04  0.16870742412E+04  0.00000000000E+00 0.  1.
          1   -1    0    0  501    0  0.00000000000E+00 -0.00000000000E+00 -0.23166033049E+04  0.23166033049E+04  0.00000000000E+00 0. -1.
         23    2    1    2    0    0 -0.14197385592E+04 -0.92420002348E+03 -0.11097985451E+04  0.20273258325E+04  0.92703616865E+02 0.  0.
        254    2    1    2    0    0  0.14197385592E+04  0.92420002348E+03  0.48026948148E+03  0.19763517136E+04  0.89749878062E+03 0.  0.
        -24    2    4    4    0    0  0.11840541085E+04  0.90388021413E+03  0.69589769299E+03  0.16458230532E+04  0.74002363168E+02 0.  0.
         24    2    4    4    0    0  0.23568445064E+03  0.20319809348E+02 -0.21562821151E+03  0.33052866045E+03  0.82423387781E+02 0.  0.
         11    1    3    3    0    0 -0.12805149537E+04 -0.80200345175E+03 -0.97458167394E+03  0.17979815134E+04  0.00000000000E+00 0. -1.
        -11    1    3    3    0    0 -0.13922360548E+03 -0.12219657173E+03 -0.13521687118E+03  0.22934431913E+03  0.00000000000E+00 0.  1.
          2    1    6    6  502    0  0.73599476684E+02  0.42596407100E+02 -0.55157381704E+02  0.10135913191E+03  0.00000000000E+00 0. -1.
          3    1    5    5  503    0  0.24124593312E+03  0.17389061894E+03  0.10799613114E+03  0.31638696551E+03  0.00000000000E+00 0. -1.
         -4    1    5    5    0  503  0.94280817542E+03  0.72998959519E+03  0.58790156184E+03  0.13294360876E+04  0.00000000000E+00 0.  1.
         -1    1    6    6    0  502  0.16208497395E+03 -0.22276597753E+02 -0.16047082981E+03  0.22916952853E+03  0.00000000000E+00 0.  1.
<mgrwt>
<rscale>  0 0.39538749E+04</rscale>
<asrwt>0</asrwt>
<pdfrwt beam="1">  1        1 0.35640051E+00 0.39538749E+04</pdfrwt>
<pdfrwt beam="2">  1       -1 0.25954988E+00 0.39538749E+04</pdfrwt>
<totfact> 0.86042967E-02</totfact>
</mgrwt>
</event>
<event>
12    1  0.1467288E-007  0.1506435E+04  0.7818608E-02  0.8880185E-01
         -1   -1    0    0    0  501 -0.00000000000E+00  0.00000000000E+00  0.14988828223E+03  0.14988828223E+03  0.00000000000E+00 0.  1.
          1   -1    0    0  501    0  0.00000000000E+00 -0.00000000000E+00 -0.37850652813E+04  0.37850652813E+04  0.00000000000E+00 0. -1.
         23    2    1    2    0    0  0.26689103761E+03  0.15769460627E+03 -0.20457482427E+03  0.38298074583E+03  0.93407591505E+02 0.  0.
        254    2    1    2    0    0 -0.26689103761E+03 -0.15769460627E+03 -0.34306021748E+04  0.35519728177E+04  0.86682247378E+03 0.  0.
        -24    2    4    4    0    0  0.21105363044E+03  0.86561573848E+02 -0.21169053811E+04  0.21306486279E+04  0.79615588624E+02 0.  0.
         24    2    4    4    0    0 -0.47794466805E+03 -0.24425618011E+03 -0.13136967937E+04  0.14213241898E+04  0.79189642759E+02 0.  0.
         13    1    3    3    0    0  0.19019768098E+03  0.14599832349E+03 -0.11969386687E+03  0.26798748120E+03  0.00000000000E+00 0.  1.
        -13    1    3    3    0    0  0.76693356636E+02  0.11696282775E+02 -0.84880957402E+02  0.11499326464E+03  0.00000000000E+00 0. -1.
          4    1    6    6  502    0 -0.67374429617E+02 -0.57258566272E+02 -0.27547161697E+03  0.28931378974E+03  0.00000000000E+00 0. -1.
          1    1    5    5  503    0  0.37776644231E+02  0.52909634896E+02 -0.59499026636E+03  0.59853147066E+03  0.00000000000E+00 0. -1.
         -2    1    5    5    0  503  0.17327698621E+03  0.33651938952E+02 -0.15219151148E+04  0.15321171573E+04  0.00000000000E+00 0.  1.
         -3    1    6    6    0  502 -0.41057023843E+03 -0.18699761384E+03 -0.10382251767E+04  0.11320104000E+04  0.00000000000E+00 0.  1.
<mgrwt>
<rscale>  0 0.15064354E+04</rscale>
<asrwt>0</asrwt>
<pdfrwt beam="1">  1        1 0.58231769E+00 0.15064354E+04</pdfrwt>
<pdfrwt beam="2">  1       -1 0.23059737E-01 0.15064354E+04</pdfrwt>
<totfact> 0.23169153E+00</totfact>
</mgrwt>
</event>
<event>
12    1  0.1467288E-007  0.1381997E+04  0.7818608E-02  0.8966954E-01
         -2   -1    0    0    0  501 -0.00000000000E+00  0.00000000000E+00  0.28564024424E+03  0.28564024424E+03  0.00000000000E+00 0.  1.
          2   -1    0    0  501    0  0.00000000000E+00 -0.00000000000E+00 -0.16716097944E+04  0.16716097944E+04  0.00000000000E+00 0. -1.
         23    2    1    2    0    0  0.29520596288E+03  0.82990473898E+01 -0.76073447409E+03  0.82096429224E+03  0.89721760703E+02 0.  0.
        254    2    1    2    0    0 -0.29520596288E+03 -0.82990473898E+01 -0.62523507606E+03  0.11362857464E+04  0.90167120527E+03 0.  0.
        -24    2    4    4    0    0 -0.12611418227E+03 -0.40912714998E+03 -0.52649568839E+03  0.68323831550E+03  0.79542906994E+02 0.  0.
         24    2    4    4    0    0 -0.16909178061E+03  0.40082810259E+03 -0.98739387672E+02  0.45304743090E+03  0.79039925800E+02 0.  0.
         13    1    3    3    0    0  0.25149853541E+03  0.39975008200E+02 -0.63088880900E+03  0.68034565033E+03  0.00000000000E+00 0. -1.
        -13    1    3    3    0    0  0.43707427473E+02 -0.31675960810E+02 -0.12984566509E+03  0.14061864191E+03  0.00000000000E+00 0.  1.
          2    1    6    6  502    0  0.33626757036E+00  0.73311444346E+02 -0.19960601737E+02  0.75980961890E+02  0.00000000000E+00 0. -1.
          1    1    5    5  503    0 -0.66991976748E+01 -0.69180668231E+02 -0.13049467841E+03  0.14785027968E+03  0.00000000000E+00 0. -1.
         -2    1    5    5    0  503 -0.11941498460E+03 -0.33994648175E+03 -0.39600100998E+03  0.53538803582E+03  0.00000000000E+00 0.  1.
         -1    1    6    6    0  502 -0.16942804818E+03  0.32751665824E+03 -0.78778785936E+02  0.37706646901E+03  0.00000000000E+00 0.  1.
<mgrwt>
<rscale>  0 0.13819971E+04</rscale>
<asrwt>0</asrwt>
<pdfrwt beam="1">  1        2 0.25717074E+00 0.13819971E+04</pdfrwt>
<pdfrwt beam="2">  1       -2 0.43944652E-01 0.13819971E+04</pdfrwt>
<totfact> 0.48665910E+01</totfact>
</mgrwt>
</event>
<event>
12    1  0.1467288E-007  0.2239352E+04  0.7818608E-02  0.8502225E-01
         -1   -1    0    0    0  501 -0.00000000000E+00  0.00000000000E+00  0.20817056851E+04  0.20817056851E+04  0.00000000000E+00 0.  1.
          1   -1    0    0  501    0  0.00000000000E+00 -0.00000000000E+00 -0.60223398561E+03  0.60223398561E+03  0.00000000000E+00 0. -1.
         23    2    1    2    0    0  0.35689118933E+03  0.21728135217E+03  0.16380752887E+04  0.16929948121E+04  0.91423603561E+02 0.  0.
        254    2    1    2    0    0 -0.35689118933E+03 -0.21728135217E+03 -0.15860358922E+03  0.99094485861E+03  0.88443999642E+03 0.  0.
        -24    2    4    4    0    0  0.19623863058E+02 -0.53806611416E+02 -0.46293749719E+03  0.47355353174E+03  0.81618464141E+02 0.  0.
         24    2    4    4    0    0 -0.37651505239E+03 -0.16347474076E+03  0.30433390797E+03  0.51739132687E+03  0.81160840538E+02 0.  0.
         11    1    3    3    0    0  0.36016898929E+03  0.20397140654E+03  0.15790172125E+04  0.16323668071E+04  0.00000000000E+00 0.  1.
        -11    1    3    3    0    0 -0.32777999568E+01  0.13309945633E+02  0.59058076196E+02  0.60628004992E+02  0.00000000000E+00 0. -1.
          4    1    6    6  502    0 -0.70888554300E+02 -0.53584317981E+02  0.35163088428E+02  0.95566254776E+02  0.00000000000E+00 0. -1.
          3    1    5    5  503    0 -0.70374504401E+00  0.58514268918E+01  0.43947643925E+00  0.59099571316E+01  0.00000000000E+00 0. -1.
         -4    1    5    5    0  503  0.20327608102E+02 -0.59658038307E+02 -0.46337697363E+03  0.46764357461E+03  0.00000000000E+00 0.  1.
         -3    1    6    6    0  502 -0.30562649809E+03 -0.10989042278E+03  0.26917081954E+03  0.42182507209E+03  0.00000000000E+00 0.  1.
<mgrwt>
<rscale>  0 0.22393516E+04</rscale>
<asrwt>0</asrwt>
<pdfrwt beam="1">  1        1 0.92651383E-01 0.22393516E+04</pdfrwt>
<pdfrwt beam="2">  1       -1 0.32026241E+00 0.22393516E+04</pdfrwt>
<totfact> 0.75497086E-01</totfact>
</mgrwt>
</event>
<event>
12    1  0.1467288E-007  0.1597396E+04  0.7818608E-02  0.8822150E-01
         -2   -1    0    0    0  501 -0.00000000000E+00  0.00000000000E+00  0.31744726784E+03  0.31744726784E+03  0.00000000000E+00 0.  1.
          2   -1    0    0  501    0  0.00000000000E+00 -0.00000000000E+00 -0.20095248251E+04  0.20095248251E+04  0.00000000000E+00 0. -1.
         23    2    1    2    0    0 -0.13832170865E+03  0.43724495345E+02 -0.13129009152E+04  0.13240526210E+04  0.91442897335E+02 0.  0.
        254    2    1    2    0    0  0.13832170865E+03 -0.43724495345E+02 -0.37917664202E+03  0.10029194719E+04  0.91707568644E+03 0.  0.
        -24    2    4    4    0    0  0.32615984024E+03 -0.33006660763E+03 -0.44064003159E+03  0.64457476611E+03  0.77387239258E+02 0.  0.
         24    2    4    4    0    0 -0.18783813159E+03  0.28634211229E+03  0.61463389575E+02  0.35834470578E+03  0.85780014907E+02 0.  0.
         11    1    3    3    0    0 -0.10172959177E+03  0.55523520774E+02 -0.66588639314E+03  0.67589678189E+03  0.00000000000E+00 0. -1.
        -11    1    3    3    0    0 -0.36592116887E+02 -0.11799025429E+02 -0.64701452206E+03  0.64815583911E+03  0.00000000000E+00 0.  1.
          2    1    6    6  502    0 -0.37090085971E+01  0.32249761013E+01  0.17009780421E+02  0.17705644456E+02  0.00000000000E+00 0. -1.
          3    1    5    5  503    0  0.96931655359E+02 -0.83659601056E+02 -0.78455265241E+02  0.15016625221E+03  0.00000000000E+00 0. -1.
         -4    1    5    5    0  503  0.22922818488E+03 -0.24640700657E+03 -0.36218476635E+03  0.49440851389E+03  0.00000000000E+00 0.  1.
         -1    1    6    6    0  502 -0.18412912299E+03  0.28311713619E+03  0.44453609154E+02  0.34063906133E+03  0.00000000000E+00 0.  1.
<mgrwt>
<rscale>  0 0.15973956E+04</rscale>
<asrwt>0</asrwt>
<pdfrwt beam="1">  1        2 0.30915767E+00 0.15973956E+04</pdfrwt>
<pdfrwt beam="2">  1       -2 0.48838040E-01 0.15973956E+04</pdfrwt>
<totfact> 0.25138128E+01</totfact>
</mgrwt>
</event>
<event>
12    1  0.1467288E-007  0.1356877E+04  0.7818608E-02  0.8985639E-01
         -2   -1    0    0    0  501 -0.00000000000E+00  0.00000000000E+00  0.68386356979E+03  0.68386356979E+03  0.00000000000E+00 0.  1.
          2   -1    0    0  501    0  0.00000000000E+00 -0.00000000000E+00 -0.67305637984E+03  0.67305637984E+03  0.00000000000E+00 0. -1.
         23    2    1    2    0    0  0.23227339634E+03  0.93140062198E+02 -0.26651610727E+03  0.37673366172E+03  0.90947317750E+02 0.  0.
        254    2    1    2    0    0 -0.23227339634E+03 -0.93140062198E+02  0.27732329721E+03  0.98018628791E+03  0.90621793515E+03 0.  0.
        -24    2    4    4    0    0  0.22989490148E+02 -0.36758612267E+03 -0.15147121899E+03  0.40537851414E+03  0.75763680683E+02 0.  0.
         24    2    4    4    0    0 -0.25526288649E+03  0.27444606047E+03  0.42879451620E+03  0.57480777377E+03  0.77842522618E+02 0.  0.
         11    1    3    3    0    0  0.18060240615E+03  0.62483935949E+02 -0.24951937125E+03  0.31429506517E+03  0.00000000000E+00 0. -1.
        -11    1    3    3    0    0  0.51670990199E+02  0.30656126250E+02 -0.16996736015E+02  0.62438596557E+02  0.00000000000E+00 0.  1.
          2    1    6    6  502    0 -0.11193679087E+03  0.11504401700E+03  0.12725631326E+03  0.20483930351E+03  0.00000000000E+00 0. -1.
          1    1    5    5  503    0  0.17586690664E+02 -0.44267433054E+02  0.15019492724E+01  0.47656617267E+02  0.00000000000E+00 0. -1.
         -2    1    5    5    0  503  0.54027994837E+01 -0.32331868962E+03 -0.15297316826E+03  0.35772189688E+03  0.00000000000E+00 0.  1.
         -1    1    6    6    0  502 -0.14332609562E+03  0.15940204347E+03  0.30153820294E+03  0.36996847026E+03  0.00000000000E+00 0.  1.
<mgrwt>
<rscale>  0 0.13568769E+04</rscale>
<asrwt>0</asrwt>
<pdfrwt beam="1">  1        2 0.10354713E+00 0.13568769E+04</pdfrwt>
<pdfrwt beam="2">  1       -2 0.10520978E+00 0.13568769E+04</pdfrwt>
<totfact> 0.30753077E+01</totfact>
</mgrwt>
</event>
<event>
12    1  0.1467288E-007  0.2628334E+04  0.7818608E-02  0.8358640E-01
          2   -1    0    0  501    0  0.00000000000E+00  0.00000000000E+00  0.12731293945E+04  0.12731293945E+04  0.00000000000E+00 0. -1.
         -2   -1    0    0    0  501 -0.00000000000E+00 -0.00000000000E+00 -0.13565270970E+04  0.13565270970E+04  0.00000000000E+00 0.  1.
         23    2    1    2    0    0 -0.13507476412E+02 -0.47238140001E+03  0.10172813543E+04  0.11253591966E+04  0.90803791390E+02 0.  0.
        254    2    1    2    0    0  0.13507476412E+02  0.47238140001E+03 -0.11006790568E+04  0.15042972949E+04  0.90999413534E+03 0.  0.
        -24    2    4    4    0    0  0.42834523064E+03  0.30774760682E+03 -0.39069059659E+03  0.66130781283E+03  0.80626639071E+02 0.  0.
         24    2    4    4    0    0 -0.41483775423E+03  0.16463379319E+03 -0.70998846020E+03  0.84298948206E+03  0.85749665007E+02 0.  0.
         13    1    3    3    0    0 -0.40924551538E+02 -0.13934592400E+03  0.35473982774E+03  0.38331768918E+03  0.00000000000E+00 0. -1.
        -13    1    3    3    0    0  0.27417075126E+02 -0.33303547601E+03  0.66254152660E+03  0.74204150743E+03  0.00000000000E+00 0.  1.
          4    1    6    6  502    0 -0.31325777216E+03  0.92612281460E+02 -0.55710273462E+03  0.64581028438E+03  0.00000000000E+00 0. -1.
          1    1    5    5  503    0  0.42439341958E+03  0.29847260597E+03 -0.39310216443E+03  0.65094161241E+03  0.00000000000E+00 0. -1.
         -2    1    5    5    0  503  0.39518110645E+01  0.92750008582E+01  0.24115678417E+01  0.10366200416E+02  0.00000000000E+00 0.  1.
         -3    1    6    6    0  502 -0.10157998207E+03  0.72021511727E+02 -0.15288572558E+03  0.19717919767E+03  0.00000000000E+00 0.  1.
<mgrwt>
<rscale>  0 0.26283337E+04</rscale>
<asrwt>0</asrwt>
<pdfrwt beam="1">  1        2 0.19586606E+00 0.26283337E+04</pdfrwt>
<pdfrwt beam="2">  1       -2 0.20869648E+00 0.26283337E+04</pdfrwt>
<totfact> 0.17660623E+00</totfact>
</mgrwt>
</event>
<event>
12    1  0.1467288E-007  0.1179925E+04  0.7818608E-02  0.9130612E-01
         -1   -1    0    0    0  501 -0.00000000000E+00  0.00000000000E+00  0.97876861047E+02  0.97876861047E+02  0.00000000000E+00 0.  1.
          1   -1    0    0  501    0  0.00000000000E+00 -0.00000000000E+00 -0.35560577036E+04  0.35560577036E+04  0.00000000000E+00 0. -1.
         23    2    1    2    0    0 -0.66998202764E+02 -0.22627883907E+03 -0.72844095659E+03  0.77114323896E+03  0.91349852578E+02 0.  0.
        254    2    1    2    0    0  0.66998202764E+02  0.22627883907E+03 -0.27297398860E+04  0.28827913257E+04  0.89627847808E+03 0.  0.
        -24    2    4    4    0    0 -0.20973994446E+03  0.50419895310E+02 -0.13527364099E+03  0.26651433243E+03  0.78726877855E+02 0.  0.
         24    2    4    4    0    0  0.27673814723E+03  0.17585894376E+03 -0.25944662450E+04  0.26162769933E+04  0.78357124335E+02 0.  0.
         13    1    3    3    0    0 -0.64044474195E+02 -0.81979353776E+02 -0.38025932628E+03  0.39423275402E+03  0.00000000000E+00 0. -1.
        -13    1    3    3    0    0 -0.29537285695E+01 -0.14429948530E+03 -0.34818163032E+03  0.37691048494E+03  0.00000000000E+00 0.  1.
          2    1    6    6  502    0  0.12604797352E+03  0.44421008633E+02 -0.85998098271E+03  0.87030374482E+03  0.00000000000E+00 0. -1.
          3    1    5    5  503    0 -0.53921014101E+01  0.18889471840E+02 -0.40061306535E+00  0.19648088835E+02  0.00000000000E+00 0. -1.
         -2    1    5    5    0  503 -0.20434784305E+03  0.31530423470E+02 -0.13487302793E+03  0.24686624360E+03  0.00000000000E+00 0.  1.
         -1    1    6    6    0  502  0.15069017371E+03  0.13143793513E+03 -0.17344852623E+04  0.17459732485E+04  0.00000000000E+00 0.  1.
<mgrwt>
<rscale>  0 0.11799250E+04</rscale>
<asrwt>0</asrwt>
<pdfrwt beam="1">  1        1 0.54708587E+00 0.11799250E+04</pdfrwt>
<pdfrwt beam="2">  1       -1 0.15057977E-01 0.11799250E+04</pdfrwt>
<totfact> 0.74937873E+00</totfact>
</mgrwt>
</event>
<event>
12    1  0.1467288E-007  0.1751183E+04  0.7818608E-02  0.8732700E-01
          2   -1    0    0  501    0  0.00000000000E+00  0.00000000000E+00  0.75709083461E+03  0.75709083461E+03  0.00000000000E+00 0. -1.
         -2   -1    0    0    0  501 -0.00000000000E+00 -0.00000000000E+00 -0.10126395743E+04  0.10126395743E+04  0.00000000000E+00 0.  1.
         23    2    1    2    0    0 -0.38023358714E+03 -0.50337384156E+03 -0.18923786334E+03  0.66612646115E+03  0.99753136083E+02 0.  0.
        254    2    1    2    0    0  0.38023358714E+03  0.50337384156E+03 -0.66310876305E+02  0.11036039477E+04  0.90309564054E+03 0.  0.
        -24    2    4    4    0    0 -0.42320675077E+02  0.39946219165E+03  0.31549644604E+03  0.51783711282E+03  0.85183248621E+02 0.  0.
         24    2    4    4    0    0  0.42255426221E+03  0.10391164991E+03 -0.38180732235E+03  0.58576683491E+03  0.89421574422E+02 0.  0.
         13    1    3    3    0    0 -0.23673319123E+02 -0.29138699536E+01 -0.30226583367E+01  0.24042735697E+02  0.00000000000E+00 0. -1.
        -13    1    3    3    0    0 -0.35656026801E+03 -0.50045997161E+03 -0.18621520500E+03  0.64208372545E+03  0.00000000000E+00 0.  1.
          4    1    6    6  502    0  0.73455322118E+02  0.10898561358E+01 -0.29249223567E+02  0.79072050771E+02  0.00000000000E+00 0. -1.
          3    1    5    5  503    0  0.23788971437E+01  0.21903249193E+03  0.21316398498E+03  0.30564648889E+03  0.00000000000E+00 0. -1.
         -4    1    5    5    0  503 -0.44699572221E+02  0.18042969972E+03  0.10233246106E+03  0.21219062393E+03  0.00000000000E+00 0.  1.
         -3    1    6    6    0  502  0.34909894010E+03  0.10282179378E+03 -0.35255809878E+03  0.50669478413E+03  0.00000000000E+00 0.  1.
<mgrwt>
<rscale>  0 0.17511826E+04</rscale>
<asrwt>0</asrwt>
<pdfrwt beam="1">  1        2 0.11647551E+00 0.17511826E+04</pdfrwt>
<pdfrwt beam="2">  1       -2 0.15579070E+00 0.17511826E+04</pdfrwt>
<totfact> 0.95016289E+00</totfact>
</mgrwt>
</event>
<event>
12    1  0.3310789E-007  0.2070164E+04  0.7818608E-02  0.8574502E-01
          2   -1    0    0  501    0  0.00000000000E+00  0.00000000000E+00  0.29833318041E+04  0.29833318041E+04  0.00000000000E+00 0. -1.
         -2   -1    0    0    0  501 -0.00000000000E+00 -0.00000000000E+00 -0.35912682527E+03  0.35912682527E+03  0.00000000000E+00 0.  1.
         23    2    1    2    0    0 -0.38953526817E+03 -0.52774064594E+03  0.18679171363E+04  0.19818451864E+04  0.91367389884E+02 0.  0.
        254    2    1    2    0    0  0.38953526817E+03  0.52774064594E+03  0.75628784253E+03  0.13606134430E+04  0.92143894323E+03 0.  0.
        -24    2    4    4    0    0  0.49905585592E+03  0.37198061377E+03  0.90840077788E+03  0.11040259929E+04  0.79089160464E+02 0.  0.
         24    2    4    4    0    0 -0.10952058776E+03  0.15576003218E+03 -0.15211293535E+03  0.25658745018E+03  0.80267226967E+02 0.  0.
         11    1    3    3    0    0 -0.37852680651E+03 -0.52129952631E+03  0.17797728552E+04  0.18927829129E+04  0.00000000000E+00 0. -1.
        -11    1    3    3    0    0 -0.11008461660E+02 -0.64411196344E+01  0.88144281173E+02  0.89062273459E+02  0.00000000000E+00 0.  1.
          2    1    6    6  502    0 -0.12119160299E+03  0.13348207342E+03 -0.14193219717E+03  0.22945504386E+03  0.00000000000E+00 0. -1.
          1    1    5    5  503    0  0.47039302319E+03  0.32305869930E+03  0.82069166410E+03  0.99958557761E+03  0.00000000000E+00 0. -1.
         -2    1    5    5    0  503  0.28662832738E+02  0.48921914471E+02  0.87709113783E+02  0.10444041525E+03  0.00000000000E+00 0.  1.
         -1    1    6    6    0  502  0.11671015235E+02  0.22277958757E+02 -0.10180738183E+02  0.27132406324E+02  0.00000000000E+00 0.  1.
<mgrwt>
<rscale>  0 0.20701637E+04</rscale>
<asrwt>0</asrwt>
<pdfrwt beam="1">  1        2 0.45897411E+00 0.20701637E+04</pdfrwt>
<pdfrwt beam="2">  1       -2 0.55250283E-01 0.20701637E+04</pdfrwt>
<totfact> 0.50837305E+00</totfact>
</mgrwt>
</event>
<event>
12    1  0.1467288E-007  0.2062574E+04  0.7818608E-02  0.8577911E-01
          2   -1    0    0  501    0  0.00000000000E+00  0.00000000000E+00  0.11900844264E+04  0.11900844264E+04  0.00000000000E+00 0.  1.
         -2   -1    0    0    0  501 -0.00000000000E+00 -0.00000000000E+00 -0.89367832426E+03  0.89367832426E+03  0.00000000000E+00 0. -1.
         23    2    1    2    0    0 -0.25064099828E+03  0.44004970395E+03 -0.45128217349E+03  0.68423279349E+03  0.89745549269E+02 0.  0.
        254    2    1    2    0    0  0.25064099828E+03 -0.44004970395E+03  0.74768827561E+03  0.13995299571E+04  0.10691967506E+04 0.  0.
        -24    2    4    4    0    0  0.37780057410E+03  0.22179112567E+03  0.90328427067E+02  0.45464330543E+03  0.81343304692E+02 0.  0.
         24    2    4    4    0    0 -0.12715957582E+03 -0.66184082962E+03  0.65735984855E+03  0.94488665172E+03  0.80535536525E+02 0.  0.
         11    1    3    3    0    0 -0.17920275659E+00  0.35597238534E+02 -0.14604180604E+02  0.38476974881E+02  0.00000000000E+00 0.  1.
        -11    1    3    3    0    0 -0.25046179552E+03  0.40445246542E+03 -0.43667799289E+03  0.64575581861E+03  0.00000000000E+00 0. -1.
          4    1    6    6  502    0 -0.72960877487E+02 -0.20004413687E+03  0.22860372171E+03  0.31241095999E+03  0.00000000000E+00 0. -1.
          3    1    5    5  503    0 -0.35226024778E+01  0.12687200842E+01  0.45152219084E+01  0.58656293567E+01  0.00000000000E+00 0. -1.
         -4    1    5    5    0  503  0.38132317658E+03  0.22052240558E+03  0.85813205158E+02  0.44877767607E+03  0.00000000000E+00 0.  1.
         -3    1    6    6    0  502 -0.54198698335E+02 -0.46179669274E+03  0.42875612684E+03  0.63247569173E+03  0.00000000000E+00 0.  1.
<mgrwt>
<rscale>  0 0.20625738E+04</rscale>
<asrwt>0</asrwt>
<pdfrwt beam="1">  1        2 0.18308991E+00 0.20625738E+04</pdfrwt>
<pdfrwt beam="2">  1       -2 0.13748897E+00 0.20625738E+04</pdfrwt>
<totfact> 0.66820864E+00</totfact>
</mgrwt>
</event>
<event>
12    1  0.1467288E-007  0.2568616E+04  0.7818608E-02  0.8378941E-01
          2   -1    0    0  501    0  0.00000000000E+00  0.00000000000E+00  0.76289254180E+03  0.76289254180E+03  0.00000000000E+00 0. -1.
         -2   -1    0    0    0  501 -0.00000000000E+00 -0.00000000000E+00 -0.21620957160E+04  0.21620957160E+04  0.00000000000E+00 0.  1.
         23    2    1    2    0    0  0.69677014098E+03 -0.63029124964E+03 -0.13179279290E+04  0.16210737244E+04  0.90500304962E+02 0.  0.
        254    2    1    2    0    0 -0.69677014098E+03  0.63029124964E+03 -0.81275245280E+02  0.13039145335E+04  0.90046196827E+03 0.  0.
        -24    2    4    4    0    0 -0.29361865434E+03  0.77659013354E+03 -0.18747631586E+03  0.85493904401E+03  0.80431649749E+02 0.  0.
         24    2    4    4    0    0 -0.40315148665E+03 -0.14629888390E+03  0.10620107058E+03  0.44897548944E+03  0.79786202489E+02 0.  0.
         13    1    3    3    0    0  0.45393626719E+03 -0.45801450352E+03 -0.94064025659E+03  0.11404558354E+04  0.00000000000E+00 0.  1.
        -13    1    3    3    0    0  0.24283387380E+03 -0.17227674613E+03 -0.37728767238E+03  0.48061788902E+03  0.00000000000E+00 0. -1.
          2    1    6    6  502    0 -0.39619529023E+03 -0.15449350017E+03  0.10123898476E+03  0.43713645654E+03  0.00000000000E+00 0. -1.
          1    1    5    5  503    0 -0.23801346675E+03  0.67822151242E+03 -0.18371216586E+03  0.74187936361E+03  0.00000000000E+00 0. -1.
         -2    1    5    5    0  503 -0.55605187585E+02  0.98368621121E+02 -0.37641499974E+01  0.11305968040E+03  0.00000000000E+00 0.  1.
         -1    1    6    6    0  502 -0.69561964156E+01  0.81946162717E+01  0.49620858147E+01  0.11839032902E+02  0.00000000000E+00 0.  1.
<mgrwt>
<rscale>  0 0.25686157E+04</rscale>
<asrwt>0</asrwt>
<pdfrwt beam="1">  1        2 0.11736808E+00 0.25686157E+04</pdfrwt>
<pdfrwt beam="2">  1       -2 0.33263011E+00 0.25686157E+04</pdfrwt>
<totfact> 0.65041290E-01</totfact>
</mgrwt>
</event>
<event>
12    1  0.1467288E-007  0.1674765E+04  0.7818608E-02  0.8775889E-01
          2   -1    0    0  501    0  0.00000000000E+00  0.00000000000E+00  0.33534629565E+04  0.33534629565E+04  0.00000000000E+00 0.  1.
         -2   -1    0    0    0  501 -0.00000000000E+00 -0.00000000000E+00 -0.20910021709E+03  0.20910021709E+03  0.00000000000E+00 0. -1.
         23    2    1    2    0    0  0.36824185577E+03  0.38068294081E+03  0.53358255208E+03  0.75715547586E+03  0.89735773058E+02 0.  0.
        254    2    1    2    0    0 -0.36824185577E+03 -0.38068294081E+03  0.26107801873E+04  0.28054076978E+04  0.87955534118E+03 0.  0.
        -24    2    4    4    0    0  0.18012023405E+03 -0.37004193228E+03  0.15841533325E+04  0.16386794223E+04  0.79712844794E+02 0.  0.
         24    2    4    4    0    0 -0.54836208982E+03 -0.10641008531E+02  0.10266268548E+04  0.11667282755E+04  0.80485757613E+02 0.  0.
         13    1    3    3    0    0  0.30705679215E+03  0.33550913752E+03  0.49376726339E+03  0.67130944084E+03  0.00000000000E+00 0. -1.
        -13    1    3    3    0    0  0.61185063626E+02  0.45173803290E+02  0.39815288690E+02  0.85846035017E+02  0.00000000000E+00 0.  1.
          4    1    6    6  502    0 -0.11761445131E+03  0.22799084163E+01  0.29541608011E+03  0.31797644178E+03  0.00000000000E+00 0. -1.
          1    1    5    5  503    0  0.11557483312E+02 -0.56870795832E+02  0.33038788096E+03  0.33544599375E+03  0.00000000000E+00 0. -1.
         -2    1    5    5    0  503  0.16856275073E+03 -0.31317113645E+03  0.12537654516E+04  0.13032334285E+04  0.00000000000E+00 0.  1.
         -3    1    6    6    0  502 -0.43074763850E+03 -0.12920916948E+02  0.73121077469E+03  0.84875183369E+03  0.00000000000E+00 0.  1.
<mgrwt>
<rscale>  0 0.16747655E+04</rscale>
<asrwt>0</asrwt>
<pdfrwt beam="1">  1        2 0.51591734E+00 0.16747655E+04</pdfrwt>
<pdfrwt beam="2">  1       -2 0.32169267E-01 0.16747655E+04</pdfrwt>
<totfact> 0.88695872E+00</totfact>
</mgrwt>
</event>
<event>
12    1  0.1467288E-007  0.1999346E+04  0.7818608E-02  0.8606927E-01
         -1   -1    0    0    0  501 -0.00000000000E+00  0.00000000000E+00  0.51549480944E+03  0.51549480944E+03  0.00000000000E+00 0.  1.
          1   -1    0    0  501    0  0.00000000000E+00 -0.00000000000E+00 -0.19386148755E+04  0.19386148755E+04  0.00000000000E+00 0. -1.
         23    2    1    2    0    0 -0.73825016736E+02  0.18146451783E+03  0.37195660254E+03  0.43069035882E+03  0.93610718811E+02 0.  0.
        254    2    1    2    0    0  0.73825016736E+02 -0.18146451783E+03 -0.17950766686E+04  0.20234193261E+04  0.91298741442E+03 0.  0.
        -24    2    4    4    0    0 -0.16457680368E+03 -0.48925430706E+03 -0.11852817995E+04  0.12954561717E+04  0.82815742439E+02 0.  0.
         24    2    4    4    0    0  0.23840182042E+03  0.30778978923E+03 -0.60979486911E+03  0.72796315448E+03  0.80688224351E+02 0.  0.
         13    1    3    3    0    0  0.15442715556E+02  0.62374735639E+02  0.76832349901E+02  0.10016134534E+03  0.00000000000E+00 0. -1.
        -13    1    3    3    0    0 -0.89267732293E+02  0.11908978219E+03  0.29512425264E+03  0.33052901347E+03  0.00000000000E+00 0.  1.
          4    1    6    6  502    0  0.14497344213E+03  0.15311689566E+03 -0.39065925063E+03  0.44393325260E+03  0.00000000000E+00 0. -1.
          1    1    5    5  503    0 -0.13476881580E+03 -0.40405408304E+03 -0.88974646710E+03  0.98644366866E+03  0.00000000000E+00 0. -1.
         -2    1    5    5    0  503 -0.29807987885E+02 -0.85200224026E+02 -0.29553533240E+03  0.30901250300E+03  0.00000000000E+00 0.  1.
         -3    1    6    6    0  502  0.93428378289E+02  0.15467289357E+03 -0.21913561849E+03  0.28402990188E+03  0.00000000000E+00 0.  1.
<mgrwt>
<rscale>  0 0.19993458E+04</rscale>
<asrwt>0</asrwt>
<pdfrwt beam="1">  1        1 0.29824844E+00 0.19993458E+04</pdfrwt>
<pdfrwt beam="2">  1       -1 0.79306895E-01 0.19993458E+04</pdfrwt>
<totfact> 0.48350042E+00</totfact>
</mgrwt>
</event>
<event>
12    1  0.1467288E-007  0.2141242E+04  0.7818608E-02  0.8543290E-01
         -3   -1    0    0    0  501 -0.00000000000E+00  0.00000000000E+00  0.56194535081E+03  0.56194535081E+03  0.00000000000E+00 0.  1.
          3   -1    0    0  501    0  0.00000000000E+00 -0.00000000000E+00 -0.20397525705E+04  0.20397525705E+04  0.00000000000E+00 0. -1.
         23    2    1    2    0    0 -0.51241497278E+03 -0.18384026999E+03 -0.14476921871E+04  0.15493072516E+04  0.90409856130E+02 0.  0.
        254    2    1    2    0    0  0.51241497278E+03  0.18384026999E+03 -0.30115032551E+02  0.10523906697E+04  0.90014046527E+03 0.  0.
        -24    2    4    4    0    0 -0.11589704290E+03 -0.66642411861E+02  0.26646940754E+03  0.30952475335E+03  0.83224348440E+02 0.  0.
         24    2    4    4    0    0  0.62831201568E+03  0.25048268185E+03 -0.29658444009E+03  0.74286591632E+03  0.79811506545E+02 0.  0.
         11    1    3    3    0    0 -0.84105932430E+02 -0.64419767305E+01 -0.16309134943E+03  0.18361398419E+03  0.00000000000E+00 0.  1.
        -11    1    3    3    0    0 -0.42830904035E+03 -0.17739829326E+03 -0.12846008377E+04  0.13656932674E+04  0.00000000000E+00 0. -1.
          4    1    6    6  502    0  0.27699167767E+03  0.11755458513E+03 -0.17478702053E+03  0.34798559242E+03  0.00000000000E+00 0. -1.
          3    1    5    5  503    0 -0.61012887308E+02 -0.29154954179E+02  0.52907168617E+02  0.85858909042E+02  0.00000000000E+00 0. -1.
         -4    1    5    5    0  503 -0.54884155589E+02 -0.37487457682E+02  0.21356223892E+03  0.22366584431E+03  0.00000000000E+00 0.  1.
         -3    1    6    6    0  502  0.35132033801E+03  0.13292809672E+03 -0.12179741955E+03  0.39488032390E+03  0.00000000000E+00 0.  1.
<mgrwt>
<rscale>  0 0.21412421E+04</rscale>
<asrwt>0</asrwt>
<pdfrwt beam="1">  1        3 0.31380809E+00 0.21412421E+04</pdfrwt>
<pdfrwt beam="2">  1       -3 0.86453130E-01 0.21412421E+04</pdfrwt>
<totfact> 0.95218691E-02</totfact>
</mgrwt>
</event>
<event>
12    1  0.1467288E-007  0.1954892E+04  0.7818608E-02  0.8628005E-01
         -2   -1    0    0    0  501 -0.00000000000E+00  0.00000000000E+00  0.13634140588E+04  0.13634140588E+04  0.00000000000E+00 0.  1.
          2   -1    0    0  501    0  0.00000000000E+00 -0.00000000000E+00 -0.70074155144E+03  0.70074155144E+03  0.00000000000E+00 0. -1.
         23    2    1    2    0    0 -0.51792942012E+03  0.23572131176E+03 -0.25964698512E+03  0.63227497094E+03  0.92410285973E+02 0.  0.
        254    2    1    2    0    0  0.51792942012E+03 -0.23572131176E+03  0.92231949245E+03  0.14318806393E+04  0.93583839304E+03 0.  0.
        -24    2    4    4    0    0  0.25121005801E+03  0.28716907393E+03  0.69555896525E+03  0.79745214405E+03  0.80963434016E+02 0.  0.
         24    2    4    4    0    0  0.26671936211E+03 -0.52289038569E+03  0.22676052720E+03  0.63442849521E+03  0.80781218558E+02 0.  0.
         11    1    3    3    0    0 -0.39284561344E+03  0.15305732323E+03 -0.15397018792E+03  0.44884411432E+03  0.00000000000E+00 0. -1.
        -11    1    3    3    0    0 -0.12508380668E+03  0.82663988524E+02 -0.10567679721E+03  0.18343085662E+03  0.00000000000E+00 0.  1.
          4    1    6    6  502    0  0.44025346449E+02 -0.62310816715E+02  0.38761970038E+01  0.76393022671E+02  0.00000000000E+00 0. -1.
          1    1    5    5  503    0  0.10781003755E+03  0.75677451373E+02  0.28334063214E+03  0.31246118905E+03  0.00000000000E+00 0. -1.
         -2    1    5    5    0  503  0.14340002046E+03  0.21149162256E+03  0.41221833311E+03  0.48499095500E+03  0.00000000000E+00 0.  1.
         -3    1    6    6    0  502  0.22269401566E+03 -0.46057956897E+03  0.22288433020E+03  0.55803547254E+03  0.00000000000E+00 0.  1.
<mgrwt>
<rscale>  0 0.19548922E+04</rscale>
<asrwt>0</asrwt>
<pdfrwt beam="1">  1        2 0.10780639E+00 0.19548922E+04</pdfrwt>
<pdfrwt beam="2">  1       -2 0.20975601E+00 0.19548922E+04</pdfrwt>
<totfact> 0.43820900E+00</totfact>
</mgrwt>
</event>
<event>
12    1  0.1467288E-007  0.2358114E+04  0.7818608E-02  0.8455354E-01
         -1   -1    0    0    0  501 -0.00000000000E+00  0.00000000000E+00  0.72989916228E+03  0.72989916228E+03  0.00000000000E+00 0.  1.
          1   -1    0    0  501    0  0.00000000000E+00 -0.00000000000E+00 -0.19046121724E+04  0.19046121724E+04  0.00000000000E+00 0. -1.
         23    2    1    2    0    0  0.45632161145E+03  0.15599265760E+03  0.47989062874E+03  0.69128569234E+03  0.12254701373E+03 0.  0.
        254    2    1    2    0    0 -0.45632161145E+03 -0.15599265760E+03 -0.16546036389E+04  0.19432256423E+04  0.89769124593E+03 0.  0.
        -24    2    4    4    0    0 -0.44396106226E+03  0.69688056368E+02 -0.25490141775E+03  0.52314078193E+03  0.82120003341E+02 0.  0.
         24    2    4    4    0    0 -0.12360549192E+02 -0.22568071397E+03 -0.13997022211E+04  0.14200848604E+04  0.79938320953E+02 0.  0.
         13    1    3    3    0    0  0.87535117268E+02  0.49163436502E+00  0.14524885519E+03  0.16958734738E+03  0.00000000000E+00 0. -1.
        -13    1    3    3    0    0  0.36878649418E+03  0.15550102324E+03  0.33464177356E+03  0.52169834495E+03  0.00000000000E+00 0.  1.
          2    1    6    6  502    0 -0.34080269198E+02 -0.20771905657E+03 -0.12729827593E+04  0.12902688776E+04  0.00000000000E+00 0. -1.
          1    1    5    5  503    0 -0.37026940274E+03  0.28397048308E+02 -0.19377781265E+03  0.41887428142E+03  0.00000000000E+00 0. -1.
         -2    1    5    5    0  503 -0.73691659518E+02  0.41291008060E+02 -0.61123605103E+02  0.10426650052E+03  0.00000000000E+00 0.  1.
         -1    1    6    6    0  502  0.21719720006E+02 -0.17961657401E+02 -0.12671946183E+03  0.12981598276E+03  0.00000000000E+00 0.  1.
<mgrwt>
<rscale>  0 0.23581135E+04</rscale>
<asrwt>0</asrwt>
<pdfrwt beam="1">  1        1 0.29301726E+00 0.23581135E+04</pdfrwt>
<pdfrwt beam="2">  1       -1 0.11229218E+00 0.23581135E+04</pdfrwt>
<totfact> 0.22603524E+00</totfact>
</mgrwt>
</event>
<event>
12    1  0.1786720E-007  0.1897675E+04  0.7818608E-02  0.8656015E-01
         -2   -1    0    0    0  501 -0.00000000000E+00  0.00000000000E+00  0.52707593668E+03  0.52707593668E+03  0.00000000000E+00 0.  1.
          2   -1    0    0  501    0  0.00000000000E+00 -0.00000000000E+00 -0.17080882099E+04  0.17080882099E+04  0.00000000000E+00 0. -1.
         23    2    1    2    0    0 -0.87106771097E+02 -0.32973445302E+03 -0.12356926440E+04  0.12851644079E+04  0.91645217622E+02 0.  0.
        254    2    1    2    0    0  0.87106771097E+02  0.32973445302E+03  0.54680370784E+02  0.94999973864E+03  0.88498427184E+03 0.  0.
        -24    2    4    4    0    0 -0.53564198256E+01 -0.20058873721E+03  0.28620509281E+03  0.35849473890E+03  0.79627821360E+02 0.  0.
         24    2    4    4    0    0  0.92463190922E+02  0.53032319023E+03 -0.23152472203E+03  0.59150499975E+03  0.80512980627E+02 0.  0.
         13    1    3    3    0    0 -0.89998510196E+02 -0.30667891734E+03 -0.12050116112E+04  0.12466774536E+04  0.00000000000E+00 0. -1.
        -13    1    3    3    0    0  0.28917390995E+01 -0.23055535671E+02 -0.30681032762E+02  0.38486954302E+02  0.00000000000E+00 0.  1.
          4    1    6    6  502    0  0.73478487027E+02  0.51255740875E+03 -0.21475752286E+03  0.56056665879E+03  0.00000000000E+00 0. -1.
          1    1    5    5  503    0  0.27692538507E+01 -0.19019234413E+03  0.28803450086E+03  0.34517339153E+03  0.00000000000E+00 0. -1.
         -2    1    5    5    0  503 -0.81256736763E+01 -0.10396393085E+02 -0.18294080512E+01  0.13321347367E+02  0.00000000000E+00 0.  1.
         -3    1    6    6    0  502  0.18984703895E+02  0.17765781477E+02 -0.16767199163E+02  0.30938340958E+02  0.00000000000E+00 0.  1.
<mgrwt>
<rscale>  0 0.18976746E+04</rscale>
<asrwt>0</asrwt>
<pdfrwt beam="1">  1        2 0.26278280E+00 0.18976746E+04</pdfrwt>
<pdfrwt beam="2">  1       -2 0.81088606E-01 0.18976746E+04</pdfrwt>
<totfact> 0.12189604E+01</totfact>
</mgrwt>
</event>
<event>
12    1  0.1467288E-007  0.4386961E+04  0.7818608E-02  0.7930731E-01
          3   -1    0    0  501    0  0.00000000000E+00  0.00000000000E+00  0.24713825166E+04  0.24713825166E+04  0.00000000000E+00 0. -1.
         -3   -1    0    0    0  501 -0.00000000000E+00 -0.00000000000E+00 -0.19468280682E+04  0.19468280682E+04  0.00000000000E+00 0.  1.
         23    2    1    2    0    0  0.15286787739E+04  0.11309622164E+04  0.11682930129E+04  0.22336513127E+04  0.91407296663E+02 0.  0.
        254    2    1    2    0    0 -0.15286787739E+04 -0.11309622164E+04 -0.64373856457E+03  0.21845592722E+04  0.86137421918E+03 0.  0.
        -24    2    4    4    0    0 -0.42584460882E+03 -0.24463575078E+03  0.19897901642E+03  0.53583773849E+03  0.79618789183E+02 0.  0.
         24    2    4    4    0    0 -0.11028341650E+04 -0.88632646564E+03 -0.84271758099E+03  0.16487215337E+04  0.79321970604E+02 0.  0.
         11    1    3    3    0    0  0.95521050333E+03  0.66906101172E+03  0.75428897195E+03  0.13888922191E+04  0.00000000000E+00 0.  1.
        -11    1    3    3    0    0  0.57346827053E+03  0.46190120471E+03  0.41400404099E+03  0.84475909357E+03  0.00000000000E+00 0. -1.
          2    1    6    6  502    0 -0.38619678521E+03 -0.34933893987E+03 -0.33704479105E+03  0.62031027961E+03  0.00000000000E+00 0. -1.
          3    1    5    5  503    0 -0.10502896235E+03 -0.56385030553E+02  0.12846370690E+02  0.11989738880E+03  0.00000000000E+00 0. -1.
         -2    1    5    5    0  503 -0.32081564647E+03 -0.18825072023E+03  0.18613264573E+03  0.41594034968E+03  0.00000000000E+00 0.  1.
         -1    1    6    6    0  502 -0.71663737983E+03 -0.53698752578E+03 -0.50567278994E+03  0.10284112541E+04  0.00000000000E+00 0.  1.
<mgrwt>
<rscale>  0 0.43869611E+04</rscale>
<asrwt>0</asrwt>
<pdfrwt beam="1">  1        3 0.38021269E+00 0.43869611E+04</pdfrwt>
<pdfrwt beam="2">  1       -3 0.29951201E+00 0.43869611E+04</pdfrwt>
<totfact> 0.10650324E-03</totfact>
</mgrwt>
</event>
<event>
12    1  0.1467288E-007  0.1536665E+04  0.7818608E-02  0.8860431E-01
          1   -1    0    0  501    0  0.00000000000E+00  0.00000000000E+00  0.97931739672E+03  0.97931739672E+03  0.00000000000E+00 0. -1.
         -1   -1    0    0    0  501 -0.00000000000E+00 -0.00000000000E+00 -0.60280201764E+03  0.60280201764E+03  0.00000000000E+00 0.  1.
         23    2    1    2    0    0  0.21010516701E+03  0.31078121757E+03  0.46047755845E+03  0.60012950124E+03  0.85945855181E+02 0.  0.
        254    2    1    2    0    0 -0.21010516701E+03 -0.31078121757E+03 -0.83962179369E+02  0.98198991313E+03  0.90361794776E+03 0.  0.
        -24    2    4    4    0    0 -0.31144116093E+03  0.27581751120E+02 -0.39098414228E+03  0.50719288370E+03  0.81361367069E+02 0.  0.
         24    2    4    4    0    0  0.10133599392E+03 -0.33836296869E+03  0.30702196291E+03  0.47479702942E+03  0.80070289121E+02 0.  0.
         11    1    3    3    0    0  0.19644455126E+03  0.25414747004E+03  0.34884142889E+03  0.47420643265E+03  0.00000000000E+00 0. -1.
        -11    1    3    3    0    0  0.13660615749E+02  0.56633747522E+02  0.11163612956E+03  0.12592306859E+03  0.00000000000E+00 0.  1.
          4    1    6    6  502    0  0.11405588588E+03 -0.31122497781E+03  0.28942730829E+03  0.44004306460E+03  0.00000000000E+00 0. -1.
          1    1    5    5  503    0 -0.93219304612E+02 -0.21650562208E+02 -0.15389046150E+03  0.18122047273E+03  0.00000000000E+00 0. -1.
         -2    1    5    5    0  503 -0.21822185632E+03  0.49232313328E+02 -0.23709368077E+03  0.32597241097E+03  0.00000000000E+00 0.  1.
         -3    1    6    6    0  502 -0.12719891955E+02 -0.27137990871E+02  0.17594654620E+02  0.34753964825E+02  0.00000000000E+00 0.  1.
<mgrwt>
<rscale>  0 0.15366646E+04</rscale>
<asrwt>0</asrwt>
<pdfrwt beam="1">  1        1 0.15066421E+00 0.15366646E+04</pdfrwt>
<pdfrwt beam="2">  1       -1 0.92738772E-01 0.15366646E+04</pdfrwt>
<totfact> 0.17126667E+01</totfact>
</mgrwt>
</event>
<event>
12    1  0.1467288E-007  0.1259190E+04  0.7818608E-02  0.9062569E-01
         -1   -1    0    0    0  501 -0.00000000000E+00  0.00000000000E+00  0.16615126599E+03  0.16615126599E+03  0.00000000000E+00 0.  1.
          1   -1    0    0  501    0  0.00000000000E+00 -0.00000000000E+00 -0.23857150470E+04  0.23857150470E+04  0.00000000000E+00 0. -1.
         23    2    1    2    0    0 -0.26952838762E+03 -0.11408174170E+03 -0.52710499004E+03  0.60980819174E+03  0.91466740741E+02 0.  0.
        254    2    1    2    0    0  0.26952838762E+03  0.11408174170E+03 -0.16924587910E+04  0.19420581213E+04  0.90637342839E+03 0.  0.
        -24    2    4    4    0    0  0.53455192096E+03  0.84741729044E+01 -0.59042645657E+03  0.80069416511E+03  0.81793505869E+02 0.  0.
         24    2    4    4    0    0 -0.26502353334E+03  0.10560756880E+03 -0.11020323344E+04  0.11413639562E+04  0.82740452787E+02 0.  0.
         11    1    3    3    0    0 -0.37291292813E+02  0.12154108851E+02 -0.42720123443E+02  0.57994584477E+02  0.00000000000E+00 0. -1.
        -11    1    3    3    0    0 -0.23223709481E+03 -0.12623585055E+03 -0.48438486660E+03  0.55181360726E+03  0.00000000000E+00 0.  1.
          2    1    6    6  502    0 -0.25325858220E+03  0.11235821644E+03 -0.10837123858E+04  0.11185690919E+04  0.00000000000E+00 0. -1.
          3    1    5    5  503    0  0.52628163194E+03  0.19434727113E+02 -0.58022474583E+03  0.78358842539E+03  0.00000000000E+00 0. -1.
         -4    1    5    5    0  503  0.82702890223E+01 -0.10960554209E+02 -0.10201710745E+02  0.17105739715E+02  0.00000000000E+00 0.  1.
         -1    1    6    6    0  502 -0.11764951147E+02 -0.67506476442E+01 -0.18319948648E+02  0.22794864281E+02  0.00000000000E+00 0.  1.
<mgrwt>
<rscale>  0 0.12591895E+04</rscale>
<asrwt>0</asrwt>
<pdfrwt beam="1">  1        1 0.36703308E+00 0.12591895E+04</pdfrwt>
<pdfrwt beam="2">  1       -1 0.25561734E-01 0.12591895E+04</pdfrwt>
<totfact> 0.21682569E+01</totfact>
</mgrwt>
</event>
<event>
12    1  0.1467288E-007  0.1947196E+04  0.7818608E-02  0.8631714E-01
          2   -1    0    0  501    0  0.00000000000E+00  0.00000000000E+00  0.11663618507E+04  0.11663618507E+04  0.00000000000E+00 0. -1.
         -2   -1    0    0    0  501 -0.00000000000E+00 -0.00000000000E+00 -0.81269235785E+03  0.81269235785E+03  0.00000000000E+00 0.  1.
         23    2    1    2    0    0  0.26333153634E+03  0.56998372061E+03 -0.30598749446E+03  0.70433474644E+03  0.90742208994E+02 0.  0.
        254    2    1    2    0    0 -0.26333153634E+03 -0.56998372061E+03  0.65965698736E+03  0.12747194622E+04  0.89192904787E+03 0.  0.
        -24    2    4    4    0    0  0.26987785213E+01 -0.31255947362E+02 -0.20315792522E+03  0.22050288998E+03  0.79775712189E+02 0.  0.
         24    2    4    4    0    0 -0.26603031487E+03 -0.53872777324E+03  0.86281491258E+03  0.10542165722E+04  0.76962754590E+02 0.  0.
         11    1    3    3    0    0  0.16669013364E+03  0.25623940667E+03 -0.16033546851E+03  0.34518356949E+03  0.00000000000E+00 0. -1.
        -11    1    3    3    0    0  0.96641402700E+02  0.31374431393E+03 -0.14565202595E+03  0.35915117695E+03  0.00000000000E+00 0.  1.
          2    1    6    6  502    0 -0.11103850375E+03 -0.14692059298E+03  0.24914013806E+03  0.30981610409E+03  0.00000000000E+00 0. -1.
          3    1    5    5  503    0  0.33403139593E+01 -0.24682602697E+02 -0.93843780924E+01  0.26616820348E+02  0.00000000000E+00 0. -1.
         -4    1    5    5    0  503 -0.64153543803E+00 -0.65733446654E+01 -0.19377354713E+03  0.19388606963E+03  0.00000000000E+00 0.  1.
         -1    1    6    6    0  502 -0.15499181112E+03 -0.39180718026E+03  0.61367477452E+03  0.74440046809E+03  0.00000000000E+00 0.  1.
<mgrwt>
<rscale>  0 0.19471963E+04</rscale>
<asrwt>0</asrwt>
<pdfrwt beam="1">  1        2 0.17944029E+00 0.19471963E+04</pdfrwt>
<pdfrwt beam="2">  1       -2 0.12502959E+00 0.19471963E+04</pdfrwt>
<totfact> 0.88735573E+00</totfact>
</mgrwt>
</event>
<event>
12    1  0.1467288E-007  0.1211876E+04  0.7818608E-02  0.9102525E-01
          2   -1    0    0  501    0  0.00000000000E+00  0.00000000000E+00  0.16552601266E+04  0.16552601266E+04  0.00000000000E+00 0. -1.
         -2   -1    0    0    0  501 -0.00000000000E+00 -0.00000000000E+00 -0.22181442060E+03  0.22181442060E+03  0.00000000000E+00 0.  1.
         23    2    1    2    0    0  0.18766444153E+03  0.61125141710E+02  0.56015785480E+02  0.22441002879E+03  0.90927813322E+02 0.  0.
        254    2    1    2    0    0 -0.18766444153E+03 -0.61125141710E+02  0.13774299205E+04  0.16526645184E+04  0.89164600535E+03 0.  0.
        -24    2    4    4    0    0 -0.44254174565E+03 -0.19794885163E+03  0.41126292068E+03  0.64078546830E+03  0.80261335327E+02 0.  0.
         24    2    4    4    0    0  0.25487730412E+03  0.13682370992E+03  0.96616699981E+03  0.10118790501E+04  0.82081500409E+02 0.  0.
         11    1    3    3    0    0  0.18068943708E+03  0.71882694358E+02  0.68828649779E+02  0.20628421522E+03  0.00000000000E+00 0.  1.
        -11    1    3    3    0    0  0.69750044564E+01 -0.10757552648E+02 -0.12812864299E+02  0.18125813573E+02  0.00000000000E+00 0. -1.
          2    1    6    6  502    0  0.10930276157E+02  0.37474538515E+01  0.75618361897E+01  0.13809261885E+02  0.00000000000E+00 0. -1.
          3    1    5    5  503    0 -0.76657856867E+02 -0.22885449183E+02  0.34267465283E+02  0.87031201191E+02  0.00000000000E+00 0. -1.
         -4    1    5    5    0  503 -0.36588388878E+03 -0.17506340245E+03  0.37699545540E+03  0.55375426711E+03  0.00000000000E+00 0.  1.
         -1    1    6    6    0  502  0.24394702796E+03  0.13307625607E+03  0.95860516362E+03  0.99806978820E+03  0.00000000000E+00 0.  1.
<mgrwt>
<rscale>  0 0.12118755E+04</rscale>
<asrwt>0</asrwt>
<pdfrwt beam="1">  1        2 0.25465540E+00 0.12118755E+04</pdfrwt>
<pdfrwt beam="2">  1       -2 0.34125297E-01 0.12118755E+04</pdfrwt>
<totfact> 0.82318752E+01</totfact>
</mgrwt>
</event>
<event>
12    1  0.1467288E-007  0.2578135E+04  0.7818608E-02  0.8375666E-01
          2   -1    0    0  501    0  0.00000000000E+00  0.00000000000E+00  0.19978318222E+04  0.19978318222E+04  0.00000000000E+00 0. -1.
         -2   -1    0    0    0  501 -0.00000000000E+00 -0.00000000000E+00 -0.83174916998E+03  0.83174916998E+03  0.00000000000E+00 0.  1.
         23    2    1    2    0    0 -0.86565163146E+03  0.74460985138E+02  0.13056470770E+04  0.15710097238E+04  0.91978677951E+02 0.  0.
        254    2    1    2    0    0  0.86565163146E+03 -0.74460985138E+02 -0.13956442474E+03  0.12585712684E+04  0.89979232253E+03 0.  0.
        -24    2    4    4    0    0  0.77716852227E+03 -0.18161076866E+03 -0.44167119189E+03  0.91560441572E+03  0.79275601735E+02 0.  0.
         24    2    4    4    0    0  0.88483109192E+02  0.10714978353E+03  0.30210676715E+03  0.34296685270E+03  0.83948952191E+02 0.  0.
         11    1    3    3    0    0 -0.86035929971E+03  0.75653433999E+02  0.12756583809E+04  0.15405342811E+04  0.00000000000E+00 0. -1.
        -11    1    3    3    0    0 -0.52923317571E+01 -0.11924488608E+01  0.29988696097E+02  0.30475442627E+02  0.00000000000E+00 0.  1.
          2    1    6    6  502    0  0.43208910865E+02  0.81139618379E+02  0.26037087061E+03  0.27612250526E+03  0.00000000000E+00 0. -1.
          3    1    5    5  503    0  0.77373158461E+03 -0.17341431873E+03 -0.43891028156E+03  0.90629759252E+03  0.00000000000E+00 0. -1.
         -4    1    5    5    0  503  0.34369376652E+01 -0.81964499374E+01 -0.27609103318E+01  0.93068231933E+01  0.00000000000E+00 0.  1.
         -1    1    6    6    0  502  0.45274198327E+02  0.26010165147E+02  0.41735896538E+02  0.66844347442E+02  0.00000000000E+00 0.  1.
<mgrwt>
<rscale>  0 0.25781350E+04</rscale>
<asrwt>0</asrwt>
<pdfrwt beam="1">  1        2 0.30735874E+00 0.25781350E+04</pdfrwt>
<pdfrwt beam="2">  1       -2 0.12796141E+00 0.25781350E+04</pdfrwt>
<totfact> 0.26837537E+00</totfact>
</mgrwt>
</event>
<event>
12    1  0.1467288E-007  0.1519429E+04  0.7818608E-02  0.8871635E-01
          1   -1    0    0  501    0  0.00000000000E+00  0.00000000000E+00  0.12668242669E+04  0.12668242669E+04  0.00000000000E+00 0. -1.
         -1   -1    0    0    0  501 -0.00000000000E+00 -0.00000000000E+00 -0.45560049064E+03  0.45560049064E+03  0.00000000000E+00 0.  1.
         23    2    1    2    0    0  0.12038392765E+03  0.11148118596E+03  0.78494844562E+03  0.80727094008E+03  0.92854529050E+02 0.  0.
        254    2    1    2    0    0 -0.12038392765E+03 -0.11148118596E+03  0.26275330667E+02  0.91515381749E+03  0.89994209359E+03 0.  0.
        -24    2    4    4    0    0  0.16439739874E+03 -0.15220305666E+03  0.38220246738E+03  0.45077080795E+03  0.83206490480E+02 0.  0.
         24    2    4    4    0    0 -0.28478132639E+03  0.40721870698E+02 -0.35592713671E+03  0.46438300955E+03  0.78795801251E+02 0.  0.
         13    1    3    3    0    0  0.13405825620E+03  0.99678079870E+02  0.65022356758E+03  0.67134046764E+03  0.00000000000E+00 0. -1.
        -13    1    3    3    0    0 -0.13674328551E+02  0.11803106092E+02  0.13472487804E+03  0.13593047244E+03  0.00000000000E+00 0.  1.
          4    1    6    6  502    0 -0.26462378812E+03  0.58821982466E+02 -0.32002925465E+03  0.41940970267E+03  0.00000000000E+00 0. -1.
          3    1    5    5  503    0  0.12187440118E+03 -0.11193519362E+03  0.34141416410E+03  0.37940280531E+03  0.00000000000E+00 0. -1.
         -4    1    5    5    0  503  0.42522997559E+02 -0.40267863041E+02  0.40788303281E+02  0.71368002633E+02  0.00000000000E+00 0.  1.
         -3    1    6    6    0  502 -0.20157538269E+02 -0.18100111768E+02 -0.35897882063E+02  0.44973306880E+02  0.00000000000E+00 0.  1.
<mgrwt>
<rscale>  0 0.15194285E+04</rscale>
<asrwt>0</asrwt>
<pdfrwt beam="1">  1        1 0.19489604E+00 0.15194285E+04</pdfrwt>
<pdfrwt beam="2">  1       -1 0.70092384E-01 0.15194285E+04</pdfrwt>
<totfact> 0.18990782E+01</totfact>
</mgrwt>
</event>
<event>
12    1  0.1467288E-007  0.2937200E+04  0.7818608E-02  0.8261895E-01
          2   -1    0    0  501    0  0.00000000000E+00  0.00000000000E+00  0.96392653794E+03  0.96392653794E+03  0.00000000000E+00 0. -1.
         -2   -1    0    0    0  501 -0.00000000000E+00 -0.00000000000E+00 -0.22375003489E+04  0.22375003489E+04  0.00000000000E+00 0.  1.
         23    2    1    2    0    0  0.76764408437E+03 -0.86178555661E+03  0.14269317725E+03  0.11665057404E+04  0.91774253493E+02 0.  0.
        254    2    1    2    0    0 -0.76764408437E+03  0.86178555661E+03 -0.14162669882E+04  0.20349211464E+04  0.89618084370E+03 0.  0.
        -24    2    4    4    0    0 -0.83500839947E+03  0.86790455501E+03 -0.89347200775E+03  0.15017032789E+04  0.79518333332E+02 0.  0.
         24    2    4    4    0    0  0.67364315096E+02 -0.61189984025E+01 -0.52279498041E+03  0.53321786757E+03  0.80195446657E+02 0.  0.
         11    1    3    3    0    0  0.74920348917E+03 -0.84337153793E+03  0.15313024659E+03  0.11384332618E+04  0.00000000000E+00 0. -1.
        -11    1    3    3    0    0  0.18440595209E+02 -0.18414018685E+02 -0.10437069345E+02  0.28072478557E+02  0.00000000000E+00 0.  1.
          2    1    6    6  502    0  0.69524079203E+02  0.22897790412E+02 -0.42224070679E+03  0.42853835402E+03  0.00000000000E+00 0. -1.
          3    1    5    5  503    0 -0.68993524917E+03  0.71982366601E+03 -0.77575174257E+03  0.12633081668E+04  0.00000000000E+00 0. -1.
         -4    1    5    5    0  503 -0.14507315030E+03  0.14808088900E+03 -0.11772026518E+03  0.23839511207E+03  0.00000000000E+00 0.  1.
         -1    1    6    6    0  502 -0.21597641075E+01 -0.29016788814E+02 -0.10055427362E+03  0.10467951355E+03  0.00000000000E+00 0.  1.
<mgrwt>
<rscale>  0 0.29372000E+04</rscale>
<asrwt>0</asrwt>
<pdfrwt beam="1">  1        2 0.14829639E+00 0.29372000E+04</pdfrwt>
<pdfrwt beam="2">  1       -2 0.34423082E+00 0.29372000E+04</pdfrwt>
<totfact> 0.38684248E-01</totfact>
</mgrwt>
</event>
<event>
12    1  0.1467288E-007  0.1632281E+04  0.7818608E-02  0.8800958E-01
          3   -1    0    0  501    0  0.00000000000E+00  0.00000000000E+00  0.31081541374E+03  0.31081541374E+03  0.00000000000E+00 0. -1.
         -3   -1    0    0    0  501 -0.00000000000E+00 -0.00000000000E+00 -0.21430253047E+04  0.21430253047E+04  0.00000000000E+00 0.  1.
         23    2    1    2    0    0  0.61865860241E+02 -0.44532804538E+03 -0.11713424420E+04  0.12581598884E+04  0.93694906306E+02 0.  0.
        254    2    1    2    0    0 -0.61865860241E+02  0.44532804538E+03 -0.66086744889E+03  0.11956808301E+04  0.88924822726E+03 0.  0.
        -24    2    4    4    0    0 -0.43064462442E+03  0.36595570173E+03 -0.22434940005E+03  0.61319775453E+03  0.79375466542E+02 0.  0.
         24    2    4    4    0    0  0.36877876417E+03  0.79372343655E+02 -0.43651804884E+03  0.58248307552E+03  0.80254473196E+02 0.  0.
         13    1    3    3    0    0 -0.18787789952E+02 -0.29428759026E+02 -0.10921000127E+03  0.11465538490E+03  0.00000000000E+00 0. -1.
        -13    1    3    3    0    0  0.80653650193E+02 -0.41589928636E+03 -0.10621324408E+04  0.11435045035E+04  0.00000000000E+00 0.  1.
          2    1    6    6  502    0  0.10023536025E+02 -0.30486540397E+01  0.12169634277E+01  0.10547348761E+02  0.00000000000E+00 0. -1.
          3    1    5    5  503    0 -0.43055515281E+02  0.52108473028E+02 -0.52874603967E+02  0.85818378580E+02  0.00000000000E+00 0. -1.
         -4    1    5    5    0  503 -0.38758910913E+03  0.31384722870E+03 -0.17147479608E+03  0.52737937595E+03  0.00000000000E+00 0.  1.
         -1    1    6    6    0  502  0.35875522815E+03  0.82420997695E+02 -0.43773501227E+03  0.57193572676E+03  0.00000000000E+00 0.  1.
<mgrwt>
<rscale>  0 0.16322810E+04</rscale>
<asrwt>0</asrwt>
<pdfrwt beam="1">  1        3 0.47817758E-01 0.16322810E+04</pdfrwt>
<pdfrwt beam="2">  1       -3 0.32969619E+00 0.16322810E+04</pdfrwt>
<totfact> 0.28372382E-01</totfact>
</mgrwt>
</event>
<event>
12    1  0.1467288E-007  0.2549058E+04  0.7818608E-02  0.8385714E-01
          2   -1    0    0  501    0  0.00000000000E+00  0.00000000000E+00  0.22297532374E+04  0.22297532374E+04  0.00000000000E+00 0. -1.
         -2   -1    0    0    0  501 -0.00000000000E+00 -0.00000000000E+00 -0.72852208852E+03  0.72852208852E+03  0.00000000000E+00 0.  1.
         23    2    1    2    0    0 -0.93798322552E+03  0.32670933114E+03  0.12526517087E+04  0.16012840335E+04  0.91775456124E+02 0.  0.
        254    2    1    2    0    0  0.93798322552E+03 -0.32670933114E+03  0.24857944020E+03  0.13569912924E+04  0.89055157691E+03 0.  0.
        -24    2    4    4    0    0  0.10209507498E+03 -0.46289791734E+03  0.12835153545E+03  0.49759939065E+03  0.80206924314E+02 0.  0.
         24    2    4    4    0    0  0.83588815054E+03  0.13618858619E+03  0.12022790475E+03  0.85939190175E+03  0.82724606322E+02 0.  0.
         13    1    3    3    0    0 -0.28881438305E+03  0.92056953746E+02  0.31758608968E+03  0.43903206596E+03  0.00000000000E+00 0.  1.
        -13    1    3    3    0    0 -0.64916884247E+03  0.23465237740E+03  0.93506561902E+03  0.11622519676E+04  0.00000000000E+00 0. -1.
          4    1    6    6  502    0  0.73983316129E+03  0.10316942114E+03  0.12649671648E+03  0.75762685755E+03  0.00000000000E+00 0. -1.
          1    1    5    5  503    0  0.90636959537E+02 -0.29576225174E+03  0.11314978852E+03  0.32938312439E+03  0.00000000000E+00 0. -1.
         -2    1    5    5    0  503  0.11458115444E+02 -0.16713566560E+03  0.15201746925E+02  0.16821626626E+03  0.00000000000E+00 0.  1.
         -3    1    6    6    0  502  0.96054989249E+02  0.33019165049E+02 -0.62688117268E+01  0.10176504420E+03  0.00000000000E+00 0.  1.
<mgrwt>
<rscale>  0 0.25490582E+04</rscale>
<asrwt>0</asrwt>
<pdfrwt beam="1">  1        2 0.34303896E+00 0.25490582E+04</pdfrwt>
<pdfrwt beam="2">  1       -2 0.11208032E+00 0.25490582E+04</pdfrwt>
<totfact> 0.27702611E+00</totfact>
</mgrwt>
</event>
<event>
12    1  0.1467288E-007  0.2236881E+04  0.7818608E-02  0.8503232E-01
         -2   -1    0    0    0  501 -0.00000000000E+00  0.00000000000E+00  0.13267650870E+04  0.13267650870E+04  0.00000000000E+00 0.  1.
          2   -1    0    0  501    0  0.00000000000E+00 -0.00000000000E+00 -0.94282616811E+03  0.94282616811E+03  0.00000000000E+00 0. -1.
         23    2    1    2    0    0 -0.47469173469E+03  0.59426893270E+03  0.71488645307E+03  0.10477832523E+04  0.91100469686E+02 0.  0.
        254    2    1    2    0    0  0.47469173469E+03 -0.59426893270E+03 -0.33094753423E+03  0.12218080028E+04  0.89710685982E+03 0.  0.
        -24    2    4    4    0    0  0.13991427656E+03 -0.74911672468E+03 -0.84140016933E+02  0.77082356107E+03  0.79608717324E+02 0.  0.
         24    2    4    4    0    0  0.33477745812E+03  0.15484779198E+03 -0.24680751729E+03  0.45098444173E+03  0.80120103226E+02 0.  0.
         13    1    3    3    0    0 -0.96073400893E+02  0.17322953290E+03  0.15549359574E+03  0.25182697978E+03  0.00000000000E+00 0. -1.
        -13    1    3    3    0    0 -0.37861833379E+03  0.42103939981E+03  0.55939285733E+03  0.79595627248E+03  0.00000000000E+00 0.  1.
          2    1    6    6  502    0  0.20451352442E+03  0.13269817268E+03 -0.14038472199E+03  0.28132269171E+03  0.00000000000E+00 0. -1.
          1    1    5    5  503    0  0.14069540658E+03 -0.62188170057E+03 -0.87296527586E+02  0.64354699181E+03  0.00000000000E+00 0. -1.
         -2    1    5    5    0  503 -0.78113001521E+00 -0.12723502411E+03  0.31565106531E+01  0.12727656927E+03  0.00000000000E+00 0.  1.
         -1    1    6    6    0  502  0.13026393370E+03  0.22149619297E+02 -0.10642279530E+03  0.16966175002E+03  0.00000000000E+00 0.  1.
<mgrwt>
<rscale>  0 0.22368807E+04</rscale>
<asrwt>0</asrwt>
<pdfrwt beam="1">  1        2 0.14505018E+00 0.22368807E+04</pdfrwt>
<pdfrwt beam="2">  1       -2 0.20411771E+00 0.22368807E+04</pdfrwt>
<totfact> 0.31257213E+00</totfact>
</mgrwt>
</event>
<event>
12    1  0.1467288E-007  0.1537209E+04  0.7818608E-02  0.8860079E-01
         -2   -1    0    0    0  501 -0.00000000000E+00  0.00000000000E+00  0.47734796883E+03  0.47734796883E+03  0.00000000000E+00 0.  1.
          2   -1    0    0  501    0  0.00000000000E+00 -0.00000000000E+00 -0.12375735907E+04  0.12375735907E+04  0.00000000000E+00 0. -1.
         23    2    1    2    0    0  0.28011961992E+02  0.47626853765E+03 -0.12399417598E+03  0.50578917090E+03  0.11327726938E+03 0.  0.
        254    2    1    2    0    0 -0.28011961992E+02 -0.47626853765E+03 -0.63623144588E+03  0.12091323886E+04  0.91082066869E+03 0.  0.
        -24    2    4    4    0    0  0.18914272186E+03 -0.42241160956E+03  0.60673078208E+02  0.47349028974E+03  0.79405887285E+02 0.  0.
         24    2    4    4    0    0 -0.21715468385E+03 -0.53856928091E+02 -0.69690452409E+03  0.73564209889E+03  0.73733686561E+02 0.  0.
         11    1    3    3    0    0  0.11973703269E+02 -0.62849948124E+00 -0.89162003331E+01  0.14941994845E+02  0.00000000000E+00 0. -1.
        -11    1    3    3    0    0  0.16038258723E+02  0.47689703713E+03 -0.11507797565E+03  0.49084717606E+03  0.00000000000E+00 0.  1.
          4    1    6    6  502    0 -0.51842379724E+02 -0.45971860032E+02 -0.17930194044E+03  0.19222442638E+03  0.00000000000E+00 0. -1.
          1    1    5    5  503    0  0.28670816862E+02 -0.95614486923E+02  0.43860052072E+02  0.10903141757E+03  0.00000000000E+00 0. -1.
         -2    1    5    5    0  503  0.16047190499E+03 -0.32679712264E+03  0.16813026136E+02  0.36445887217E+03  0.00000000000E+00 0.  1.
         -3    1    6    6    0  502 -0.16531230412E+03 -0.78850680588E+01 -0.51760258365E+03  0.54341767251E+03  0.00000000000E+00 0.  1.
<mgrwt>
<rscale>  0 0.15372095E+04</rscale>
<asrwt>0</asrwt>
<pdfrwt beam="1">  1        2 0.19039594E+00 0.15372095E+04</pdfrwt>
<pdfrwt beam="2">  1       -2 0.73438149E-01 0.15372095E+04</pdfrwt>
<totfact> 0.29000261E+01</totfact>
</mgrwt>
</event>
<event>
12    1  0.1467288E-007  0.3244558E+04  0.7818608E-02  0.8177148E-01
         -2   -1    0    0    0  501 -0.00000000000E+00  0.00000000000E+00  0.17997692704E+04  0.17997692704E+04  0.00000000000E+00 0.  1.
          2   -1    0    0  501    0  0.00000000000E+00 -0.00000000000E+00 -0.14622926127E+04  0.14622926127E+04  0.00000000000E+00 0. -1.
         23    2    1    2    0    0 -0.34712193842E+03 -0.12114281934E+04  0.96366656758E+03  0.15892906892E+04  0.95601953396E+02 0.  0.
        254    2    1    2    0    0  0.34712193842E+03  0.12114281934E+04 -0.62618990990E+03  0.16727711939E+04  0.90443228387E+03 0.  0.
        -24    2    4    4    0    0  0.56170042260E+03  0.11867052282E+04 -0.48107004376E+03  0.14005411270E+04  0.79438013530E+02 0.  0.
         24    2    4    4    0    0 -0.21457848418E+03  0.24722965165E+02 -0.14511986614E+03  0.27223006692E+03  0.79964260198E+02 0.  0.
         11    1    3    3    0    0 -0.34313469495E+03 -0.11765860662E+04  0.91585141547E+03  0.15299934658E+04  0.00000000000E+00 0.  1.
        -11    1    3    3    0    0 -0.39872434690E+01 -0.34842127160E+02  0.47815152116E+02  0.59297223438E+02  0.00000000000E+00 0. -1.
          4    1    6    6  502    0 -0.18609979522E+03 -0.28271711482E+01 -0.13863462468E+03  0.23207905084E+03  0.00000000000E+00 0. -1.
          3    1    5    5  503    0  0.21853588544E+03  0.52722255090E+03 -0.23842336403E+03  0.61852021140E+03  0.00000000000E+00 0. -1.
         -4    1    5    5    0  503  0.34316453716E+03  0.65948267734E+03 -0.24264667973E+03  0.78202091561E+03  0.00000000000E+00 0.  1.
         -3    1    6    6    0  502 -0.28478688957E+02  0.27550136313E+02 -0.64852414560E+01  0.40151016080E+02  0.00000000000E+00 0.  1.
<mgrwt>
<rscale>  0 0.32445581E+04</rscale>
<asrwt>0</asrwt>
<pdfrwt beam="1">  1        2 0.22496809E+00 0.32445581E+04</pdfrwt>
<pdfrwt beam="2">  1       -2 0.27688758E+00 0.32445581E+04</pdfrwt>
<totfact> 0.49214438E-01</totfact>
</mgrwt>
</event>
<event>
12    1  0.1467288E-007  0.2535373E+04  0.7818608E-02  0.8390491E-01
          2   -1    0    0  501    0  0.00000000000E+00  0.00000000000E+00  0.27003331168E+04  0.27003331168E+04  0.00000000000E+00 0. -1.
         -2   -1    0    0    0  501 -0.00000000000E+00 -0.00000000000E+00 -0.59512248106E+03  0.59512248106E+03  0.00000000000E+00 0.  1.
         23    2    1    2    0    0  0.52507202391E+03  0.14029256414E+03 -0.33130027008E+03  0.64369955116E+03  0.95951077932E+02 0.  0.
        254    2    1    2    0    0 -0.52507202391E+03 -0.14029256414E+03  0.24365109059E+04  0.26517560467E+04  0.89433891964E+03 0.  0.
        -24    2    4    4    0    0  0.17652148797E+03  0.10023453792E+03  0.20713669097E+03  0.30089233482E+03  0.80148550214E+02 0.  0.
         24    2    4    4    0    0 -0.70159351188E+03 -0.24052710206E+03  0.22293742149E+04  0.23508637119E+04  0.79775054141E+02 0.  0.
         13    1    3    3    0    0  0.69001447386E+02 -0.13713917481E+02 -0.36934727652E+02  0.79457192127E+02  0.00000000000E+00 0. -1.
        -13    1    3    3    0    0  0.45607057653E+03  0.15400648162E+03 -0.29436554243E+03  0.56424235903E+03  0.00000000000E+00 0.  1.
          2    1    6    6  502    0 -0.28677108520E+03 -0.13585605381E+03  0.10038339696E+04  0.10527949283E+04  0.00000000000E+00 0. -1.
          3    1    5    5  503    0  0.11070330300E+02 -0.12658043460E+02  0.25233085341E+02  0.30323041949E+02  0.00000000000E+00 0. -1.
         -4    1    5    5    0  503  0.16545115767E+03  0.11289258138E+03  0.18190360563E+03  0.27056929287E+03  0.00000000000E+00 0.  1.
         -1    1    6    6    0  502 -0.41482242668E+03 -0.10467104825E+03  0.12255402453E+04  0.12980687836E+04  0.00000000000E+00 0.  1.
<mgrwt>
<rscale>  0 0.25353729E+04</rscale>
<asrwt>0</asrwt>
<pdfrwt beam="1">  1        2 0.41543586E+00 0.25353729E+04</pdfrwt>
<pdfrwt beam="2">  1       -2 0.91557306E-01 0.25353729E+04</pdfrwt>
<totfact> 0.23970543E+00</totfact>
</mgrwt>
</event>
<event>
12    1  0.1467288E-007  0.2040257E+04  0.7818608E-02  0.8588027E-01
         -2   -1    0    0    0  501 -0.00000000000E+00  0.00000000000E+00  0.79094681401E+03  0.79094681401E+03  0.00000000000E+00 0.  1.
          2   -1    0    0  501    0  0.00000000000E+00 -0.00000000000E+00 -0.13157164780E+04  0.13157164780E+04  0.00000000000E+00 0. -1.
         23    2    1    2    0    0 -0.74394497186E+03  0.16522411637E+03 -0.28902527922E+03  0.82313797482E+03  0.11518412990E+03 0.  0.
        254    2    1    2    0    0  0.74394497186E+03 -0.16522411637E+03 -0.23574438477E+03  0.12835253172E+04  0.10055390073E+04 0.  0.
        -24    2    4    4    0    0  0.23620672842E+02  0.13164394665E+03 -0.44469076092E+03  0.47296469092E+03  0.89764475907E+02 0.  0.
         24    2    4    4    0    0  0.72032429901E+03 -0.29686806302E+03  0.20894637615E+03  0.81056062627E+03  0.79700678559E+02 0.  0.
         11    1    3    3    0    0 -0.64459448519E+02 -0.10010042912E+02 -0.48706702181E+02  0.81409853825E+02  0.00000000000E+00 0.  1.
        -11    1    3    3    0    0 -0.67948552334E+03  0.17523415928E+03 -0.24031857704E+03  0.74172812099E+03  0.00000000000E+00 0. -1.
          4    1    6    6  502    0  0.10206601038E+03 -0.70425063174E+02  0.46123842143E+02  0.13230483292E+03  0.00000000000E+00 0. -1.
          1    1    5    5  503    0 -0.40336667533E+01  0.95329489938E+02 -0.39109452285E+03  0.40256540826E+03  0.00000000000E+00 0. -1.
         -2    1    5    5    0  503  0.27654339595E+02  0.36314456711E+02 -0.53596238069E+02  0.70399282666E+02  0.00000000000E+00 0.  1.
         -3    1    6    6    0  502  0.61825828863E+03 -0.22644299984E+03  0.16282253400E+03  0.67825579335E+03  0.00000000000E+00 0.  1.
<mgrwt>
<rscale>  0 0.20402566E+04</rscale>
<asrwt>0</asrwt>
<pdfrwt beam="1">  1        2 0.20241792E+00 0.20402566E+04</pdfrwt>
<pdfrwt beam="2">  1       -2 0.12168413E+00 0.20402566E+04</pdfrwt>
<totfact> 0.76889280E+00</totfact>
</mgrwt>
</event>
<event>
12    1  0.1467288E-007  0.1455469E+04  0.7818608E-02  0.8914618E-01
          1   -1    0    0  501    0  0.00000000000E+00  0.00000000000E+00  0.65008178641E+03  0.65008178641E+03  0.00000000000E+00 0. -1.
         -1   -1    0    0    0  501 -0.00000000000E+00 -0.00000000000E+00 -0.81466309722E+03  0.81466309722E+03  0.00000000000E+00 0.  1.
         23    2    1    2    0    0 -0.18434759679E+03 -0.11225875307E+03  0.33261803800E+03  0.40695670979E+03  0.91612992255E+02 0.  0.
        254    2    1    2    0    0  0.18434759679E+03  0.11225875307E+03 -0.49719934882E+03  0.10577881738E+04  0.90836257308E+03 0.  0.
        -24    2    4    4    0    0  0.88490685666E+02 -0.35674706480E+03 -0.42400974195E+03  0.56686189246E+03  0.80306127792E+02 0.  0.
         24    2    4    4    0    0  0.95856911128E+02  0.46900581787E+03 -0.73189606868E+02  0.49092628138E+03  0.80603291434E+02 0.  0.
         11    1    3    3    0    0 -0.17095794704E+03 -0.10013390264E+03  0.23359947632E+03  0.30630398863E+03  0.00000000000E+00 0. -1.
        -11    1    3    3    0    0 -0.13389649758E+02 -0.12124850433E+02  0.99018561686E+02  0.10065272116E+03  0.00000000000E+00 0.  1.
          2    1    6    6  502    0  0.22871347543E+02  0.16407441432E+03 -0.62940076422E+02  0.17721446102E+03  0.00000000000E+00 0. -1.
          1    1    5    5  503    0  0.53819925864E+02 -0.13119832092E+03 -0.11416531442E+03  0.18205302208E+03  0.00000000000E+00 0. -1.
         -2    1    5    5    0  503  0.34670759802E+02 -0.22554874388E+03 -0.30984442753E+03  0.38480887038E+03  0.00000000000E+00 0.  1.
         -1    1    6    6    0  502  0.72985563585E+02  0.30493140355E+03 -0.10249530446E+02  0.31371182037E+03  0.00000000000E+00 0.  1.
<mgrwt>
<rscale>  0 0.14554692E+04</rscale>
<asrwt>0</asrwt>
<pdfrwt beam="1">  1        1 0.10001258E+00 0.14554692E+04</pdfrwt>
<pdfrwt beam="2">  1       -1 0.12533278E+00 0.14554692E+04</pdfrwt>
<totfact> 0.16439359E+01</totfact>
</mgrwt>
</event>
<event>
12    1  0.1467288E-007  0.2828294E+04  0.7818608E-02  0.8294538E-01
         -2   -1    0    0    0  501 -0.00000000000E+00  0.00000000000E+00  0.51149020912E+03  0.51149020912E+03  0.00000000000E+00 0.  1.
          2   -1    0    0  501    0  0.00000000000E+00 -0.00000000000E+00 -0.39097764553E+04  0.39097764553E+04  0.00000000000E+00 0. -1.
         23    2    1    2    0    0  0.12162276449E+04  0.41364747333E+02 -0.97410397264E+03  0.15613852818E+04  0.90137240091E+02 0.  0.
        254    2    1    2    0    0 -0.12162276449E+04 -0.41364747333E+02 -0.24241822736E+04  0.28598813827E+04  0.90627871043E+03 0.  0.
        -24    2    4    4    0    0 -0.23241506588E+03  0.11376093338E+02 -0.14524079817E+04  0.14736534929E+04  0.89551624624E+02 0.  0.
         24    2    4    4    0    0 -0.98381257902E+03 -0.52740840671E+02 -0.97177429187E+03  0.13862278898E+04  0.81324665260E+02 0.  0.
         13    1    3    3    0    0  0.54234498247E+02 -0.47800186529E+01 -0.23144943112E+02  0.59160102857E+02  0.00000000000E+00 0. -1.
        -13    1    3    3    0    0  0.11619931467E+04  0.46144765986E+02 -0.95095902952E+03  0.15022251789E+04  0.00000000000E+00 0.  1.
          2    1    6    6  502    0 -0.72357461076E+03 -0.39154146596E+01 -0.72406189555E+03  0.10236411365E+04  0.00000000000E+00 0. -1.
          3    1    5    5  503    0 -0.17677325813E+03 -0.30700886360E+02 -0.10684209183E+04  0.10833810908E+04  0.00000000000E+00 0. -1.
         -4    1    5    5    0  503 -0.55641807756E+02  0.42076979698E+02 -0.38398706339E+03  0.39027240210E+03  0.00000000000E+00 0.  1.
         -1    1    6    6    0  502 -0.26023796826E+03 -0.48825426011E+02 -0.24771239632E+03  0.36258675326E+03  0.00000000000E+00 0.  1.
<mgrwt>
<rscale>  0 0.28282945E+04</rscale>
<asrwt>0</asrwt>
<pdfrwt beam="1">  1        2 0.60150405E+00 0.28282945E+04</pdfrwt>
<pdfrwt beam="2">  1       -2 0.78690804E-01 0.28282945E+04</pdfrwt>
<totfact> 0.50312412E-01</totfact>
</mgrwt>
</event>
<event>
12    1  0.1467288E-007  0.2421070E+04  0.7818608E-02  0.8431657E-01
         -2   -1    0    0    0  501 -0.00000000000E+00  0.00000000000E+00  0.54253616379E+03  0.54253616379E+03  0.00000000000E+00 0.  1.
          2   -1    0    0  501    0  0.00000000000E+00 -0.00000000000E+00 -0.27010080856E+04  0.27010080856E+04  0.00000000000E+00 0. -1.
         23    2    1    2    0    0 -0.25627636222E+03  0.49444523707E+03  0.25009132177E+03  0.61716458807E+03  0.90514050047E+02 0.  0.
        254    2    1    2    0    0  0.25627636222E+03 -0.49444523707E+03 -0.24085632435E+04  0.26263796613E+04  0.88687065618E+03 0.  0.
        -24    2    4    4    0    0 -0.71409293229E+02 -0.23354706976E+03 -0.96408635676E+02  0.27519407762E+03  0.82423506155E+02 0.  0.
         24    2    4    4    0    0  0.32768565545E+03 -0.26089816730E+03 -0.23121546079E+04  0.23511855837E+04  0.81049217704E+02 0.  0.
         13    1    3    3    0    0 -0.18259668762E+03  0.33993911876E+03  0.12667060404E+03  0.40613494890E+03  0.00000000000E+00 0.  1.
        -13    1    3    3    0    0 -0.73679674606E+02  0.15450611831E+03  0.12342071773E+03  0.21102963917E+03  0.00000000000E+00 0. -1.
          2    1    6    6  502    0  0.30477334825E+03 -0.21682461187E+03 -0.21182825758E+04  0.21510510866E+04  0.00000000000E+00 0. -1.
          3    1    5    5  503    0 -0.39432706036E+02 -0.14749233906E+03 -0.16641348128E+02  0.15357689557E+03  0.00000000000E+00 0. -1.
         -4    1    5    5    0  503 -0.31976587193E+02 -0.86054730707E+02 -0.79767287548E+02  0.12161718204E+03  0.00000000000E+00 0.  1.
         -1    1    6    6    0  502  0.22912307199E+02 -0.44073555434E+02 -0.19387203202E+03  0.20013449705E+03  0.00000000000E+00 0.  1.
<mgrwt>
<rscale>  0 0.24210697E+04</rscale>
<asrwt>0</asrwt>
<pdfrwt beam="1">  1        2 0.41553971E+00 0.24210697E+04</pdfrwt>
<pdfrwt beam="2">  1       -2 0.83467101E-01 0.24210697E+04</pdfrwt>
<totfact> 0.29895105E+00</totfact>
</mgrwt>
</event>
<event>
12    1  0.1467288E-007  0.1290593E+04  0.7818608E-02  0.9037058E-01
          2   -1    0    0  501    0  0.00000000000E+00  0.00000000000E+00  0.14169521314E+04  0.14169521314E+04  0.00000000000E+00 0.  1.
         -2   -1    0    0    0  501 -0.00000000000E+00 -0.00000000000E+00 -0.29387560226E+03  0.29387560226E+03  0.00000000000E+00 0. -1.
         23    2    1    2    0    0 -0.21653079714E+03  0.13496142217E+03  0.56502001863E+03  0.62660862560E+03  0.91052603705E+02 0.  0.
        254    2    1    2    0    0  0.21653079714E+03 -0.13496142217E+03  0.55805651048E+03  0.10842191080E+04  0.89387014366E+03 0.  0.
        -24    2    4    4    0    0 -0.54168584145E+02 -0.22022432046E+03  0.71123994044E+03  0.75058427903E+03  0.77984102397E+02 0.  0.
         24    2    4    4    0    0  0.27069938128E+03  0.85262898285E+02 -0.15318342996E+03  0.33363482899E+03  0.85434881927E+02 0.  0.
         11    1    3    3    0    0 -0.43161919318E+02  0.25312547496E+02  0.21644364310E+03  0.22215203572E+03  0.00000000000E+00 0.  1.
        -11    1    3    3    0    0 -0.17336887782E+03  0.10964887468E+03  0.34857637554E+03  0.40445658988E+03  0.00000000000E+00 0. -1.
          2    1    6    6  502    0  0.25049657614E+03  0.51283382509E+02 -0.14234502770E+03  0.29264419845E+03  0.00000000000E+00 0. -1.
          1    1    5    5  503    0  0.63765846259E+00 -0.15244840677E+03  0.46744112789E+03  0.49167278894E+03  0.00000000000E+00 0. -1.
         -2    1    5    5    0  503 -0.54806242608E+02 -0.67775913684E+02  0.24379881255E+03  0.25891149009E+03  0.00000000000E+00 0.  1.
         -1    1    6    6    0  502  0.20202805147E+02  0.33979515776E+02 -0.10838402257E+02  0.40990630535E+02  0.00000000000E+00 0.  1.
<mgrwt>
<rscale>  0 0.12905931E+04</rscale>
<asrwt>0</asrwt>
<pdfrwt beam="1">  1        2 0.21799263E+00 0.12905931E+04</pdfrwt>
<pdfrwt beam="2">  1       -2 0.45211632E-01 0.12905931E+04</pdfrwt>
<totfact> 0.64366446E+01</totfact>
</mgrwt>
</event>
<event>
12    1  0.1467288E-007  0.2253625E+04  0.7818608E-02  0.8496434E-01
         -2   -1    0    0    0  501 -0.00000000000E+00  0.00000000000E+00  0.50157924365E+03  0.50157924365E+03  0.00000000000E+00 0.  1.
          2   -1    0    0  501    0  0.00000000000E+00 -0.00000000000E+00 -0.25314179101E+04  0.25314179101E+04  0.00000000000E+00 0. -1.
         23    2    1    2    0    0 -0.76921591890E+03 -0.30244562397E+03 -0.14559999066E+04  0.16768394873E+04  0.93211869364E+02 0.  0.
        254    2    1    2    0    0  0.76921591890E+03  0.30244562397E+03 -0.57383875985E+03  0.13561576665E+04  0.90923385812E+03 0.  0.
        -24    2    4    4    0    0 -0.10938687313E+03  0.23033163725E+03  0.49704167403E+02  0.27349131295E+03  0.85491770767E+02 0.  0.
         24    2    4    4    0    0  0.87860279204E+03  0.72113986716E+02 -0.62354292725E+03  0.10826663536E+04  0.78850223441E+02 0.  0.
         13    1    3    3    0    0 -0.30470075415E+03 -0.11893924770E+03 -0.67000003221E+03  0.74557973242E+03  0.00000000000E+00 0.  1.
        -13    1    3    3    0    0 -0.46451516475E+03 -0.18350637627E+03 -0.78599987440E+03  0.93125975483E+03  0.00000000000E+00 0. -1.
          2    1    6    6  502    0  0.36529174700E+03  0.67082962921E+02 -0.27661638114E+03  0.46309265450E+03  0.00000000000E+00 0. -1.
          1    1    5    5  503    0 -0.57585597731E+02  0.43960510794E+02  0.32148645287E+02  0.79260096954E+02  0.00000000000E+00 0. -1.
         -2    1    5    5    0  503 -0.51801275400E+02  0.18637112646E+03  0.17555522116E+02  0.19423121600E+03  0.00000000000E+00 0.  1.
         -1    1    6    6    0  502  0.51331104504E+03  0.50310237951E+01 -0.34692654612E+03  0.61957369906E+03  0.00000000000E+00 0.  1.
<mgrwt>
<rscale>  0 0.22536252E+04</rscale>
<asrwt>0</asrwt>
<pdfrwt beam="1">  1        2 0.38944892E+00 0.22536252E+04</pdfrwt>
<pdfrwt beam="2">  1       -2 0.77166036E-01 0.22536252E+04</pdfrwt>
<totfact> 0.45526878E+00</totfact>
</mgrwt>
</event>
<event>
12    1  0.1467288E-007  0.1243562E+04  0.7818608E-02  0.9075559E-01
         -2   -1    0    0    0  501 -0.00000000000E+00  0.00000000000E+00  0.37171357552E+03  0.37171357552E+03  0.00000000000E+00 0.  1.
          2   -1    0    0  501    0  0.00000000000E+00 -0.00000000000E+00 -0.10400793085E+04  0.10400793085E+04  0.00000000000E+00 0. -1.
         23    2    1    2    0    0 -0.64870223922E+02  0.20409381231E+03  0.36536209113E+02  0.25156050340E+03  0.12682808095E+03 0.  0.
        254    2    1    2    0    0  0.64870223922E+02 -0.20409381231E+03 -0.70490194208E+03  0.11602323806E+04  0.89632025466E+03 0.  0.
        -24    2    4    4    0    0 -0.35740364471E+03 -0.45044716272E+02 -0.57413991940E+03  0.68339353466E+03  0.87313712833E+02 0.  0.
         24    2    4    4    0    0  0.42227386863E+03 -0.15904909604E+03 -0.13076202268E+03  0.47683884595E+03  0.81637879405E+02 0.  0.
         13    1    3    3    0    0 -0.86259049024E+02  0.15995888588E+03 -0.12555287227E+02  0.18216779065E+03  0.00000000000E+00 0. -1.
        -13    1    3    3    0    0  0.21388825101E+02  0.44134926428E+02  0.49091496340E+02  0.69392712751E+02  0.00000000000E+00 0.  1.
          4    1    6    6  502    0  0.12034622148E+03 -0.83510794787E+02 -0.28451411653E+02  0.14922047010E+03  0.00000000000E+00 0. -1.
          1    1    5    5  503    0 -0.14730916724E+02 -0.20906375635E+02 -0.57988444755E+02  0.63377726172E+02  0.00000000000E+00 0. -1.
         -2    1    5    5    0  503 -0.34267272799E+03 -0.24138340637E+02 -0.51615147465E+03  0.62001580849E+03  0.00000000000E+00 0.  1.
         -3    1    6    6    0  502  0.30192764715E+03 -0.75538301254E+02 -0.10231061103E+03  0.32761837586E+03  0.00000000000E+00 0.  1.
<mgrwt>
<rscale>  0 0.12435620E+04</rscale>
<asrwt>0</asrwt>
<pdfrwt beam="1">  1        2 0.16001220E+00 0.12435620E+04</pdfrwt>
<pdfrwt beam="2">  1       -2 0.57186705E-01 0.12435620E+04</pdfrwt>
<totfact> 0.66963614E+01</totfact>
</mgrwt>
</event>
<event>
12    1  0.1467288E-007  0.1746881E+04  0.7818608E-02  0.8735069E-01
          1   -1    0    0  501    0  0.00000000000E+00  0.00000000000E+00  0.85688649112E+03  0.85688649112E+03  0.00000000000E+00 0. -1.
         -1   -1    0    0    0  501 -0.00000000000E+00 -0.00000000000E+00 -0.89031403272E+03  0.89031403272E+03  0.00000000000E+00 0.  1.
         23    2    1    2    0    0  0.40070649610E+03 -0.34687353518E+03  0.33684764908E+03  0.63843682834E+03  0.11510125832E+03 0.  0.
        254    2    1    2    0    0 -0.40070649610E+03  0.34687353518E+03 -0.37027519068E+03  0.11087636955E+04  0.90075871919E+03 0.  0.
        -24    2    4    4    0    0  0.41052237730E+02  0.26336001882E+03 -0.55129170810E+03  0.61748934084E+03  0.79540888243E+02 0.  0.
         24    2    4    4    0    0 -0.44175873383E+03  0.83513516360E+02  0.18101651741E+03  0.49127435466E+03  0.80363086282E+02 0.  0.
         13    1    3    3    0    0  0.28679388851E+03 -0.19826450178E+03  0.17111660276E+03  0.38838182101E+03  0.00000000000E+00 0. -1.
        -13    1    3    3    0    0  0.11391260759E+03 -0.14860903340E+03  0.16573104632E+03  0.25005500733E+03  0.00000000000E+00 0.  1.
          2    1    6    6  502    0 -0.75303368346E+02  0.30564044945E+02  0.62449778975E+02  0.10249259984E+03  0.00000000000E+00 0. -1.
          3    1    5    5  503    0 -0.15581203386E+02  0.18610066466E+02 -0.28242299129E+02  0.37238903487E+02  0.00000000000E+00 0. -1.
         -4    1    5    5    0  503  0.56633441116E+02  0.24474995235E+03 -0.52304940897E+03  0.58025043735E+03  0.00000000000E+00 0.  1.
         -1    1    6    6    0  502 -0.36645536549E+03  0.52949471415E+02  0.11856673844E+03  0.38878175482E+03  0.00000000000E+00 0.  1.
<mgrwt>
<rscale>  0 0.17468807E+04</rscale>
<asrwt>0</asrwt>
<pdfrwt beam="1">  1        1 0.13182869E+00 0.17468807E+04</pdfrwt>
<pdfrwt beam="2">  1       -1 0.13697139E+00 0.17468807E+04</pdfrwt>
<totfact> 0.83133972E+00</totfact>
</mgrwt>
</event>
<event>
12    1  0.1467288E-007  0.2784983E+04  0.7818608E-02  0.8307946E-01
         -1   -1    0    0    0  501 -0.00000000000E+00  0.00000000000E+00  0.11034227289E+04  0.11034227289E+04  0.00000000000E+00 0.  1.
          1   -1    0    0  501    0  0.00000000000E+00 -0.00000000000E+00 -0.17572893678E+04  0.17572893678E+04  0.00000000000E+00 0. -1.
         23    2    1    2    0    0 -0.31258902477E+03  0.97181463896E+03  0.45996600254E+03  0.11234149798E+04  0.91416095176E+02 0.  0.
        254    2    1    2    0    0  0.31258902477E+03 -0.97181463896E+03 -0.11138326415E+04  0.17372971169E+04  0.85757945893E+03 0.  0.
        -24    2    4    4    0    0  0.30823961241E+03 -0.26408465037E+03  0.12559925434E+01  0.41405876767E+03  0.81796848005E+02 0.  0.
         24    2    4    4    0    0  0.43494123531E+01 -0.70772998859E+03 -0.11150886340E+04  0.13232383493E+04  0.81464182965E+02 0.  0.
         11    1    3    3    0    0 -0.24780569373E+03  0.80325290510E+03  0.34084368744E+03  0.90708175522E+03  0.00000000000E+00 0.  1.
        -11    1    3    3    0    0 -0.64783331040E+02  0.16856173386E+03  0.11912231510E+03  0.21633322458E+03  0.00000000000E+00 0. -1.
          4    1    6    6  502    0 -0.31639959509E+02 -0.15912990116E+03 -0.27284026601E+03  0.31743538435E+03  0.00000000000E+00 0. -1.
          1    1    5    5  503    0  0.40559156499E+02 -0.78214161793E+02 -0.27900154092E+01  0.88149217052E+02  0.00000000000E+00 0. -1.
         -2    1    5    5    0  503  0.26768045591E+03 -0.18587048858E+03  0.40460079527E+01  0.32590955061E+03  0.00000000000E+00 0.  1.
         -3    1    6    6    0  502  0.35989371862E+02 -0.54860008743E+03 -0.84224836800E+03  0.10058029649E+04  0.00000000000E+00 0.  1.
<mgrwt>
<rscale>  0 0.27849833E+04</rscale>
<asrwt>0</asrwt>
<pdfrwt beam="1">  1        1 0.27035221E+00 0.27849833E+04</pdfrwt>
<pdfrwt beam="2">  1       -1 0.16975734E+00 0.27849833E+04</pdfrwt>
<totfact> 0.93297110E-01</totfact>
</mgrwt>
</event>
<event>
12    1  0.1467288E-007  0.1188141E+04  0.7818608E-02  0.9123301E-01
          2   -1    0    0  501    0  0.00000000000E+00  0.00000000000E+00  0.18630167278E+04  0.18630167278E+04  0.00000000000E+00 0. -1.
         -2   -1    0    0    0  501 -0.00000000000E+00 -0.00000000000E+00 -0.18943446598E+03  0.18943446598E+03  0.00000000000E+00 0.  1.
         23    2    1    2    0    0 -0.12139477365E+03 -0.14329298784E+03  0.10454139090E+03  0.23551297653E+03  0.96269872059E+02 0.  0.
        254    2    1    2    0    0  0.12139477365E+03  0.14329298784E+03  0.15690408709E+04  0.18169382172E+04  0.89671938713E+03 0.  0.
        -24    2    4    4    0    0 -0.30297106626E+03  0.18213198090E+03  0.28279002420E+03  0.45960722172E+03  0.79404502468E+02 0.  0.
         24    2    4    4    0    0  0.42436583991E+03 -0.38838993060E+02  0.12862508467E+04  0.13573309955E+04  0.79444051319E+02 0.  0.
         11    1    3    3    0    0 -0.13698261665E+03 -0.11874071566E+03  0.83337203923E+02  0.19952113767E+03  0.00000000000E+00 0.  1.
        -11    1    3    3    0    0  0.15587843001E+02 -0.24552272187E+02  0.21204186979E+02  0.35991838858E+02  0.00000000000E+00 0. -1.
          2    1    6    6  502    0  0.12862603021E+03 -0.19871915892E+02  0.51257101206E+03  0.52883701751E+03  0.00000000000E+00 0. -1.
          3    1    5    5  503    0 -0.83772018590E+02  0.93675774890E+02  0.10660903726E+03  0.16479802403E+03  0.00000000000E+00 0. -1.
         -4    1    5    5    0  503 -0.21919904767E+03  0.88456206014E+02  0.17618098694E+03  0.29480919768E+03  0.00000000000E+00 0.  1.
         -1    1    6    6    0  502  0.29573980970E+03 -0.18967077168E+02  0.77367983462E+03  0.82849397799E+03  0.00000000000E+00 0.  1.
<mgrwt>
<rscale>  0 0.11881407E+04</rscale>
<asrwt>0</asrwt>
<pdfrwt beam="1">  1        2 0.28661795E+00 0.11881407E+04</pdfrwt>
<pdfrwt beam="2">  1       -2 0.29143765E-01 0.11881407E+04</pdfrwt>
<totfact> 0.85135113E+01</totfact>
</mgrwt>
</event>
<event>
12    1  0.1467288E-007  0.1865052E+04  0.7818608E-02  0.8672450E-01
          2   -1    0    0  501    0  0.00000000000E+00  0.00000000000E+00  0.32876667838E+04  0.32876667838E+04  0.00000000000E+00 0. -1.
         -2   -1    0    0    0  501 -0.00000000000E+00 -0.00000000000E+00 -0.26450518007E+03  0.26450518007E+03  0.00000000000E+00 0.  1.
         23    2    1    2    0    0  0.16849488240E+03 -0.75562655142E+02 -0.13640932878E+03  0.25308868212E+03  0.10651824159E+03 0.  0.
        254    2    1    2    0    0 -0.16849488240E+03  0.75562655142E+02  0.31595709325E+04  0.32990832817E+04  0.93110782516E+03 0.  0.
        -24    2    4    4    0    0 -0.95442455849E+02  0.49730585633E+03  0.16615560054E+04  0.17389133110E+04  0.81417238783E+02 0.  0.
         24    2    4    4    0    0 -0.73052426548E+02 -0.42174320118E+03  0.14980149271E+04  0.15601699708E+04  0.82931484841E+02 0.  0.
         13    1    3    3    0    0  0.11410753971E+03 -0.87116566148E+02 -0.13560698652E+03  0.19748185108E+03  0.00000000000E+00 0.  1.
        -13    1    3    3    0    0  0.54387342691E+02  0.11553911006E+02 -0.80234226238E+00  0.55606831034E+02  0.00000000000E+00 0. -1.
          2    1    6    6  502    0 -0.60454793282E+02 -0.28303416522E+03  0.86930899745E+03  0.91622118168E+03  0.00000000000E+00 0. -1.
          3    1    5    5  503    0 -0.22522055000E+02  0.32321360496E+03  0.10694343753E+04  0.11174364234E+04  0.00000000000E+00 0. -1.
         -4    1    5    5    0  503 -0.72920400849E+02  0.17409225136E+03  0.59212163016E+03  0.62147688755E+03  0.00000000000E+00 0.  1.
         -1    1    6    6    0  502 -0.12597633266E+02 -0.13870903596E+03  0.62870592961E+03  0.64394878907E+03  0.00000000000E+00 0.  1.
<mgrwt>
<rscale>  0 0.18650522E+04</rscale>
<asrwt>0</asrwt>
<pdfrwt beam="1">  1        2 0.50579486E+00 0.18650522E+04</pdfrwt>
<pdfrwt beam="2">  1       -2 0.40693107E-01 0.18650522E+04</pdfrwt>
<totfact> 0.61290351E+00</totfact>
</mgrwt>
</event>
<event>
12    1  0.1467288E-007  0.1652343E+04  0.7818608E-02  0.8789021E-01
          2   -1    0    0  501    0  0.00000000000E+00  0.00000000000E+00  0.25128353350E+04  0.25128353350E+04  0.00000000000E+00 0.  1.
         -2   -1    0    0    0  501 -0.00000000000E+00 -0.00000000000E+00 -0.27162922710E+03  0.27162922710E+03  0.00000000000E+00 0. -1.
         23    2    1    2    0    0 -0.15619408432E+03 -0.27318218061E+03 -0.38268687035E+02  0.32989143830E+03  0.91316881657E+02 0.  0.
        254    2    1    2    0    0  0.15619408432E+03  0.27318218061E+03  0.22794747949E+04  0.24545731238E+04  0.85434114004E+03 0.  0.
        -24    2    4    4    0    0 -0.16652949026E+03  0.33766197727E+03  0.44084141110E+03  0.58499713177E+03  0.78312275020E+02 0.  0.
         24    2    4    4    0    0  0.32272357458E+03 -0.64479796667E+02  0.18386333838E+04  0.18695759920E+04  0.80209226707E+02 0.  0.
         11    1    3    3    0    0 -0.14178890523E+03 -0.24331417073E+03 -0.32053175964E+01  0.28163123653E+03  0.00000000000E+00 0. -1.
        -11    1    3    3    0    0 -0.14405179086E+02 -0.29868009874E+02 -0.35063369438E+02  0.48260201768E+02  0.00000000000E+00 0.  1.
          4    1    6    6  502    0  0.11017395517E+03 -0.69299103505E+01  0.82116079317E+03  0.82854774896E+03  0.00000000000E+00 0. -1.
          1    1    5    5  503    0 -0.22890815482E+02  0.99461745571E+02  0.81696441235E+02  0.13073230961E+03  0.00000000000E+00 0. -1.
         -2    1    5    5    0  503 -0.14363867478E+03  0.23820023170E+03  0.35914496987E+03  0.45426482217E+03  0.00000000000E+00 0.  1.
         -3    1    6    6    0  502  0.21254961941E+03 -0.57549886317E+02  0.10174725907E+04  0.10410282431E+04  0.00000000000E+00 0.  1.
<mgrwt>
<rscale>  0 0.16523432E+04</rscale>
<asrwt>0</asrwt>
<pdfrwt beam="1">  1        2 0.38659004E+00 0.16523432E+04</pdfrwt>
<pdfrwt beam="2">  1       -2 0.41789114E-01 0.16523432E+04</pdfrwt>
<totfact> 0.17768366E+01</totfact>
</mgrwt>
</event>
<event>
12    1  0.1467288E-007  0.1452880E+04  0.7818608E-02  0.8916407E-01
         -2   -1    0    0    0  501 -0.00000000000E+00  0.00000000000E+00  0.23396282194E+03  0.23396282194E+03  0.00000000000E+00 0.  1.
          2   -1    0    0  501    0  0.00000000000E+00 -0.00000000000E+00 -0.22555497149E+04  0.22555497149E+04  0.00000000000E+00 0. -1.
         23    2    1    2    0    0 -0.25504724039E+03 -0.21969400139E+03 -0.13481608559E+03  0.37370029118E+03  0.90343686094E+02 0.  0.
        254    2    1    2    0    0  0.25504724039E+03  0.21969400139E+03 -0.18867708074E+04  0.21158122457E+04  0.89634972542E+03 0.  0.
        -24    2    4    4    0    0  0.53138751468E+03  0.42268460580E+02 -0.71031555345E+03  0.89176649846E+03  0.80870197132E+02 0.  0.
         24    2    4    4    0    0 -0.27634027429E+03  0.17742554081E+03 -0.11764552540E+04  0.12240457472E+04  0.79982854575E+02 0.  0.
         11    1    3    3    0    0 -0.78953687342E+02 -0.11079700684E+03 -0.86086077284E+02  0.16099836698E+03  0.00000000000E+00 0. -1.
        -11    1    3    3    0    0 -0.17609355305E+03 -0.10889699455E+03 -0.48730008302E+02  0.21270192419E+03  0.00000000000E+00 0.  1.
          2    1    6    6  502    0 -0.12683161403E+03  0.35769111667E+02 -0.43594547300E+03  0.45542742901E+03  0.00000000000E+00 0. -1.
          1    1    5    5  503    0  0.18770308173E+03  0.18620743717E+02 -0.18990019214E+03  0.26765885370E+03  0.00000000000E+00 0. -1.
         -2    1    5    5    0  503  0.34368443296E+03  0.23647716863E+02 -0.52041536130E+03  0.62410764476E+03  0.00000000000E+00 0.  1.
         -1    1    6    6    0  502 -0.14950866026E+03  0.14165642914E+03 -0.74050978096E+03  0.76861831822E+03  0.00000000000E+00 0.  1.
<mgrwt>
<rscale>  0 0.14528796E+04</rscale>
<asrwt>0</asrwt>
<pdfrwt beam="1">  1        2 0.34700764E+00 0.14528796E+04</pdfrwt>
<pdfrwt beam="2">  1       -2 0.35994281E-01 0.14528796E+04</pdfrwt>
<totfact> 0.33869646E+01</totfact>
</mgrwt>
</event>
<event>
12    1  0.1467288E-007  0.1484420E+04  0.7818608E-02  0.8894880E-01
          2   -1    0    0  501    0  0.00000000000E+00  0.00000000000E+00  0.45723464882E+03  0.45723464882E+03  0.00000000000E+00 0. -1.
         -2   -1    0    0    0  501 -0.00000000000E+00 -0.00000000000E+00 -0.12047986069E+04  0.12047986069E+04  0.00000000000E+00 0.  1.
         23    2    1    2    0    0 -0.28147687718E+03  0.21693015390E+02  0.17957400805E+03  0.34617142095E+03  0.88814463964E+02 0.  0.
        254    2    1    2    0    0  0.28147687718E+03 -0.21693015390E+02 -0.92713796617E+03  0.13158618348E+04  0.89006052644E+03 0.  0.
        -24    2    4    4    0    0 -0.37203306355E+02 -0.23769595806E+03 -0.88407398738E+03  0.91967842612E+03  0.79612422570E+02 0.  0.
         24    2    4    4    0    0  0.31868018353E+03  0.21600294267E+03 -0.43063978791E+02  0.39618340871E+03  0.83020819347E+02 0.  0.
         13    1    3    3    0    0 -0.15863814278E+03 -0.29640818045E+02  0.81367078507E+02  0.18073527576E+03  0.00000000000E+00 0. -1.
        -13    1    3    3    0    0 -0.12283873440E+03  0.51333833435E+02  0.98206929541E+02  0.16543614518E+03  0.00000000000E+00 0.  1.
          4    1    6    6  502    0  0.32188189976E+03  0.21910521197E+03 -0.42551508352E+02  0.39169590522E+03  0.00000000000E+00 0. -1.
          1    1    5    5  503    0 -0.26013486252E+02 -0.24015559154E+03 -0.85362020410E+03  0.88714083576E+03  0.00000000000E+00 0. -1.
         -2    1    5    5    0  503 -0.11189820103E+02  0.24596334788E+01 -0.30453783273E+02  0.32537590359E+02  0.00000000000E+00 0.  1.
         -3    1    6    6    0  502 -0.32017162231E+01 -0.31022692995E+01 -0.51247043918E+00  0.44875034853E+01  0.00000000000E+00 0.  1.
<mgrwt>
<rscale>  0 0.14844200E+04</rscale>
<asrwt>0</asrwt>
<pdfrwt beam="1">  1        2 0.70343792E-01 0.14844200E+04</pdfrwt>
<pdfrwt beam="2">  1       -2 0.18535363E+00 0.14844200E+04</pdfrwt>
<totfact> 0.10994180E+01</totfact>
</mgrwt>
</event>
<event>
12    1  0.1467288E-007  0.1272070E+04  0.7818608E-02  0.9052012E-01
          2   -1    0    0  501    0  0.00000000000E+00  0.00000000000E+00  0.12641301899E+04  0.12641301899E+04  0.00000000000E+00 0.  1.
         -2   -1    0    0    0  501 -0.00000000000E+00 -0.00000000000E+00 -0.32001491193E+03  0.32001491193E+03  0.00000000000E+00 0. -1.
         23    2    1    2    0    0 -0.13678114296E+02  0.12288450827E+03  0.59557439998E+03  0.61526297293E+03  0.92476844414E+02 0.  0.
        254    2    1    2    0    0  0.13678114296E+02 -0.12288450827E+03  0.34854087795E+03  0.96888212887E+03  0.89552450713E+03 0.  0.
        -24    2    4    4    0    0  0.42585063148E+03 -0.83051318168E+02  0.31984893938E+02  0.44253009822E+03  0.81015878791E+02 0.  0.
         24    2    4    4    0    0 -0.41217251718E+03 -0.39833190103E+02  0.31655598401E+03  0.52635203065E+03  0.73252318742E+02 0.  0.
         13    1    3    3    0    0 -0.39817969783E+02  0.84505409277E+02  0.50404250159E+03  0.51262606091E+03  0.00000000000E+00 0.  1.
        -13    1    3    3    0    0  0.26139855486E+02  0.38379098994E+02  0.91531898393E+02  0.10263691201E+03  0.00000000000E+00 0. -1.
          4    1    6    6  502    0 -0.28021887547E+03  0.29661987149E+01  0.23271305278E+03  0.36426196815E+03  0.00000000000E+00 0. -1.
          1    1    5    5  503    0  0.88766811003E+02 -0.31698748115E+02 -0.23325612014E+02  0.97100162428E+02  0.00000000000E+00 0. -1.
         -2    1    5    5    0  503  0.33708382047E+03 -0.51352570053E+02  0.55310505951E+02  0.34542993580E+03  0.00000000000E+00 0.  1.
         -3    1    6    6    0  502 -0.13195364171E+03 -0.42799388818E+02  0.83842931230E+02  0.16209006250E+03  0.00000000000E+00 0.  1.
<mgrwt>
<rscale>  0 0.12720700E+04</rscale>
<asrwt>0</asrwt>
<pdfrwt beam="1">  1        2 0.19448156E+00 0.12720700E+04</pdfrwt>
<pdfrwt beam="2">  1       -2 0.49233064E-01 0.12720700E+04</pdfrwt>
<totfact> 0.66529718E+01</totfact>
</mgrwt>
</event>
<event>
12    1  0.1467288E-007  0.2106690E+04  0.7818608E-02  0.8558302E-01
         -2   -1    0    0    0  501 -0.00000000000E+00  0.00000000000E+00  0.31685154314E+03  0.31685154314E+03  0.00000000000E+00 0.  1.
          2   -1    0    0  501    0  0.00000000000E+00 -0.00000000000E+00 -0.35017517149E+04  0.35017517149E+04  0.00000000000E+00 0. -1.
         23    2    1    2    0    0 -0.16655946163E+03 -0.56713664380E+03 -0.17595025948E+03  0.62387154738E+03  0.94186977991E+02 0.  0.
        254    2    1    2    0    0  0.16655946163E+03  0.56713664380E+03 -0.30089499122E+04  0.31947317106E+04  0.89618363156E+03 0.  0.
        -24    2    4    4    0    0 -0.33249162456E+03  0.67350451154E+02 -0.12488734424E+04  0.12965983534E+04  0.79972815627E+02 0.  0.
         24    2    4    4    0    0  0.49905108620E+03  0.49978619265E+03 -0.17600764698E+04  0.18981333572E+04  0.78758092271E+02 0.  0.
         13    1    3    3    0    0 -0.11753751817E+03 -0.49480720861E+03 -0.17022446079E+03  0.53630738287E+03  0.00000000000E+00 0.  1.
        -13    1    3    3    0    0 -0.49021943469E+02 -0.72329435194E+02 -0.57257986864E+01  0.87564164517E+02  0.00000000000E+00 0. -1.
          4    1    6    6  502    0  0.38330150296E+03  0.38129621013E+03 -0.12523642822E+04  0.13640832590E+04  0.00000000000E+00 0. -1.
          1    1    5    5  503    0 -0.33371264238E+03  0.71585263518E+02 -0.12442456283E+04  0.12902076427E+04  0.00000000000E+00 0. -1.
         -2    1    5    5    0  503  0.12210178147E+01 -0.42348123646E+01 -0.46278140413E+01  0.63907106857E+01  0.00000000000E+00 0.  1.
         -3    1    6    6    0  502  0.11574958324E+03  0.11848998252E+03 -0.50771218761E+03  0.53405009824E+03  0.00000000000E+00 0.  1.
<mgrwt>
<rscale>  0 0.21066898E+04</rscale>
<asrwt>0</asrwt>
<pdfrwt beam="1">  1        2 0.53873108E+00 0.21066898E+04</pdfrwt>
<pdfrwt beam="2">  1       -2 0.48746387E-01 0.21066898E+04</pdfrwt>
<totfact> 0.29890597E+00</totfact>
</mgrwt>
</event>
<event>
12    1  0.1467288E-007  0.1550412E+04  0.7818608E-02  0.8851605E-01
          2   -1    0    0  501    0  0.00000000000E+00  0.00000000000E+00  0.25912495786E+04  0.25912495786E+04  0.00000000000E+00 0. -1.
         -2   -1    0    0    0  501 -0.00000000000E+00 -0.00000000000E+00 -0.23191289297E+03  0.23191289297E+03  0.00000000000E+00 0.  1.
         23    2    1    2    0    0 -0.30918472644E+03 -0.18811513791E+02  0.15022826865E+04  0.15368148363E+04  0.94855166746E+02 0.  0.
        254    2    1    2    0    0  0.30918472644E+03  0.18811513791E+02  0.85705399913E+03  0.12863476353E+04  0.90785440096E+03 0.  0.
        -24    2    4    4    0    0 -0.83699806203E+02  0.39296617967E+03  0.40217676892E+03  0.57403699916E+03  0.79650781650E+02 0.  0.
         24    2    4    4    0    0  0.39288453264E+03 -0.37415466588E+03  0.45487723020E+03  0.71231063615E+03  0.78250736919E+02 0.  0.
         11    1    3    3    0    0 -0.14797595061E+03 -0.24862558384E+02  0.93796403719E+03  0.94989029042E+03  0.00000000000E+00 0.  1.
        -11    1    3    3    0    0 -0.16120877584E+03  0.60510445928E+01  0.56431864931E+03  0.58692454583E+03  0.00000000000E+00 0. -1.
          4    1    6    6  502    0  0.33402860124E+03 -0.28297794899E+03  0.34021051243E+03  0.55443197854E+03  0.00000000000E+00 0. -1.
          3    1    5    5  503    0 -0.70864085916E+02  0.38858873586E+03  0.39532662732E+03  0.55884350813E+03  0.00000000000E+00 0. -1.
         -4    1    5    5    0  503 -0.12835720287E+02  0.43774438064E+01  0.68501416033E+01  0.15193491026E+02  0.00000000000E+00 0.  1.
         -3    1    6    6    0  502  0.58855931405E+02 -0.91176716893E+02  0.11466671778E+03  0.15787865762E+03  0.00000000000E+00 0.  1.
<mgrwt>
<rscale>  0 0.15504118E+04</rscale>
<asrwt>0</asrwt>
<pdfrwt beam="1">  1        2 0.39865376E+00 0.15504118E+04</pdfrwt>
<pdfrwt beam="2">  1       -2 0.35678908E-01 0.15504118E+04</pdfrwt>
<totfact> 0.21952515E+01</totfact>
</mgrwt>
</event>
<event>
12    1  0.1693655E-007  0.1388724E+04  0.7818608E-02  0.8962021E-01
          2   -1    0    0  501    0  0.00000000000E+00  0.00000000000E+00  0.14521747087E+04  0.14521747087E+04  0.00000000000E+00 0. -1.
         -2   -1    0    0    0  501 -0.00000000000E+00 -0.00000000000E+00 -0.33201137571E+03  0.33201137571E+03  0.00000000000E+00 0.  1.
         23    2    1    2    0    0  0.49579068299E+02 -0.25152429430E+03 -0.53668949264E+02  0.28176280888E+03  0.10386226319E+03 0.  0.
        254    2    1    2    0    0 -0.49579068299E+02  0.25152429430E+03  0.11738322822E+04  0.15024232755E+04  0.90203709312E+03 0.  0.
        -24    2    4    4    0    0  0.16805237544E+03  0.36640748121E+03  0.11735052081E+04  0.12433123322E+04  0.78835518215E+02 0.  0.
         24    2    4    4    0    0 -0.21763144374E+03 -0.11488318691E+03  0.32707413678E+00  0.25911094326E+03  0.81097361256E+02 0.  0.
         13    1    3    3    0    0  0.50421852781E+02 -0.24413611816E+03 -0.74060898823E+02  0.26005734783E+03  0.00000000000E+00 0.  1.
        -13    1    3    3    0    0 -0.84278448210E+00 -0.73881761401E+01  0.20391949559E+02  0.21705461045E+02  0.00000000000E+00 0. -1.
          2    1    6    6  502    0 -0.21787973246E+03 -0.11677752762E+03 -0.11172421833E+02  0.24745381748E+03  0.00000000000E+00 0. -1.
          1    1    5    5  503    0  0.15621275866E+03  0.35832124072E+03  0.10768872045E+04  0.11456363249E+04  0.00000000000E+00 0. -1.
         -2    1    5    5    0  503  0.11839616782E+02  0.80862404826E+01  0.96618003553E+02  0.97676007398E+02  0.00000000000E+00 0.  1.
         -1    1    6    6    0  502  0.24828872331E+00  0.18943407102E+01  0.11499495969E+02  0.11657125785E+02  0.00000000000E+00 0.  1.
<mgrwt>
<rscale>  0 0.13887239E+04</rscale>
<asrwt>0</asrwt>
<pdfrwt beam="1">  1        2 0.22341149E+00 0.13887239E+04</pdfrwt>
<pdfrwt beam="2">  1       -2 0.51078674E-01 0.13887239E+04</pdfrwt>
<totfact> 0.47666175E+01</totfact>
</mgrwt>
</event>
<event>
12    1  0.1467288E-007  0.1477707E+04  0.7818608E-02  0.8899415E-01
          2   -1    0    0  501    0  0.00000000000E+00  0.00000000000E+00  0.31163327214E+04  0.31163327214E+04  0.00000000000E+00 0. -1.
         -2   -1    0    0    0  501 -0.00000000000E+00 -0.00000000000E+00 -0.17517522621E+03  0.17517522621E+03  0.00000000000E+00 0.  1.
         23    2    1    2    0    0  0.30119573487E+03  0.56083045815E+02  0.16918474421E+04  0.17216789061E+04  0.89254186137E+02 0.  0.
        254    2    1    2    0    0 -0.30119573487E+03 -0.56083045815E+02  0.12493100531E+04  0.15698290415E+04  0.89984633800E+03 0.  0.
        -24    2    4    4    0    0 -0.12386224779E+02 -0.38105763080E+03  0.21158490492E+03  0.44181774191E+03  0.71248919437E+02 0.  0.
         24    2    4    4    0    0 -0.28880951009E+03  0.32497458499E+03  0.10377251482E+04  0.11280112996E+04  0.80725428519E+02 0.  0.
         11    1    3    3    0    0  0.20522174321E+03  0.75499047462E+02  0.10635132977E+04  0.10857608412E+04  0.00000000000E+00 0. -1.
        -11    1    3    3    0    0  0.95973991660E+02 -0.19416001648E+02  0.62833414440E+03  0.63591806486E+03  0.00000000000E+00 0.  1.
          4    1    6    6  502    0 -0.40710875996E+02  0.65969823336E+02  0.26502769236E+03  0.27613234278E+03  0.00000000000E+00 0. -1.
          1    1    5    5  503    0  0.28304030057E+02 -0.10218567575E+03  0.57365663317E+02  0.12055641739E+03  0.00000000000E+00 0. -1.
         -2    1    5    5    0  503 -0.40690254835E+02 -0.27887195506E+03  0.15421924161E+03  0.32126132453E+03  0.00000000000E+00 0.  1.
         -3    1    6    6    0  502 -0.24809863409E+03  0.25900476165E+03  0.77269745584E+03  0.85187895681E+03  0.00000000000E+00 0.  1.
<mgrwt>
<rscale>  0 0.14777067E+04</rscale>
<asrwt>0</asrwt>
<pdfrwt beam="1">  1        2 0.47943576E+00 0.14777067E+04</pdfrwt>
<pdfrwt beam="2">  1       -2 0.26950037E-01 0.14777067E+04</pdfrwt>
<totfact> 0.17945635E+01</totfact>
</mgrwt>
</event>
<event>
12    1  0.1467288E-007  0.2009797E+04  0.7818608E-02  0.8602054E-01
         -1   -1    0    0    0  501 -0.00000000000E+00  0.00000000000E+00  0.34832100721E+03  0.34832100721E+03  0.00000000000E+00 0.  1.
          1   -1    0    0  501    0  0.00000000000E+00 -0.00000000000E+00 -0.28991098761E+04  0.28991098761E+04  0.00000000000E+00 0. -1.
         23    2    1    2    0    0  0.10487032056E+03 -0.50183716352E+03  0.46221236808E+01  0.52068299149E+03  0.90835514940E+02 0.  0.
        254    2    1    2    0    0 -0.10487032056E+03  0.50183716352E+03 -0.25554109926E+04  0.27267478918E+04  0.80136783175E+03 0.  0.
        -24    2    4    4    0    0 -0.22883038344E+03  0.43273874747E+03 -0.66782148642E+03  0.83213685979E+03  0.82704581199E+02 0.  0.
         24    2    4    4    0    0  0.12396006288E+03  0.69098416048E+02 -0.18875895061E+04  0.18946110320E+04  0.80100753266E+02 0.  0.
         11    1    3    3    0    0  0.29321172252E+02 -0.12732518743E+03  0.40896756730E+02  0.13690865279E+03  0.00000000000E+00 0. -1.
        -11    1    3    3    0    0  0.75549148313E+02 -0.37451197609E+03 -0.36274633050E+02  0.38377433870E+03  0.00000000000E+00 0.  1.
          4    1    6    6  502    0  0.62007388961E+02  0.52690762824E+02 -0.60844090605E+03  0.61385793872E+03  0.00000000000E+00 0. -1.
          3    1    5    5  503    0 -0.15353520354E+03  0.23848693625E+03 -0.32895155683E+03  0.43434802202E+03  0.00000000000E+00 0. -1.
         -4    1    5    5    0  503 -0.75295179902E+02  0.19425181122E+03 -0.33886992959E+03  0.39778883777E+03  0.00000000000E+00 0.  1.
         -3    1    6    6    0  502  0.61952673915E+02  0.16407653224E+02 -0.12791486001E+04  0.12807530933E+04  0.00000000000E+00 0.  1.
<mgrwt>
<rscale>  0 0.20097969E+04</rscale>
<asrwt>0</asrwt>
<pdfrwt beam="1">  1        1 0.44601689E+00 0.20097969E+04</pdfrwt>
<pdfrwt beam="2">  1       -1 0.53587849E-01 0.20097969E+04</pdfrwt>
<totfact> 0.23077663E+00</totfact>
</mgrwt>
</event>
<event>
12    1  0.1467288E-007  0.2121557E+04  0.7818608E-02  0.8551807E-01
          2   -1    0    0  501    0  0.00000000000E+00  0.00000000000E+00  0.43695860949E+04  0.43695860949E+04  0.00000000000E+00 0. -1.
         -2   -1    0    0    0  501 -0.00000000000E+00 -0.00000000000E+00 -0.25751879115E+03  0.25751879115E+03  0.00000000000E+00 0.  1.
         23    2    1    2    0    0 -0.38470582970E+03  0.45958478715E+02 -0.49935067075E+01  0.39729323742E+03  0.87785102463E+02 0.  0.
        254    2    1    2    0    0  0.38470582970E+03 -0.45958478715E+02  0.41170608104E+04  0.42298116486E+04  0.88938524201E+03 0.  0.
        -24    2    4    4    0    0  0.15156901363E+02  0.37953406634E+03  0.13479330298E+04  0.14027915714E+04  0.81393493633E+02 0.  0.
         24    2    4    4    0    0  0.36954892834E+03 -0.42549254506E+03  0.27691277806E+04  0.28270200772E+04  0.79771768736E+02 0.  0.
         11    1    3    3    0    0 -0.62138916864E+02  0.49593379028E+00  0.31200298439E+02  0.69533801579E+02  0.00000000000E+00 0. -1.
        -11    1    3    3    0    0 -0.32256691284E+03  0.45462544924E+02 -0.36193805146E+02  0.32775943584E+03  0.00000000000E+00 0.  1.
          4    1    6    6  502    0  0.26070725351E+03 -0.35045973128E+03  0.20941556386E+04  0.21392237222E+04  0.00000000000E+00 0. -1.
          1    1    5    5  503    0  0.26048872705E+01  0.36497498413E+03  0.12201132014E+04  0.12735343531E+04  0.00000000000E+00 0. -1.
         -2    1    5    5    0  503  0.12552014093E+02  0.14559082210E+02  0.12781982845E+03  0.12925721828E+03  0.00000000000E+00 0.  1.
         -3    1    6    6    0  502  0.10884167483E+03 -0.75032813777E+02  0.67497214206E+03  0.68779635494E+03  0.00000000000E+00 0.  1.
<mgrwt>
<rscale>  0 0.21215565E+04</rscale>
<asrwt>0</asrwt>
<pdfrwt beam="1">  1        2 0.67224396E+00 0.21215565E+04</pdfrwt>
<pdfrwt beam="2">  1       -2 0.39618279E-01 0.21215565E+04</pdfrwt>
<totfact> 0.91931784E-01</totfact>
</mgrwt>
</event>
<event>
12    1  0.1515014E-007  0.1455730E+04  0.7818608E-02  0.8914438E-01
         -1   -1    0    0    0  501 -0.00000000000E+00  0.00000000000E+00  0.86466856912E+03  0.86466856912E+03  0.00000000000E+00 0.  1.
          1   -1    0    0  501    0  0.00000000000E+00 -0.00000000000E+00 -0.61270540498E+03  0.61270540498E+03  0.00000000000E+00 0. -1.
         23    2    1    2    0    0  0.16373968082E+03  0.23332861784E+02  0.49515009530E+03  0.53076493440E+03  0.95826370066E+02 0.  0.
        254    2    1    2    0    0 -0.16373968082E+03 -0.23332861784E+02 -0.24318693117E+03  0.94660903970E+03  0.89976312719E+03 0.  0.
        -24    2    4    4    0    0  0.14421298675E+03 -0.37103414797E+03  0.20990274701E+02  0.40638818862E+03  0.79038242041E+02 0.  0.
         24    2    4    4    0    0 -0.30795266757E+03  0.34770128619E+03 -0.26417720587E+03  0.54022085108E+03  0.79485482726E+02 0.  0.
         11    1    3    3    0    0  0.17380059377E+02 -0.30578308246E+02  0.92322558871E+02  0.98795517487E+02  0.00000000000E+00 0. -1.
        -11    1    3    3    0    0  0.14635962144E+03  0.53911170030E+02  0.40282753643E+03  0.43196941691E+03  0.00000000000E+00 0.  1.
          4    1    6    6  502    0 -0.49355351229E+02  0.83510218838E+02 -0.25922359563E+02  0.10040854581E+03  0.00000000000E+00 0. -1.
          1    1    5    5  503    0 -0.93225217867E+01 -0.16058006446E+02 -0.33416091930E+01  0.18866248580E+02  0.00000000000E+00 0. -1.
         -2    1    5    5    0  503  0.15353550854E+03 -0.35497614153E+03  0.24331883894E+02  0.38752194004E+03  0.00000000000E+00 0.  1.
         -3    1    6    6    0  502 -0.25859731634E+03  0.26419106735E+03 -0.23825484630E+03  0.43981230528E+03  0.00000000000E+00 0.  1.
<mgrwt>
<rscale>  0 0.14557295E+04</rscale>
<asrwt>0</asrwt>
<pdfrwt beam="1">  1        1 0.94262370E-01 0.14557295E+04</pdfrwt>
<pdfrwt beam="2">  1       -1 0.13302593E+00 0.14557295E+04</pdfrwt>
<totfact> 0.15430697E+01</totfact>
</mgrwt>
</event>
<event>
12    1  0.1467288E-007  0.1603776E+04  0.7818608E-02  0.8818232E-01
         -1   -1    0    0    0  501 -0.00000000000E+00  0.00000000000E+00  0.12755921097E+04  0.12755921097E+04  0.00000000000E+00 0.  1.
          1   -1    0    0  501    0  0.00000000000E+00 -0.00000000000E+00 -0.50409868233E+03  0.50409868233E+03  0.00000000000E+00 0. -1.
         23    2    1    2    0    0 -0.26303075761E+03  0.43374281004E+03  0.65435325483E+02  0.51958724588E+03  0.91493822462E+02 0.  0.
        254    2    1    2    0    0  0.26303075761E+03 -0.43374281004E+03  0.70605810186E+03  0.12601035461E+04  0.91215398866E+03 0.  0.
        -24    2    4    4    0    0  0.20978881594E+03  0.10380267476E+03 -0.11581904397E+03  0.27329143647E+03  0.80546978337E+02 0.  0.
         24    2    4    4    0    0  0.53241941672E+02 -0.53754548480E+03  0.82187714583E+03  0.98681210965E+03  0.80785173963E+02 0.  0.
         11    1    3    3    0    0 -0.23110123908E+03  0.38178001947E+03  0.26154543684E+02  0.44704342756E+03  0.00000000000E+00 0.  1.
        -11    1    3    3    0    0 -0.31929518535E+02  0.51962790571E+02  0.39280781799E+02  0.72543818321E+02  0.00000000000E+00 0. -1.
          4    1    6    6  502    0  0.87934860811E+01 -0.40755666159E+03  0.64170940737E+03  0.76024385648E+03  0.00000000000E+00 0. -1.
          3    1    5    5  503    0  0.20030441196E+03  0.11597175724E+03 -0.10347188081E+03  0.25353054262E+03  0.00000000000E+00 0. -1.
         -4    1    5    5    0  503  0.94844039825E+01 -0.12169082477E+02 -0.12347163165E+02  0.19760893842E+02  0.00000000000E+00 0.  1.
         -3    1    6    6    0  502  0.44448455591E+02 -0.12998882321E+03  0.18016773846E+03  0.22656825317E+03  0.00000000000E+00 0.  1.
<mgrwt>
<rscale>  0 0.16037759E+04</rscale>
<asrwt>0</asrwt>
<pdfrwt beam="1">  1        1 0.77553644E-01 0.16037759E+04</pdfrwt>
<pdfrwt beam="2">  1       -1 0.19624494E+00 0.16037759E+04</pdfrwt>
<totfact> 0.67162071E+00</totfact>
</mgrwt>
</event>
<event>
12    1  0.1467288E-007  0.1160368E+04  0.7818608E-02  0.9148272E-01
          1   -1    0    0  501    0  0.00000000000E+00  0.00000000000E+00  0.35998030925E+03  0.35998030925E+03  0.00000000000E+00 0.  1.
         -1   -1    0    0    0  501 -0.00000000000E+00 -0.00000000000E+00 -0.93508833062E+03  0.93508833062E+03  0.00000000000E+00 0. -1.
         23    2    1    2    0    0  0.11819073334E+03  0.12766890837E+03  0.24871726324E+02  0.19776151570E+03  0.90678634259E+02 0.  0.
        254    2    1    2    0    0 -0.11819073334E+03 -0.12766890837E+03 -0.59997974769E+03  0.10973071242E+04  0.90213016106E+03 0.  0.
        -24    2    4    4    0    0 -0.47345279706E+03  0.84581860322E+02 -0.24168733321E+03  0.54412580204E+03  0.79677344814E+02 0.  0.
         24    2    4    4    0    0  0.35526206372E+03 -0.21225076869E+03 -0.35829241448E+03  0.55318132212E+03  0.79841080526E+02 0.  0.
         13    1    3    3    0    0  0.64821460742E+02  0.85574618798E+02 -0.28804777525E+02  0.11115103402E+03  0.00000000000E+00 0. -1.
        -13    1    3    3    0    0  0.53369272600E+02  0.42094289572E+02  0.53676503849E+02  0.86610481686E+02  0.00000000000E+00 0.  1.
          2    1    6    6  502    0  0.30842863656E+03 -0.15128752367E+03 -0.30737594311E+03  0.46097300254E+03  0.00000000000E+00 0. -1.
          3    1    5    5  503    0 -0.33204509274E+03  0.30527186183E+02 -0.13934032895E+03  0.36138840599E+03  0.00000000000E+00 0. -1.
         -4    1    5    5    0  503 -0.14140770432E+03  0.54054674139E+02 -0.10234700426E+03  0.18273739606E+03  0.00000000000E+00 0.  1.
         -1    1    6    6    0  502  0.46833427161E+02 -0.60963245020E+02 -0.50916471376E+02  0.92208319583E+02  0.00000000000E+00 0.  1.
<mgrwt>
<rscale>  0 0.11603678E+04</rscale>
<asrwt>0</asrwt>
<pdfrwt beam="1">  1        1 0.55381587E-01 0.11603678E+04</pdfrwt>
<pdfrwt beam="2">  1       -1 0.14385974E+00 0.11603678E+04</pdfrwt>
<totfact> 0.26726415E+01</totfact>
</mgrwt>
</event>
<event>
12    1  0.1467288E-007  0.1920551E+04  0.7818608E-02  0.8644694E-01
          1   -1    0    0  501    0  0.00000000000E+00  0.00000000000E+00  0.21415788784E+04  0.21415788784E+04  0.00000000000E+00 0.  1.
         -1   -1    0    0    0  501 -0.00000000000E+00 -0.00000000000E+00 -0.43058354464E+03  0.43058354464E+03  0.00000000000E+00 0. -1.
         23    2    1    2    0    0  0.29235845034E+03 -0.58409643841E+03  0.17612129186E+03  0.68218124150E+03  0.87809019817E+02 0.  0.
        254    2    1    2    0    0 -0.29235845034E+03  0.58409643841E+03  0.15348740419E+04  0.18899811815E+04  0.88856537703E+03 0.  0.
        -24    2    4    4    0    0  0.95831815339E+02 -0.76069426372E+02 -0.31709001748E+02  0.14441636463E+03  0.69859366740E+02 0.  0.
         24    2    4    4    0    0 -0.38819026568E+03  0.66016586478E+03  0.15665830437E+04  0.17455648169E+04  0.79394244254E+02 0.  0.
         11    1    3    3    0    0 -0.10937849935E+01 -0.26513964072E+01  0.94740355381E+01  0.98986674808E+01  0.00000000000E+00 0.  1.
        -11    1    3    3    0    0  0.29345223533E+03 -0.58144504200E+03  0.16664725632E+03  0.67228257402E+03  0.00000000000E+00 0. -1.
          2    1    6    6  502    0 -0.19460457952E+03  0.27570721715E+03  0.75180875295E+03  0.82407633929E+03  0.00000000000E+00 0. -1.
          3    1    5    5  503    0  0.77105395056E+02 -0.30026124914E+02 -0.43281125871E+02  0.93381293527E+02  0.00000000000E+00 0. -1.
         -2    1    5    5    0  503  0.18726420283E+02 -0.46043301458E+02  0.11572124123E+02  0.51035071103E+02  0.00000000000E+00 0.  1.
         -1    1    6    6    0  502 -0.19358568615E+03  0.38445864762E+03  0.81477429070E+03  0.92148847763E+03  0.00000000000E+00 0.  1.
<mgrwt>
<rscale>  0 0.19205506E+04</rscale>
<asrwt>0</asrwt>
<pdfrwt beam="1">  1        1 0.32947367E+00 0.19205506E+04</pdfrwt>
<pdfrwt beam="2">  1       -1 0.66243623E-01 0.19205506E+04</pdfrwt>
<totfact> 0.51506181E+00</totfact>
</mgrwt>
</event>
<event>
12    1  0.1467288E-007  0.1697894E+04  0.7818608E-02  0.8762566E-01
          1   -1    0    0  501    0  0.00000000000E+00  0.00000000000E+00  0.83270244596E+03  0.83270244596E+03  0.00000000000E+00 0. -1.
         -1   -1    0    0    0  501 -0.00000000000E+00 -0.00000000000E+00 -0.86550854020E+03  0.86550854020E+03  0.00000000000E+00 0.  1.
         23    2    1    2    0    0 -0.10840888858E+02  0.11638736806E+03  0.58567385301E+03  0.60476438009E+03  0.95197421258E+02 0.  0.
        254    2    1    2    0    0  0.10840888858E+02 -0.11638736806E+03 -0.61847994724E+03  0.10934466061E+04  0.89411659802E+03 0.  0.
        -24    2    4    4    0    0  0.89738591919E+02  0.27611372952E+03 -0.61549651120E+03  0.68518660511E+03  0.79705219478E+02 0.  0.
         24    2    4    4    0    0 -0.78897703061E+02 -0.39250109758E+03 -0.29834360427E+01  0.40826000096E+03  0.79908499800E+02 0.  0.
         13    1    3    3    0    0 -0.16484594584E+02  0.62347831818E+02  0.49405401764E+03  0.49824528732E+03  0.00000000000E+00 0. -1.
        -13    1    3    3    0    0  0.56437057262E+01  0.54039536243E+02  0.91619835365E+02  0.10651909277E+03  0.00000000000E+00 0.  1.
          2    1    6    6  502    0 -0.56060858861E+01 -0.32147254349E+02  0.22514176251E+02  0.39645457412E+02  0.00000000000E+00 0. -1.
          3    1    5    5  503    0 -0.27347266839E+01  0.79209617403E+02 -0.11728895648E+03  0.14155684912E+03  0.00000000000E+00 0. -1.
         -4    1    5    5    0  503  0.92473318603E+02  0.19690411212E+03 -0.49820755472E+03  0.54362975599E+03  0.00000000000E+00 0.  1.
         -1    1    6    6    0  502 -0.73291617175E+02 -0.36035384323E+03 -0.25497612294E+02  0.36861454354E+03  0.00000000000E+00 0.  1.
<mgrwt>
<rscale>  0 0.16978941E+04</rscale>
<asrwt>0</asrwt>
<pdfrwt beam="1">  1        1 0.12810807E+00 0.16978941E+04</pdfrwt>
<pdfrwt beam="2">  1       -1 0.13315516E+00 0.16978941E+04</pdfrwt>
<totfact> 0.94103979E+00</totfact>
</mgrwt>
</event>
<event>
12    1  0.1467288E-007  0.2399805E+04  0.7818608E-02  0.8439577E-01
         -1   -1    0    0    0  501 -0.00000000000E+00  0.00000000000E+00  0.10023332568E+04  0.10023332568E+04  0.00000000000E+00 0.  1.
          1   -1    0    0  501    0  0.00000000000E+00 -0.00000000000E+00 -0.14364139928E+04  0.14364139928E+04  0.00000000000E+00 0. -1.
         23    2    1    2    0    0 -0.74936084469E+03  0.72766861613E+03 -0.14435257195E+03  0.10577545988E+04  0.83449600386E+02 0.  0.
        254    2    1    2    0    0  0.74936084469E+03 -0.72766861613E+03 -0.28972816408E+03  0.13809926508E+04  0.85566056476E+03 0.  0.
        -24    2    4    4    0    0  0.78943969805E+03 -0.86241270772E+03 -0.32208678113E+03  0.12153202861E+04  0.79327094132E+02 0.  0.
         24    2    4    4    0    0 -0.40078853360E+02  0.13474409160E+03  0.32358617055E+02  0.16567236474E+03  0.81473723578E+02 0.  0.
         11    1    3    3    0    0 -0.38833547390E+03  0.42598913841E+03 -0.57063106680E+02  0.57924725678E+03  0.00000000000E+00 0.  1.
        -11    1    3    3    0    0 -0.36102537078E+03  0.30167947772E+03 -0.87289465272E+02  0.47850734202E+03  0.00000000000E+00 0. -1.
          2    1    6    6  502    0  0.14449050056E+02  0.76342048103E+02  0.36121276516E+02  0.85683312105E+02  0.00000000000E+00 0. -1.
          1    1    5    5  503    0  0.68595414355E+03 -0.77896505559E+03 -0.26949060609E+03  0.10723548068E+04  0.00000000000E+00 0. -1.
         -2    1    5    5    0  503  0.10348555450E+03 -0.83447652136E+02 -0.52596175048E+02  0.14296547928E+03  0.00000000000E+00 0.  1.
         -1    1    6    6    0  502 -0.54527903416E+02  0.58402043494E+02 -0.37626594614E+01  0.79989052635E+02  0.00000000000E+00 0.  1.
<mgrwt>
<rscale>  0 0.23998046E+04</rscale>
<asrwt>0</asrwt>
<pdfrwt beam="1">  1        1 0.22098677E+00 0.23998046E+04</pdfrwt>
<pdfrwt beam="2">  1       -1 0.15420512E+00 0.23998046E+04</pdfrwt>
<totfact> 0.21011578E+00</totfact>
</mgrwt>
</event>
<event>
12    1  0.1701522E-007  0.2890197E+04  0.7818608E-02  0.8275800E-01
         -1   -1    0    0    0  501 -0.00000000000E+00  0.00000000000E+00  0.11984757833E+04  0.11984757833E+04  0.00000000000E+00 0.  1.
          1   -1    0    0  501    0  0.00000000000E+00 -0.00000000000E+00 -0.17424713111E+04  0.17424713111E+04  0.00000000000E+00 0. -1.
         23    2    1    2    0    0  0.66221312218E+03 -0.91679793565E+03 -0.90781010582E+03  0.14531104509E+04  0.91466497931E+02 0.  0.
        254    2    1    2    0    0 -0.66221312218E+03  0.91679793565E+03  0.36381457806E+03  0.14878366435E+04  0.89568529992E+03 0.  0.
        -24    2    4    4    0    0 -0.80127058919E+03  0.48841008860E+03  0.69698876208E+02  0.94434966696E+03  0.79745773623E+02 0.  0.
         24    2    4    4    0    0  0.13905746701E+03  0.42838784705E+03  0.29411570185E+03  0.54348697652E+03  0.77594593540E+02 0.  0.
         13    1    3    3    0    0  0.59369162512E+03 -0.82187143726E+03 -0.84737681725E+03  0.13213591017E+04  0.00000000000E+00 0. -1.
        -13    1    3    3    0    0  0.68521497065E+02 -0.94926498385E+02 -0.60433288571E+02  0.13175134923E+03  0.00000000000E+00 0.  1.
          2    1    6    6  502    0  0.32471506100E+02  0.31024946727E+02  0.38341192141E+02  0.59050766655E+02  0.00000000000E+00 0. -1.
          3    1    5    5  503    0 -0.61473197155E+02  0.56115690167E+02  0.22435700213E+02  0.86204902966E+02  0.00000000000E+00 0. -1.
         -4    1    5    5    0  503 -0.73979739203E+03  0.43229439843E+03  0.47263175994E+02  0.85814476400E+03  0.00000000000E+00 0.  1.
         -1    1    6    6    0  502  0.10658596091E+03  0.39736290032E+03  0.25577450971E+03  0.48443620987E+03  0.00000000000E+00 0.  1.
<mgrwt>
<rscale>  0 0.28901970E+04</rscale>
<asrwt>0</asrwt>
<pdfrwt beam="1">  1        1 0.26807251E+00 0.28901970E+04</pdfrwt>
<pdfrwt beam="2">  1       -1 0.18438089E+00 0.28901970E+04</pdfrwt>
<totfact> 0.74164372E-01</totfact>
</mgrwt>
</event>
<event>
12    1  0.1467288E-007  0.1510852E+04  0.7818608E-02  0.8877268E-01
          1   -1    0    0  501    0  0.00000000000E+00  0.00000000000E+00  0.10048276181E+04  0.10048276181E+04  0.00000000000E+00 0. -1.
         -1   -1    0    0    0  501 -0.00000000000E+00 -0.00000000000E+00 -0.56792674610E+03  0.56792674610E+03  0.00000000000E+00 0.  1.
         23    2    1    2    0    0 -0.17973770564E+03  0.42767819464E+03  0.27404111948E+03  0.54660439151E+03  0.91997525254E+02 0.  0.
        254    2    1    2    0    0  0.17973770564E+03 -0.42767819464E+03  0.16285975253E+03  0.10261499727E+04  0.90069205975E+03 0.  0.
        -24    2    4    4    0    0 -0.12452410485E+03 -0.38198807028E+03  0.44212885969E+03  0.60281192899E+03  0.80518039210E+02 0.  0.
         24    2    4    4    0    0  0.30426181048E+03 -0.45690124357E+02 -0.27926910717E+03  0.42333804371E+03  0.81000174431E+02 0.  0.
         11    1    3    3    0    0 -0.10284261385E+03  0.20783523455E+03  0.86198098505E+02  0.24739078425E+03  0.00000000000E+00 0.  1.
        -11    1    3    3    0    0 -0.76895091789E+02  0.21984296008E+03  0.18784302098E+03  0.29921360726E+03  0.00000000000E+00 0. -1.
          2    1    6    6  502    0  0.26362757415E+03 -0.65496689038E+02 -0.25208794600E+03  0.37059094248E+03  0.00000000000E+00 0. -1.
          3    1    5    5  503    0 -0.13206938635E+03 -0.34484378849E+03  0.37880424218E+03  0.52901060024E+03  0.00000000000E+00 0. -1.
         -4    1    5    5    0  503  0.75452815056E+01 -0.37144281787E+02  0.63324617508E+02  0.73801328748E+02  0.00000000000E+00 0.  1.
         -1    1    6    6    0  502  0.40634236329E+02  0.19806564681E+02 -0.27181161164E+02  0.52747101236E+02  0.00000000000E+00 0.  1.
<mgrwt>
<rscale>  0 0.15108521E+04</rscale>
<asrwt>0</asrwt>
<pdfrwt beam="1">  1        1 0.15458886E+00 0.15108521E+04</pdfrwt>
<pdfrwt beam="2">  1       -1 0.87373346E-01 0.15108521E+04</pdfrwt>
<totfact> 0.18696003E+01</totfact>
</mgrwt>
</event>
<event>
12    1  0.1467288E-007  0.1229761E+04  0.7818608E-02  0.9087199E-01
          1   -1    0    0  501    0  0.00000000000E+00  0.00000000000E+00  0.22130854639E+04  0.22130854639E+04  0.00000000000E+00 0. -1.
         -1   -1    0    0    0  501 -0.00000000000E+00 -0.00000000000E+00 -0.17083745007E+03  0.17083745007E+03  0.00000000000E+00 0.  1.
         23    2    1    2    0    0  0.10761495240E+03 -0.76398079128E+02  0.93705337220E+03  0.95095687591E+03  0.93980386314E+02 0.  0.
        254    2    1    2    0    0 -0.10761495240E+03  0.76398079128E+02  0.11051946416E+04  0.14329660381E+04  0.90250696723E+03 0.  0.
        -24    2    4    4    0    0 -0.32745446577E+03  0.29383737955E+03  0.10025363939E+04  0.10975713148E+04  0.77567629978E+02 0.  0.
         24    2    4    4    0    0  0.21983951337E+03 -0.21743930042E+03  0.10265824770E+03  0.33539472324E+03  0.79634436968E+02 0.  0.
         13    1    3    3    0    0  0.11197607907E+03 -0.92036394145E+02  0.80948781571E+03  0.82236236776E+03  0.00000000000E+00 0. -1.
        -13    1    3    3    0    0 -0.43611266691E+01  0.15638315017E+02  0.12756555649E+03  0.12859450815E+03  0.00000000000E+00 0.  1.
          4    1    6    6  502    0  0.28098167960E+02 -0.75933200209E+02  0.27988268888E+02  0.85666219317E+02  0.00000000000E+00 0. -1.
          1    1    5    5  503    0 -0.19837846704E+02  0.14196339328E+01  0.74115037396E+02  0.76737176717E+02  0.00000000000E+00 0. -1.
         -2    1    5    5    0  503 -0.30761661906E+03  0.29241774561E+03  0.92842135654E+03  0.10208341381E+04  0.00000000000E+00 0.  1.
         -3    1    6    6    0  502  0.19174134541E+03 -0.14150610021E+03  0.74669978816E+02  0.24972850392E+03  0.00000000000E+00 0.  1.
<mgrwt>
<rscale>  0 0.12297608E+04</rscale>
<asrwt>0</asrwt>
<pdfrwt beam="1">  1        1 0.34047467E+00 0.12297608E+04</pdfrwt>
<pdfrwt beam="2">  1       -1 0.26282686E-01 0.12297608E+04</pdfrwt>
<totfact> 0.27170482E+01</totfact>
</mgrwt>
</event>
<event>
12    1  0.1467288E-007  0.2061531E+04  0.7818608E-02  0.8578381E-01
         -1   -1    0    0    0  501 -0.00000000000E+00  0.00000000000E+00  0.70621469101E+03  0.70621469101E+03  0.00000000000E+00 0.  1.
          1   -1    0    0  501    0  0.00000000000E+00 -0.00000000000E+00 -0.15044674944E+04  0.15044674944E+04  0.00000000000E+00 0. -1.
         23    2    1    2    0    0  0.22551918611E+03 -0.55466204944E+03  0.29844093508E+03  0.67519344516E+03  0.91160870233E+02 0.  0.
        254    2    1    2    0    0 -0.22551918611E+03  0.55466204944E+03 -0.10966937385E+04  0.15354887403E+04  0.89245707069E+03 0.  0.
        -24    2    4    4    0    0  0.13836910045E+03 -0.51866955702E+01  0.80793925883E+02  0.17950843634E+03  0.80763299130E+02 0.  0.
         24    2    4    4    0    0 -0.36388828656E+03  0.55984874501E+03 -0.11774876644E+04  0.13559803039E+04  0.79750125248E+02 0.  0.
         11    1    3    3    0    0  0.36817316089E+02 -0.12903921584E+03  0.29057578168E+02  0.13729885956E+03  0.00000000000E+00 0.  1.
        -11    1    3    3    0    0  0.18870187002E+03 -0.42562283360E+03  0.26938335691E+03  0.53789458560E+03  0.00000000000E+00 0. -1.
          2    1    6    6  502    0 -0.18601471258E+03  0.21393736894E+03 -0.49671638616E+03  0.57192467983E+03  0.00000000000E+00 0. -1.
          1    1    5    5  503    0  0.61216560491E+01 -0.79335180880E+01 -0.13681204059E+02  0.16958500126E+02  0.00000000000E+00 0. -1.
         -2    1    5    5    0  503  0.13224744440E+03  0.27468225178E+01  0.94475129942E+02  0.16254993621E+03  0.00000000000E+00 0.  1.
         -1    1    6    6    0  502 -0.17787357398E+03  0.34591137607E+03 -0.68077127822E+03  0.78405562409E+03  0.00000000000E+00 0.  1.
<mgrwt>
<rscale>  0 0.20615305E+04</rscale>
<asrwt>0</asrwt>
<pdfrwt beam="1">  1        1 0.23145653E+00 0.20615305E+04</pdfrwt>
<pdfrwt beam="2">  1       -1 0.10864842E+00 0.20615305E+04</pdfrwt>
<totfact> 0.47094959E+00</totfact>
</mgrwt>
</event>
<event>
12    1  0.1467288E-007  0.2527810E+04  0.7818608E-02  0.8393144E-01
         -1   -1    0    0    0  501 -0.00000000000E+00  0.00000000000E+00  0.13173830191E+04  0.13173830191E+04  0.00000000000E+00 0.  1.
          1   -1    0    0  501    0  0.00000000000E+00 -0.00000000000E+00 -0.12125982155E+04  0.12125982155E+04  0.00000000000E+00 0. -1.
         23    2    1    2    0    0 -0.51397088326E+03  0.27113665577E+03  0.98407416670E+03  0.11464479912E+04  0.90883860567E+02 0.  0.
        254    2    1    2    0    0  0.51397088326E+03 -0.27113665577E+03 -0.87928936314E+03  0.13835332434E+04  0.89628862340E+03 0.  0.
        -24    2    4    4    0    0  0.15915324130E+03  0.26384760134E+03 -0.35893299306E+02  0.32051143624E+03  0.80584991615E+02 0.  0.
         24    2    4    4    0    0  0.35481764197E+03 -0.53498425711E+03 -0.84339606383E+03  0.10630218071E+04  0.81207927883E+02 0.  0.
         13    1    3    3    0    0 -0.24597805252E+03  0.17828713103E+03  0.53782895485E+03  0.61769854144E+03  0.00000000000E+00 0.  1.
        -13    1    3    3    0    0 -0.26799283074E+03  0.92849524731E+02  0.44624521184E+03  0.52874944980E+03  0.00000000000E+00 0. -1.
          4    1    6    6  502    0  0.12121556134E+03 -0.14502151715E+03 -0.19934071830E+03  0.27470197437E+03  0.00000000000E+00 0. -1.
          1    1    5    5  503    0  0.12726680811E+02  0.84625008410E+01  0.15394339423E+02  0.21692579635E+02  0.00000000000E+00 0. -1.
         -2    1    5    5    0  503  0.14642656048E+03  0.25538510050E+03 -0.51287638730E+02  0.29881885660E+03  0.00000000000E+00 0.  1.
         -3    1    6    6    0  502  0.23360208062E+03 -0.38996273996E+03 -0.64405534553E+03  0.78831983277E+03  0.00000000000E+00 0.  1.
<mgrwt>
<rscale>  0 0.25278104E+04</rscale>
<asrwt>0</asrwt>
<pdfrwt beam="1">  1        1 0.18655357E+00 0.25278104E+04</pdfrwt>
<pdfrwt beam="2">  1       -1 0.20267431E+00 0.25278104E+04</pdfrwt>
<totfact> 0.13374980E+00</totfact>
</mgrwt>
</event>
<event>
12    1  0.1467288E-007  0.2756335E+04  0.7818608E-02  0.8316954E-01
         -2   -1    0    0    0  501 -0.00000000000E+00  0.00000000000E+00  0.12222973178E+04  0.12222973178E+04  0.00000000000E+00 0.  1.
          2   -1    0    0  501    0  0.00000000000E+00 -0.00000000000E+00 -0.15539146805E+04  0.15539146805E+04  0.00000000000E+00 0. -1.
         23    2    1    2    0    0 -0.74139729202E+03  0.91176289639E+03 -0.47527439695E+03  0.12707825542E+04  0.89560169139E+02 0.  0.
        254    2    1    2    0    0  0.74139729202E+03 -0.91176289639E+03  0.14365703423E+03  0.15054294440E+04  0.92989189883E+03 0.  0.
        -24    2    4    4    0    0 -0.53668792870E+02 -0.56597825775E+03 -0.13852912735E+03  0.59012540289E+03  0.76458776085E+02 0.  0.
         24    2    4    4    0    0  0.79506608489E+03 -0.34578463864E+03  0.28218616158E+03  0.91530404110E+03  0.80345268727E+02 0.  0.
         13    1    3    3    0    0 -0.68805530736E+02  0.88610213308E+02 -0.74870873349E+02  0.13487630866E+03  0.00000000000E+00 0.  1.
        -13    1    3    3    0    0 -0.67259176129E+03  0.82315268308E+03 -0.40040352360E+03  0.11359062456E+04  0.00000000000E+00 0. -1.
          4    1    6    6  502    0  0.70170435990E+03 -0.32244401051E+03  0.22966932042E+03  0.80567185961E+03  0.00000000000E+00 0. -1.
          1    1    5    5  503    0 -0.56874580475E+02 -0.37202138809E+03 -0.61154624522E+02  0.38128010596E+03  0.00000000000E+00 0. -1.
         -2    1    5    5    0  503  0.32057876051E+01 -0.19395686966E+03 -0.77374502832E+02  0.20884529693E+03  0.00000000000E+00 0.  1.
         -3    1    6    6    0  502  0.93361724992E+02 -0.23340628135E+02  0.52516841156E+02  0.10963218150E+03  0.00000000000E+00 0.  1.
<mgrwt>
<rscale>  0 0.27563351E+04</rscale>
<asrwt>0</asrwt>
<pdfrwt beam="1">  1        2 0.23906380E+00 0.27563351E+04</pdfrwt>
<pdfrwt beam="2">  1       -2 0.18804574E+00 0.27563351E+04</pdfrwt>
<totfact> 0.16515999E+00</totfact>
</mgrwt>
</event>
<event>
12    1  0.1467288E-007  0.3108452E+04  0.7818608E-02  0.8213422E-01
         -2   -1    0    0    0  501 -0.00000000000E+00  0.00000000000E+00  0.94244722828E+03  0.94244722828E+03  0.00000000000E+00 0.  1.
          2   -1    0    0  501    0  0.00000000000E+00 -0.00000000000E+00 -0.25631331069E+04  0.25631331069E+04  0.00000000000E+00 0. -1.
         23    2    1    2    0    0 -0.13097115249E+04  0.40850213641E+03 -0.11789511659E+04  0.18112142067E+04  0.91393528899E+02 0.  0.
        254    2    1    2    0    0  0.13097115249E+04 -0.40850213641E+03 -0.44173471274E+03  0.16943661284E+04  0.89080230508E+03 0.  0.
        -24    2    4    4    0    0  0.85433697329E+03 -0.18540051305E+03 -0.69732045124E+03  0.11207362422E+04  0.74356564693E+02 0.  0.
         24    2    4    4    0    0  0.45537455165E+03 -0.22310162336E+03  0.25558573850E+03  0.57362988623E+03  0.81159472719E+02 0.  0.
         11    1    3    3    0    0 -0.11073718436E+04  0.34491747283E+03 -0.10384989375E+04  0.15568302753E+04  0.00000000000E+00 0. -1.
        -11    1    3    3    0    0 -0.20233968139E+03  0.63584663587E+02 -0.14045222841E+03  0.25438393143E+03  0.00000000000E+00 0.  1.
          2    1    6    6  502    0  0.53258496717E+02 -0.55823238509E+01  0.46445019678E+02  0.70885609717E+02  0.00000000000E+00 0. -1.
          1    1    5    5  503    0  0.52452695777E+03 -0.14862496237E+03 -0.44870710412E+03  0.70608496242E+03  0.00000000000E+00 0. -1.
         -2    1    5    5    0  503  0.32981001552E+03 -0.36775550686E+02 -0.24861334712E+03  0.41465127979E+03  0.00000000000E+00 0.  1.
         -1    1    6    6    0  502  0.40211605493E+03 -0.21751929951E+03  0.20914071882E+03  0.50274427651E+03  0.00000000000E+00 0.  1.
<mgrwt>
<rscale>  0 0.31084515E+04</rscale>
<asrwt>0</asrwt>
<pdfrwt beam="1">  1        2 0.39432816E+00 0.31084515E+04</pdfrwt>
<pdfrwt beam="2">  1       -2 0.14499188E+00 0.31084515E+04</pdfrwt>
<totfact> 0.88912129E-01</totfact>
</mgrwt>
</event>
<event>
12    1  0.1467288E-007  0.3318851E+04  0.7818608E-02  0.8158115E-01
          2   -1    0    0  501    0  0.00000000000E+00  0.00000000000E+00  0.20064592626E+04  0.20064592626E+04  0.00000000000E+00 0. -1.
         -2   -1    0    0    0  501 -0.00000000000E+00 -0.00000000000E+00 -0.13724143824E+04  0.13724143824E+04  0.00000000000E+00 0.  1.
         23    2    1    2    0    0 -0.68571377226E+03 -0.95734067546E+03 -0.71164428236E+03  0.13795290089E+04  0.99790557164E+02 0.  0.
        254    2    1    2    0    0  0.68571377226E+03  0.95734067546E+03  0.13456891626E+04  0.19993446362E+04  0.89431264424E+03 0.  0.
        -24    2    4    4    0    0  0.57868925422E+03  0.13311100269E+03  0.80906272481E+03  0.10067894752E+04  0.80266822290E+02 0.  0.
         24    2    4    4    0    0  0.10702451803E+03  0.82422967277E+03  0.53662643776E+03  0.99255516096E+03  0.79931301191E+02 0.  0.
         13    1    3    3    0    0 -0.53994574590E+03 -0.76499694968E+03 -0.51786393794E+03  0.10700209343E+04  0.00000000000E+00 0.  1.
        -13    1    3    3    0    0 -0.14576802636E+03 -0.19234372579E+03 -0.19378034443E+03  0.30950807460E+03  0.00000000000E+00 0. -1.
          2    1    6    6  502    0 -0.87356040814E+01  0.20652737750E+02  0.21399178440E+02  0.30996309348E+02  0.00000000000E+00 0. -1.
          3    1    5    5  503    0  0.11844429327E+03  0.36646211292E+01  0.12535259374E+03  0.17249855887E+03  0.00000000000E+00 0. -1.
         -4    1    5    5    0  503  0.46024496096E+03  0.12944638156E+03  0.68371013107E+03  0.83429091636E+03  0.00000000000E+00 0.  1.
         -1    1    6    6    0  502  0.11576012212E+03  0.80357693502E+03  0.51522725932E+03  0.96155885161E+03  0.00000000000E+00 0.  1.
<mgrwt>
<rscale>  0 0.33188513E+04</rscale>
<asrwt>0</asrwt>
<pdfrwt beam="1">  1        2 0.30868604E+00 0.33188513E+04</pdfrwt>
<pdfrwt beam="2">  1       -2 0.21114067E+00 0.33188513E+04</pdfrwt>
<totfact> 0.62217849E-01</totfact>
</mgrwt>
</event>
<event>
12    1  0.1467288E-007  0.2354007E+04  0.7818608E-02  0.8456926E-01
         -2   -1    0    0    0  501 -0.00000000000E+00  0.00000000000E+00  0.11646158134E+04  0.11646158134E+04  0.00000000000E+00 0.  1.
          2   -1    0    0  501    0  0.00000000000E+00 -0.00000000000E+00 -0.11895230985E+04  0.11895230985E+04  0.00000000000E+00 0. -1.
         23    2    1    2    0    0 -0.82700282207E+03 -0.49930115813E+03 -0.36448200459E+03  0.10363424716E+04  0.89012766410E+02 0.  0.
        254    2    1    2    0    0  0.82700282207E+03  0.49930115813E+03  0.33957471951E+03  0.13177964402E+04  0.82948246124E+03 0.  0.
        -24    2    4    4    0    0  0.28527082863E+03  0.61693355497E+03  0.45163098094E+02  0.68499010250E+03  0.72008875594E+02 0.  0.
         24    2    4    4    0    0  0.54173199344E+03 -0.11763239684E+03  0.29441162142E+03  0.63280633772E+03  0.80341301569E+02 0.  0.
         11    1    3    3    0    0 -0.82633724822E+03 -0.48981735604E+03 -0.36163636031E+03  0.10264186023E+04  0.00000000000E+00 0. -1.
        -11    1    3    3    0    0 -0.66557385396E+00 -0.94838020931E+01 -0.28456442831E+01  0.99238693101E+01  0.00000000000E+00 0.  1.
          4    1    6    6  502    0  0.54376688609E+02 -0.37972343242E+02  0.35440924285E+02  0.75198286082E+02  0.00000000000E+00 0. -1.
          3    1    5    5  503    0  0.66425467061E+02  0.91215519301E+02  0.22688428386E+02  0.11509725635E+03  0.00000000000E+00 0. -1.
         -4    1    5    5    0  503  0.21884536157E+03  0.52571803567E+03  0.22474669707E+02  0.56989284615E+03  0.00000000000E+00 0.  1.
         -3    1    6    6    0  502  0.48735530483E+03 -0.79660053601E+02  0.25897069713E+03  0.55760805164E+03  0.00000000000E+00 0.  1.
<mgrwt>
<rscale>  0 0.23540071E+04</rscale>
<asrwt>0</asrwt>
<pdfrwt beam="1">  1        2 0.18300355E+00 0.23540071E+04</pdfrwt>
<pdfrwt beam="2">  1       -2 0.17917166E+00 0.23540071E+04</pdfrwt>
<totfact> 0.31870095E+00</totfact>
</mgrwt>
</event>
<event>
12    1  0.1467288E-007  0.1138179E+04  0.7818608E-02  0.9168759E-01
         -2   -1    0    0    0  501 -0.00000000000E+00  0.00000000000E+00  0.10658320041E+04  0.10658320041E+04  0.00000000000E+00 0.  1.
          2   -1    0    0  501    0  0.00000000000E+00 -0.00000000000E+00 -0.30385893538E+03  0.30385893538E+03  0.00000000000E+00 0. -1.
         23    2    1    2    0    0  0.12942579947E+03  0.40432289516E+02 -0.32549614689E+02  0.16591567003E+03  0.89903973996E+02 0.  0.
        254    2    1    2    0    0 -0.12942579947E+03 -0.40432289516E+02  0.79452268338E+03  0.12037752694E+04  0.89410446664E+03 0.  0.
        -24    2    4    4    0    0 -0.65369065251E+02 -0.28438539259E+03 -0.60429910417E+02  0.30872696589E+03  0.80699437329E+02 0.  0.
         24    2    4    4    0    0 -0.64056734220E+02  0.24395310307E+03  0.85495259380E+03  0.89504830353E+03  0.80939151925E+02 0.  0.
         11    1    3    3    0    0  0.14044435763E+03  0.27870615597E+02 -0.38346951915E+02  0.14822913859E+03  0.00000000000E+00 0. -1.
        -11    1    3    3    0    0 -0.11018558161E+02  0.12561673919E+02  0.57973372252E+01  0.17686531443E+02  0.00000000000E+00 0.  1.
          4    1    6    6  502    0 -0.41100194720E+02  0.23345322640E+03  0.80350874271E+03  0.83774455208E+03  0.00000000000E+00 0. -1.
          3    1    5    5  503    0 -0.84565750001E+02 -0.23436692312E+03 -0.51159400183E+02  0.25435507653E+03  0.00000000000E+00 0. -1.
         -4    1    5    5    0  503  0.19196684750E+02 -0.50018469465E+02 -0.92705102338E+01  0.54371889363E+02  0.00000000000E+00 0.  1.
         -1    1    6    6    0  502 -0.22956539500E+02  0.10499876671E+02  0.51443851087E+02  0.57303751453E+02  0.00000000000E+00 0.  1.
<mgrwt>
<rscale>  0 0.11381785E+04</rscale>
<asrwt>0</asrwt>
<pdfrwt beam="1">  1        2 0.46747529E-01 0.11381785E+04</pdfrwt>
<pdfrwt beam="2">  1       -2 0.16397415E+00 0.11381785E+04</pdfrwt>
<totfact> 0.25223393E+01</totfact>
</mgrwt>
</event>
<event>
12    1  0.1467288E-007  0.1860855E+04  0.7818608E-02  0.8674591E-01
         -2   -1    0    0    0  501 -0.00000000000E+00  0.00000000000E+00  0.32268556907E+03  0.32268556907E+03  0.00000000000E+00 0.  1.
          2   -1    0    0  501    0  0.00000000000E+00 -0.00000000000E+00 -0.26827817405E+04  0.26827817405E+04  0.00000000000E+00 0. -1.
         23    2    1    2    0    0  0.47611093114E+03 -0.48175374390E+03 -0.56714520502E+03  0.88804273983E+03  0.90542452299E+02 0.  0.
        254    2    1    2    0    0 -0.47611093114E+03  0.48175374390E+03 -0.17929509664E+04  0.21174245697E+04  0.90002519524E+03 0.  0.
        -24    2    4    4    0    0 -0.32030686531E+03  0.27156246652E+03 -0.15168706997E+03  0.45349525603E+03  0.79412334424E+02 0.  0.
         24    2    4    4    0    0 -0.15580406583E+03  0.21019127738E+03 -0.16412638965E+04  0.16639293137E+04  0.80363569070E+02 0.  0.
         13    1    3    3    0    0  0.98197767877E+02 -0.78520855290E+02 -0.65946878928E+02  0.14197646696E+03  0.00000000000E+00 0.  1.
        -13    1    3    3    0    0  0.37791316327E+03 -0.40323288861E+03 -0.50119832609E+03  0.74606627286E+03  0.00000000000E+00 0. -1.
          4    1    6    6  502    0 -0.10295548063E+03  0.17727826283E+03 -0.10854965693E+04  0.11046855731E+04  0.00000000000E+00 0. -1.
          3    1    5    5  503    0 -0.22676967391E+03  0.16796176364E+03 -0.66339925248E+02  0.28989071170E+03  0.00000000000E+00 0. -1.
         -4    1    5    5    0  503 -0.93537191401E+02  0.10360070288E+03 -0.85347144719E+02  0.16360454433E+03  0.00000000000E+00 0.  1.
         -3    1    6    6    0  502 -0.52848585204E+02  0.32913014548E+02 -0.55576732711E+03  0.55924374057E+03  0.00000000000E+00 0.  1.
<mgrwt>
<rscale>  0 0.18608546E+04</rscale>
<asrwt>0</asrwt>
<pdfrwt beam="1">  1        2 0.41273566E+00 0.18608546E+04</pdfrwt>
<pdfrwt beam="2">  1       -2 0.49643932E-01 0.18608546E+04</pdfrwt>
<totfact> 0.98249460E+00</totfact>
</mgrwt>
</event>
<event>
12    1  0.1467288E-007  0.1951390E+04  0.7818608E-02  0.8629691E-01
          1   -1    0    0  501    0  0.00000000000E+00  0.00000000000E+00  0.10587650113E+04  0.10587650113E+04  0.00000000000E+00 0. -1.
         -1   -1    0    0    0  501 -0.00000000000E+00 -0.00000000000E+00 -0.89914263382E+03  0.89914263382E+03  0.00000000000E+00 0.  1.
         23    2    1    2    0    0 -0.61306759560E+03 -0.38846503047E+03 -0.18543950755E+03  0.75520976809E+03  0.95901127152E+02 0.  0.
        254    2    1    2    0    0  0.61306759560E+03  0.38846503047E+03  0.34506188504E+03  0.12026978770E+04  0.89479468162E+03 0.  0.
        -24    2    4    4    0    0  0.23684583980E+03  0.52738897736E+03  0.49678866068E+03  0.76641864937E+03  0.79771470114E+02 0.  0.
         24    2    4    4    0    0  0.37622175580E+03 -0.13892394689E+03 -0.15172677564E+03  0.43627922767E+03  0.80472836975E+02 0.  0.
         13    1    3    3    0    0 -0.32799419792E+03 -0.16118243047E+03 -0.12101644912E+03  0.38497396109E+03  0.00000000000E+00 0.  1.
        -13    1    3    3    0    0 -0.28507339768E+03 -0.22728260000E+03 -0.64423058430E+02  0.37023580700E+03  0.00000000000E+00 0. -1.
          2    1    6    6  502    0  0.46217917996E+02 -0.28574591002E+02  0.51588642267E+01  0.54582204745E+02  0.00000000000E+00 0. -1.
          3    1    5    5  503    0  0.11958212457E+02  0.99321675796E+02  0.82555763899E+02  0.12970446515E+03  0.00000000000E+00 0. -1.
         -4    1    5    5    0  503  0.22488762735E+03  0.42806730157E+03  0.41423289678E+03  0.63671418422E+03  0.00000000000E+00 0.  1.
         -3    1    6    6    0  502  0.33000383780E+03 -0.11034935589E+03 -0.15688563987E+03  0.38169702292E+03  0.00000000000E+00 0.  1.
<mgrwt>
<rscale>  0 0.19513900E+04</rscale>
<asrwt>0</asrwt>
<pdfrwt beam="1">  1        1 0.16288692E+00 0.19513900E+04</pdfrwt>
<pdfrwt beam="2">  1       -1 0.13832964E+00 0.19513900E+04</pdfrwt>
<totfact> 0.54907800E+00</totfact>
</mgrwt>
</event>
<event>
12    1  0.1467288E-007  0.2150649E+04  0.7818608E-02  0.8539254E-01
         -2   -1    0    0    0  501 -0.00000000000E+00  0.00000000000E+00  0.52475799697E+03  0.52475799697E+03  0.00000000000E+00 0.  1.
          2   -1    0    0  501    0  0.00000000000E+00 -0.00000000000E+00 -0.22035357215E+04  0.22035357215E+04  0.00000000000E+00 0. -1.
         23    2    1    2    0    0 -0.18488824781E+03 -0.86108931616E+03 -0.64584775978E+03  0.10959039960E+04  0.90707028831E+02 0.  0.
        254    2    1    2    0    0  0.18488824781E+03  0.86108931616E+03 -0.10329299648E+04  0.16323897225E+04  0.90669367449E+03 0.  0.
        -24    2    4    4    0    0 -0.22001933882E+03  0.81067946196E+03 -0.74470239843E+03  0.11255494388E+04  0.81671154242E+02 0.  0.
         24    2    4    4    0    0  0.40490758663E+03  0.50409854200E+02 -0.28822756634E+03  0.50684028369E+03  0.85560715635E+02 0.  0.
         13    1    3    3    0    0 -0.38270368916E+02 -0.87101866374E+02 -0.96558333398E+02  0.13555393027E+03  0.00000000000E+00 0. -1.
        -13    1    3    3    0    0 -0.14661787889E+03 -0.77398744978E+03 -0.54928942639E+03  0.96035006574E+03  0.00000000000E+00 0.  1.
          2    1    6    6  502    0  0.17608405361E+03  0.35458764186E+02 -0.78279246763E+02  0.19593508713E+03  0.00000000000E+00 0. -1.
          1    1    5    5  503    0 -0.38106467727E+01  0.10970720668E+03 -0.82650142203E+02  0.13740901802E+03  0.00000000000E+00 0. -1.
         -2    1    5    5    0  503 -0.21620869205E+03  0.70097225527E+03 -0.66205225622E+03  0.98814042077E+03  0.00000000000E+00 0.  1.
         -1    1    6    6    0  502  0.22882353302E+03  0.14951090014E+02 -0.20994831958E+03  0.31090519657E+03  0.00000000000E+00 0.  1.
<mgrwt>
<rscale>  0 0.21506492E+04</rscale>
<asrwt>0</asrwt>
<pdfrwt beam="1">  1        2 0.33900550E+00 0.21506492E+04</pdfrwt>
<pdfrwt beam="2">  1       -2 0.80731998E-01 0.21506492E+04</pdfrwt>
<totfact> 0.63878033E+00</totfact>
</mgrwt>
</event>
<event>
12    1  0.1467288E-007  0.1258442E+04  0.7818608E-02  0.9063186E-01
          2   -1    0    0  501    0  0.00000000000E+00  0.00000000000E+00  0.49821930805E+03  0.49821930805E+03  0.00000000000E+00 0. -1.
         -2   -1    0    0    0  501 -0.00000000000E+00 -0.00000000000E+00 -0.79466819763E+03  0.79466819763E+03  0.00000000000E+00 0.  1.
         23    2    1    2    0    0  0.29393072645E+03  0.10497226075E+01 -0.33043487535E+02  0.30977801197E+03  0.92055259282E+02 0.  0.
        254    2    1    2    0    0 -0.29393072645E+03 -0.10497226075E+01 -0.26340540205E+03  0.98310949371E+03  0.90040296364E+03 0.  0.
        -24    2    4    4    0    0  0.18267382799E+03  0.29036470626E+03 -0.22441469475E+03  0.41742265608E+03  0.78729464057E+02 0.  0.
         24    2    4    4    0    0 -0.47660455444E+03 -0.29141442887E+03 -0.38990707295E+02  0.56568683763E+03  0.80044065049E+02 0.  0.
         13    1    3    3    0    0 -0.36511472547E+01  0.85205040438E+01  0.34131776548E+01  0.98782410954E+01  0.00000000000E+00 0. -1.
        -13    1    3    3    0    0  0.29758187370E+03 -0.74707814363E+01 -0.36456665190E+02  0.29989977087E+03  0.00000000000E+00 0.  1.
          4    1    6    6  502    0 -0.16578455929E+02 -0.32424386554E+02 -0.19707459462E+01  0.36470123169E+02  0.00000000000E+00 0. -1.
          3    1    5    5  503    0  0.89213327020E+02  0.12427999802E+03 -0.55430985153E+02  0.16271794536E+03  0.00000000000E+00 0. -1.
         -4    1    5    5    0  503  0.93460500969E+02  0.16608470824E+03 -0.16898370960E+03  0.25470471072E+03  0.00000000000E+00 0.  1.
         -3    1    6    6    0  502 -0.46002609851E+03 -0.25899004232E+03 -0.37019961349E+02  0.52921671446E+03  0.00000000000E+00 0.  1.
<mgrwt>
<rscale>  0 0.12584420E+04</rscale>
<asrwt>0</asrwt>
<pdfrwt beam="1">  1        2 0.76649125E-01 0.12584420E+04</pdfrwt>
<pdfrwt beam="2">  1       -2 0.12225664E+00 0.12584420E+04</pdfrwt>
<totfact> 0.30799109E+01</totfact>
</mgrwt>
</event>
<event>
12    1  0.1467288E-007  0.1558522E+04  0.7818608E-02  0.8846443E-01
         -1   -1    0    0    0  501 -0.00000000000E+00  0.00000000000E+00  0.77221518938E+03  0.77221518938E+03  0.00000000000E+00 0.  1.
          1   -1    0    0  501    0  0.00000000000E+00 -0.00000000000E+00 -0.78637076016E+03  0.78637076016E+03  0.00000000000E+00 0. -1.
         23    2    1    2    0    0  0.15232518031E+03 -0.26928853675E+03  0.40630369991E+03  0.51865031043E+03  0.90532708842E+02 0.  0.
        254    2    1    2    0    0 -0.15232518031E+03  0.26928853675E+03 -0.42045927069E+03  0.10399356391E+04  0.89942251394E+03 0.  0.
        -24    2    4    4    0    0 -0.41009123084E+03  0.91424556995E+02 -0.54552257800E+03  0.69387138183E+03  0.85611589072E+02 0.  0.
         24    2    4    4    0    0  0.25776605053E+03  0.17786397976E+03  0.12506330731E+03  0.34606425727E+03  0.77721986726E+02 0.  0.
         11    1    3    3    0    0  0.11467120753E+03 -0.25911435055E+03  0.35742696016E+03  0.45611814736E+03  0.00000000000E+00 0.  1.
        -11    1    3    3    0    0  0.37653972778E+02 -0.10174186205E+02  0.48876739746E+02  0.62532163077E+02  0.00000000000E+00 0. -1.
          4    1    6    6  502    0  0.22459237622E+03  0.18141429277E+03  0.10545502443E+03  0.30736565074E+03  0.00000000000E+00 0. -1.
          3    1    5    5  503    0 -0.30865030107E+03  0.99418530287E+02 -0.37973688064E+03  0.49934872688E+03  0.00000000000E+00 0. -1.
         -4    1    5    5    0  503 -0.10144092977E+03 -0.79939732916E+01 -0.16578569736E+03  0.19452265496E+03  0.00000000000E+00 0.  1.
         -3    1    6    6    0  502  0.33173674308E+02 -0.35503130088E+01  0.19608282882E+02  0.38698606527E+02  0.00000000000E+00 0.  1.
<mgrwt>
<rscale>  0 0.15585217E+04</rscale>
<asrwt>0</asrwt>
<pdfrwt beam="1">  1        1 0.12098012E+00 0.15585217E+04</pdfrwt>
<pdfrwt beam="2">  1       -1 0.11880234E+00 0.15585217E+04</pdfrwt>
<totfact> 0.13887092E+01</totfact>
</mgrwt>
</event>
<event>
12    1  0.1467288E-007  0.2002109E+04  0.7818608E-02  0.8605635E-01
         -2   -1    0    0    0  501 -0.00000000000E+00  0.00000000000E+00  0.34078421199E+03  0.34078421199E+03  0.00000000000E+00 0.  1.
          2   -1    0    0  501    0  0.00000000000E+00 -0.00000000000E+00 -0.29405987733E+04  0.29405987733E+04  0.00000000000E+00 0. -1.
         23    2    1    2    0    0  0.18141301132E+03 -0.76173501356E+03 -0.11193629042E+04  0.13690677886E+04  0.90677378014E+02 0.  0.
        254    2    1    2    0    0 -0.18141301132E+03  0.76173501356E+03 -0.14804516571E+04  0.19123151967E+04  0.92307171496E+03 0.  0.
        -24    2    4    4    0    0 -0.14580561831E+03  0.26371012065E+03  0.36669977248E+02  0.31321555643E+03  0.77181548947E+02 0.  0.
         24    2    4    4    0    0 -0.35607393017E+02  0.49802489291E+03 -0.15171216344E+04  0.15990996403E+04  0.78517040723E+02 0.  0.
         13    1    3    3    0    0  0.43483173883E+02 -0.17241475857E+03 -0.19217136553E+03  0.26181571594E+03  0.00000000000E+00 0.  1.
        -13    1    3    3    0    0  0.13792983744E+03 -0.58932025499E+03 -0.92719153864E+03  0.11072520726E+04  0.00000000000E+00 0. -1.
          4    1    6    6  502    0 -0.37655568235E+02  0.93124512611E+02 -0.29056050212E+03  0.30743376858E+03  0.00000000000E+00 0. -1.
          1    1    5    5  503    0 -0.25091643870E+02  0.90499057964E+02  0.39968357240E+02  0.10206438980E+03  0.00000000000E+00 0. -1.
         -2    1    5    5    0  503 -0.12071397444E+03  0.17321106269E+03 -0.32983799914E+01  0.21115116664E+03  0.00000000000E+00 0.  1.
         -3    1    6    6    0  502  0.20481752180E+01  0.40490038030E+03 -0.12265611322E+04  0.12916658717E+04  0.00000000000E+00 0.  1.
<mgrwt>
<rscale>  0 0.20021085E+04</rscale>
<asrwt>0</asrwt>
<pdfrwt beam="1">  1        2 0.45239982E+00 0.20021085E+04</pdfrwt>
<pdfrwt beam="2">  1       -2 0.52428340E-01 0.20021085E+04</pdfrwt>
<totfact> 0.60601100E+00</totfact>
</mgrwt>
</event>
<event>
12    1  0.1467288E-007  0.1368971E+04  0.7818608E-02  0.8976590E-01
         -1   -1    0    0    0  501 -0.00000000000E+00  0.00000000000E+00  0.96506330640E+03  0.96506330640E+03  0.00000000000E+00 0.  1.
          1   -1    0    0  501    0  0.00000000000E+00 -0.00000000000E+00 -0.48548137223E+03  0.48548137223E+03  0.00000000000E+00 0. -1.
         23    2    1    2    0    0  0.28143916635E+03 -0.24437140826E+03  0.17511705717E+03  0.42169378537E+03  0.90742908165E+02 0.  0.
        254    2    1    2    0    0 -0.28143916635E+03  0.24437140826E+03  0.30446487700E+03  0.10288508933E+04  0.90934586914E+03 0.  0.
        -24    2    4    4    0    0 -0.33651632439E+03  0.43239204848E+03  0.49626028020E+03  0.74329261329E+03  0.77482405119E+02 0.  0.
         24    2    4    4    0    0  0.55077158042E+02 -0.18802064022E+03 -0.19179540320E+03  0.28555827997E+03  0.79829819522E+02 0.  0.
         13    1    3    3    0    0  0.14652930950E+03 -0.13910669669E+03  0.45699432927E+02  0.20714716936E+03  0.00000000000E+00 0. -1.
        -13    1    3    3    0    0  0.13490985685E+03 -0.10526471157E+03  0.12941762424E+03  0.21454661601E+03  0.00000000000E+00 0.  1.
          2    1    6    6  502    0  0.62701995407E+02 -0.19054934808E+03 -0.19177997913E+03  0.27752505234E+03  0.00000000000E+00 0. -1.
          3    1    5    5  503    0 -0.25371992660E+03  0.36353485966E+03  0.42522647812E+03  0.61428735380E+03  0.00000000000E+00 0. -1.
         -4    1    5    5    0  503 -0.82796397792E+02  0.68857188817E+02  0.71033802075E+02  0.12900525949E+03  0.00000000000E+00 0.  1.
         -1    1    6    6    0  502 -0.76248373648E+01  0.25287078572E+01 -0.15424067534E-01  0.80332276308E+01  0.00000000000E+00 0.  1.
<mgrwt>
<rscale>  0 0.13689708E+04</rscale>
<asrwt>0</asrwt>
<pdfrwt beam="1">  1        1 0.74689442E-01 0.13689708E+04</pdfrwt>
<pdfrwt beam="2">  1       -1 0.14847128E+00 0.13689708E+04</pdfrwt>
<totfact> 0.16183668E+01</totfact>
</mgrwt>
</event>
<event>
12    1  0.2071126E-007  0.1505743E+04  0.7818608E-02  0.8880643E-01
          1   -1    0    0  501    0  0.00000000000E+00  0.00000000000E+00  0.58712751245E+03  0.58712751245E+03  0.00000000000E+00 0. -1.
         -1   -1    0    0    0  501 -0.00000000000E+00 -0.00000000000E+00 -0.96540466216E+03  0.96540466216E+03  0.00000000000E+00 0.  1.
         23    2    1    2    0    0 -0.33716782545E+03 -0.20658056605E+02  0.22769898814E+03  0.41727842265E+03  0.90363460437E+02 0.  0.
        254    2    1    2    0    0  0.33716782545E+03  0.20658056605E+02 -0.60597613785E+03  0.11352537520E+04  0.89860174932E+03 0.  0.
        -24    2    4    4    0    0  0.50886616705E+03  0.37579892250E+02 -0.16673020309E+02  0.51620871846E+03  0.76396512633E+02 0.  0.
         24    2    4    4    0    0 -0.17169834159E+03 -0.16921835646E+02 -0.58930311754E+03  0.61904503350E+03  0.78561569007E+02 0.  0.
         13    1    3    3    0    0 -0.34422177057E+01 -0.63129716928E+01 -0.62005592183E+01  0.94947042580E+01  0.00000000000E+00 0.  1.
        -13    1    3    3    0    0 -0.33372560775E+03 -0.14345084912E+02  0.23389954736E+03  0.40778371839E+03  0.00000000000E+00 0. -1.
          2    1    6    6  502    0 -0.17175174389E+03  0.89793987769E+00 -0.53443564645E+03  0.56135632892E+03  0.00000000000E+00 0. -1.
          1    1    5    5  503    0  0.48988447519E+03  0.37356003152E+02 -0.31212860631E+02  0.49229717923E+03  0.00000000000E+00 0. -1.
         -2    1    5    5    0  503  0.18981691856E+02  0.22388909867E+00  0.14539840322E+02  0.23911539236E+02  0.00000000000E+00 0.  1.
         -1    1    6    6    0  502  0.53402293409E-01 -0.17819775523E+02 -0.54867471099E+02  0.57688704582E+02  0.00000000000E+00 0.  1.
<mgrwt>
<rscale>  0 0.15057432E+04</rscale>
<asrwt>0</asrwt>
<pdfrwt beam="1">  1        1 0.90327310E-01 0.15057432E+04</pdfrwt>
<pdfrwt beam="2">  1       -1 0.14852379E+00 0.15057432E+04</pdfrwt>
<totfact> 0.12244319E+01</totfact>
</mgrwt>
</event>
<event>
12    1  0.1467288E-007  0.2398796E+04  0.7818608E-02  0.8439954E-01
         -1   -1    0    0    0  501 -0.00000000000E+00  0.00000000000E+00  0.83936565279E+03  0.83936565279E+03  0.00000000000E+00 0.  1.
          1   -1    0    0  501    0  0.00000000000E+00 -0.00000000000E+00 -0.17138609622E+04  0.17138609622E+04  0.00000000000E+00 0. -1.
         23    2    1    2    0    0 -0.34999107127E+03  0.89476739215E+03 -0.74750018988E+03  0.12206205227E+04  0.89752384420E+02 0.  0.
        254    2    1    2    0    0  0.34999107127E+03 -0.89476739215E+03 -0.12699511949E+03  0.13326060923E+04  0.91466321712E+03 0.  0.
        -24    2    4    4    0    0 -0.20232524718E+03 -0.43621017237E+03  0.21674818690E+03  0.53324437154E+03  0.78453573138E+02 0.  0.
         24    2    4    4    0    0  0.55231631845E+03 -0.45855721979E+03 -0.34374330639E+03  0.79936172072E+03  0.74105738160E+02 0.  0.
         11    1    3    3    0    0 -0.24117951526E+03  0.71684415886E+03 -0.59228687026E+03  0.96064397326E+03  0.00000000000E+00 0. -1.
        -11    1    3    3    0    0 -0.10881155601E+03  0.17792323329E+03 -0.15521331962E+03  0.25997654943E+03  0.00000000000E+00 0.  1.
          4    1    6    6  502    0  0.35952398062E+03 -0.29657542683E+03 -0.26178527815E+03  0.53455215676E+03  0.00000000000E+00 0. -1.
          1    1    5    5  503    0 -0.56565111707E+02 -0.20784245799E+03  0.80101363529E+02  0.22981368029E+03  0.00000000000E+00 0. -1.
         -2    1    5    5    0  503 -0.14576013547E+03 -0.22836771437E+03  0.13664682337E+03  0.30343069126E+03  0.00000000000E+00 0.  1.
         -3    1    6    6    0  502  0.19279233782E+03 -0.16198179295E+03 -0.81958028245E+02  0.26480956396E+03  0.00000000000E+00 0.  1.
<mgrwt>
<rscale>  0 0.23987964E+04</rscale>
<asrwt>0</asrwt>
<pdfrwt beam="1">  1        1 0.26367092E+00 0.23987964E+04</pdfrwt>
<pdfrwt beam="2">  1       -1 0.12913318E+00 0.23987964E+04</pdfrwt>
<totfact> 0.21555165E+00</totfact>
</mgrwt>
</event>
<event>
12    1  0.1467288E-007  0.1316603E+04  0.7818608E-02  0.9016501E-01
          2   -1    0    0  501    0  0.00000000000E+00  0.00000000000E+00  0.25134863451E+04  0.25134863451E+04  0.00000000000E+00 0. -1.
         -2   -1    0    0    0  501 -0.00000000000E+00 -0.00000000000E+00 -0.17241427489E+03  0.17241427489E+03  0.00000000000E+00 0.  1.
         23    2    1    2    0    0 -0.27432160834E+03 -0.86434689963E+02  0.92731223824E+03  0.97587277284E+03  0.98470204352E+02 0.  0.
        254    2    1    2    0    0  0.27432160834E+03  0.86434689963E+02  0.14137598320E+04  0.17100278472E+04  0.91801692528E+03 0.  0.
        -24    2    4    4    0    0 -0.58991598513E+01  0.44866196719E+03  0.45215030524E+03  0.64203860744E+03  0.80257797275E+02 0.  0.
         24    2    4    4    0    0  0.28022076819E+03 -0.36222727723E+03  0.96160952674E+03  0.10679892397E+04  0.78586607871E+02 0.  0.
         11    1    3    3    0    0 -0.27998813308E+03 -0.74880524691E+02  0.86559390320E+03  0.91282706626E+03  0.00000000000E+00 0. -1.
        -11    1    3    3    0    0  0.56665247352E+01 -0.11554165272E+02  0.61718335038E+02  0.63045706575E+02  0.00000000000E+00 0.  1.
          2    1    6    6  502    0  0.17833642922E+03 -0.21163527769E+03  0.66206879825E+03  0.71758516314E+03  0.00000000000E+00 0. -1.
          1    1    5    5  503    0 -0.90088024623E+01  0.32407644669E+03  0.27316911538E+03  0.42394347196E+03  0.00000000000E+00 0. -1.
         -2    1    5    5    0  503  0.31096426110E+01  0.12458552050E+03  0.17898118986E+03  0.21809513548E+03  0.00000000000E+00 0.  1.
         -1    1    6    6    0  502  0.10188433897E+03 -0.15059199954E+03  0.29954072849E+03  0.35040407657E+03  0.00000000000E+00 0.  1.
<mgrwt>
<rscale>  0 0.13166031E+04</rscale>
<asrwt>0</asrwt>
<pdfrwt beam="1">  1        2 0.38669018E+00 0.13166031E+04</pdfrwt>
<pdfrwt beam="2">  1       -2 0.26525275E-01 0.13166031E+04</pdfrwt>
<totfact> 0.43308141E+01</totfact>
</mgrwt>
</event>
<event>
12    1  0.1467288E-007  0.1830546E+04  0.7818608E-02  0.8690222E-01
         -1   -1    0    0    0  501 -0.00000000000E+00  0.00000000000E+00  0.69547963065E+03  0.69547963065E+03  0.00000000000E+00 0.  1.
          1   -1    0    0  501    0  0.00000000000E+00 -0.00000000000E+00 -0.12045281266E+04  0.12045281266E+04  0.00000000000E+00 0. -1.
         23    2    1    2    0    0  0.31690579616E+03 -0.36054073564E+03 -0.70786238508E+03  0.86010996347E+03  0.91110303242E+02 0.  0.
        254    2    1    2    0    0 -0.31690579616E+03  0.36054073564E+03  0.19881388910E+03  0.10398977938E+04  0.90080050698E+03 0.  0.
        -24    2    4    4    0    0  0.23181831264E+03  0.39516830047E+03  0.10043182557E+03  0.47574616220E+03  0.79687787585E+02 0.  0.
         24    2    4    4    0    0 -0.54872410880E+03 -0.34627564833E+02  0.98382063533E+02  0.56415163160E+03  0.79314671962E+02 0.  0.
         13    1    3    3    0    0  0.26903717357E+03 -0.25148629200E+03 -0.50788819057E+03  0.62735697170E+03  0.00000000000E+00 0. -1.
        -13    1    3    3    0    0  0.47868622587E+02 -0.10905444364E+03 -0.19997419451E+03  0.23275299177E+03  0.00000000000E+00 0.  1.
          2    1    6    6  502    0 -0.49138068812E+02  0.19007260750E+02  0.15381584448E+02  0.54885507267E+02  0.00000000000E+00 0. -1.
          1    1    5    5  503    0  0.22875308537E+02  0.87170685374E+01 -0.22597334703E+01  0.24584007401E+02  0.00000000000E+00 0. -1.
         -2    1    5    5    0  503  0.20894300411E+03  0.38645123193E+03  0.10269155904E+03  0.45116215480E+03  0.00000000000E+00 0.  1.
         -3    1    6    6    0  502 -0.49958603999E+03 -0.53634825582E+02  0.83000479084E+02  0.50926612434E+03  0.00000000000E+00 0.  1.
<mgrwt>
<rscale>  0 0.18305461E+04</rscale>
<asrwt>0</asrwt>
<pdfrwt beam="1">  1        1 0.18531202E+00 0.18305461E+04</pdfrwt>
<pdfrwt beam="2">  1       -1 0.10699687E+00 0.18305461E+04</pdfrwt>
<totfact> 0.81313181E+00</totfact>
</mgrwt>
</event>
<event>
12    1  0.1467288E-007  0.2184410E+04  0.7818608E-02  0.8524945E-01
         -2   -1    0    0    0  501 -0.00000000000E+00  0.00000000000E+00  0.16566172399E+04  0.16566172399E+04  0.00000000000E+00 0.  1.
          2   -1    0    0  501    0  0.00000000000E+00 -0.00000000000E+00 -0.72008865265E+03  0.72008865265E+03  0.00000000000E+00 0. -1.
         23    2    1    2    0    0 -0.29289296105E+03  0.25491002824E+03 -0.49483984078E+03  0.63609180507E+03  0.94767649142E+02 0.  0.
        254    2    1    2    0    0  0.29289296105E+03 -0.25491002824E+03  0.14313684280E+04  0.17406140874E+04  0.91112919810E+03 0.  0.
        -24    2    4    4    0    0 -0.32296369292E+03 -0.78979165716E+02  0.56191182218E+03  0.65774375777E+03  0.79615949560E+02 0.  0.
         24    2    4    4    0    0  0.61585665396E+03 -0.17593086252E+03  0.86945660582E+03  0.10828703297E+04  0.80139097041E+02 0.  0.
         13    1    3    3    0    0 -0.15468100654E+03  0.16748371411E+03 -0.34958682207E+03  0.41735830463E+03  0.00000000000E+00 0. -1.
        -13    1    3    3    0    0 -0.13821195450E+03  0.87426314127E+02 -0.14525301871E+03  0.21873350044E+03  0.00000000000E+00 0.  1.
          4    1    6    6  502    0  0.14981312372E+03 -0.24522745977E+02  0.15920534249E+03  0.21998108597E+03  0.00000000000E+00 0. -1.
          3    1    5    5  503    0 -0.97285956885E+02 -0.61917642353E+02  0.20144598393E+03  0.23211815156E+03  0.00000000000E+00 0. -1.
         -4    1    5    5    0  503 -0.22567773603E+03 -0.17061523363E+02  0.36046583825E+03  0.42562560621E+03  0.00000000000E+00 0.  1.
         -3    1    6    6    0  502  0.46604353024E+03 -0.15140811655E+03  0.71025126333E+03  0.86288924370E+03  0.00000000000E+00 0.  1.
<mgrwt>
<rscale>  0 0.21844096E+04</rscale>
<asrwt>0</asrwt>
<pdfrwt beam="1">  1        2 0.11078287E+00 0.21844096E+04</pdfrwt>
<pdfrwt beam="2">  1       -2 0.25486419E+00 0.21844096E+04</pdfrwt>
<totfact> 0.21694344E+00</totfact>
</mgrwt>
</event>
<event>
12    1  0.1467288E-007  0.1885503E+04  0.7818608E-02  0.8662106E-01
         -2   -1    0    0    0  501 -0.00000000000E+00  0.00000000000E+00  0.37848009276E+03  0.37848009276E+03  0.00000000000E+00 0. -1.
          2   -1    0    0  501    0  0.00000000000E+00 -0.00000000000E+00 -0.23482874057E+04  0.23482874057E+04  0.00000000000E+00 0.  1.
         23    2    1    2    0    0  0.72596040173E+03  0.13603875897E+03 -0.66412390930E+03  0.99768020775E+03  0.93702621197E+02 0.  0.
        254    2    1    2    0    0 -0.72596040173E+03 -0.13603875897E+03 -0.13056834036E+04  0.17290872907E+04  0.85988874834E+03 0.  0.
        -24    2    4    4    0    0 -0.90425512012E+03 -0.56026458395E+02 -0.11548973648E+04  0.14699825004E+04  0.79021148237E+02 0.  0.
         24    2    4    4    0    0  0.17829471839E+03 -0.80012300578E+02 -0.15078603881E+03  0.25910479032E+03  0.78790151756E+02 0.  0.
         11    1    3    3    0    0  0.67347871109E+03  0.11198249958E+03 -0.63756365083E+03  0.93413118102E+03  0.00000000000E+00 0. -1.
        -11    1    3    3    0    0  0.52481690637E+02  0.24056259395E+02 -0.26560258474E+02  0.63549026731E+02  0.00000000000E+00 0.  1.
          2    1    6    6  502    0  0.18158259657E+03 -0.74569469880E+02 -0.12539769562E+03  0.23293223753E+03  0.00000000000E+00 0. -1.
          3    1    5    5  503    0 -0.66189510975E+03 -0.15818146122E+02 -0.88096930755E+03  0.11020264384E+04  0.00000000000E+00 0. -1.
         -4    1    5    5    0  503 -0.24236001037E+03 -0.40208312273E+02 -0.27392805727E+03  0.36795606200E+03  0.00000000000E+00 0.  1.
         -1    1    6    6    0  502 -0.32878781806E+01 -0.54428306983E+01 -0.25388343196E+02  0.26172552783E+02  0.00000000000E+00 0.  1.
<mgrwt>
<rscale>  0 0.18855026E+04</rscale>
<asrwt>0</asrwt>
<pdfrwt beam="1">  1        2 0.36127498E+00 0.18855026E+04</pdfrwt>
<pdfrwt beam="2">  1       -2 0.58227707E-01 0.18855026E+04</pdfrwt>
<totfact> 0.11014802E+01</totfact>
</mgrwt>
</event>
<event>
12    1  0.1467288E-007  0.1866878E+04  0.7818608E-02  0.8671521E-01
         -2   -1    0    0    0  501 -0.00000000000E+00  0.00000000000E+00  0.61677633509E+03  0.61677633509E+03  0.00000000000E+00 0.  1.
          2   -1    0    0  501    0  0.00000000000E+00 -0.00000000000E+00 -0.14126819086E+04  0.14126819086E+04  0.00000000000E+00 0. -1.
         23    2    1    2    0    0 -0.36362099422E+02  0.12776048083E+03 -0.10660330503E+04  0.10776865378E+04  0.85655511692E+02 0.  0.
        254    2    1    2    0    0  0.36362099422E+02 -0.12776048083E+03  0.27012747677E+03  0.95177170591E+03  0.90291504790E+03 0.  0.
        -24    2    4    4    0    0 -0.11201446623E+03 -0.46623755686E+03  0.30239408813E+03  0.57241360133E+03  0.79312334354E+02 0.  0.
         24    2    4    4    0    0  0.14837656566E+03  0.33847707603E+03 -0.32266611356E+02  0.37935810458E+03  0.79303852757E+02 0.  0.
         11    1    3    3    0    0 -0.44771733171E+02  0.18758715134E+02 -0.30403274983E+03  0.30788359887E+03  0.00000000000E+00 0.  1.
        -11    1    3    3    0    0  0.84096337491E+01  0.10900176569E+03 -0.76200030048E+03  0.76980293893E+03  0.00000000000E+00 0. -1.
          2    1    6    6  502    0  0.11884024843E+03  0.21750556988E+03 -0.52079794948E+02  0.25326662358E+03  0.00000000000E+00 0. -1.
          3    1    5    5  503    0 -0.12138072025E+03 -0.41408195836E+03  0.25437482885E+03  0.50090288583E+03  0.00000000000E+00 0. -1.
         -4    1    5    5    0  503  0.93662540110E+01 -0.52155598506E+02  0.48019259273E+02  0.71510715497E+02  0.00000000000E+00 0.  1.
         -1    1    6    6    0  502  0.29536317224E+02  0.12097150615E+03  0.19813183593E+02  0.12609148100E+03  0.00000000000E+00 0.  1.
<mgrwt>
<rscale>  0 0.18668784E+04</rscale>
<asrwt>0</asrwt>
<pdfrwt beam="1">  1        2 0.21733567E+00 0.18668784E+04</pdfrwt>
<pdfrwt beam="2">  1       -2 0.94888669E-01 0.18668784E+04</pdfrwt>
<totfact> 0.12490237E+01</totfact>
</mgrwt>
</event>
<event>
12    1  0.1467288E-007  0.1901196E+04  0.7818608E-02  0.8654261E-01
         -2   -1    0    0    0  501 -0.00000000000E+00  0.00000000000E+00  0.33381996012E+03  0.33381996012E+03  0.00000000000E+00 0.  1.
          2   -1    0    0  501    0  0.00000000000E+00 -0.00000000000E+00 -0.27069586824E+04  0.27069586824E+04  0.00000000000E+00 0. -1.
         23    2    1    2    0    0  0.60529825979E+03  0.36661227259E+03 -0.11567177008E+04  0.13590567680E+04  0.90823551353E+02 0.  0.
        254    2    1    2    0    0 -0.60529825979E+03 -0.36661227259E+03 -0.12164210215E+04  0.16817218746E+04  0.92071592804E+03 0.  0.
        -24    2    4    4    0    0 -0.77071364539E+02 -0.50892607324E+03 -0.91237401381E+03  0.10506640025E+04  0.80763617556E+02 0.  0.
         24    2    4    4    0    0 -0.52822689525E+03  0.14231380064E+03 -0.30404700770E+03  0.63105787203E+03  0.80700583889E+02 0.  0.
         11    1    3    3    0    0  0.25482402126E+03  0.17872556684E+03 -0.58487994179E+03  0.66254256947E+03  0.00000000000E+00 0. -1.
        -11    1    3    3    0    0  0.35047423853E+03  0.18788670575E+03 -0.57183775903E+03  0.69651419851E+03  0.00000000000E+00 0.  1.
          4    1    6    6  502    0 -0.48087958539E+03  0.12272940773E+03 -0.24694203810E+03  0.55433568652E+03  0.00000000000E+00 0. -1.
          3    1    5    5  503    0 -0.83135923431E+02 -0.31171956543E+03 -0.59895981002E+03  0.68031869242E+03  0.00000000000E+00 0. -1.
         -4    1    5    5    0  503  0.60645588921E+01 -0.19720650781E+03 -0.31341420379E+03  0.37034531013E+03  0.00000000000E+00 0.  1.
         -3    1    6    6    0  502 -0.47347309864E+02  0.19584392917E+02 -0.57104969599E+02  0.76722185514E+02  0.00000000000E+00 0.  1.
<mgrwt>
<rscale>  0 0.19011963E+04</rscale>
<asrwt>0</asrwt>
<pdfrwt beam="1">  1        2 0.41645520E+00 0.19011963E+04</pdfrwt>
<pdfrwt beam="2">  1       -2 0.51356915E-01 0.19011963E+04</pdfrwt>
<totfact> 0.88376610E+00</totfact>
</mgrwt>
</event>
<event>
12    1  0.1467288E-007  0.2194045E+04  0.7818608E-02  0.8520911E-01
         -1   -1    0    0    0  501 -0.00000000000E+00  0.00000000000E+00  0.14790615229E+04  0.14790615229E+04  0.00000000000E+00 0.  1.
          1   -1    0    0  501    0  0.00000000000E+00 -0.00000000000E+00 -0.81366317080E+03  0.81366317080E+03  0.00000000000E+00 0. -1.
         23    2    1    2    0    0  0.65108058450E+03  0.24953930770E+03 -0.33323155538E+03  0.77818353370E+03  0.91381338465E+02 0.  0.
        254    2    1    2    0    0 -0.65108058450E+03 -0.24953930770E+03  0.99862990750E+03  0.15145411600E+04  0.90022077272E+03 0.  0.
        -24    2    4    4    0    0 -0.46532187181E+03 -0.14264849143E+03  0.34778013614E+01  0.49343993942E+03  0.81227102706E+02 0.  0.
         24    2    4    4    0    0 -0.18575871269E+03 -0.10689081627E+03  0.99515210613E+03  0.10211012206E+04  0.79925230206E+02 0.  0.
         11    1    3    3    0    0  0.37858130015E+02  0.88434023438E+01 -0.44007745841E+02  0.58720741371E+02  0.00000000000E+00 0.  1.
        -11    1    3    3    0    0  0.61322245449E+03  0.24069590535E+03 -0.28922380954E+03  0.71946279233E+03  0.00000000000E+00 0. -1.
          2    1    6    6  502    0 -0.12150479736E+03 -0.29429247552E+02  0.63285315062E+03  0.64508341061E+03  0.00000000000E+00 0. -1.
          1    1    5    5  503    0 -0.89864447421E+02 -0.53049560385E+02 -0.21820510521E+02  0.10661148834E+03  0.00000000000E+00 0. -1.
         -2    1    5    5    0  503 -0.37545742439E+03 -0.89598931042E+02  0.25298311882E+02  0.38682845107E+03  0.00000000000E+00 0.  1.
         -1    1    6    6    0  502 -0.64253915326E+02 -0.77461568718E+02  0.36229895551E+03  0.37601780999E+03  0.00000000000E+00 0.  1.
<mgrwt>
<rscale>  0 0.21940446E+04</rscale>
<asrwt>0</asrwt>
<pdfrwt beam="1">  1        1 0.12517895E+00 0.21940446E+04</pdfrwt>
<pdfrwt beam="2">  1       -1 0.22754793E+00 0.21940446E+04</pdfrwt>
<totfact> 0.19229594E+00</totfact>
</mgrwt>
</event>
<event>
12    1  0.1467288E-007  0.2088097E+04  0.7818608E-02  0.8566505E-01
         -2   -1    0    0    0  501 -0.00000000000E+00  0.00000000000E+00  0.10438856415E+04  0.10438856415E+04  0.00000000000E+00 0. -1.
          2   -1    0    0  501    0  0.00000000000E+00 -0.00000000000E+00 -0.10442113645E+04  0.10442113645E+04  0.00000000000E+00 0.  1.
         23    2    1    2    0    0  0.16235708208E+03  0.86957636186E+01  0.83242648916E+03  0.85286195468E+03  0.89466281292E+02 0.  0.
        254    2    1    2    0    0 -0.16235708208E+03 -0.86957636186E+01 -0.83275221207E+03  0.12352350513E+04  0.89771596113E+03 0.  0.
        -24    2    4    4    0    0 -0.45635687549E+03 -0.70402806198E+02 -0.15950432518E+03  0.49390738875E+03  0.72696120859E+02 0.  0.
         24    2    4    4    0    0  0.29399979340E+03  0.61707042580E+02 -0.67324788689E+03  0.74132766256E+03  0.77848239848E+02 0.  0.
         11    1    3    3    0    0  0.67700118847E+02 -0.22395190520E+02  0.19364191016E+03  0.20635416163E+03  0.00000000000E+00 0.  1.
        -11    1    3    3    0    0  0.94656963237E+02  0.31090954139E+02  0.63878457899E+03  0.64650779305E+03  0.00000000000E+00 0. -1.
          4    1    6    6  502    0  0.29373147380E+03  0.56536190895E+02 -0.67259301089E+03  0.73610860468E+03  0.00000000000E+00 0. -1.
          1    1    5    5  503    0 -0.36586250587E+03 -0.31188853519E+02 -0.14226828611E+03  0.39378723064E+03  0.00000000000E+00 0. -1.
         -2    1    5    5    0  503 -0.90494369615E+02 -0.39213952680E+02 -0.17236039078E+02  0.10012015811E+03  0.00000000000E+00 0.  1.
         -3    1    6    6    0  502  0.26831960191E+00  0.51708516845E+01 -0.65487599574E+00  0.52190578768E+01  0.00000000000E+00 0.  1.
<mgrwt>
<rscale>  0 0.20880970E+04</rscale>
<asrwt>0</asrwt>
<pdfrwt beam="1">  1        2 0.16064790E+00 0.20880970E+04</pdfrwt>
<pdfrwt beam="2">  1       -2 0.16059779E+00 0.20880970E+04</pdfrwt>
<totfact> 0.54289418E+00</totfact>
</mgrwt>
</event>
<event>
12    1  0.1467288E-007  0.1054949E+04  0.7818608E-02  0.9250250E-01
         -2   -1    0    0    0  501 -0.00000000000E+00  0.00000000000E+00  0.27507753791E+03  0.27507753791E+03  0.00000000000E+00 0.  1.
          2   -1    0    0  501    0  0.00000000000E+00 -0.00000000000E+00 -0.10114573400E+04  0.10114573400E+04  0.00000000000E+00 0. -1.
         23    2    1    2    0    0 -0.18294616294E+02  0.10833812892E+03 -0.17546209626E+03  0.22574114925E+03  0.90001533766E+02 0.  0.
        254    2    1    2    0    0  0.18294616294E+02 -0.10833812892E+03 -0.56091770578E+03  0.10607937286E+04  0.89363461148E+03 0.  0.
        -24    2    4    4    0    0  0.97609011546E+02  0.25820918484E+03 -0.60976560659E+03  0.67410034017E+03  0.79985444734E+02 0.  0.
         24    2    4    4    0    0 -0.79314395252E+02 -0.36654731375E+03  0.48847900805E+02  0.38669338844E+03  0.80609879885E+02 0.  0.
         13    1    3    3    0    0  0.47466567303E+01  0.81029810644E+02 -0.17156759309E+03  0.18979936766E+03  0.00000000000E+00 0. -1.
        -13    1    3    3    0    0 -0.23041273024E+02  0.27308318271E+02 -0.38945031653E+01  0.35941781596E+02  0.00000000000E+00 0.  1.
          2    1    6    6  502    0 -0.18472225062E+02 -0.43640125989E+02 -0.19202942733E+02  0.51131562705E+02  0.00000000000E+00 0. -1.
          1    1    5    5  503    0 -0.36360395749E+01  0.93619035215E+02 -0.18136169492E+03  0.20413184201E+03  0.00000000000E+00 0. -1.
         -2    1    5    5    0  503  0.10124505112E+03  0.16459014962E+03 -0.42840391167E+03  0.46996849816E+03  0.00000000000E+00 0.  1.
         -1    1    6    6    0  502 -0.60842170191E+02 -0.32290718777E+03  0.68050843538E+02  0.33556182573E+03  0.00000000000E+00 0.  1.
<mgrwt>
<rscale>  0 0.10549487E+04</rscale>
<asrwt>0</asrwt>
<pdfrwt beam="1">  1        2 0.15560882E+00 0.10549487E+04</pdfrwt>
<pdfrwt beam="2">  1       -2 0.42319621E-01 0.10549487E+04</pdfrwt>
<totfact> 0.13038625E+02</totfact>
</mgrwt>
</event>
<event>
12    1  0.1467288E-007  0.2020805E+04  0.7818608E-02  0.8596955E-01
          2   -1    0    0  501    0  0.00000000000E+00  0.00000000000E+00  0.54534294919E+03  0.54534294919E+03  0.00000000000E+00 0. -1.
         -2   -1    0    0    0  501 -0.00000000000E+00 -0.00000000000E+00 -0.18720569136E+04  0.18720569136E+04  0.00000000000E+00 0.  1.
         23    2    1    2    0    0  0.18280541011E+03  0.62068517281E+03 -0.10594370507E+04  0.12447573162E+04  0.91356499430E+02 0.  0.
        254    2    1    2    0    0 -0.18280541011E+03 -0.62068517281E+03 -0.26727691366E+03  0.11726425466E+04  0.94073678137E+03 0.  0.
        -24    2    4    4    0    0 -0.40239958227E+03 -0.11839777444E+03  0.17741859740E+03  0.46227486145E+03  0.79228984756E+02 0.  0.
         24    2    4    4    0    0  0.21959417216E+03 -0.50228739837E+03 -0.44469551106E+03  0.71036768515E+03  0.79711476847E+02 0.  0.
         11    1    3    3    0    0  0.50797207963E+01  0.19373609525E+02 -0.74692358607E+02  0.77331033510E+02  0.00000000000E+00 0. -1.
        -11    1    3    3    0    0  0.17772568931E+03  0.60131156328E+03 -0.98474469211E+03  0.11674262826E+04  0.00000000000E+00 0.  1.
          4    1    6    6  502    0  0.26970451130E+02 -0.11269458379E+03 -0.12767567988E+03  0.17241970213E+03  0.00000000000E+00 0. -1.
          3    1    5    5  503    0 -0.13245792576E+02  0.10095159576E+02  0.10980766910E+02  0.19948446300E+02  0.00000000000E+00 0. -1.
         -4    1    5    5    0  503 -0.38915378969E+03 -0.12849293401E+03  0.16643783049E+03  0.44232641515E+03  0.00000000000E+00 0.  1.
         -3    1    6    6    0  502  0.19262372103E+03 -0.38959281458E+03 -0.31701983119E+03  0.53794798302E+03  0.00000000000E+00 0.  1.
<mgrwt>
<rscale>  0 0.20208048E+04</rscale>
<asrwt>0</asrwt>
<pdfrwt beam="1">  1        2 0.83898917E-01 0.20208048E+04</pdfrwt>
<pdfrwt beam="2">  1       -2 0.28800875E+00 0.20208048E+04</pdfrwt>
<totfact> 0.19421101E+00</totfact>
</mgrwt>
</event>
<event>
12    1  0.1467288E-007  0.1098931E+04  0.7818608E-02  0.9206235E-01
          2   -1    0    0  501    0  0.00000000000E+00  0.00000000000E+00  0.18193381749E+04  0.18193381749E+04  0.00000000000E+00 0. -1.
         -2   -1    0    0    0  501 -0.00000000000E+00 -0.00000000000E+00 -0.16594619688E+03  0.16594619688E+03  0.00000000000E+00 0.  1.
         23    2    1    2    0    0 -0.14564827747E+03 -0.13287684967E+02  0.20469189493E+03  0.26675358025E+03  0.88705791403E+02 0.  0.
        254    2    1    2    0    0  0.14564827747E+03  0.13287684967E+02  0.14487000831E+04  0.17185307915E+04  0.91281223008E+03 0.  0.
        -24    2    4    4    0    0  0.51083170063E+03 -0.37143558393E+02  0.61832933447E+03  0.80647300238E+03  0.75755312700E+02 0.  0.
         24    2    4    4    0    0 -0.36518342317E+03  0.50431243360E+02  0.83037074862E+03  0.91205778915E+03  0.80197180230E+02 0.  0.
         13    1    3    3    0    0 -0.13361719002E+03 -0.37782164163E+02  0.19122511680E+03  0.23632200636E+03  0.00000000000E+00 0. -1.
        -13    1    3    3    0    0 -0.12031087450E+02  0.24494479196E+02  0.13466778129E+02  0.30431573891E+02  0.00000000000E+00 0.  1.
          2    1    6    6  502    0 -0.52546513098E+02  0.36942393566E+02  0.13326773598E+03  0.14793973751E+03  0.00000000000E+00 0. -1.
          3    1    5    5  503    0  0.30581860979E+03 -0.34638130632E+02  0.31541088443E+03  0.44069132985E+03  0.00000000000E+00 0. -1.
         -4    1    5    5    0  503  0.20501309084E+03 -0.25054277603E+01  0.30291845004E+03  0.36578167253E+03  0.00000000000E+00 0.  1.
         -1    1    6    6    0  502 -0.31263691007E+03  0.13488849794E+02  0.69710301264E+03  0.76411805164E+03  0.00000000000E+00 0.  1.
<mgrwt>
<rscale>  0 0.10989308E+04</rscale>
<asrwt>0</asrwt>
<pdfrwt beam="1">  1        2 0.27989817E+00 0.10989308E+04</pdfrwt>
<pdfrwt beam="2">  1       -2 0.25530185E-01 0.10989308E+04</pdfrwt>
<totfact> 0.11550313E+02</totfact>
</mgrwt>
</event>
<event>
12    1  0.1467288E-007  0.2808424E+04  0.7818608E-02  0.8300658E-01
          1   -1    0    0  501    0  0.00000000000E+00  0.00000000000E+00  0.30274794256E+04  0.30274794256E+04  0.00000000000E+00 0. -1.
         -1   -1    0    0    0  501 -0.00000000000E+00 -0.00000000000E+00 -0.65130471529E+03  0.65130471529E+03  0.00000000000E+00 0.  1.
         23    2    1    2    0    0  0.63113158317E+03  0.19834772331E+03 -0.33502841749E+03  0.74700442553E+03  0.90014868831E+02 0.  0.
        254    2    1    2    0    0 -0.63113158317E+03 -0.19834772331E+03  0.27112031278E+04  0.29317797153E+04  0.89835460955E+03 0.  0.
        -24    2    4    4    0    0 -0.48572213976E+02 -0.19209549262E+03  0.69717452539E+02  0.22541305930E+03  0.81796001484E+02 0.  0.
         24    2    4    4    0    0 -0.58255936920E+03 -0.62522306858E+01  0.26414856752E+04  0.27063666560E+04  0.86944783160E+02 0.  0.
         13    1    3    3    0    0  0.60325801763E+03  0.20146047382E+03 -0.30320262565E+03  0.70458384210E+03  0.00000000000E+00 0.  1.
        -13    1    3    3    0    0  0.27873565541E+02 -0.31127505135E+01 -0.31825791845E+02  0.42420583427E+02  0.00000000000E+00 0. -1.
          2    1    6    6  502    0 -0.57515548205E+03 -0.11125879066E+02  0.26280248030E+04  0.26902494269E+04  0.00000000000E+00 0. -1.
          1    1    5    5  503    0 -0.69000893807E+02 -0.16646142265E+03  0.49385487919E+02  0.18684072092E+03  0.00000000000E+00 0. -1.
         -2    1    5    5    0  503  0.20428679830E+02 -0.25634069975E+02  0.20331964620E+02  0.38572338384E+02  0.00000000000E+00 0.  1.
         -1    1    6    6    0  502 -0.74038871432E+01  0.48736483805E+01  0.13460872233E+02  0.16117229124E+02  0.00000000000E+00 0.  1.
<mgrwt>
<rscale>  0 0.28084242E+04</rscale>
<asrwt>0</asrwt>
<pdfrwt beam="1">  1        1 0.46576606E+00 0.28084242E+04</pdfrwt>
<pdfrwt beam="2">  1       -1 0.10020073E+00 0.28084242E+04</pdfrwt>
<totfact> 0.46813670E-01</totfact>
</mgrwt>
</event>
<event>
12    1  0.1467288E-007  0.2583699E+04  0.7818608E-02  0.8373759E-01
          2   -1    0    0  501    0  0.00000000000E+00  0.00000000000E+00  0.28775776206E+04  0.28775776206E+04  0.00000000000E+00 0. -1.
         -2   -1    0    0    0  501 -0.00000000000E+00 -0.00000000000E+00 -0.57995829734E+03  0.57995829734E+03  0.00000000000E+00 0.  1.
         23    2    1    2    0    0  0.75371399337E+03 -0.63507101130E+03  0.27326605533E+03  0.10270021068E+04  0.93053839697E+02 0.  0.
        254    2    1    2    0    0 -0.75371399337E+03  0.63507101130E+03  0.20243532680E+04  0.24305338112E+04  0.91547172584E+03 0.  0.
        -24    2    4    4    0    0 -0.59419946082E+03 -0.55554779515E+02  0.67635555034E+03  0.90536758993E+03  0.77937857586E+02 0.  0.
         24    2    4    4    0    0 -0.15951453255E+03  0.69062579082E+03  0.13479977176E+04  0.15251662213E+04  0.81395865105E+02 0.  0.
         13    1    3    3    0    0  0.94481034549E+01 -0.10025095273E+01 -0.45849473633E+01  0.10549569971E+02  0.00000000000E+00 0.  1.
        -13    1    3    3    0    0  0.74426588992E+03 -0.63406850177E+03  0.27785100270E+03  0.10164525368E+04  0.00000000000E+00 0. -1.
          2    1    6    6  502    0 -0.13001492564E+03  0.45131802833E+03  0.95159738613E+03  0.10611924561E+04  0.00000000000E+00 0. -1.
          3    1    5    5  503    0 -0.38531432130E+03 -0.57697121962E+02  0.39364364282E+03  0.55385142558E+03  0.00000000000E+00 0. -1.
         -4    1    5    5    0  503 -0.20888513952E+03  0.21423424467E+01  0.28271190752E+03  0.35151616435E+03  0.00000000000E+00 0.  1.
         -1    1    6    6    0  502 -0.29499606911E+02  0.23930776249E+03  0.39640033148E+03  0.46397376520E+03  0.00000000000E+00 0.  1.
<mgrwt>
<rscale>  0 0.25836989E+04</rscale>
<asrwt>0</asrwt>
<pdfrwt beam="1">  1        2 0.44270424E+00 0.25836989E+04</pdfrwt>
<pdfrwt beam="2">  1       -2 0.89224355E-01 0.25836989E+04</pdfrwt>
<totfact> 0.19801617E+00</totfact>
</mgrwt>
</event>
<event>
12    1  0.1467288E-007  0.1819267E+04  0.7818608E-02  0.8696120E-01
          2   -1    0    0  501    0  0.00000000000E+00  0.00000000000E+00  0.99705932299E+03  0.99705932299E+03  0.00000000000E+00 0. -1.
         -2   -1    0    0    0  501 -0.00000000000E+00 -0.00000000000E+00 -0.82987311449E+03  0.82987311449E+03  0.00000000000E+00 0.  1.
         23    2    1    2    0    0  0.23035425545E+03 -0.34231868167E+03  0.60896373584E+03  0.74124377356E+03  0.91434880946E+02 0.  0.
        254    2    1    2    0    0 -0.23035425545E+03  0.34231868167E+03 -0.44177752734E+03  0.10856886639E+04  0.90183553294E+03 0.  0.
        -24    2    4    4    0    0 -0.74439066628E+02  0.50057913823E+03  0.74730125648E+02  0.51785009227E+03  0.80395759262E+02 0.  0.
         24    2    4    4    0    0 -0.15591518882E+03 -0.15826045656E+03 -0.51650765298E+03  0.56783857165E+03  0.79401320194E+02 0.  0.
         11    1    3    3    0    0  0.16451233814E+03 -0.30576710712E+03  0.50637967997E+03  0.61398551569E+03  0.00000000000E+00 0. -1.
        -11    1    3    3    0    0  0.65841917308E+02 -0.36551574553E+02  0.10258405587E+03  0.12725825787E+03  0.00000000000E+00 0.  1.
          4    1    6    6  502    0 -0.10577021008E+03 -0.11038868240E+03 -0.25518855631E+03  0.29747974353E+03  0.00000000000E+00 0. -1.
          1    1    5    5  503    0 -0.23908078775E+02  0.36572983383E+03  0.73665370891E+02  0.37384019909E+03  0.00000000000E+00 0. -1.
         -4    1    5    5    0  503 -0.50530987853E+02  0.13484930440E+03  0.10647547577E+01  0.14400989318E+03  0.00000000000E+00 0.  1.
         -3    1    6    6    0  502 -0.50144978743E+02 -0.47871774162E+02 -0.26131909667E+03  0.27035882812E+03  0.00000000000E+00 0.  1.
<mgrwt>
<rscale>  0 0.18192666E+04</rscale>
<asrwt>0</asrwt>
<pdfrwt beam="1">  1        2 0.15339374E+00 0.18192666E+04</pdfrwt>
<pdfrwt beam="2">  1       -2 0.12767279E+00 0.18192666E+04</pdfrwt>
<totfact> 0.10841113E+01</totfact>
</mgrwt>
</event>
<event>
12    1  0.1467288E-007  0.1290789E+04  0.7818608E-02  0.9036902E-01
          2   -1    0    0  501    0  0.00000000000E+00  0.00000000000E+00  0.16268735233E+04  0.16268735233E+04  0.00000000000E+00 0. -1.
         -2   -1    0    0    0  501 -0.00000000000E+00 -0.00000000000E+00 -0.25603348239E+03  0.25603348239E+03  0.00000000000E+00 0.  1.
         23    2    1    2    0    0  0.10222019284E+03 -0.14117822973E+03  0.70076117737E+03  0.73193365579E+03  0.11950057911E+03 0.  0.
        254    2    1    2    0    0 -0.10222019284E+03  0.14117822973E+03  0.67007886354E+03  0.11509733499E+04  0.91943118742E+03 0.  0.
        -24    2    4    4    0    0 -0.35020318401E+03 -0.20352352178E+03  0.57627711887E+03  0.70899040081E+03  0.80672031687E+02 0.  0.
         24    2    4    4    0    0  0.24798299117E+03  0.34470175151E+03  0.93801744665E+02  0.44198294907E+03  0.78963906703E+02 0.  0.
         13    1    3    3    0    0 -0.12390944068E+02 -0.54362429407E+01  0.20243654319E+03  0.20288825064E+03  0.00000000000E+00 0. -1.
        -13    1    3    3    0    0  0.11461113690E+03 -0.13574198678E+03  0.49832463418E+03  0.52904540515E+03  0.00000000000E+00 0.  1.
          4    1    6    6  502    0  0.11868391294E+03  0.10023326992E+03  0.32150196642E+02  0.15863862938E+03  0.00000000000E+00 0. -1.
          1    1    5    5  503    0 -0.94526372697E+02 -0.17747485702E+02  0.11657383428E+03  0.15112798292E+03  0.00000000000E+00 0. -1.
         -2    1    5    5    0  503 -0.25567681131E+03 -0.18577603608E+03  0.45970328459E+03  0.55786241789E+03  0.00000000000E+00 0.  1.
         -3    1    6    6    0  502  0.12929907823E+03  0.24446848159E+03  0.61651548024E+02  0.28334431968E+03  0.00000000000E+00 0.  1.
<mgrwt>
<rscale>  0 0.12907891E+04</rscale>
<asrwt>0</asrwt>
<pdfrwt beam="1">  1        2 0.25028823E+00 0.12907891E+04</pdfrwt>
<pdfrwt beam="2">  1       -2 0.39389768E-01 0.12907891E+04</pdfrwt>
<totfact> 0.64378477E+01</totfact>
</mgrwt>
</event>
<event>
12    1  0.1467288E-007  0.2482231E+04  0.7818608E-02  0.8409343E-01
          1   -1    0    0  501    0  0.00000000000E+00  0.00000000000E+00  0.20566856209E+04  0.20566856209E+04  0.00000000000E+00 0. -1.
         -1   -1    0    0    0  501 -0.00000000000E+00 -0.00000000000E+00 -0.74895643953E+03  0.74895643953E+03  0.00000000000E+00 0.  1.
         23    2    1    2    0    0  0.98724372740E+03  0.69127064578E+02  0.10567668342E+04  0.14505704589E+04  0.89273658230E+02 0.  0.
        254    2    1    2    0    0 -0.98724372740E+03 -0.69127064578E+02  0.25096234718E+03  0.13550716015E+04  0.89095915577E+03 0.  0.
        -24    2    4    4    0    0 -0.10875751986E+03 -0.83333708209E+02  0.42787671656E+03  0.45533015935E+03  0.73988947701E+02 0.  0.
         24    2    4    4    0    0 -0.87848620753E+03  0.14206643631E+02 -0.17691436938E+03  0.89974144219E+03  0.79348113718E+02 0.  0.
         13    1    3    3    0    0  0.66277070107E+03  0.12634009706E+02  0.74217431750E+03  0.99511172134E+03  0.00000000000E+00 0. -1.
        -13    1    3    3    0    0  0.32447302633E+03  0.56493054872E+02  0.31459251672E+03  0.45545873758E+03  0.00000000000E+00 0.  1.
          2    1    6    6  502    0 -0.43008713763E+03  0.13740374478E+02 -0.46790776028E+02  0.43284306690E+03  0.00000000000E+00 0. -1.
          3    1    5    5  503    0 -0.40958579531E+02 -0.77401232499E+02  0.24825576567E+03  0.26324794628E+03  0.00000000000E+00 0. -1.
         -4    1    5    5    0  503 -0.67798940333E+02 -0.59324757103E+01  0.17962095089E+03  0.19208221307E+03  0.00000000000E+00 0.  1.
         -1    1    6    6    0  502 -0.44839906990E+03  0.46626915314E+00 -0.13012359336E+03  0.46689837529E+03  0.00000000000E+00 0.  1.
<mgrwt>
<rscale>  0 0.24822312E+04</rscale>
<asrwt>0</asrwt>
<pdfrwt beam="1">  1        1 0.31641317E+00 0.24822312E+04</pdfrwt>
<pdfrwt beam="2">  1       -1 0.11522407E+00 0.24822312E+04</pdfrwt>
<totfact> 0.16575090E+00</totfact>
</mgrwt>
</event>
<event>
12    1  0.1467288E-007  0.2483992E+04  0.7818608E-02  0.8408711E-01
         -1   -1    0    0    0  501 -0.00000000000E+00  0.00000000000E+00  0.89703588214E+03  0.89703588214E+03  0.00000000000E+00 0.  1.
          1   -1    0    0  501    0  0.00000000000E+00 -0.00000000000E+00 -0.17196128355E+04  0.17196128355E+04  0.00000000000E+00 0. -1.
         23    2    1    2    0    0 -0.16583086465E+03  0.24613261159E+03 -0.14046542372E+04  0.14387962058E+04  0.94867577770E+02 0.  0.
        254    2    1    2    0    0  0.16583086465E+03 -0.24613261159E+03  0.58207728392E+03  0.11778525118E+04  0.98002114112E+03 0.  0.
        -24    2    4    4    0    0 -0.15196004250E+03 -0.47958265932E+03  0.51713934928E+02  0.51206785169E+03  0.80298020088E+02 0.  0.
         24    2    4    4    0    0  0.31779090714E+03  0.23345004773E+03  0.53036334899E+03  0.66578466016E+03  0.80585025242E+02 0.  0.
         13    1    3    3    0    0 -0.38162187694E+01 -0.87456254125E+01 -0.40069454441E+02  0.41189934070E+02  0.00000000000E+00 0.  1.
        -13    1    3    3    0    0 -0.16201464588E+03  0.25487823700E+03 -0.13645847828E+04  0.13976062717E+04  0.00000000000E+00 0. -1.
          2    1    6    6  502    0  0.30158372542E+03  0.19868336235E+03  0.50038791538E+03  0.61710281783E+03  0.00000000000E+00 0. -1.
          3    1    5    5  503    0 -0.10925197335E+02 -0.40921661230E+02 -0.18050026678E+02  0.46040696756E+02  0.00000000000E+00 0. -1.
         -4    1    5    5    0  503 -0.14103484516E+03 -0.43866099809E+03  0.69763961606E+02  0.46602715494E+03  0.00000000000E+00 0.  1.
         -1    1    6    6    0  502  0.16207181721E+02  0.34766685384E+02  0.29975433608E+02  0.48681842322E+02  0.00000000000E+00 0.  1.
<mgrwt>
<rscale>  0 0.24839923E+04</rscale>
<asrwt>0</asrwt>
<pdfrwt beam="1">  1        1 0.26455582E+00 0.24839923E+04</pdfrwt>
<pdfrwt beam="2">  1       -1 0.13800552E+00 0.24839923E+04</pdfrwt>
<totfact> 0.17890274E+00</totfact>
</mgrwt>
</event>
<event>
12    1  0.1467288E-007  0.2122405E+04  0.7818608E-02  0.8551438E-01
         -2   -1    0    0    0  501 -0.00000000000E+00  0.00000000000E+00  0.86012148035E+03  0.86012148035E+03  0.00000000000E+00 0. -1.
          2   -1    0    0  501    0  0.00000000000E+00 -0.00000000000E+00 -0.13092924191E+04  0.13092924191E+04  0.00000000000E+00 0.  1.
         23    2    1    2    0    0 -0.86042390263E+03  0.24358034292E+03 -0.59905529967E+02  0.90094795587E+03  0.91966684089E+02 0.  0.
        254    2    1    2    0    0  0.86042390263E+03 -0.24358034292E+03 -0.38926540877E+03  0.12684659436E+04  0.81105956370E+03 0.  0.
        -24    2    4    4    0    0  0.40217881568E+03 -0.47304517098E+03 -0.41196197630E+03  0.74939164986E+03  0.79722276548E+02 0.  0.
         24    2    4    4    0    0  0.45824508695E+03  0.22946482806E+03  0.22696567528E+02  0.51907429372E+03  0.79248477589E+02 0.  0.
         13    1    3    3    0    0 -0.14554365083E+03  0.67473656796E+02  0.13799077840E+02  0.16101572348E+03  0.00000000000E+00 0.  1.
        -13    1    3    3    0    0 -0.71488025180E+03  0.17610668613E+03 -0.73704607807E+02  0.73993223239E+03  0.00000000000E+00 0. -1.
          2    1    6    6  502    0  0.21193674844E+03  0.68487828061E+02 -0.10406075866E+02  0.22297097199E+03  0.00000000000E+00 0. -1.
          3    1    5    5  503    0  0.40395093177E+03 -0.47438722277E+03 -0.40776439846E+03  0.74464179110E+03  0.00000000000E+00 0. -1.
         -4    1    5    5    0  503 -0.17721160874E+01  0.13420517854E+01 -0.41975778433E+01  0.47498587529E+01  0.00000000000E+00 0.  1.
         -1    1    6    6    0  502  0.24630833850E+03  0.16097700000E+03  0.33102643394E+02  0.29610332174E+03  0.00000000000E+00 0.  1.
<mgrwt>
<rscale>  0 0.21224048E+04</rscale>
<asrwt>0</asrwt>
<pdfrwt beam="1">  1        2 0.20142960E+00 0.21224048E+04</pdfrwt>
<pdfrwt beam="2">  1       -2 0.13232638E+00 0.21224048E+04</pdfrwt>
<totfact> 0.62361192E+00</totfact>
</mgrwt>
</event>
<event>
12    1  0.1467288E-007  0.1209860E+04  0.7818608E-02  0.9104270E-01
          2   -1    0    0  501    0  0.00000000000E+00  0.00000000000E+00  0.14081581861E+04  0.14081581861E+04  0.00000000000E+00 0. -1.
         -2   -1    0    0    0  501 -0.00000000000E+00 -0.00000000000E+00 -0.25987144806E+03  0.25987144806E+03  0.00000000000E+00 0.  1.
         23    2    1    2    0    0 -0.71109833952E+02  0.92334835861E+02 -0.50022099144E+02  0.15586565108E+03  0.90606624398E+02 0.  0.
        254    2    1    2    0    0  0.71109833952E+02 -0.92334835861E+02  0.11983088372E+04  0.15121639831E+04  0.91493907560E+03 0.  0.
        -24    2    4    4    0    0  0.35739156748E+03 -0.31406887410E+03  0.38085905927E+03  0.61463207995E+03  0.79693039169E+02 0.  0.
         24    2    4    4    0    0 -0.28628173352E+03  0.22173403824E+03  0.81744977791E+03  0.89753190313E+03  0.78842647527E+02 0.  0.
         13    1    3    3    0    0 -0.71812674380E+02  0.35953080711E+02  0.26908471100E+00  0.80310376794E+02  0.00000000000E+00 0.  1.
        -13    1    3    3    0    0  0.70284042793E+00  0.56381755149E+02 -0.50291183855E+02  0.75555274283E+02  0.00000000000E+00 0. -1.
          4    1    6    6  502    0 -0.75910616714E+02  0.38076293450E+02  0.26885382850E+03  0.28194787985E+03  0.00000000000E+00 0. -1.
          3    1    5    5  503    0  0.24913097014E+02 -0.75063684081E+01  0.42463137037E+02  0.49800863211E+02  0.00000000000E+00 0. -1.
         -2    1    5    5    0  503  0.33247847046E+03 -0.30656250569E+03  0.33839592223E+03  0.56483121674E+03  0.00000000000E+00 0.  1.
         -3    1    6    6    0  502 -0.21037111681E+03  0.18365774479E+03  0.54859594940E+03  0.61558402327E+03  0.00000000000E+00 0.  1.
<mgrwt>
<rscale>  0 0.12098597E+04</rscale>
<asrwt>0</asrwt>
<pdfrwt beam="1">  1        2 0.21663972E+00 0.12098597E+04</pdfrwt>
<pdfrwt beam="2">  1       -2 0.39980224E-01 0.12098597E+04</pdfrwt>
<totfact> 0.83523767E+01</totfact>
</mgrwt>
</event>
<event>
12    1  0.1467288E-007  0.1876093E+04  0.7818608E-02  0.8666849E-01
          2   -1    0    0  501    0  0.00000000000E+00  0.00000000000E+00  0.19265092693E+04  0.19265092693E+04  0.00000000000E+00 0. -1.
         -2   -1    0    0    0  501 -0.00000000000E+00 -0.00000000000E+00 -0.45674890279E+03  0.45674890279E+03  0.00000000000E+00 0.  1.
         23    2    1    2    0    0 -0.16185697510E+03  0.27931965114E+03  0.13986911260E+04  0.14382989403E+04  0.90276397471E+02 0.  0.
        254    2    1    2    0    0  0.16185697510E+03 -0.27931965114E+03  0.71069240554E+02  0.94495923178E+03  0.88525700499E+03 0.  0.
        -24    2    4    4    0    0 -0.22325057165E+03 -0.34063451019E+03 -0.20296876471E+03  0.46172172988E+03  0.78217319797E+02 0.  0.
         24    2    4    4    0    0  0.38510754675E+03  0.61314859055E+02  0.27403800526E+03  0.48323750191E+03  0.79713991360E+02 0.  0.
         11    1    3    3    0    0 -0.34924094840E+01  0.24195818015E+02  0.40470353733E+02  0.47280905921E+02  0.00000000000E+00 0.  1.
        -11    1    3    3    0    0 -0.15836456562E+03  0.25512383312E+03  0.13582207722E+04  0.13910180344E+04  0.00000000000E+00 0. -1.
          4    1    6    6  502    0  0.34688854128E+03  0.76428844170E+02  0.23092532012E+03  0.42367385070E+03  0.00000000000E+00 0. -1.
          1    1    5    5  503    0 -0.18427961378E+03 -0.29752140184E+03 -0.20097776183E+03  0.40357158146E+03  0.00000000000E+00 0. -1.
         -2    1    5    5    0  503 -0.38970957871E+02 -0.43113108348E+02 -0.19910028825E+01  0.58150148420E+02  0.00000000000E+00 0.  1.
         -3    1    6    6    0  502  0.38219005463E+02 -0.15113985115E+02  0.43112685148E+02  0.59563651209E+02  0.00000000000E+00 0.  1.
<mgrwt>
<rscale>  0 0.18760927E+04</rscale>
<asrwt>0</asrwt>
<pdfrwt beam="1">  1        2 0.29638604E+00 0.18760927E+04</pdfrwt>
<pdfrwt beam="2">  1       -2 0.70269063E-01 0.18760927E+04</pdfrwt>
<totfact> 0.12695843E+01</totfact>
</mgrwt>
</event>
<event>
12    1  0.1467288E-007  0.1604720E+04  0.7818608E-02  0.8817653E-01
          2   -1    0    0  501    0  0.00000000000E+00  0.00000000000E+00  0.17050325194E+04  0.17050325194E+04  0.00000000000E+00 0. -1.
         -2   -1    0    0    0  501 -0.00000000000E+00 -0.00000000000E+00 -0.37757736231E+03  0.37757736231E+03  0.00000000000E+00 0.  1.
         23    2    1    2    0    0  0.45708165714E+02  0.34265527614E+03  0.99851496701E+03  0.10601311992E+04  0.85697989410E+02 0.  0.
        254    2    1    2    0    0 -0.45708165714E+02 -0.34265527614E+03  0.32894019006E+03  0.10224786825E+04  0.90430035549E+03 0.  0.
        -24    2    4    4    0    0  0.26988601709E+03  0.68230150070E+02 -0.13695463949E+03  0.32017285927E+03  0.79121873953E+02 0.  0.
         24    2    4    4    0    0 -0.31559418280E+03 -0.41088542621E+03  0.46589482954E+03  0.70230582327E+03  0.88028151849E+02 0.  0.
         11    1    3    3    0    0  0.67012921246E+02  0.27791990929E+03  0.84834615331E+03  0.89522142704E+03  0.00000000000E+00 0. -1.
        -11    1    3    3    0    0 -0.21304755533E+02  0.64735366856E+02  0.15016881370E+03  0.16490977211E+03  0.00000000000E+00 0.  1.
          4    1    6    6  502    0 -0.76051790959E+02 -0.45601245484E+02  0.81295207453E+02  0.12030070346E+03  0.00000000000E+00 0. -1.
          1    1    5    5  503    0  0.77330259516E+02  0.20203414800E+02 -0.81421381170E+02  0.11409464632E+03  0.00000000000E+00 0. -1.
         -4    1    5    5    0  503  0.19255575757E+03  0.48026735271E+02 -0.55533258316E+02  0.20607821295E+03  0.00000000000E+00 0.  1.
         -3    1    6    6    0  502 -0.23954239184E+03 -0.36528418073E+03  0.38459962209E+03  0.58200511982E+03  0.00000000000E+00 0.  1.
<mgrwt>
<rscale>  0 0.16047201E+04</rscale>
<asrwt>0</asrwt>
<pdfrwt beam="1">  1        2 0.26231269E+00 0.16047201E+04</pdfrwt>
<pdfrwt beam="2">  1       -2 0.58088826E-01 0.16047201E+04</pdfrwt>
<totfact> 0.25898176E+01</totfact>
</mgrwt>
</event>
<event>
12    1  0.1467288E-007  0.3052041E+04  0.7818608E-02  0.8229024E-01
          2   -1    0    0  501    0  0.00000000000E+00  0.00000000000E+00  0.22556215127E+04  0.22556215127E+04  0.00000000000E+00 0. -1.
         -2   -1    0    0    0  501 -0.00000000000E+00 -0.00000000000E+00 -0.10324157806E+04  0.10324157806E+04  0.00000000000E+00 0.  1.
         23    2    1    2    0    0 -0.13222562403E+04 -0.40575429443E+03  0.73167864721E+03  0.15674393002E+04  0.92272448886E+02 0.  0.
        254    2    1    2    0    0  0.13222562403E+04  0.40575429443E+03  0.49152708486E+03  0.17205979930E+04  0.89769731311E+03 0.  0.
        -24    2    4    4    0    0  0.13017572172E+04  0.17490422510E+03  0.18320014896E+03  0.13286043681E+04  0.80398581138E+02 0.  0.
         24    2    4    4    0    0  0.20499023012E+02  0.23085006934E+03  0.30832693591E+03  0.39199362485E+03  0.69868004538E+02 0.  0.
         11    1    3    3    0    0 -0.12715168503E+04 -0.37207735086E+03  0.69111350728E+03  0.14942672236E+04  0.00000000000E+00 0. -1.
        -11    1    3    3    0    0 -0.50739389978E+02 -0.33676943575E+02  0.40565139932E+02  0.73172076652E+02  0.00000000000E+00 0.  1.
          4    1    6    6  502    0  0.61705037725E+01 -0.36043379016E+01  0.82147638773E+01  0.10888007810E+02  0.00000000000E+00 0. -1.
          3    1    5    5  503    0  0.51139777869E+03  0.49193437452E+02  0.37219935927E+02  0.51510484949E+03  0.00000000000E+00 0. -1.
         -4    1    5    5    0  503  0.79035943855E+03  0.12571078764E+03  0.14598021303E+03  0.81349951864E+03  0.00000000000E+00 0.  1.
         -1    1    6    6    0  502  0.14328519240E+02  0.23445440724E+03  0.30011217203E+03  0.38110561704E+03  0.00000000000E+00 0.  1.
<mgrwt>
<rscale>  0 0.30520414E+04</rscale>
<asrwt>0</asrwt>
<pdfrwt beam="1">  1        2 0.34701869E+00 0.30520414E+04</pdfrwt>
<pdfrwt beam="2">  1       -2 0.15883320E+00 0.30520414E+04</pdfrwt>
<totfact> 0.10521183E+00</totfact>
</mgrwt>
</event>
<event>
12    1  0.1467288E-007  0.1961654E+04  0.7818608E-02  0.8624761E-01
          2   -1    0    0  501    0  0.00000000000E+00  0.00000000000E+00  0.13052504026E+04  0.13052504026E+04  0.00000000000E+00 0.  1.
         -2   -1    0    0    0  501 -0.00000000000E+00 -0.00000000000E+00 -0.73703997069E+03  0.73703997069E+03  0.00000000000E+00 0. -1.
         23    2    1    2    0    0 -0.98747002376E+02  0.34653150178E+03  0.93637045815E+03  0.10075015618E+04  0.91840676664E+02 0.  0.
        254    2    1    2    0    0  0.98747002376E+02 -0.34653150178E+03 -0.36816002629E+03  0.10347888115E+04  0.89744694950E+03 0.  0.
        -24    2    4    4    0    0 -0.28345651674E+03  0.67196637651E+02  0.79558235467E+02  0.31091983950E+03  0.74017894911E+02 0.  0.
         24    2    4    4    0    0  0.38220351912E+03 -0.41372813943E+03 -0.44771826176E+03  0.72386897196E+03  0.79272588406E+02 0.  0.
         11    1    3    3    0    0 -0.14421096509E+02  0.31045081912E+02  0.35713088270E+02  0.49469079325E+02  0.00000000000E+00 0. -1.
        -11    1    3    3    0    0 -0.84325905866E+02  0.31548641987E+03  0.90065736988E+03  0.95803248246E+03  0.00000000000E+00 0.  1.
          4    1    6    6  502    0  0.11036104895E+03 -0.74306576911E+02 -0.88073804117E+02  0.15955570647E+03  0.00000000000E+00 0. -1.
          1    1    5    5  503    0 -0.76365464021E+02  0.89476620336E+01 -0.10693873693E+02  0.77627982620E+02  0.00000000000E+00 0. -1.
         -2    1    5    5    0  503 -0.20709105272E+03  0.58248975617E+02  0.90252109160E+02  0.23329185688E+03  0.00000000000E+00 0.  1.
         -3    1    6    6    0  502  0.27184247017E+03 -0.33942156252E+03 -0.35964445764E+03  0.56431326549E+03  0.00000000000E+00 0.  1.
<mgrwt>
<rscale>  0 0.19616541E+04</rscale>
<asrwt>0</asrwt>
<pdfrwt beam="1">  1        2 0.20080775E+00 0.19616541E+04</pdfrwt>
<pdfrwt beam="2">  1       -2 0.11339076E+00 0.19616541E+04</pdfrwt>
<totfact> 0.93377377E+00</totfact>
</mgrwt>
</event>
<event>
12    1  0.1467288E-007  0.1709729E+04  0.7818608E-02  0.8755835E-01
         -2   -1    0    0    0  501 -0.00000000000E+00  0.00000000000E+00  0.51958369801E+03  0.51958369801E+03  0.00000000000E+00 0.  1.
          2   -1    0    0  501    0  0.00000000000E+00 -0.00000000000E+00 -0.14064980564E+04  0.14064980564E+04  0.00000000000E+00 0. -1.
         23    2    1    2    0    0  0.31605619209E+03  0.25542880366E+03 -0.83760195315E+03  0.93535594233E+03  0.90434045815E+02 0.  0.
        254    2    1    2    0    0 -0.31605619209E+03 -0.25542880366E+03 -0.49312405236E+02  0.99072581206E+03  0.90220315400E+03 0.  0.
        -24    2    4    4    0    0  0.70858481632E+02 -0.35676112269E+03 -0.32892446915E+03  0.49670821144E+03  0.78919692257E+02 0.  0.
         24    2    4    4    0    0 -0.38691467372E+03  0.10133231903E+03  0.27961206391E+03  0.49401760063E+03  0.76806769394E+02 0.  0.
         11    1    3    3    0    0  0.30271451558E+03  0.21170136345E+03 -0.72120354987E+03  0.81030124372E+03  0.00000000000E+00 0. -1.
        -11    1    3    3    0    0  0.13341676510E+02  0.43727440210E+02 -0.11639840328E+03  0.12505469861E+03  0.00000000000E+00 0.  1.
          2    1    6    6  502    0 -0.28422717490E+03  0.48424501340E+02  0.22760714399E+03  0.36733503954E+03  0.00000000000E+00 0. -1.
          1    1    5    5  503    0  0.34755488175E+01 -0.88281463386E+02 -0.12421089389E+03  0.15242717073E+03  0.00000000000E+00 0. -1.
         -2    1    5    5    0  503  0.67382932815E+02 -0.26847965930E+03 -0.20471357525E+03  0.34428104070E+03  0.00000000000E+00 0.  1.
         -1    1    6    6    0  502 -0.10268749882E+03  0.52907817690E+02  0.52004919924E+02  0.12668256109E+03  0.00000000000E+00 0.  1.
<mgrwt>
<rscale>  0 0.17097292E+04</rscale>
<asrwt>0</asrwt>
<pdfrwt beam="1">  1        2 0.21638432E+00 0.17097292E+04</pdfrwt>
<pdfrwt beam="2">  1       -2 0.79935953E-01 0.17097292E+04</pdfrwt>
<totfact> 0.18891357E+01</totfact>
</mgrwt>
</event>
<event>
12    1  0.1467288E-007  0.1321213E+04  0.7818608E-02  0.9012910E-01
          2   -1    0    0  501    0  0.00000000000E+00  0.00000000000E+00  0.21185269053E+04  0.21185269053E+04  0.00000000000E+00 0. -1.
         -2   -1    0    0    0  501 -0.00000000000E+00 -0.00000000000E+00 -0.20599278175E+03  0.20599278175E+03  0.00000000000E+00 0.  1.
         23    2    1    2    0    0  0.19854052168E+02 -0.78624447797E+01 -0.88725286320E+02  0.12949967929E+03  0.91880297554E+02 0.  0.
        254    2    1    2    0    0 -0.19854052168E+02  0.78624447797E+01  0.20012594098E+04  0.21950200077E+04  0.90145305337E+03 0.  0.
        -24    2    4    4    0    0 -0.94960959318E+02  0.21303727409E+03  0.19370891362E+04  0.19527181626E+04  0.79946464349E+02 0.  0.
         24    2    4    4    0    0  0.75106907150E+02 -0.20517482931E+03  0.64170273630E+02  0.24230184508E+03  0.82792523992E+02 0.  0.
         13    1    3    3    0    0  0.15486731548E+02  0.17018018723E+02  0.11792999179E+02  0.25855882212E+02  0.00000000000E+00 0. -1.
        -13    1    3    3    0    0  0.43673206201E+01 -0.24880463503E+02 -0.10051828550E+03  0.10364379708E+03  0.00000000000E+00 0.  1.
          2    1    6    6  502    0  0.44942946867E+02 -0.26066998369E+02  0.16654167481E+02  0.54559308753E+02  0.00000000000E+00 0. -1.
          3    1    5    5  503    0 -0.46647196396E+02  0.53089415669E+02  0.84137502603E+03  0.84433783607E+03  0.00000000000E+00 0. -1.
         -4    1    5    5    0  503 -0.48313762923E+02  0.15994785842E+03  0.10957141102E+04  0.11083803266E+04  0.00000000000E+00 0.  1.
         -1    1    6    6    0  502  0.30163960283E+02 -0.17910783094E+03  0.47516106150E+02  0.18774253633E+03  0.00000000000E+00 0.  1.
<mgrwt>
<rscale>  0 0.13212135E+04</rscale>
<asrwt>0</asrwt>
<pdfrwt beam="1">  1        2 0.32592720E+00 0.13212135E+04</pdfrwt>
<pdfrwt beam="2">  1       -2 0.31691199E-01 0.13212135E+04</pdfrwt>
<totfact> 0.52027100E+01</totfact>
</mgrwt>
</event>
<event>
12    1  0.1467288E-007  0.1468387E+04  0.7818608E-02  0.8905752E-01
          2   -1    0    0  501    0  0.00000000000E+00  0.00000000000E+00  0.23128496483E+04  0.23128496483E+04  0.00000000000E+00 0. -1.
         -2   -1    0    0    0  501 -0.00000000000E+00 -0.00000000000E+00 -0.23306314756E+03  0.23306314756E+03  0.00000000000E+00 0.  1.
         23    2    1    2    0    0 -0.23647511030E+03  0.13014468997E+03  0.13273025400E+04  0.13574672861E+04  0.90151439009E+02 0.  0.
        254    2    1    2    0    0  0.23647511030E+03 -0.13014468997E+03  0.75248396073E+03  0.11884455098E+04  0.87938188544E+03 0.  0.
        -24    2    4    4    0    0  0.60416480120E+02 -0.61756377912E+02 -0.18924446793E+03  0.22495568561E+03  0.85601346741E+02 0.  0.
         24    2    4    4    0    0  0.17605863018E+03 -0.68388312061E+02  0.94172842865E+03  0.96348982417E+03  0.76069740781E+02 0.  0.
         11    1    3    3    0    0 -0.92452542262E+02  0.43620658632E+02  0.72492447123E+03  0.73209679922E+03  0.00000000000E+00 0. -1.
        -11    1    3    3    0    0 -0.14402256803E+03  0.86524031342E+02  0.60237806879E+03  0.62537048688E+03  0.00000000000E+00 0.  1.
          4    1    6    6  502    0  0.52416792490E+02  0.12748093521E+02  0.31202515269E+03  0.31665395929E+03  0.00000000000E+00 0. -1.
          3    1    5    5  503    0 -0.34087742347E+01 -0.33636021376E+02 -0.14462403863E+02  0.36771766360E+02  0.00000000000E+00 0. -1.
         -4    1    5    5    0  503  0.63825254354E+02 -0.28120356536E+02 -0.17478206406E+03  0.18818391925E+03  0.00000000000E+00 0.  1.
         -3    1    6    6    0  502  0.12364183769E+03 -0.81136405583E+02  0.62970327597E+03  0.64683586488E+03  0.00000000000E+00 0.  1.
<mgrwt>
<rscale>  0 0.14683869E+04</rscale>
<asrwt>0</asrwt>
<pdfrwt beam="1">  1        2 0.35582301E+00 0.14683869E+04</pdfrwt>
<pdfrwt beam="2">  1       -2 0.35855870E-01 0.14683869E+04</pdfrwt>
<totfact> 0.31633774E+01</totfact>
</mgrwt>
</event>
<event>
12    1  0.1467288E-007  0.1228058E+04  0.7818608E-02  0.9088646E-01
         -2   -1    0    0    0  501 -0.00000000000E+00  0.00000000000E+00  0.16683322604E+03  0.16683322604E+03  0.00000000000E+00 0.  1.
          2   -1    0    0  501    0  0.00000000000E+00 -0.00000000000E+00 -0.22599313123E+04  0.22599313123E+04  0.00000000000E+00 0. -1.
         23    2    1    2    0    0 -0.25348809075E+03 -0.88635987394E+02 -0.65881460342E+03  0.71755779351E+03  0.93487726123E+02 0.  0.
        254    2    1    2    0    0  0.25348809075E+03  0.88635987394E+02 -0.14342834828E+04  0.17092067448E+04  0.89000339155E+03 0.  0.
        -24    2    4    4    0    0 -0.10097343157E+03 -0.28631137112E+03 -0.21410797567E+03  0.38201960755E+03  0.89033253293E+02 0.  0.
         24    2    4    4    0    0  0.35446152233E+03  0.37494735852E+03 -0.12201755071E+04  0.13271871372E+04  0.79805617356E+02 0.  0.
         11    1    3    3    0    0 -0.25578528157E+03 -0.89518913928E+02 -0.59625954002E+03  0.65495433832E+03  0.00000000000E+00 0. -1.
        -11    1    3    3    0    0  0.22971908201E+01  0.88292653403E+00 -0.62555063399E+02  0.62603455191E+02  0.00000000000E+00 0.  1.
          2    1    6    6  502    0  0.34949994333E+03  0.34793450432E+03 -0.11301235998E+04  0.12330401374E+04  0.00000000000E+00 0. -1.
          1    1    5    5  503    0 -0.94274887550E+02 -0.28285245780E+03 -0.18260092604E+03  0.34962317642E+03  0.00000000000E+00 0. -1.
         -2    1    5    5    0  503 -0.66985440232E+01 -0.34589133288E+01 -0.31507049631E+02  0.32396431129E+02  0.00000000000E+00 0.  1.
         -1    1    6    6    0  502  0.49615789954E+01  0.27012854195E+02 -0.90051907325E+02  0.94146999797E+02  0.00000000000E+00 0.  1.
<mgrwt>
<rscale>  0 0.12280580E+04</rscale>
<asrwt>0</asrwt>
<pdfrwt beam="1">  1        2 0.34768172E+00 0.12280580E+04</pdfrwt>
<pdfrwt beam="2">  1       -2 0.25666652E-01 0.12280580E+04</pdfrwt>
<totfact> 0.64551908E+01</totfact>
</mgrwt>
</event>
<event>
12    1  0.1467288E-007  0.1150667E+04  0.7818608E-02  0.9157169E-01
         -2   -1    0    0    0  501 -0.00000000000E+00  0.00000000000E+00  0.18374761125E+04  0.18374761125E+04  0.00000000000E+00 0.  1.
          2   -1    0    0  501    0  0.00000000000E+00 -0.00000000000E+00 -0.18014304606E+03  0.18014304606E+03  0.00000000000E+00 0. -1.
         23    2    1    2    0    0 -0.45872091599E+02  0.15180395058E+03  0.92164672594E+02  0.20752959510E+03  0.97085105800E+02 0.  0.
        254    2    1    2    0    0  0.45872091599E+02 -0.15180395058E+03  0.15651683938E+04  0.18100895634E+04  0.89527841394E+03 0.  0.
        -24    2    4    4    0    0  0.58456218580E+02 -0.44457564517E+02  0.16485820316E+04  0.16521666012E+04  0.80238137030E+02 0.  0.
         24    2    4    4    0    0 -0.12584126981E+02 -0.10734638606E+03 -0.83413637794E+02  0.15792296224E+03  0.79373926323E+02 0.  0.
         13    1    3    3    0    0 -0.11517921685E+02  0.20922359959E+01  0.45519273957E+02  0.47000470987E+02  0.00000000000E+00 0.  1.
        -13    1    3    3    0    0 -0.34354169914E+02  0.14971171458E+03  0.46645398637E+02  0.16052912411E+03  0.00000000000E+00 0. -1.
          4    1    6    6  502    0  0.20512014105E+02 -0.66033659506E+02 -0.13867585704E+02  0.70523023500E+02  0.00000000000E+00 0. -1.
          3    1    5    5  503    0  0.10953927473E+02  0.22351900079E+02  0.53038018029E+03  0.53096396451E+03  0.00000000000E+00 0. -1.
         -4    1    5    5    0  503  0.47502291107E+02 -0.66809464596E+02  0.11182018513E+04  0.11212026367E+04  0.00000000000E+00 0.  1.
         -3    1    6    6    0  502 -0.33096141086E+02 -0.41312726557E+02 -0.69546052090E+02  0.87399938740E+02  0.00000000000E+00 0.  1.
<mgrwt>
<rscale>  0 0.11506668E+04</rscale>
<asrwt>0</asrwt>
<pdfrwt beam="1">  1        2 0.27714316E-01 0.11506668E+04</pdfrwt>
<pdfrwt beam="2">  1       -2 0.28268862E+00 0.11506668E+04</pdfrwt>
<totfact> 0.78812614E+00</totfact>
</mgrwt>
</event>
<event>
12    1  0.1467288E-007  0.3908016E+04  0.7818608E-02  0.8023364E-01
         -2   -1    0    0    0  501 -0.00000000000E+00  0.00000000000E+00  0.14457212673E+04  0.14457212673E+04  0.00000000000E+00 0.  1.
          2   -1    0    0  501    0  0.00000000000E+00 -0.00000000000E+00 -0.26409983978E+04  0.26409983978E+04  0.00000000000E+00 0. -1.
         23    2    1    2    0    0  0.44280311239E+03  0.14533345653E+04 -0.16650067526E+04  0.22559181810E+04  0.93077379024E+02 0.  0.
        254    2    1    2    0    0 -0.44280311239E+03 -0.14533345653E+04  0.46972962201E+03  0.18308014841E+04  0.90715610635E+03 0.  0.
        -24    2    4    4    0    0 -0.45505531226E+03 -0.15308986268E+04  0.29875187847E+03  0.16267022286E+04  0.78622598125E+02 0.  0.
         24    2    4    4    0    0  0.12252199874E+02  0.77564061498E+02  0.17097774354E+03  0.20409925547E+03  0.79100045893E+02 0.  0.
         11    1    3    3    0    0  0.29710701670E+03  0.99662329739E+03 -0.12019885663E+04  0.15894360918E+04  0.00000000000E+00 0. -1.
        -11    1    3    3    0    0  0.14569609568E+03  0.45671126790E+03 -0.46301818622E+03  0.66648208925E+03  0.00000000000E+00 0.  1.
          2    1    6    6  502    0  0.88528989576E+01  0.25294002147E+01  0.10107182664E+03  0.10149032380E+03  0.00000000000E+00 0. -1.
          1    1    5    5  503    0 -0.78751111680E+02 -0.26633362017E+03  0.21848140546E+02  0.27859051683E+03  0.00000000000E+00 0. -1.
         -2    1    5    5    0  503 -0.37630420058E+03 -0.12645650066E+04  0.27690373793E+03  0.13481117118E+04  0.00000000000E+00 0.  1.
         -1    1    6    6    0  502  0.33993009166E+01  0.75034661284E+02  0.69905916903E+02  0.10260893167E+03  0.00000000000E+00 0.  1.
<mgrwt>
<rscale>  0 0.39080161E+04</rscale>
<asrwt>0</asrwt>
<pdfrwt beam="1">  1        2 0.40630744E+00 0.39080161E+04</pdfrwt>
<pdfrwt beam="2">  1       -2 0.22241866E+00 0.39080161E+04</pdfrwt>
<totfact> 0.21825248E-01</totfact>
</mgrwt>
</event>
<event>
12    1  0.1467288E-007  0.1281665E+04  0.7818608E-02  0.9044233E-01
          2   -1    0    0  501    0  0.00000000000E+00  0.00000000000E+00  0.39237364289E+03  0.39237364289E+03  0.00000000000E+00 0. -1.
         -2   -1    0    0    0  501 -0.00000000000E+00 -0.00000000000E+00 -0.10466207944E+04  0.10466207944E+04  0.00000000000E+00 0.  1.
         23    2    1    2    0    0  0.29324125974E+03  0.43657766752E+02 -0.27489940618E+03  0.41718853490E+03  0.10285987131E+03 0.  0.
        254    2    1    2    0    0 -0.29324125974E+03 -0.43657766752E+02 -0.37934774533E+03  0.10218059024E+04  0.90126919023E+03 0.  0.
        -24    2    4    4    0    0 -0.24107107103E+03  0.34265337653E+03  0.58550521119E+02  0.43002622140E+03  0.77251471374E+02 0.  0.
         24    2    4    4    0    0 -0.52170188704E+02 -0.38631114328E+03 -0.43789826645E+03  0.59177968099E+03  0.80562218567E+02 0.  0.
         13    1    3    3    0    0  0.19839949904E+02 -0.24306551022E+02 -0.36513026972E+02  0.48141802764E+02  0.00000000000E+00 0. -1.
        -13    1    3    3    0    0  0.27340130983E+03  0.67964317774E+02 -0.23838637920E+03  0.36904673213E+03  0.00000000000E+00 0.  1.
          4    1    6    6  502    0 -0.69170490330E+02 -0.31814966117E+03 -0.33464782960E+03  0.46689713373E+03  0.00000000000E+00 0. -1.
          1    1    5    5  503    0 -0.16379196155E+03  0.16733719188E+03  0.39836741537E+02  0.23752159571E+03  0.00000000000E+00 0. -1.
         -2    1    5    5    0  503 -0.77279109482E+02  0.17531618465E+03  0.18713779582E+02  0.19250462568E+03  0.00000000000E+00 0.  1.
         -3    1    6    6    0  502  0.17000301626E+02 -0.68161482115E+02 -0.10325043685E+03  0.12488254726E+03  0.00000000000E+00 0.  1.
<mgrwt>
<rscale>  0 0.12816652E+04</rscale>
<asrwt>0</asrwt>
<pdfrwt beam="1">  1        2 0.60365177E-01 0.12816652E+04</pdfrwt>
<pdfrwt beam="2">  1       -2 0.16101858E+00 0.12816652E+04</pdfrwt>
<totfact> 0.19721928E+01</totfact>
</mgrwt>
</event>
<event>
12    1  0.1467288E-007  0.1350386E+04  0.7818608E-02  0.8990536E-01
          1   -1    0    0  501    0  0.00000000000E+00  0.00000000000E+00  0.10932343028E+04  0.10932343028E+04  0.00000000000E+00 0. -1.
         -1   -1    0    0    0  501 -0.00000000000E+00 -0.00000000000E+00 -0.41700603057E+03  0.41700603057E+03  0.00000000000E+00 0.  1.
         23    2    1    2    0    0 -0.25057978235E+03 -0.17248179154E+03  0.43916597493E+03  0.54198679360E+03  0.91338574364E+02 0.  0.
        254    2    1    2    0    0  0.25057978235E+03  0.17248179154E+03  0.23706229728E+03  0.96825353975E+03  0.88813072727E+03 0.  0.
        -24    2    4    4    0    0 -0.18895371793E+03 -0.87504462432E+01 -0.22261819399E+03  0.30306134564E+03  0.80667472358E+02 0.  0.
         24    2    4    4    0    0  0.43953350028E+03  0.18123223778E+03  0.45968049126E+03  0.66519219412E+03  0.71691555906E+02 0.  0.
         13    1    3    3    0    0 -0.19760615251E+02  0.42078869385E+01  0.65652257723E+02  0.68690662915E+02  0.00000000000E+00 0. -1.
        -13    1    3    3    0    0 -0.23081916710E+03 -0.17668967848E+03  0.37351371720E+03  0.47329613068E+03  0.00000000000E+00 0.  1.
          4    1    6    6  502    0  0.21716547704E+03  0.11789581180E+03  0.27118588466E+03  0.36688152161E+03  0.00000000000E+00 0. -1.
          3    1    5    5  503    0 -0.93170958502E+02 -0.49071931468E+01 -0.16946564711E+03  0.19345157948E+03  0.00000000000E+00 0. -1.
         -4    1    5    5    0  503 -0.95782759427E+02 -0.38432530963E+01 -0.53152546880E+02  0.10960976616E+03  0.00000000000E+00 0.  1.
         -3    1    6    6    0  502  0.22236802324E+03  0.63336425982E+02  0.18849460660E+03  0.29831067251E+03  0.00000000000E+00 0.  1.
<mgrwt>
<rscale>  0 0.13503856E+04</rscale>
<asrwt>0</asrwt>
<pdfrwt beam="1">  1        1 0.16818989E+00 0.13503856E+04</pdfrwt>
<pdfrwt beam="2">  1       -1 0.64154774E-01 0.13503856E+04</pdfrwt>
<totfact> 0.30939722E+01</totfact>
</mgrwt>
</event>
<event>
12    1  0.1467288E-007  0.1467859E+04  0.7818608E-02  0.8906112E-01
          2   -1    0    0  501    0  0.00000000000E+00  0.00000000000E+00  0.22091643572E+04  0.22091643572E+04  0.00000000000E+00 0. -1.
         -2   -1    0    0    0  501 -0.00000000000E+00 -0.00000000000E+00 -0.24382621057E+03  0.24382621057E+03  0.00000000000E+00 0.  1.
         23    2    1    2    0    0 -0.46099042553E+02 -0.18564761606E+03  0.12207046712E+04  0.12390085763E+04  0.91827004577E+02 0.  0.
        254    2    1    2    0    0  0.46099042553E+02  0.18564761606E+03  0.74463347536E+03  0.12139819914E+04  0.93951216265E+03 0.  0.
        -24    2    4    4    0    0  0.77313750887E+02  0.33779582712E+03 -0.84847815213E+02  0.36607639169E+03  0.82032529588E+02 0.  0.
         24    2    4    4    0    0 -0.31214708333E+02 -0.15214821106E+03  0.82948129057E+03  0.84790559972E+03  0.82348396992E+02 0.  0.
         11    1    3    3    0    0  0.24816291687E+02 -0.70009238494E+02  0.34943764542E+03  0.35724474781E+03  0.00000000000E+00 0. -1.
        -11    1    3    3    0    0 -0.70915334241E+02 -0.11563837756E+03  0.87126702581E+03  0.88176382851E+03  0.00000000000E+00 0.  1.
          2    1    6    6  502    0 -0.32759637899E+01 -0.66998250983E+02  0.17673741019E+03  0.18903864614E+03  0.00000000000E+00 0. -1.
          3    1    5    5  503    0  0.21564535761E+02  0.71879721694E+02  0.15154885456E+02  0.76559742337E+02  0.00000000000E+00 0. -1.
         -4    1    5    5    0  503  0.55749215126E+02  0.26591610542E+03 -0.10000270067E+03  0.28951664935E+03  0.00000000000E+00 0.  1.
         -1    1    6    6    0  502 -0.27938744544E+02 -0.85149960075E+02  0.65274388038E+03  0.65886695359E+03  0.00000000000E+00 0.  1.
<mgrwt>
<rscale>  0 0.14678585E+04</rscale>
<asrwt>0</asrwt>
<pdfrwt beam="1">  1        2 0.33987143E+00 0.14678585E+04</pdfrwt>
<pdfrwt beam="2">  1       -2 0.37511726E-01 0.14678585E+04</pdfrwt>
<totfact> 0.33169275E+01</totfact>
</mgrwt>
</event>
<event>
12    1  0.1467288E-007  0.1467713E+04  0.7818608E-02  0.8906212E-01
          2   -1    0    0  501    0  0.00000000000E+00  0.00000000000E+00  0.25516135932E+04  0.25516135932E+04  0.00000000000E+00 0. -1.
         -2   -1    0    0    0  501 -0.00000000000E+00 -0.00000000000E+00 -0.21106073139E+03  0.21106073139E+03  0.00000000000E+00 0.  1.
         23    2    1    2    0    0  0.22992088938E+03  0.22388329331E+03  0.12790116078E+04  0.13226479223E+04  0.10266201336E+03 0.  0.
        254    2    1    2    0    0 -0.22992088938E+03 -0.22388329331E+03  0.10615412540E+04  0.14400264023E+04  0.91859613595E+03 0.  0.
        -24    2    4    4    0    0 -0.62669660387E+02 -0.14907950423E+03 -0.13601027739E+03  0.22573549232E+03  0.79407380162E+02 0.  0.
         24    2    4    4    0    0 -0.16725122899E+03 -0.74803789087E+02  0.11975515314E+04  0.12142909100E+04  0.82487352293E+02 0.  0.
         11    1    3    3    0    0  0.56204058109E+02  0.82891882675E+02  0.24443384331E+03  0.26415500017E+03  0.00000000000E+00 0.  1.
        -11    1    3    3    0    0  0.17371683127E+03  0.14099141064E+03  0.10345777645E+04  0.10584929221E+04  0.00000000000E+00 0. -1.
          4    1    6    6  502    0 -0.81627462962E+02 -0.53549736536E+00  0.36218297976E+03  0.37126788212E+03  0.00000000000E+00 0. -1.
          1    1    5    5  503    0 -0.50767597255E+02 -0.14788631031E+03 -0.14299393570E+03  0.21188434429E+03  0.00000000000E+00 0. -1.
         -2    1    5    5    0  503 -0.11902063132E+02 -0.11931939214E+01  0.69836583086E+01  0.13851148035E+02  0.00000000000E+00 0.  1.
         -3    1    6    6    0  502 -0.85623766030E+02 -0.74268291722E+02  0.83536855160E+03  0.84302302784E+03  0.00000000000E+00 0.  1.
<mgrwt>
<rscale>  0 0.14677131E+04</rscale>
<asrwt>0</asrwt>
<pdfrwt beam="1">  1        2 0.39255592E+00 0.14677131E+04</pdfrwt>
<pdfrwt beam="2">  1       -2 0.32470883E-01 0.14677131E+04</pdfrwt>
<totfact> 0.27898164E+01</totfact>
</mgrwt>
</event>
<event>
12    1  0.1467288E-007  0.1845649E+04  0.7818608E-02  0.8682394E-01
          1   -1    0    0  501    0  0.00000000000E+00  0.00000000000E+00  0.21182422524E+04  0.21182422524E+04  0.00000000000E+00 0. -1.
         -1   -1    0    0    0  501 -0.00000000000E+00 -0.00000000000E+00 -0.40203381567E+03  0.40203381567E+03  0.00000000000E+00 0.  1.
         23    2    1    2    0    0 -0.72211923437E+02  0.32617786756E+03 -0.18584590983E+03  0.39306776136E+03  0.91416626782E+02 0.  0.
        254    2    1    2    0    0  0.72211923437E+02 -0.32617786756E+03  0.19020543466E+04  0.21272083067E+04  0.89196293625E+03 0.  0.
        -24    2    4    4    0    0 -0.39357268718E+02  0.21782676369E+03  0.13140581019E+03  0.26980379161E+03  0.80802880088E+02 0.  0.
         24    2    4    4    0    0  0.11156919216E+03 -0.54400463125E+03  0.17706485364E+04  0.18574045151E+04  0.79790788151E+02 0.  0.
         11    1    3    3    0    0  0.26387261273E+00  0.19928021178E+03 -0.12144872326E+03  0.23337194522E+03  0.00000000000E+00 0.  1.
        -11    1    3    3    0    0 -0.72475796050E+02  0.12689765578E+03 -0.64397186575E+02  0.15969581614E+03  0.00000000000E+00 0. -1.
          4    1    6    6  502    0  0.10749211581E+03 -0.41730913351E+03  0.12774515250E+04  0.13481779803E+04  0.00000000000E+00 0. -1.
          3    1    5    5  503    0 -0.46713264250E+02  0.14690661859E+03  0.12453426802E+03  0.19817282244E+03  0.00000000000E+00 0. -1.
         -4    1    5    5    0  503  0.73559955311E+01  0.70920145102E+02  0.68715421694E+01  0.71630969164E+02  0.00000000000E+00 0.  1.
         -3    1    6    6    0  502  0.40770763475E+01 -0.12669549774E+03  0.49319701142E+03  0.50922653483E+03  0.00000000000E+00 0.  1.
<mgrwt>
<rscale>  0 0.18456490E+04</rscale>
<asrwt>0</asrwt>
<pdfrwt beam="1">  1        1 0.32588342E+00 0.18456490E+04</pdfrwt>
<pdfrwt beam="2">  1       -1 0.61851357E-01 0.18456490E+04</pdfrwt>
<totfact> 0.61730836E+00</totfact>
</mgrwt>
</event>
<event>
12    1  0.1467288E-007  0.1360410E+04  0.7818608E-02  0.8982985E-01
         -2   -1    0    0    0  501 -0.00000000000E+00  0.00000000000E+00  0.11027007170E+04  0.11027007170E+04  0.00000000000E+00 0. -1.
          2   -1    0    0  501    0  0.00000000000E+00 -0.00000000000E+00 -0.41958671734E+03  0.41958671734E+03  0.00000000000E+00 0.  1.
         23    2    1    2    0    0 -0.75976877995E+02 -0.71756991795E+02  0.59114192396E+03  0.61114652896E+03  0.11458513746E+03 0.  0.
        254    2    1    2    0    0  0.75976877995E+02  0.71756991795E+02  0.91972075675E+02  0.91114090536E+03  0.90044285485E+03 0.  0.
        -24    2    4    4    0    0 -0.22622534612E+03  0.21192138911E+03  0.35613481171E+03  0.47832907718E+03  0.76668895727E+02 0.  0.
         24    2    4    4    0    0  0.30220222412E+03 -0.14016439731E+03 -0.26416273604E+03  0.43281182818E+03  0.81067163306E+02 0.  0.
         11    1    3    3    0    0 -0.84863157227E+02 -0.92721019761E+02  0.54943306410E+03  0.56362721269E+03  0.00000000000E+00 0. -1.
        -11    1    3    3    0    0  0.88862792323E+01  0.20964027966E+02  0.41708859862E+02  0.47519316263E+02  0.00000000000E+00 0.  1.
          2    1    6    6  502    0  0.88319781762E+02 -0.45772498328E+01 -0.53141147995E+02  0.10317614393E+03  0.00000000000E+00 0. -1.
          1    1    5    5  503    0 -0.75113081877E+02  0.40226216339E+02  0.60288471089E+02  0.10437827023E+03  0.00000000000E+00 0. -1.
         -2    1    5    5    0  503 -0.15111226425E+03  0.17169517277E+03  0.29584634062E+03  0.37395080695E+03  0.00000000000E+00 0.  1.
         -1    1    6    6    0  502  0.21388244236E+03 -0.13558714748E+03 -0.21102158804E+03  0.32963568425E+03  0.00000000000E+00 0.  1.
<mgrwt>
<rscale>  0 0.13604096E+04</rscale>
<asrwt>0</asrwt>
<pdfrwt beam="1">  1        2 0.64551803E-01 0.13604096E+04</pdfrwt>
<pdfrwt beam="2">  1       -2 0.16964626E+00 0.13604096E+04</pdfrwt>
<totfact> 0.15743008E+01</totfact>
</mgrwt>
</event>
<event>
12    1  0.1467288E-007  0.2265629E+04  0.7818608E-02  0.8491598E-01
         -2   -1    0    0    0  501 -0.00000000000E+00  0.00000000000E+00  0.12968776970E+04  0.12968776970E+04  0.00000000000E+00 0. -1.
          2   -1    0    0  501    0  0.00000000000E+00 -0.00000000000E+00 -0.98950642042E+03  0.98950642042E+03  0.00000000000E+00 0.  1.
         23    2    1    2    0    0 -0.85330616865E+03 -0.32430208654E+03 -0.13110144923E+03  0.92636318837E+03  0.87509462333E+02 0.  0.
        254    2    1    2    0    0  0.85330616865E+03  0.32430208654E+03  0.43847272585E+03  0.13600209291E+04  0.90779696817E+03 0.  0.
        -24    2    4    4    0    0  0.21121974758E+03 -0.28779109428E+03  0.13933946288E+01  0.36779517937E+03  0.88509076972E+02 0.  0.
         24    2    4    4    0    0  0.64208642107E+03  0.61209318082E+03  0.43707933122E+03  0.99222574970E+03  0.80873744008E+02 0.  0.
         11    1    3    3    0    0 -0.40027989487E+02 -0.89547268791E+01  0.11287044683E+02  0.42542031610E+02  0.00000000000E+00 0. -1.
        -11    1    3    3    0    0 -0.81327817916E+03 -0.31534735966E+03 -0.14238849392E+03  0.88382115676E+03  0.00000000000E+00 0.  1.
          4    1    6    6  502    0  0.88908986857E+02  0.80494519523E+02  0.29635781586E+02  0.12354130956E+03  0.00000000000E+00 0. -1.
          1    1    5    5  503    0 -0.26308017632E+01 -0.35481504848E+02 -0.96554575693E+01  0.36865785833E+02  0.00000000000E+00 0. -1.
         -2    1    5    5    0  503  0.21385054934E+03 -0.25230958943E+03  0.11048852198E+02  0.33092939354E+03  0.00000000000E+00 0.  1.
         -3    1    6    6    0  502  0.55317743421E+03  0.53159866129E+03  0.40744354964E+03  0.86868444014E+03  0.00000000000E+00 0.  1.
<mgrwt>
<rscale>  0 0.22656291E+04</rscale>
<asrwt>0</asrwt>
<pdfrwt beam="1">  1        2 0.15223176E+00 0.22656291E+04</pdfrwt>
<pdfrwt beam="2">  1       -2 0.19951965E+00 0.22656291E+04</pdfrwt>
<totfact> 0.31154204E+00</totfact>
</mgrwt>
</event>
<event>
12    1  0.1467288E-007  0.2216544E+04  0.7818608E-02  0.8511574E-01
          1   -1    0    0  501    0  0.00000000000E+00  0.00000000000E+00  0.11946826739E+04  0.11946826739E+04  0.00000000000E+00 0. -1.
         -1   -1    0    0    0  501 -0.00000000000E+00 -0.00000000000E+00 -0.10281114027E+04  0.10281114027E+04  0.00000000000E+00 0.  1.
         23    2    1    2    0    0 -0.41518772015E+03  0.42809081092E+03 -0.63658665866E+03  0.87681969873E+03  0.89037209820E+02 0.  0.
        254    2    1    2    0    0  0.41518772015E+03 -0.42809081092E+03  0.80315792987E+03  0.13459743778E+04  0.90052305911E+03 0.  0.
        -24    2    4    4    0    0 -0.62502664125E+02  0.21177180731E+03  0.35739929181E+03  0.42766350601E+03  0.80049604615E+02 0.  0.
         24    2    4    4    0    0  0.47769038428E+03 -0.63986261823E+03  0.44575863807E+03  0.91831087178E+03  0.83557287909E+02 0.  0.
         13    1    3    3    0    0 -0.10114196694E+03  0.15539396626E+03 -0.22679224877E+03  0.29293635201E+03  0.00000000000E+00 0. -1.
        -13    1    3    3    0    0 -0.31404575321E+03  0.27269684466E+03 -0.40979440989E+03  0.58388334672E+03  0.00000000000E+00 0.  1.
          4    1    6    6  502    0  0.22599909809E+03 -0.37071649993E+03  0.23092923247E+03  0.49176684116E+03  0.00000000000E+00 0. -1.
          3    1    5    5  503    0 -0.12387024602E+02  0.25495447148E+01  0.55668305761E+02  0.57086765743E+02  0.00000000000E+00 0. -1.
         -4    1    5    5    0  503 -0.50115639523E+02  0.20922226259E+03  0.30173098605E+03  0.37057674027E+03  0.00000000000E+00 0.  1.
         -3    1    6    6    0  502  0.25169128619E+03 -0.26914611830E+03  0.21482940560E+03  0.42654403061E+03  0.00000000000E+00 0.  1.
<mgrwt>
<rscale>  0 0.22165440E+04</rscale>
<asrwt>0</asrwt>
<pdfrwt beam="1">  1        1 0.18379734E+00 0.22165440E+04</pdfrwt>
<pdfrwt beam="2">  1       -1 0.15817098E+00 0.22165440E+04</pdfrwt>
<totfact> 0.29622396E+00</totfact>
</mgrwt>
</event>
<event>
12    1  0.1467288E-007  0.2023772E+04  0.7818608E-02  0.8595586E-01
          2   -1    0    0  501    0  0.00000000000E+00  0.00000000000E+00  0.29060003483E+04  0.29060003483E+04  0.00000000000E+00 0. -1.
         -2   -1    0    0    0  501 -0.00000000000E+00 -0.00000000000E+00 -0.35234461855E+03  0.35234461855E+03  0.00000000000E+00 0.  1.
         23    2    1    2    0    0  0.35825383593E+03 -0.61427448283E+03  0.39553032284E+03  0.81797597393E+03  0.83435642388E+02 0.  0.
        254    2    1    2    0    0 -0.35825383593E+03  0.61427448283E+03  0.21581254069E+04  0.24403689929E+04  0.89006550232E+03 0.  0.
        -24    2    4    4    0    0 -0.61684632766E+03  0.37759808889E+03  0.17581894030E+04  0.19028798627E+04  0.81498996666E+02 0.  0.
         24    2    4    4    0    0  0.25859249173E+03  0.23667639395E+03  0.39993600385E+03  0.53748913013E+03  0.77845780945E+02 0.  0.
         13    1    3    3    0    0  0.32156297248E+03 -0.52090245345E+03  0.36671295273E+03  0.71359687568E+03  0.00000000000E+00 0.  1.
        -13    1    3    3    0    0  0.36690863457E+02 -0.93372029379E+02  0.28817370118E+02  0.10437909825E+03  0.00000000000E+00 0. -1.
          2    1    6    6  502    0  0.15449692890E+03  0.10613101082E+03  0.16801988382E+03  0.25172161976E+03  0.00000000000E+00 0. -1.
          1    1    5    5  503    0 -0.12280635596E+03  0.95950677522E+02  0.45713217108E+03  0.48296765462E+03  0.00000000000E+00 0. -1.
         -2    1    5    5    0  503 -0.49403997170E+03  0.28164741137E+03  0.13010572320E+04  0.14199122081E+04  0.00000000000E+00 0.  1.
         -1    1    6    6    0  502  0.10409556283E+03  0.13054538313E+03  0.23191612003E+03  0.28576751037E+03  0.00000000000E+00 0.  1.
<mgrwt>
<rscale>  0 0.20237723E+04</rscale>
<asrwt>0</asrwt>
<pdfrwt beam="1">  1        2 0.44707696E+00 0.20237723E+04</pdfrwt>
<pdfrwt beam="2">  1       -2 0.54206866E-01 0.20237723E+04</pdfrwt>
<totfact> 0.59295980E+00</totfact>
</mgrwt>
</event>
<event>
12    1  0.1467288E-007  0.2075350E+04  0.7818608E-02  0.8572180E-01
          2   -1    0    0  501    0  0.00000000000E+00  0.00000000000E+00  0.20513484232E+04  0.20513484232E+04  0.00000000000E+00 0. -1.
         -2   -1    0    0    0  501 -0.00000000000E+00 -0.00000000000E+00 -0.52490817176E+03  0.52490817176E+03  0.00000000000E+00 0.  1.
         23    2    1    2    0    0  0.74128226351E+03 -0.20846517185E+03  0.20600680429E+03  0.80236199833E+03  0.91590670296E+02 0.  0.
        254    2    1    2    0    0 -0.74128226351E+03  0.20846517185E+03  0.13204334471E+04  0.17738945966E+04  0.90011134282E+03 0.  0.
        -24    2    4    4    0    0  0.11968009535E+03  0.18919157649E+03  0.59999460182E+02  0.24533393252E+03  0.80448899208E+02 0.  0.
         24    2    4    4    0    0 -0.86096235886E+03  0.19273595362E+02  0.12604339869E+04  0.15285606641E+04  0.78588889020E+02 0.  0.
         13    1    3    3    0    0  0.59165429290E+03 -0.15096825535E+03  0.12710346439E+03  0.62369985337E+03  0.00000000000E+00 0.  1.
        -13    1    3    3    0    0  0.14962797061E+03 -0.57496916501E+02  0.78903339903E+02  0.17866214497E+03  0.00000000000E+00 0. -1.
          2    1    6    6  502    0 -0.27505104312E+03  0.38643809635E+02  0.43578100653E+03  0.51677026424E+03  0.00000000000E+00 0. -1.
          1    1    5    5  503    0  0.17954543038E+02  0.18277443501E+01  0.22532482374E+02  0.28868997680E+02  0.00000000000E+00 0. -1.
         -2    1    5    5    0  503  0.10172555231E+03  0.18736383214E+03  0.37466977808E+02  0.21646493484E+03  0.00000000000E+00 0.  1.
         -1    1    6    6    0  502 -0.58591131575E+03 -0.19370214274E+02  0.82465298039E+03  0.10117903998E+04  0.00000000000E+00 0.  1.
<mgrwt>
<rscale>  0 0.20753501E+04</rscale>
<asrwt>0</asrwt>
<pdfrwt beam="1">  1        2 0.31559206E+00 0.20753501E+04</pdfrwt>
<pdfrwt beam="2">  1       -2 0.80755104E-01 0.20753501E+04</pdfrwt>
<totfact> 0.78163308E+00</totfact>
</mgrwt>
</event>
<event>
12    1  0.1467288E-007  0.1190429E+04  0.7818608E-02  0.9121275E-01
         -1   -1    0    0    0  501 -0.00000000000E+00  0.00000000000E+00  0.32143207869E+03  0.32143207869E+03  0.00000000000E+00 0.  1.
          1   -1    0    0  501    0  0.00000000000E+00 -0.00000000000E+00 -0.11021942525E+04  0.11021942525E+04  0.00000000000E+00 0. -1.
         23    2    1    2    0    0 -0.19806188648E+03 -0.12728733854E+03 -0.15744880730E+03  0.30971747655E+03  0.12531644318E+03 0.  0.
        254    2    1    2    0    0  0.19806188648E+03  0.12728733854E+03 -0.62331336646E+03  0.11139088546E+04  0.89266052120E+03 0.  0.
        -24    2    4    4    0    0  0.51561533336E+03 -0.75255848321E+02 -0.27405889107E+03  0.59436820821E+03  0.81502616276E+02 0.  0.
         24    2    4    4    0    0 -0.31755344688E+03  0.20254318687E+03 -0.34925447540E+03  0.51954064639E+03  0.77973460166E+02 0.  0.
         13    1    3    3    0    0 -0.13509544685E+03 -0.22853408025E+02 -0.12003996450E+03  0.18216105812E+03  0.00000000000E+00 0. -1.
        -13    1    3    3    0    0 -0.62966439627E+02 -0.10443393052E+03 -0.37408842799E+02  0.12755641843E+03  0.00000000000E+00 0.  1.
          4    1    6    6  502    0 -0.47014285752E+02  0.16475270813E+02 -0.83016387477E+02  0.96816828097E+02  0.00000000000E+00 0. -1.
          3    1    5    5  503    0  0.24413385915E+03  0.20914974030E+01 -0.10902222574E+03  0.26737905911E+03  0.00000000000E+00 0. -1.
         -4    1    5    5    0  503  0.27148147421E+03 -0.77347345724E+02 -0.16503666533E+03  0.32698914910E+03  0.00000000000E+00 0.  1.
         -3    1    6    6    0  502 -0.27053916113E+03  0.18606791605E+03 -0.26623808792E+03  0.42272381829E+03  0.00000000000E+00 0.  1.
<mgrwt>
<rscale>  0 0.11904295E+04</rscale>
<asrwt>0</asrwt>
<pdfrwt beam="1">  1        1 0.16956835E+00 0.11904295E+04</pdfrwt>
<pdfrwt beam="2">  1       -1 0.49451089E-01 0.11904295E+04</pdfrwt>
<totfact> 0.51261119E+01</totfact>
</mgrwt>
</event>
<event>
12    1  0.1467288E-007  0.1953410E+04  0.7818608E-02  0.8628718E-01
          2   -1    0    0  501    0  0.00000000000E+00  0.00000000000E+00  0.21960383812E+04  0.21960383812E+04  0.00000000000E+00 0. -1.
         -2   -1    0    0    0  501 -0.00000000000E+00 -0.00000000000E+00 -0.43439728322E+03  0.43439728322E+03  0.00000000000E+00 0.  1.
         23    2    1    2    0    0 -0.40213523683E+03 -0.29391976352E+03 -0.85718156682E+02  0.51359947533E+03  0.91297549769E+02 0.  0.
        254    2    1    2    0    0  0.40213523683E+03  0.29391976352E+03  0.18473592547E+04  0.21168361891E+04  0.90562556257E+03 0.  0.
        -24    2    4    4    0    0  0.17892110517E+03  0.60877179509E+03  0.11615972656E+04  0.13259441319E+04  0.78764035308E+02 0.  0.
         24    2    4    4    0    0  0.22321413166E+03 -0.31485203158E+03  0.68576198913E+03  0.79089205719E+03  0.79274144784E+02 0.  0.
         13    1    3    3    0    0 -0.26466978013E+03 -0.16690214245E+03 -0.14151701425E+02  0.31321987217E+03  0.00000000000E+00 0.  1.
        -13    1    3    3    0    0 -0.13746545670E+03 -0.12701762106E+03 -0.71566455257E+02  0.20037960316E+03  0.00000000000E+00 0. -1.
          4    1    6    6  502    0  0.11906488489E+03 -0.18071708799E+03  0.30502753573E+03  0.37400121693E+03  0.00000000000E+00 0. -1.
          1    1    5    5  503    0  0.30806281196E+02  0.34271837329E+02  0.80928377871E+02  0.93128879193E+02  0.00000000000E+00 0. -1.
         -2    1    5    5    0  503  0.14811482397E+03  0.57449995776E+03  0.10806688877E+04  0.12328152527E+04  0.00000000000E+00 0.  1.
         -3    1    6    6    0  502  0.10414924676E+03 -0.13413494358E+03  0.38073445339E+03  0.41689084026E+03  0.00000000000E+00 0.  1.
<mgrwt>
<rscale>  0 0.19534105E+04</rscale>
<asrwt>0</asrwt>
<pdfrwt beam="1">  1        2 0.33785205E+00 0.19534105E+04</pdfrwt>
<pdfrwt beam="2">  1       -2 0.66830352E-01 0.19534105E+04</pdfrwt>
<totfact> 0.99530174E+00</totfact>
</mgrwt>
</event>
<event>
12    1  0.1467288E-007  0.1142316E+04  0.7818608E-02  0.9164902E-01
         -2   -1    0    0    0  501 -0.00000000000E+00  0.00000000000E+00  0.85234341910E+03  0.85234341910E+03  0.00000000000E+00 0. -1.
          2   -1    0    0  501    0  0.00000000000E+00 -0.00000000000E+00 -0.38273455081E+03  0.38273455081E+03  0.00000000000E+00 0.  1.
         23    2    1    2    0    0  0.12970934792E+03  0.63063202484E+02  0.24497463178E+03  0.29835551853E+03  0.90564688335E+02 0.  0.
        254    2    1    2    0    0 -0.12970934792E+03 -0.63063202484E+02  0.22463423650E+03  0.93672245138E+03  0.89787912787E+03 0.  0.
        -24    2    4    4    0    0 -0.66492660271E+02  0.16879901327E+03  0.51461105423E+03  0.55136676962E+03  0.79160575793E+02 0.  0.
         24    2    4    4    0    0 -0.63216687654E+02 -0.23186221575E+03 -0.28997681772E+03  0.38535568176E+03  0.81584373240E+02 0.  0.
         13    1    3    3    0    0  0.11052097483E+03  0.45695924926E+02  0.11530105593E+03  0.16612446217E+03  0.00000000000E+00 0. -1.
        -13    1    3    3    0    0  0.19188373096E+02  0.17367277558E+02  0.12967357586E+03  0.13223105636E+03  0.00000000000E+00 0.  1.
          2    1    6    6  502    0 -0.63750398997E+01 -0.16659645031E+03 -0.20249496562E+03  0.26229607219E+03  0.00000000000E+00 0. -1.
          1    1    5    5  503    0 -0.56844122845E+02  0.17660671432E+03  0.48230898308E+03  0.51676217064E+03  0.00000000000E+00 0. -1.
         -2    1    5    5    0  503 -0.96485374258E+01 -0.78077010546E+01  0.32302071141E+02  0.34604598975E+02  0.00000000000E+00 0.  1.
         -1    1    6    6    0  502 -0.56841647754E+02 -0.65265765442E+02 -0.87481852108E+02  0.12305960957E+03  0.00000000000E+00 0.  1.
<mgrwt>
<rscale>  0 0.11423157E+04</rscale>
<asrwt>0</asrwt>
<pdfrwt beam="1">  1        2 0.58882239E-01 0.11423157E+04</pdfrwt>
<pdfrwt beam="2">  1       -2 0.13112976E+00 0.11423157E+04</pdfrwt>
<totfact> 0.35141886E+01</totfact>
</mgrwt>
</event>
<event>
12    1  0.1467288E-007  0.1138506E+04  0.7818608E-02  0.9168453E-01
         -2   -1    0    0    0  501 -0.00000000000E+00  0.00000000000E+00  0.45103195224E+03  0.45103195224E+03  0.00000000000E+00 0.  1.
          2   -1    0    0  501    0  0.00000000000E+00 -0.00000000000E+00 -0.71846158371E+03  0.71846158371E+03  0.00000000000E+00 0. -1.
         23    2    1    2    0    0 -0.47442204915E+01  0.12568704878E+03 -0.22538087938E+03  0.27451220980E+03  0.93491554068E+02 0.  0.
        254    2    1    2    0    0  0.47442204915E+01 -0.12568704878E+03 -0.42048752094E+02  0.89498132614E+03  0.88510097431E+03 0.  0.
        -24    2    4    4    0    0  0.34489030761E+03  0.20040390425E+03 -0.81395523167E+02  0.41527386204E+03  0.81951816233E+02 0.  0.
         24    2    4    4    0    0 -0.34014608711E+03 -0.32609095303E+03  0.39346771074E+02  0.47970746410E+03  0.80848082784E+02 0.  0.
         13    1    3    3    0    0  0.11392522155E+02  0.25968301459E+02 -0.92476981114E+00  0.28372476820E+02  0.00000000000E+00 0.  1.
        -13    1    3    3    0    0 -0.16136742647E+02  0.99718747324E+02 -0.22445610957E+03  0.24613973299E+03  0.00000000000E+00 0. -1.
          4    1    6    6  502    0 -0.24793301428E+03 -0.25239295248E+03  0.62872350887E+02  0.35934094470E+03  0.00000000000E+00 0. -1.
          1    1    5    5  503    0  0.34413119096E+03  0.20167783201E+03 -0.71455140607E+02  0.40522347123E+03  0.00000000000E+00 0. -1.
         -2    1    5    5    0  503  0.75911664556E+00 -0.12739277601E+01 -0.99403825607E+01  0.10050390812E+02  0.00000000000E+00 0.  1.
         -3    1    6    6    0  502 -0.92213072834E+02 -0.73698000558E+02 -0.23525579813E+02  0.12036651940E+03  0.00000000000E+00 0.  1.
<mgrwt>
<rscale>  0 0.11385063E+04</rscale>
<asrwt>0</asrwt>
<pdfrwt beam="1">  1        2 0.11053255E+00 0.11385063E+04</pdfrwt>
<pdfrwt beam="2">  1       -2 0.69389532E-01 0.11385063E+04</pdfrwt>
<totfact> 0.74436136E+01</totfact>
</mgrwt>
</event>
<event>
12    1  0.1467288E-007  0.1571128E+04  0.7818608E-02  0.8838484E-01
         -2   -1    0    0    0  501 -0.00000000000E+00  0.00000000000E+00  0.25555871156E+03  0.25555871156E+03  0.00000000000E+00 0.  1.
          2   -1    0    0  501    0  0.00000000000E+00 -0.00000000000E+00 -0.24147510408E+04  0.24147510408E+04  0.00000000000E+00 0. -1.
         23    2    1    2    0    0 -0.95070976895E+02  0.49123910373E+03 -0.48184039006E+03  0.70106982854E+03  0.94733285198E+02 0.  0.
        254    2    1    2    0    0  0.95070976895E+02 -0.49123910373E+03 -0.16773519392E+04  0.19692399238E+04  0.90224276225E+03 0.  0.
        -24    2    4    4    0    0 -0.29309506728E+03  0.98960656512E+02 -0.49383311440E+03  0.58855781890E+03  0.82651263144E+02 0.  0.
         24    2    4    4    0    0  0.38816604418E+03 -0.59019976024E+03 -0.11835188248E+04  0.13806821049E+04  0.80979203619E+02 0.  0.
         13    1    3    3    0    0  0.37382731562E+01 -0.18510847945E+01  0.56332104827E+00  0.42093386310E+01  0.00000000000E+00 0. -1.
        -13    1    3    3    0    0 -0.98809250051E+02  0.49309018852E+03 -0.48240371111E+03  0.69686048991E+03  0.00000000000E+00 0.  1.
          2    1    6    6  502    0  0.19366585185E+03 -0.22324274661E+03 -0.47697983073E+03  0.56111812037E+03  0.00000000000E+00 0. -1.
          1    1    5    5  503    0 -0.93391789314E+00 -0.17903597287E+01  0.29002233698E+01  0.35339618255E+01  0.00000000000E+00 0. -1.
         -2    1    5    5    0  503 -0.29216114939E+03  0.10075101624E+03 -0.49673333777E+03  0.58502385707E+03  0.00000000000E+00 0.  1.
         -1    1    6    6    0  502  0.19450019233E+03 -0.36695701363E+03 -0.70653899404E+03  0.81956398455E+03  0.00000000000E+00 0.  1.
<mgrwt>
<rscale>  0 0.15711278E+04</rscale>
<asrwt>0</asrwt>
<pdfrwt beam="1">  1        2 0.37150015E+00 0.15711278E+04</pdfrwt>
<pdfrwt beam="2">  1       -2 0.39316726E-01 0.15711278E+04</pdfrwt>
<totfact> 0.22961966E+01</totfact>
</mgrwt>
</event>
<event>
12    1  0.1467288E-007  0.1571235E+04  0.7818608E-02  0.8838417E-01
         -2   -1    0    0    0  501 -0.00000000000E+00  0.00000000000E+00  0.30240836160E+03  0.30240836160E+03  0.00000000000E+00 0.  1.
          2   -1    0    0  501    0  0.00000000000E+00 -0.00000000000E+00 -0.20409311588E+04  0.20409311588E+04  0.00000000000E+00 0. -1.
         23    2    1    2    0    0  0.27841960670E+03 -0.30300241159E+03 -0.10708775526E+04  0.11505292229E+04  0.87240020682E+02 0.  0.
        254    2    1    2    0    0 -0.27841960670E+03  0.30300241159E+03 -0.66764524460E+03  0.11928102975E+04  0.89873149183E+03 0.  0.
        -24    2    4    4    0    0 -0.12842208502E+03  0.34708371270E+03 -0.85561394971E+03  0.93573212646E+03  0.80994111040E+02 0.  0.
         24    2    4    4    0    0 -0.14999752168E+03 -0.44081301109E+02  0.18796870511E+03  0.25707817105E+03  0.79464044170E+02 0.  0.
         13    1    3    3    0    0  0.27330744958E+03 -0.29887185303E+03 -0.10697678066E+04  0.11438638497E+04  0.00000000000E+00 0.  1.
        -13    1    3    3    0    0  0.51121571146E+01 -0.41305585625E+01 -0.11097460504E+01  0.66653732603E+01  0.00000000000E+00 0. -1.
          2    1    6    6  502    0 -0.45041217530E+02  0.21464915117E+02  0.38419688414E+02  0.62972425040E+02  0.00000000000E+00 0. -1.
          1    1    5    5  503    0 -0.81776636749E+02  0.11059635021E+03 -0.29467526974E+03  0.32519607254E+03  0.00000000000E+00 0. -1.
         -2    1    5    5    0  503 -0.46645448270E+02  0.23648736249E+03 -0.56093867997E+03  0.61053605393E+03  0.00000000000E+00 0.  1.
         -1    1    6    6    0  502 -0.10495630415E+03 -0.65546216225E+02  0.14954901669E+03  0.19410574601E+03  0.00000000000E+00 0.  1.
<mgrwt>
<rscale>  0 0.15712347E+04</rscale>
<asrwt>0</asrwt>
<pdfrwt beam="1">  1        2 0.31398941E+00 0.15712347E+04</pdfrwt>
<pdfrwt beam="2">  1       -2 0.46524363E-01 0.15712347E+04</pdfrwt>
<totfact> 0.26694449E+01</totfact>
</mgrwt>
</event>
<event>
12    1  0.1467288E-007  0.1789263E+04  0.7818608E-02  0.8712030E-01
          2   -1    0    0  501    0  0.00000000000E+00  0.00000000000E+00  0.17952211414E+04  0.17952211414E+04  0.00000000000E+00 0. -1.
         -2   -1    0    0    0  501 -0.00000000000E+00 -0.00000000000E+00 -0.44583134676E+03  0.44583134676E+03  0.00000000000E+00 0.  1.
         23    2    1    2    0    0 -0.52434414441E+03 -0.17706540480E+03  0.52782094700E+02  0.56356983241E+03  0.92390838986E+02 0.  0.
        254    2    1    2    0    0  0.52434414441E+03  0.17706540480E+03  0.12966076999E+04  0.16774826557E+04  0.90910263085E+03 0.  0.
        -24    2    4    4    0    0  0.25446501678E+03 -0.20079051683E+03  0.11281210087E+04  0.11770502465E+04  0.87869198315E+02 0.  0.
         24    2    4    4    0    0  0.26987912763E+03  0.37785592162E+03  0.16848669120E+03  0.50043240925E+03  0.80218389888E+02 0.  0.
         11    1    3    3    0    0 -0.49996775087E+03 -0.14502628804E+03  0.44559023486E+02  0.52248050941E+03  0.00000000000E+00 0.  1.
        -11    1    3    3    0    0 -0.24376393534E+02 -0.32039116761E+02  0.82230712136E+01  0.41089323002E+02  0.00000000000E+00 0. -1.
          4    1    6    6  502    0  0.71899019744E+02  0.84671780389E+02  0.76579010665E+02  0.13491895459E+03  0.00000000000E+00 0. -1.
          1    1    5    5  503    0  0.10590874314E+02 -0.35772611670E+02  0.78603220490E+02  0.87007543557E+02  0.00000000000E+00 0. -1.
         -2    1    5    5    0  503  0.24387414246E+03 -0.16501790516E+03  0.10495177882E+04  0.10900427029E+04  0.00000000000E+00 0.  1.
         -3    1    6    6    0  502  0.19798010789E+03  0.29318414123E+03  0.91907680530E+02  0.36551345465E+03  0.00000000000E+00 0.  1.
<mgrwt>
<rscale>  0 0.17892634E+04</rscale>
<asrwt>0</asrwt>
<pdfrwt beam="1">  1        2 0.27618786E+00 0.17892634E+04</pdfrwt>
<pdfrwt beam="2">  1       -2 0.68589439E-01 0.17892634E+04</pdfrwt>
<totfact> 0.15939790E+01</totfact>
</mgrwt>
</event>
<event>
12    1  0.1467288E-007  0.2464104E+04  0.7818608E-02  0.8415887E-01
         -2   -1    0    0    0  501 -0.00000000000E+00  0.00000000000E+00  0.10559440030E+04  0.10559440030E+04  0.00000000000E+00 0.  1.
          2   -1    0    0  501    0  0.00000000000E+00 -0.00000000000E+00 -0.14375305525E+04  0.14375305525E+04  0.00000000000E+00 0. -1.
         23    2    1    2    0    0  0.96378081652E+03 -0.33285158771E+03 -0.49819950851E+03  0.11384691356E+04  0.90805180449E+02 0.  0.
        254    2    1    2    0    0 -0.96378081652E+03  0.33285158771E+03  0.11661295895E+03  0.13550054199E+04  0.88474711864E+03 0.  0.
        -24    2    4    4    0    0 -0.17677987492E+03 -0.28478908230E+03  0.62089028024E+02  0.34993493406E+03  0.79015600345E+02 0.  0.
         24    2    4    4    0    0 -0.78700094159E+03  0.61764067001E+03  0.54523930921E+02  0.10050704858E+04  0.79645106983E+02 0.  0.
         11    1    3    3    0    0  0.19083987976E+03 -0.44421214510E+02 -0.12920728399E+03  0.23470753341E+03  0.00000000000E+00 0. -1.
        -11    1    3    3    0    0  0.77294093676E+03 -0.28843037320E+03 -0.36899222452E+03  0.90376160223E+03  0.00000000000E+00 0.  1.
          4    1    6    6  502    0 -0.57023992375E+03  0.47861955235E+03  0.15674063411E+02  0.74464482996E+03  0.00000000000E+00 0. -1.
          3    1    5    5  503    0 -0.17991597511E+03 -0.27583268679E+03  0.47788043129E+02  0.33277188323E+03  0.00000000000E+00 0. -1.
         -2    1    5    5    0  503  0.31361001856E+01 -0.89563955186E+01  0.14300984895E+02  0.17163050836E+02  0.00000000000E+00 0.  1.
         -3    1    6    6    0  502 -0.21676101785E+03  0.13902111766E+03  0.38849867511E+02  0.26042565584E+03  0.00000000000E+00 0.  1.
<mgrwt>
<rscale>  0 0.24641037E+04</rscale>
<asrwt>0</asrwt>
<pdfrwt beam="1">  1        2 0.22115855E+00 0.24641037E+04</pdfrwt>
<pdfrwt beam="2">  1       -2 0.16245292E+00 0.24641037E+04</pdfrwt>
<totfact> 0.29774718E+00</totfact>
</mgrwt>
</event>
<event>
12    1  0.1467288E-007  0.1433014E+04  0.7818608E-02  0.8930262E-01
          2   -1    0    0  501    0  0.00000000000E+00  0.00000000000E+00  0.71955704109E+03  0.71955704109E+03  0.00000000000E+00 0. -1.
         -2   -1    0    0    0  501 -0.00000000000E+00 -0.00000000000E+00 -0.71346944344E+03  0.71346944344E+03  0.00000000000E+00 0.  1.
         23    2    1    2    0    0 -0.27510441064E+03 -0.22117299917E+03  0.24126652395E+03  0.43731885752E+03  0.91860302883E+02 0.  0.
        254    2    1    2    0    0  0.27510441064E+03  0.22117299917E+03 -0.23517892630E+03  0.99570762702E+03  0.90084661225E+03 0.  0.
        -24    2    4    4    0    0 -0.31962275173E+03  0.11616782154E+03 -0.22209895679E+02  0.35016381274E+03  0.80422323388E+02 0.  0.
         24    2    4    4    0    0  0.59472716237E+03  0.10500517763E+03 -0.21296903062E+03  0.64554381428E+03  0.81513944588E+02 0.  0.
         11    1    3    3    0    0 -0.52388646596E+02 -0.15857648848E+02  0.86987245151E+01  0.55422947660E+02  0.00000000000E+00 0.  1.
        -11    1    3    3    0    0 -0.22271576405E+03 -0.20531535033E+03  0.23256779943E+03  0.38189590986E+03  0.00000000000E+00 0. -1.
          2    1    6    6  502    0  0.30654960285E+03  0.83458131280E+02 -0.81092972888E+02  0.32789325845E+03  0.00000000000E+00 0. -1.
          3    1    5    5  503    0 -0.32332795105E+03  0.11040222752E+03 -0.18022191900E+02  0.34213216039E+03  0.00000000000E+00 0. -1.
         -4    1    5    5    0  503  0.37051993227E+01  0.57655940239E+01 -0.41877037786E+01  0.80316523460E+01  0.00000000000E+00 0.  1.
         -1    1    6    6    0  502  0.28817755952E+03  0.21547046351E+02 -0.13187605773E+03  0.31765055583E+03  0.00000000000E+00 0.  1.
<mgrwt>
<rscale>  0 0.14330136E+04</rscale>
<asrwt>0</asrwt>
<pdfrwt beam="1">  1        2 0.11070108E+00 0.14330136E+04</pdfrwt>
<pdfrwt beam="2">  1       -2 0.10976453E+00 0.14330136E+04</pdfrwt>
<totfact> 0.25370064E+01</totfact>
</mgrwt>
</event>
<event>
12    1  0.1467288E-007  0.1351054E+04  0.7818608E-02  0.8990031E-01
         -2   -1    0    0    0  501 -0.00000000000E+00  0.00000000000E+00  0.21617533713E+03  0.21617533713E+03  0.00000000000E+00 0.  1.
          2   -1    0    0  501    0  0.00000000000E+00 -0.00000000000E+00 -0.21109566764E+04  0.21109566764E+04  0.00000000000E+00 0. -1.
         23    2    1    2    0    0  0.27651826019E+03 -0.19071807194E+03 -0.28136839273E+03  0.44806791017E+03  0.93599938641E+02 0.  0.
        254    2    1    2    0    0 -0.27651826019E+03  0.19071807194E+03 -0.16134129466E+04  0.18790641034E+04  0.90274295195E+03 0.  0.
        -24    2    4    4    0    0 -0.55213676568E+03  0.45251761749E+02 -0.13541915471E+04  0.14651798613E+04  0.77553528137E+02 0.  0.
         24    2    4    4    0    0  0.27561850549E+03  0.14546631019E+03 -0.25922139950E+03  0.41388424212E+03  0.83536961594E+02 0.  0.
         13    1    3    3    0    0  0.26830784438E+03 -0.19235990003E+03 -0.24597567731E+03  0.41169826854E+03  0.00000000000E+00 0.  1.
        -13    1    3    3    0    0  0.82104158117E+01  0.16418280898E+01 -0.35392715416E+02  0.36369641623E+02  0.00000000000E+00 0. -1.
          2    1    6    6  502    0  0.23467313377E+03  0.86092850005E+02 -0.21111581045E+03  0.32719007313E+03  0.00000000000E+00 0. -1.
          3    1    5    5  503    0 -0.14514743974E+03  0.20609873291E+02 -0.27699673662E+03  0.31340028436E+03  0.00000000000E+00 0. -1.
         -4    1    5    5    0  503 -0.40698932594E+03  0.24641888459E+02 -0.10771948105E+04  0.11517795769E+04  0.00000000000E+00 0.  1.
         -1    1    6    6    0  502  0.40945371721E+02  0.59373460181E+02 -0.48105589051E+02  0.86694168992E+02  0.00000000000E+00 0.  1.
<mgrwt>
<rscale>  0 0.13510541E+04</rscale>
<asrwt>0</asrwt>
<pdfrwt beam="1">  1        2 0.32476256E+00 0.13510541E+04</pdfrwt>
<pdfrwt beam="2">  1       -2 0.33257745E-01 0.13510541E+04</pdfrwt>
<totfact> 0.47845066E+01</totfact>
</mgrwt>
</event>
<event>
12    1  0.1467288E-007  0.1609444E+04  0.7818608E-02  0.8814767E-01
          1   -1    0    0  501    0  0.00000000000E+00  0.00000000000E+00  0.10380116658E+04  0.10380116658E+04  0.00000000000E+00 0. -1.
         -1   -1    0    0    0  501 -0.00000000000E+00 -0.00000000000E+00 -0.62386306735E+03  0.62386306735E+03  0.00000000000E+00 0.  1.
         23    2    1    2    0    0 -0.35353691313E+03 -0.40249767594E+03  0.34308422601E+02  0.54478036076E+03  0.92821579012E+02 0.  0.
        254    2    1    2    0    0  0.35353691313E+03  0.40249767594E+03  0.37984017582E+03  0.11170943724E+04  0.90367502429E+03 0.  0.
        -24    2    4    4    0    0  0.32289083573E+03  0.67703141734E+03  0.20936373634E+03  0.78271194811E+03  0.78579817679E+02 0.  0.
         24    2    4    4    0    0  0.30646077393E+02 -0.27453374140E+03  0.17047643948E+03  0.33438242426E+03  0.80258532284E+02 0.  0.
         11    1    3    3    0    0 -0.32084743843E+03 -0.38508206435E+03  0.51647303338E+02  0.50388363634E+03  0.00000000000E+00 0.  1.
        -11    1    3    3    0    0 -0.32689474700E+02 -0.17415611588E+02 -0.17338880737E+02  0.40896724420E+02  0.00000000000E+00 0. -1.
          2    1    6    6  502    0 -0.66549996666E+01 -0.13118668017E+03  0.40878025347E+02  0.13756906276E+03  0.00000000000E+00 0. -1.
          3    1    5    5  503    0  0.87169649851E+02  0.17473692998E+03  0.90702562839E+02  0.21531023538E+03  0.00000000000E+00 0. -1.
         -4    1    5    5    0  503  0.23572118588E+03  0.50229448736E+03  0.11866117350E+03  0.56740171273E+03  0.00000000000E+00 0.  1.
         -1    1    6    6    0  502  0.37301077060E+02 -0.14334706124E+03  0.12959841414E+03  0.19681336149E+03  0.00000000000E+00 0.  1.
<mgrwt>
<rscale>  0 0.16094436E+04</rscale>
<asrwt>0</asrwt>
<pdfrwt beam="1">  1        1 0.15969410E+00 0.16094436E+04</pdfrwt>
<pdfrwt beam="2">  1       -1 0.95978934E-01 0.16094436E+04</pdfrwt>
<totfact> 0.14184365E+01</totfact>
</mgrwt>
</event>
<event>
12    1  0.1467288E-007  0.2624314E+04  0.7818608E-02  0.8359989E-01
         -1   -1    0    0    0  501 -0.00000000000E+00  0.00000000000E+00  0.88200668738E+03  0.88200668738E+03  0.00000000000E+00 0.  1.
          1   -1    0    0  501    0  0.00000000000E+00 -0.00000000000E+00 -0.19520887863E+04  0.19520887863E+04  0.00000000000E+00 0. -1.
         23    2    1    2    0    0 -0.26333682063E+03  0.10540475104E+04 -0.88166682111E+03  0.14022473579E+04  0.92729898167E+02 0.  0.
        254    2    1    2    0    0  0.26333682063E+03 -0.10540475104E+04 -0.18841527781E+03  0.14318481158E+04  0.91341462354E+03 0.  0.
        -24    2    4    4    0    0 -0.17689301406E+03 -0.58732035941E+03  0.23198140724E+03  0.66064359563E+03  0.79989025095E+02 0.  0.
         24    2    4    4    0    0  0.44022983469E+03 -0.46672715098E+03 -0.42039668505E+03  0.77120452016E+03  0.79915569787E+02 0.  0.
         13    1    3    3    0    0 -0.38218037126E+02  0.11685405864E+03 -0.13821736700E+03  0.18498521542E+03  0.00000000000E+00 0.  1.
        -13    1    3    3    0    0 -0.22511878350E+03  0.93719345176E+03 -0.74344945411E+03  0.12172621425E+04  0.00000000000E+00 0. -1.
          2    1    6    6  502    0  0.43772977578E+03 -0.44880814015E+03 -0.39874961178E+03  0.74299216427E+03  0.00000000000E+00 0. -1.
          3    1    5    5  503    0 -0.14384116307E+03 -0.41948928409E+03  0.13283621618E+03  0.46293304050E+03  0.00000000000E+00 0. -1.
         -4    1    5    5    0  503 -0.33051850990E+02 -0.16783107532E+03  0.99145191059E+02  0.19771055513E+03  0.00000000000E+00 0.  1.
         -1    1    6    6    0  502  0.25000589135E+01 -0.17919010828E+02 -0.21647073269E+02  0.28212355888E+02  0.00000000000E+00 0.  1.
<mgrwt>
<rscale>  0 0.26243135E+04</rscale>
<asrwt>0</asrwt>
<pdfrwt beam="1">  1        1 0.30032135E+00 0.26243135E+04</pdfrwt>
<pdfrwt beam="2">  1       -1 0.13569334E+00 0.26243135E+04</pdfrwt>
<totfact> 0.12831028E+00</totfact>
</mgrwt>
</event>
<event>
12    1  0.1467288E-007  0.1892923E+04  0.7818608E-02  0.8658387E-01
         -1   -1    0    0    0  501 -0.00000000000E+00  0.00000000000E+00  0.30001385998E+04  0.30001385998E+04  0.00000000000E+00 0.  1.
          1   -1    0    0  501    0  0.00000000000E+00 -0.00000000000E+00 -0.29858262979E+03  0.29858262979E+03  0.00000000000E+00 0. -1.
         23    2    1    2    0    0 -0.61981058609E+03 -0.21971359799E+03  0.49896551849E+03  0.83046845099E+03  0.90950710176E+02 0.  0.
        254    2    1    2    0    0  0.61981058609E+03  0.21971359799E+03  0.22025904515E+04  0.24682527786E+04  0.89912616144E+03 0.  0.
        -24    2    4    4    0    0  0.32328614714E+03  0.19472547187E+03  0.21114394268E+04  0.21464574193E+04  0.81676542053E+02 0.  0.
         24    2    4    4    0    0  0.29652443895E+03  0.24988126116E+02  0.91151024678E+02  0.32179535926E+03  0.81808279531E+02 0.  0.
         13    1    3    3    0    0 -0.20420338178E+03 -0.98046337948E+02  0.21715638041E+03  0.31379770405E+03  0.00000000000E+00 0. -1.
        -13    1    3    3    0    0 -0.41560720431E+03 -0.12166726004E+03  0.28180913809E+03  0.51667074694E+03  0.00000000000E+00 0.  1.
          2    1    6    6  502    0  0.28736871440E+03  0.40889387104E+02  0.85348469006E+02  0.30255095630E+03  0.00000000000E+00 0. -1.
          3    1    5    5  503    0  0.26980866676E+03  0.19336366994E+03  0.17708556320E+04  0.18016980587E+04  0.00000000000E+00 0. -1.
         -4    1    5    5    0  503  0.53477480377E+02  0.13618019356E+01  0.34058379480E+03  0.34475936056E+03  0.00000000000E+00 0.  1.
         -1    1    6    6    0  502  0.91557245455E+01 -0.15901260988E+02  0.58025556720E+01  0.19244402960E+02  0.00000000000E+00 0.  1.
<mgrwt>
<rscale>  0 0.18929229E+04</rscale>
<asrwt>0</asrwt>
<pdfrwt beam="1">  1        1 0.45935791E-01 0.18929229E+04</pdfrwt>
<pdfrwt beam="2">  1       -1 0.46155976E+00 0.18929229E+04</pdfrwt>
<totfact> 0.22267195E-01</totfact>
</mgrwt>
</event>
<event>
12    1  0.1467288E-007  0.1831484E+04  0.7818608E-02  0.8689733E-01
          2   -1    0    0  501    0  0.00000000000E+00  0.00000000000E+00  0.18396109147E+04  0.18396109147E+04  0.00000000000E+00 0. -1.
         -2   -1    0    0    0  501 -0.00000000000E+00 -0.00000000000E+00 -0.45584832646E+03  0.45584832646E+03  0.00000000000E+00 0.  1.
         23    2    1    2    0    0 -0.59901899348E+03  0.24154057122E+03  0.20259786808E+03  0.68107166578E+03  0.75147293228E+02 0.  0.
        254    2    1    2    0    0  0.59901899348E+03 -0.24154057122E+03  0.11811647202E+04  0.16143875754E+04  0.89102836392E+03 0.  0.
        -24    2    4    4    0    0  0.29780969049E+02 -0.13474442070E+03 -0.11219769701E+03  0.19501964867E+03  0.80008594061E+02 0.  0.
         24    2    4    4    0    0  0.56923802443E+03 -0.10679615052E+03  0.12933624172E+04  0.14193679267E+04  0.79885061133E+02 0.  0.
         13    1    3    3    0    0 -0.13204837493E+03  0.77419726503E+02  0.24418397428E+02  0.15500595313E+03  0.00000000000E+00 0. -1.
        -13    1    3    3    0    0 -0.46697061855E+03  0.16412084472E+03  0.17817947065E+03  0.52606571264E+03  0.00000000000E+00 0.  1.
          2    1    6    6  502    0  0.26472424491E+03 -0.12743862868E+02  0.62691422123E+03  0.68063409602E+03  0.00000000000E+00 0. -1.
          1    1    5    5  503    0  0.24994019318E+02 -0.56076567963E+01 -0.38539652473E+02  0.46275821215E+02  0.00000000000E+00 0. -1.
         -2    1    5    5    0  503  0.47869497310E+01 -0.12913676391E+03 -0.73658044541E+02  0.14874382745E+03  0.00000000000E+00 0.  1.
         -1    1    6    6    0  502  0.30451377952E+03 -0.94052287652E+02  0.66644819598E+03  0.73873383072E+03  0.00000000000E+00 0.  1.
<mgrwt>
<rscale>  0 0.18314842E+04</rscale>
<asrwt>0</asrwt>
<pdfrwt beam="1">  1        2 0.28301706E+00 0.18314842E+04</pdfrwt>
<pdfrwt beam="2">  1       -2 0.70130513E-01 0.18314842E+04</pdfrwt>
<totfact> 0.14299402E+01</totfact>
</mgrwt>
</event>
<event>
12    1  0.1467288E-007  0.1361016E+04  0.7818608E-02  0.8982531E-01
         -4   -1    0    0    0  501 -0.00000000000E+00  0.00000000000E+00  0.10673382945E+04  0.10673382945E+04  0.00000000000E+00 0.  1.
          4   -1    0    0  501    0  0.00000000000E+00 -0.00000000000E+00 -0.43387445382E+03  0.43387445382E+03  0.00000000000E+00 0. -1.
         23    2    1    2    0    0  0.26325907745E+03 -0.30338080425E+03  0.23774073529E+03  0.47545428527E+03  0.90503402783E+02 0.  0.
        254    2    1    2    0    0 -0.26325907745E+03  0.30338080425E+03  0.39572310540E+03  0.10257584631E+04  0.85687711730E+03 0.  0.
        -24    2    4    4    0    0 -0.47361240005E+03  0.46196057628E+03  0.32706059532E+03  0.74222483679E+03  0.78821290357E+02 0.  0.
         24    2    4    4    0    0  0.21035332260E+03 -0.15857977203E+03  0.68662510075E+02  0.28353362627E+03  0.79250946443E+02 0.  0.
         13    1    3    3    0    0  0.12605120628E+03 -0.15909903990E+03  0.68772187506E+02  0.21431524649E+03  0.00000000000E+00 0. -1.
        -13    1    3    3    0    0  0.13720787117E+03 -0.14428176435E+03  0.16896854779E+03  0.26113903878E+03  0.00000000000E+00 0.  1.
          4    1    6    6  502    0  0.20345840376E+03 -0.12689322795E+03  0.46492369524E+02  0.24425141512E+03  0.00000000000E+00 0. -1.
          1    1    5    5  503    0 -0.14817958957E+03  0.13967973721E+03  0.14192394688E+03  0.24821367096E+03  0.00000000000E+00 0. -1.
         -2    1    5    5    0  503 -0.32543281048E+03  0.32228083907E+03  0.18513664844E+03  0.49401116583E+03  0.00000000000E+00 0.  1.
         -3    1    6    6    0  502  0.68949188347E+01 -0.31686544077E+02  0.22170140550E+02  0.39282211156E+02  0.00000000000E+00 0.  1.
<mgrwt>
<rscale>  0 0.13610155E+04</rscale>
<asrwt>0</asrwt>
<pdfrwt beam="1">  1        4 0.66749916E-01 0.13610155E+04</pdfrwt>
<pdfrwt beam="2">  1       -4 0.16420589E+00 0.13610155E+04</pdfrwt>
<totfact> 0.94438708E-01</totfact>
</mgrwt>
</event>
<event>
12    1  0.1467288E-007  0.2437842E+04  0.7818608E-02  0.8425471E-01
         -2   -1    0    0    0  501 -0.00000000000E+00  0.00000000000E+00  0.93133180820E+03  0.93133180820E+03  0.00000000000E+00 0.  1.
          2   -1    0    0  501    0  0.00000000000E+00 -0.00000000000E+00 -0.15953155428E+04  0.15953155428E+04  0.00000000000E+00 0. -1.
         23    2    1    2    0    0  0.49579366397E+03  0.80550592315E+03 -0.75579696330E+03  0.12142529560E+04  0.92358226455E+02 0.  0.
        254    2    1    2    0    0 -0.49579366397E+03 -0.80550592315E+03  0.91813228689E+02  0.13123943950E+04  0.90515094297E+03 0.  0.
        -24    2    4    4    0    0 -0.54690640697E+03 -0.96892400756E+03  0.43595613641E+02  0.11163622712E+04  0.80273237717E+02 0.  0.
         24    2    4    4    0    0  0.51112742994E+02  0.16341808441E+03  0.48217615047E+02  0.19603212375E+03  0.82375192463E+02 0.  0.
         11    1    3    3    0    0  0.48399118052E+03  0.79208749861E+03 -0.72185188227E+03  0.11758912400E+04  0.00000000000E+00 0. -1.
        -11    1    3    3    0    0  0.11802483453E+02  0.13418424546E+02 -0.33945081032E+02  0.38361716062E+02  0.00000000000E+00 0.  1.
          2    1    6    6  502    0  0.68988220559E+02  0.12671164472E+03  0.18331044294E+02  0.14543466805E+03  0.00000000000E+00 0. -1.
          3    1    5    5  503    0 -0.37858419904E+03 -0.59619949547E+03  0.40037716660E+02  0.70737744728E+03  0.00000000000E+00 0. -1.
         -4    1    5    5    0  503 -0.16832220793E+03 -0.37272451209E+03  0.35578969815E+01  0.40898482396E+03  0.00000000000E+00 0.  1.
         -1    1    6    6    0  502 -0.17875477565E+02  0.36706439688E+02  0.29886570753E+02  0.50597455708E+02  0.00000000000E+00 0.  1.
<mgrwt>
<rscale>  0 0.24378418E+04</rscale>
<asrwt>0</asrwt>
<pdfrwt beam="1">  1        2 0.24543316E+00 0.24378418E+04</pdfrwt>
<pdfrwt beam="2">  1       -2 0.14328182E+00 0.24378418E+04</pdfrwt>
<totfact> 0.34009112E+00</totfact>
</mgrwt>
</event>
<event>
12    1  0.1467288E-007  0.1119920E+04  0.7818608E-02  0.9185991E-01
         -2   -1    0    0    0  501 -0.00000000000E+00  0.00000000000E+00  0.93939935653E+02  0.93939935653E+02  0.00000000000E+00 0.  1.
          2   -1    0    0  501    0  0.00000000000E+00 -0.00000000000E+00 -0.33378271465E+04  0.33378271465E+04  0.00000000000E+00 0. -1.
         23    2    1    2    0    0 -0.20195541873E+03 -0.36851482719E+02 -0.47408615670E+03  0.52347061006E+03  0.84378745489E+02 0.  0.
        254    2    1    2    0    0  0.20195541873E+03  0.36851482719E+02 -0.27698010542E+04  0.29082964721E+04  0.86269720476E+03 0.  0.
        -24    2    4    4    0    0  0.34323528494E+03  0.34880770995E+03 -0.11779854667E+04  0.12777450058E+04  0.74197443488E+02 0.  0.
         24    2    4    4    0    0 -0.14127986621E+03 -0.31195622723E+03 -0.15918155874E+04  0.16305514663E+04  0.86859263458E+02 0.  0.
         11    1    3    3    0    0 -0.42337767650E+02 -0.10084679959E+02 -0.20411100838E+03  0.20869952344E+03  0.00000000000E+00 0. -1.
        -11    1    3    3    0    0 -0.15961765108E+03 -0.26766802759E+02 -0.26997514832E+03  0.31477108663E+03  0.00000000000E+00 0.  1.
          4    1    6    6  502    0 -0.12010165200E+03 -0.23679053165E+03 -0.13673600653E+04  0.13928990311E+04  0.00000000000E+00 0. -1.
          3    1    5    5  503    0  0.34472739356E+03  0.34606622302E+03 -0.11480172901E+04  0.12476147262E+04  0.00000000000E+00 0. -1.
         -4    1    5    5    0  503 -0.14921086222E+01  0.27414869274E+01 -0.29968176652E+02  0.30130279630E+02  0.00000000000E+00 0.  1.
         -3    1    6    6    0  502 -0.21178214211E+02 -0.75165695583E+02 -0.22445552215E+03  0.23765243524E+03  0.00000000000E+00 0.  1.
<mgrwt>
<rscale>  0 0.11199201E+04</rscale>
<asrwt>0</asrwt>
<pdfrwt beam="1">  1        2 0.51351186E+00 0.11199201E+04</pdfrwt>
<pdfrwt beam="2">  1       -2 0.14452298E-01 0.11199201E+04</pdfrwt>
<totfact> 0.39991703E+01</totfact>
</mgrwt>
</event>
<event>
12    1  0.1467288E-007  0.1243823E+04  0.7818608E-02  0.9075340E-01
         -2   -1    0    0    0  501 -0.00000000000E+00  0.00000000000E+00  0.38547462375E+03  0.38547462375E+03  0.00000000000E+00 0.  1.
          2   -1    0    0  501    0  0.00000000000E+00 -0.00000000000E+00 -0.10033702979E+04  0.10033702979E+04  0.00000000000E+00 0. -1.
         23    2    1    2    0    0  0.22326051820E+03 -0.18166425764E+03 -0.10222205728E+03  0.31633435238E+03  0.82285551622E+02 0.  0.
        254    2    1    2    0    0 -0.22326051820E+03  0.18166425764E+03 -0.51567361686E+03  0.10725105693E+04  0.89527229408E+03 0.  0.
        -24    2    4    4    0    0  0.43235223070E+02  0.28361042658E+03 -0.67385815936E+03  0.73657277985E+03  0.78425011972E+02 0.  0.
         24    2    4    4    0    0 -0.26649574127E+03 -0.10194616894E+03  0.15818454250E+03  0.33593778940E+03  0.80117709553E+02 0.  0.
         13    1    3    3    0    0  0.20185333470E+03 -0.16327076815E+03 -0.11666747083E+03  0.28462854954E+03  0.00000000000E+00 0.  1.
        -13    1    3    3    0    0  0.21407183504E+02 -0.18393489493E+02  0.14445413546E+02  0.31705802842E+02  0.00000000000E+00 0. -1.
          4    1    6    6  502    0 -0.12260428883E+03 -0.76367590540E+02  0.11164049460E+03  0.18255799231E+03  0.00000000000E+00 0. -1.
          1    1    5    5  503    0  0.20049545365E+02  0.17339666547E+03 -0.49835431644E+03  0.52803921500E+03  0.00000000000E+00 0. -1.
         -2    1    5    5    0  503  0.23185677705E+02  0.11021376112E+03 -0.17550384292E+03  0.20853356485E+03  0.00000000000E+00 0.  1.
         -3    1    6    6    0  502 -0.14389145244E+03 -0.25578578396E+02  0.46544047908E+02  0.15337979709E+03  0.00000000000E+00 0.  1.
<mgrwt>
<rscale>  0 0.12438228E+04</rscale>
<asrwt>0</asrwt>
<pdfrwt beam="1">  1        2 0.15436466E+00 0.12438228E+04</pdfrwt>
<pdfrwt beam="2">  1       -2 0.59303788E-01 0.12438228E+04</pdfrwt>
<totfact> 0.65469899E+01</totfact>
</mgrwt>
</event>
<event>
12    1  0.1467288E-007  0.2461855E+04  0.7818608E-02  0.8416702E-01
          3   -1    0    0  501    0  0.00000000000E+00  0.00000000000E+00  0.18469789104E+04  0.18469789104E+04  0.00000000000E+00 0. -1.
         -3   -1    0    0    0  501 -0.00000000000E+00 -0.00000000000E+00 -0.82035732677E+03  0.82035732677E+03  0.00000000000E+00 0.  1.
         23    2    1    2    0    0  0.78086662859E+03 -0.97126501562E+01  0.12370517964E+04  0.14669994975E+04  0.10928564194E+03 0.  0.
        254    2    1    2    0    0 -0.78086662859E+03  0.97126501562E+01 -0.21043021277E+03  0.12003367396E+04  0.88695004757E+03 0.  0.
        -24    2    4    4    0    0  0.37168420440E+02  0.27139523931E+03  0.67917120018E+02  0.29346657205E+03  0.80455119915E+02 0.  0.
         24    2    4    4    0    0 -0.81803504903E+03 -0.26168258916E+03 -0.27834733279E+03  0.90687016760E+03  0.85306179737E+02 0.  0.
         13    1    3    3    0    0  0.65437129961E+03  0.16553443554E+02  0.10881744239E+04  0.12698816445E+04  0.00000000000E+00 0. -1.
        -13    1    3    3    0    0  0.12649532898E+03 -0.26266093710E+02  0.14887737253E+03  0.19711785303E+03  0.00000000000E+00 0.  1.
          2    1    6    6  502    0 -0.47139014585E+03 -0.19260104604E+03 -0.15042068808E+03  0.53097101233E+03  0.00000000000E+00 0. -1.
          1    1    5    5  503    0  0.36787478684E+02  0.43423036733E+02  0.59444183548E+01  0.57220755121E+02  0.00000000000E+00 0. -1.
         -2    1    5    5    0  503  0.38094175567E+00  0.22797220258E+03  0.61972701663E+02  0.23624581693E+03  0.00000000000E+00 0.  1.
         -1    1    6    6    0  502 -0.34664490318E+03 -0.69081543117E+02 -0.12792664470E+03  0.37589915526E+03  0.00000000000E+00 0.  1.
<mgrwt>
<rscale>  0 0.24618551E+04</rscale>
<asrwt>0</asrwt>
<pdfrwt beam="1">  1        3 0.28415060E+00 0.24618551E+04</pdfrwt>
<pdfrwt beam="2">  1       -3 0.12620882E+00 0.24618551E+04</pdfrwt>
<totfact> 0.55137261E-02</totfact>
</mgrwt>
</event>
<event>
12    1  0.1467288E-007  0.1662498E+04  0.7818608E-02  0.8783047E-01
          2   -1    0    0  501    0  0.00000000000E+00  0.00000000000E+00  0.87934362713E+03  0.87934362713E+03  0.00000000000E+00 0. -1.
         -2   -1    0    0    0  501 -0.00000000000E+00 -0.00000000000E+00 -0.78578496940E+03  0.78578496940E+03  0.00000000000E+00 0.  1.
         23    2    1    2    0    0  0.25848267343E+02 -0.51073949212E+03 -0.24538560785E+03  0.57407982707E+03  0.88490618544E+02 0.  0.
        254    2    1    2    0    0 -0.25848267343E+02  0.51073949212E+03  0.33894426559E+03  0.10910487695E+04  0.90220908909E+03 0.  0.
        -24    2    4    4    0    0  0.86913008898E+01  0.12053553802E+03 -0.30244998779E+03  0.33515095922E+03  0.79030473304E+02 0.  0.
         24    2    4    4    0    0 -0.34539568232E+02  0.39020395410E+03  0.64139425338E+03  0.75589781024E+03  0.80887599104E+02 0.  0.
         13    1    3    3    0    0 -0.92168886013E+01 -0.34294502748E+03 -0.19853281171E+03  0.39637295598E+03  0.00000000000E+00 0. -1.
        -13    1    3    3    0    0  0.35065155944E+02 -0.16779446464E+03 -0.46852796147E+02  0.17770687109E+03  0.00000000000E+00 0.  1.
          4    1    6    6  502    0 -0.28058164546E+02  0.17700650953E+03  0.22139383058E+03  0.28483994319E+03  0.00000000000E+00 0. -1.
          1    1    5    5  503    0  0.95363230573E+01  0.61400409307E+02 -0.62928579450E+02  0.88436179430E+02  0.00000000000E+00 0. -1.
         -2    1    5    5    0  503 -0.84502216748E+00  0.59135128713E+02 -0.23952140834E+03  0.24671477979E+03  0.00000000000E+00 0.  1.
         -3    1    6    6    0  502 -0.64814036868E+01  0.21319744457E+03  0.42000042280E+03  0.47105786706E+03  0.00000000000E+00 0.  1.
<mgrwt>
<rscale>  0 0.16624981E+04</rscale>
<asrwt>0</asrwt>
<pdfrwt beam="1">  1        2 0.13528364E+00 0.16624981E+04</pdfrwt>
<pdfrwt beam="2">  1       -2 0.12088999E+00 0.16624981E+04</pdfrwt>
<totfact> 0.15068425E+01</totfact>
</mgrwt>
</event>
<event>
12    1  0.1467288E-007  0.1368341E+04  0.7818608E-02  0.8977059E-01
          1   -1    0    0  501    0  0.00000000000E+00  0.00000000000E+00  0.66875711101E+03  0.66875711101E+03  0.00000000000E+00 0. -1.
         -1   -1    0    0    0  501 -0.00000000000E+00 -0.00000000000E+00 -0.69993939254E+03  0.69993939254E+03  0.00000000000E+00 0.  1.
         23    2    1    2    0    0 -0.17402289248E+03  0.27055491610E+03 -0.21072258939E+03  0.39500249439E+03  0.90216579173E+02 0.  0.
        254    2    1    2    0    0  0.17402289248E+03 -0.27055491610E+03  0.17954030786E+03  0.97369400916E+03  0.90131091838E+03 0.  0.
        -24    2    4    4    0    0 -0.60165329913E+02  0.30972692105E+03  0.80112119191E+02  0.33511811712E+03  0.79596282781E+02 0.  0.
         24    2    4    4    0    0  0.23418822239E+03 -0.58028183715E+03  0.99428188673E+02  0.63857589205E+03  0.79511453032E+02 0.  0.
         11    1    3    3    0    0 -0.14715006777E+03  0.18345023963E+03 -0.18793219144E+03  0.30104092985E+03  0.00000000000E+00 0.  1.
        -11    1    3    3    0    0 -0.26872824709E+02  0.87104676476E+02 -0.22790397950E+02  0.93961564539E+02  0.00000000000E+00 0. -1.
          2    1    6    6  502    0  0.15469114153E+03 -0.40000931064E+03  0.10473434760E+03  0.44148168867E+03  0.00000000000E+00 0. -1.
          1    1    5    5  503    0 -0.15000047134E+02  0.20139003989E+03  0.81401665254E+02  0.21773649369E+03  0.00000000000E+00 0. -1.
         -2    1    5    5    0  503 -0.45165282779E+02  0.10833688116E+03 -0.12895460632E+01  0.11738162342E+03  0.00000000000E+00 0.  1.
         -1    1    6    6    0  502  0.79497080863E+02 -0.18027252651E+03 -0.53061589246E+01  0.19709420337E+03  0.00000000000E+00 0.  1.
<mgrwt>
<rscale>  0 0.13683413E+04</rscale>
<asrwt>0</asrwt>
<pdfrwt beam="1">  1        1 0.10288571E+00 0.13683413E+04</pdfrwt>
<pdfrwt beam="2">  1       -1 0.10768298E+00 0.13683413E+04</pdfrwt>
<totfact> 0.22907636E+01</totfact>
</mgrwt>
</event>
<event>
12    1  0.1467288E-007  0.2272048E+04  0.7818608E-02  0.8489024E-01
          2   -1    0    0  501    0  0.00000000000E+00  0.00000000000E+00  0.20181183527E+04  0.20181183527E+04  0.00000000000E+00 0. -1.
         -2   -1    0    0    0  501 -0.00000000000E+00 -0.00000000000E+00 -0.63948218658E+03  0.63948218658E+03  0.00000000000E+00 0.  1.
         23    2    1    2    0    0  0.87688793081E+02  0.83941205627E+03  0.11063219155E+04  0.13943596068E+04  0.89379011684E+02 0.  0.
        254    2    1    2    0    0 -0.87688793081E+02 -0.83941205627E+03  0.27231425067E+03  0.12632409325E+04  0.89962251962E+03 0.  0.
        -24    2    4    4    0    0  0.13784333978E+03 -0.84610518643E+03  0.44263364693E+03  0.96798669361E+03  0.78606111644E+02 0.  0.
         24    2    4    4    0    0 -0.22553213286E+03  0.66931301604E+01 -0.17031939626E+03  0.29525423890E+03  0.85187017202E+02 0.  0.
         13    1    3    3    0    0  0.16840278331E+02  0.24210389670E+03  0.38562946188E+03  0.45564018001E+03  0.00000000000E+00 0. -1.
        -13    1    3    3    0    0  0.70848514750E+02  0.59730815957E+03  0.72069245358E+03  0.93871942676E+03  0.00000000000E+00 0.  1.
          4    1    6    6  502    0 -0.33354916612E+02  0.17511652996E+02 -0.66826908526E+02  0.76714041453E+02  0.00000000000E+00 0. -1.
          1    1    5    5  503    0  0.36407737975E+02 -0.11554790532E+03  0.39414753427E+02  0.12739844817E+03  0.00000000000E+00 0. -1.
         -2    1    5    5    0  503  0.10143560181E+03 -0.73055728111E+03  0.40321889351E+03  0.84058824544E+03  0.00000000000E+00 0.  1.
         -3    1    6    6    0  502 -0.19217721625E+03 -0.10818522836E+02 -0.10349248774E+03  0.21854019745E+03  0.00000000000E+00 0.  1.
<mgrwt>
<rscale>  0 0.22720482E+04</rscale>
<asrwt>0</asrwt>
<pdfrwt beam="1">  1        2 0.31047974E+00 0.22720482E+04</pdfrwt>
<pdfrwt beam="2">  1       -2 0.98381876E-01 0.22720482E+04</pdfrwt>
<totfact> 0.50919125E+00</totfact>
</mgrwt>
</event>
<event>
12    1  0.1467288E-007  0.1289457E+04  0.7818608E-02  0.9037968E-01
         -2   -1    0    0    0  501 -0.00000000000E+00  0.00000000000E+00  0.91884919666E+03  0.91884919666E+03  0.00000000000E+00 0. -1.
          2   -1    0    0  501    0  0.00000000000E+00 -0.00000000000E+00 -0.45238617114E+03  0.45238617114E+03  0.00000000000E+00 0.  1.
         23    2    1    2    0    0 -0.20858630351E+03  0.24812128764E+03  0.15522014892E+03  0.37109123423E+03  0.92428297070E+02 0.  0.
        254    2    1    2    0    0  0.20858630351E+03 -0.24812128764E+03  0.31124287660E+03  0.10001441336E+04  0.89350083396E+03 0.  0.
        -24    2    4    4    0    0  0.40221195577E+03 -0.17844027248E+03 -0.16379232133E+03  0.47639973383E+03  0.80705598678E+02 0.  0.
         24    2    4    4    0    0 -0.19362565226E+03 -0.69681015164E+02  0.47503519793E+03  0.52374439974E+03  0.79394079741E+02 0.  0.
         13    1    3    3    0    0 -0.84448606422E+02  0.11760477383E+03  0.11888327926E+03  0.18733842116E+03  0.00000000000E+00 0. -1.
        -13    1    3    3    0    0 -0.12413769708E+03  0.13051651381E+03  0.36336869660E+02  0.18375281307E+03  0.00000000000E+00 0.  1.
          2    1    6    6  502    0 -0.15032701971E+03 -0.71107506275E+02  0.29572836823E+03  0.33927829002E+03  0.00000000000E+00 0. -1.
          3    1    5    5  503    0  0.55410650284E+02  0.26912613406E+01 -0.12179087602E+02  0.56797123407E+02  0.00000000000E+00 0. -1.
         -4    1    5    5    0  503  0.34680130549E+03 -0.18113153382E+03 -0.15161323373E+03  0.41960261042E+03  0.00000000000E+00 0.  1.
         -3    1    6    6    0  502 -0.43298632554E+02  0.14264911110E+01  0.17930682970E+03  0.18446610972E+03  0.00000000000E+00 0.  1.
<mgrwt>
<rscale>  0 0.12894567E+04</rscale>
<asrwt>0</asrwt>
<pdfrwt beam="1">  1        2 0.69597873E-01 0.12894567E+04</pdfrwt>
<pdfrwt beam="2">  1       -2 0.14136141E+00 0.12894567E+04</pdfrwt>
<totfact> 0.23727440E+01</totfact>
</mgrwt>
</event>
<event>
12    1  0.1467288E-007  0.1543019E+04  0.7818608E-02  0.8856339E-01
         -2   -1    0    0    0  501 -0.00000000000E+00  0.00000000000E+00  0.13076368217E+04  0.13076368217E+04  0.00000000000E+00 0.  1.
          2   -1    0    0  501    0  0.00000000000E+00 -0.00000000000E+00 -0.45519254401E+03  0.45519254401E+03  0.00000000000E+00 0. -1.
         23    2    1    2    0    0 -0.25543867092E+02  0.49456898307E+03  0.38805156305E+03  0.63618997046E+03  0.94354092486E+02 0.  0.
        254    2    1    2    0    0  0.25543867092E+02 -0.49456898307E+03  0.46439271462E+03  0.11266393952E+04  0.89911332173E+03 0.  0.
        -24    2    4    4    0    0  0.14731038504E+03 -0.23313209778E+02  0.59353006836E+03  0.61693516171E+03  0.78020487142E+02 0.  0.
         24    2    4    4    0    0 -0.12176651795E+03 -0.47125577330E+03 -0.12913735374E+03  0.50970423351E+03  0.78821702403E+02 0.  0.
         13    1    3    3    0    0 -0.56146828580E+02  0.23466953740E+03  0.20763499723E+03  0.31833088166E+03  0.00000000000E+00 0.  1.
        -13    1    3    3    0    0  0.30602961488E+02  0.25989944568E+03  0.18041656582E+03  0.31785908881E+03  0.00000000000E+00 0. -1.
          2    1    6    6  502    0 -0.42625872657E+02 -0.31104685117E+03 -0.72034294604E+02  0.32211185672E+03  0.00000000000E+00 0. -1.
          3    1    5    5  503    0  0.11212973231E+03  0.12641667392E+02  0.47410172775E+03  0.48734519273E+03  0.00000000000E+00 0. -1.
         -4    1    5    5    0  503  0.35180652730E+02 -0.35954877170E+02  0.11942834062E+03  0.12958996898E+03  0.00000000000E+00 0.  1.
         -1    1    6    6    0  502 -0.79140645294E+02 -0.16020892213E+03 -0.57103059136E+02  0.18759237679E+03  0.00000000000E+00 0.  1.
<mgrwt>
<rscale>  0 0.15430185E+04</rscale>
<asrwt>0</asrwt>
<pdfrwt beam="1">  1        2 0.70029623E-01 0.15430185E+04</pdfrwt>
<pdfrwt beam="2">  1       -2 0.20117489E+00 0.15430185E+04</pdfrwt>
<totfact> 0.86286339E+00</totfact>
</mgrwt>
</event>
<event>
12    1  0.1467288E-007  0.2562848E+04  0.7818608E-02  0.8380931E-01
         -1   -1    0    0    0  501 -0.00000000000E+00  0.00000000000E+00  0.15037097482E+04  0.15037097482E+04  0.00000000000E+00 0.  1.
          1   -1    0    0  501    0  0.00000000000E+00 -0.00000000000E+00 -0.10919979065E+04  0.10919979065E+04  0.00000000000E+00 0. -1.
         23    2    1    2    0    0 -0.87487192588E+03  0.69695801977E+03  0.28757480488E+03  0.11585982307E+04  0.92191234204E+02 0.  0.
        254    2    1    2    0    0  0.87487192588E+03 -0.69695801977E+03  0.12413703678E+03  0.14371094240E+04  0.89371255144E+03 0.  0.
        -24    2    4    4    0    0  0.73684580260E+03 -0.70272809977E+03  0.41835267420E+03  0.11038163269E+04  0.81381844301E+02 0.  0.
         24    2    4    4    0    0  0.13802612328E+03  0.57700800031E+01 -0.29421563742E+03  0.33329309706E+03  0.73735627144E+02 0.  0.
         13    1    3    3    0    0 -0.16114291355E+03  0.91403321890E+02  0.66546337427E+02  0.19685024985E+03  0.00000000000E+00 0. -1.
        -13    1    3    3    0    0 -0.71372901233E+03  0.60555469788E+03  0.22102846746E+03  0.96174798081E+03  0.00000000000E+00 0.  1.
          2    1    6    6  502    0  0.13200294866E+02 -0.24167636598E+02 -0.64760106605E+02  0.70371825689E+02  0.00000000000E+00 0. -1.
          1    1    5    5  503    0  0.34566879704E+03 -0.38588434144E+03  0.21259711976E+03  0.55999212275E+03  0.00000000000E+00 0. -1.
         -2    1    5    5    0  503  0.39117700556E+03 -0.31684375834E+03  0.20575555444E+03  0.54382420418E+03  0.00000000000E+00 0.  1.
         -1    1    6    6    0  502  0.12482582842E+03  0.29937716601E+02 -0.22945553082E+03  0.26292127137E+03  0.00000000000E+00 0.  1.
<mgrwt>
<rscale>  0 0.25628483E+04</rscale>
<asrwt>0</asrwt>
<pdfrwt beam="1">  1        1 0.16799968E+00 0.25628483E+04</pdfrwt>
<pdfrwt beam="2">  1       -1 0.23133996E+00 0.25628483E+04</pdfrwt>
<totfact> 0.10505106E+00</totfact>
</mgrwt>
</event>
<event>
12    1  0.1467288E-007  0.1045746E+04  0.7818608E-02  0.9259747E-01
         -1   -1    0    0    0  501 -0.00000000000E+00  0.00000000000E+00  0.33244469050E+03  0.33244469050E+03  0.00000000000E+00 0.  1.
          1   -1    0    0  501    0  0.00000000000E+00 -0.00000000000E+00 -0.82238100453E+03  0.82238100453E+03  0.00000000000E+00 0. -1.
         23    2    1    2    0    0  0.82743286215E+02  0.64600926545E+02 -0.10024206557E+03  0.17099210450E+03  0.90388588700E+02 0.  0.
        254    2    1    2    0    0 -0.82743286215E+02 -0.64600926545E+02 -0.38969424845E+03  0.98383359053E+03  0.89724422286E+03 0.  0.
        -24    2    4    4    0    0  0.18020227085E+02  0.17245529404E+03 -0.60767775008E+03  0.63692345994E+03  0.79584476225E+02 0.  0.
         24    2    4    4    0    0 -0.10076351330E+03 -0.23705622058E+03  0.21798350163E+03  0.34691013059E+03  0.80504002336E+02 0.  0.
         13    1    3    3    0    0  0.89942495960E+02  0.52626563163E+02 -0.44129723012E+02  0.11316642693E+03  0.00000000000E+00 0. -1.
        -13    1    3    3    0    0 -0.71992097452E+01  0.11974363382E+02 -0.56112342561E+02  0.57825677575E+02  0.00000000000E+00 0.  1.
          2    1    6    6  502    0 -0.87712336374E+02 -0.20480321584E+03  0.14435193960E+03  0.26547183210E+03  0.00000000000E+00 0. -1.
          3    1    5    5  503    0 -0.56476182260E+01  0.14427916938E+03 -0.54893277761E+03  0.56760511682E+03  0.00000000000E+00 0. -1.
         -4    1    5    5    0  503  0.23667845311E+02  0.28176124653E+02 -0.58744972471E+02  0.69318343119E+02  0.00000000000E+00 0.  1.
         -1    1    6    6    0  502 -0.13051176926E+02 -0.32253004738E+02  0.73631562026E+02  0.81438298485E+02  0.00000000000E+00 0.  1.
<mgrwt>
<rscale>  0 0.10457460E+04</rscale>
<asrwt>0</asrwt>
<pdfrwt beam="1">  1        1 0.12652015E+00 0.10457460E+04</pdfrwt>
<pdfrwt beam="2">  1       -1 0.51145338E-01 0.10457460E+04</pdfrwt>
<totfact> 0.81241098E+01</totfact>
</mgrwt>
</event>
<event>
12    1  0.1467288E-007  0.1382745E+04  0.7818608E-02  0.8966404E-01
          2   -1    0    0  501    0  0.00000000000E+00  0.00000000000E+00  0.19655652578E+04  0.19655652578E+04  0.00000000000E+00 0. -1.
         -2   -1    0    0    0  501 -0.00000000000E+00 -0.00000000000E+00 -0.24318508810E+03  0.24318508810E+03  0.00000000000E+00 0.  1.
         23    2    1    2    0    0 -0.28836905663E+03 -0.26995164968E+03  0.46022165677E+03  0.61280666539E+03  0.87734997580E+02 0.  0.
        254    2    1    2    0    0  0.28836905663E+03  0.26995164968E+03  0.12621585129E+04  0.15959436805E+04  0.89328691564E+03 0.  0.
        -24    2    4    4    0    0  0.27470502579E+03  0.46696732515E+03  0.32982936074E+03  0.63952979177E+03  0.81790056887E+02 0.  0.
         24    2    4    4    0    0  0.13664030835E+02 -0.19701567547E+03  0.93232915219E+03  0.95641388875E+03  0.80548100239E+02 0.  0.
         11    1    3    3    0    0 -0.23602208674E+03 -0.19357523249E+03  0.39656934203E+03  0.50044484122E+03  0.00000000000E+00 0. -1.
        -11    1    3    3    0    0 -0.52346969884E+02 -0.76376417191E+02  0.63652314733E+02  0.11236182417E+03  0.00000000000E+00 0.  1.
          2    1    6    6  502    0  0.19538995805E+02 -0.39342434480E+02  0.99424388147E+02  0.10869594503E+03  0.00000000000E+00 0. -1.
          1    1    5    5  503    0  0.20718328494E+02  0.76563677858E+02  0.26130874564E+02  0.83510888561E+02  0.00000000000E+00 0. -1.
         -2    1    5    5    0  503  0.25398669730E+03  0.39040364729E+03  0.30369848618E+03  0.55601890321E+03  0.00000000000E+00 0.  1.
         -1    1    6    6    0  502 -0.58749649705E+01 -0.15767324099E+03  0.83290476404E+03  0.84771794372E+03  0.00000000000E+00 0.  1.
<mgrwt>
<rscale>  0 0.13827453E+04</rscale>
<asrwt>0</asrwt>
<pdfrwt beam="1">  1        2 0.30239464E+00 0.13827453E+04</pdfrwt>
<pdfrwt beam="2">  1       -2 0.37413092E-01 0.13827453E+04</pdfrwt>
<totfact> 0.45868656E+01</totfact>
</mgrwt>
</event>
<event>
12    1  0.1467288E-007  0.1451335E+04  0.7818608E-02  0.8917475E-01
         -1   -1    0    0    0  501 -0.00000000000E+00  0.00000000000E+00  0.91213483871E+03  0.91213483871E+03  0.00000000000E+00 0. -1.
          1   -1    0    0  501    0  0.00000000000E+00 -0.00000000000E+00 -0.57731963394E+03  0.57731963394E+03  0.00000000000E+00 0.  1.
         23    2    1    2    0    0  0.92847517896E+02 -0.21644985439E+03  0.48771471010E+03  0.54884605503E+03  0.88854671395E+02 0.  0.
        254    2    1    2    0    0 -0.92847517896E+02  0.21644985439E+03 -0.15289950532E+03  0.94060841762E+03  0.89771640039E+03 0.  0.
        -24    2    4    4    0    0  0.11551750626E+02 -0.33841775330E+03 -0.12437591437E+03  0.36952229262E+03  0.80108289061E+02 0.  0.
         24    2    4    4    0    0 -0.10439926852E+03  0.55486760769E+03 -0.28523590953E+02  0.57108612499E+03  0.80922787793E+02 0.  0.
         13    1    3    3    0    0  0.22087469316E+02 -0.33464272221E+02  0.27677776834E+02  0.48721382847E+02  0.00000000000E+00 0.  1.
        -13    1    3    3    0    0  0.70760048580E+02 -0.18298558217E+03  0.46003693327E+03  0.50012467218E+03  0.00000000000E+00 0. -1.
          4    1    6    6  502    0 -0.82582249239E+02  0.51089891889E+03 -0.44570003551E+02  0.51944587633E+03  0.00000000000E+00 0. -1.
          3    1    5    5  503    0  0.51590711897E+01 -0.33537567728E+03 -0.10914539016E+03  0.35272677403E+03  0.00000000000E+00 0. -1.
         -4    1    5    5    0  503  0.63926794360E+01 -0.30420760238E+01 -0.15230524214E+02  0.16795518591E+02  0.00000000000E+00 0.  1.
         -3    1    6    6    0  502 -0.21817019283E+02  0.43968688800E+02  0.16046412598E+02  0.51640248668E+02  0.00000000000E+00 0.  1.
<mgrwt>
<rscale>  0 0.14513350E+04</rscale>
<asrwt>0</asrwt>
<pdfrwt beam="1">  1        1 0.88818405E-01 0.14513350E+04</pdfrwt>
<pdfrwt beam="2">  1       -1 0.14032844E+00 0.14513350E+04</pdfrwt>
<totfact> 0.14649094E+01</totfact>
</mgrwt>
</event>
<event>
12    1  0.1467288E-007  0.1770021E+04  0.7818608E-02  0.8722407E-01
         -2   -1    0    0    0  501 -0.00000000000E+00  0.00000000000E+00  0.51931118766E+03  0.51931118766E+03  0.00000000000E+00 0.  1.
          2   -1    0    0  501    0  0.00000000000E+00 -0.00000000000E+00 -0.15082351535E+04  0.15082351535E+04  0.00000000000E+00 0. -1.
         23    2    1    2    0    0 -0.23914654479E+03 -0.56065109252E+03 -0.61962101451E+03  0.87372585518E+03  0.89140063708E+02 0.  0.
        254    2    1    2    0    0  0.23914654479E+03  0.56065109252E+03 -0.36930295134E+03  0.11538204860E+04  0.90741188366E+03 0.  0.
        -24    2    4    4    0    0  0.43202276648E+03  0.72766328545E+02 -0.43094973052E+03  0.61954040367E+03  0.78575010099E+02 0.  0.
         24    2    4    4    0    0 -0.19287622169E+03  0.48788476397E+03  0.61646779175E+02  0.53428008233E+03  0.80138013333E+02 0.  0.
         13    1    3    3    0    0 -0.22149998470E+03 -0.55201613528E+03 -0.58719192079E+03  0.83581003144E+03  0.00000000000E+00 0. -1.
        -13    1    3    3    0    0 -0.17646560096E+02 -0.86349572422E+01 -0.32429093721E+02  0.37915823733E+02  0.00000000000E+00 0.  1.
          2    1    6    6  502    0 -0.19505319827E+03  0.46837451776E+03  0.46515282839E+02  0.50949397502E+03  0.00000000000E+00 0. -1.
          1    1    5    5  503    0  0.24589662334E+03  0.60037980574E+02 -0.29494699465E+03  0.38866880263E+03  0.00000000000E+00 0. -1.
         -2    1    5    5    0  503  0.18612614314E+03  0.12728347971E+02 -0.13600273587E+03  0.23087160104E+03  0.00000000000E+00 0.  1.
         -1    1    6    6    0  502  0.21769765766E+01  0.19510246211E+02  0.15131496337E+02  0.24786107310E+02  0.00000000000E+00 0.  1.
<mgrwt>
<rscale>  0 0.17700208E+04</rscale>
<asrwt>0</asrwt>
<pdfrwt beam="1">  1        2 0.23203618E+00 0.17700208E+04</pdfrwt>
<pdfrwt beam="2">  1       -2 0.79894030E-01 0.17700208E+04</pdfrwt>
<totfact> 0.16476637E+01</totfact>
</mgrwt>
</event>
<event>
12    1  0.1467288E-007  0.1567192E+04  0.7818608E-02  0.8840961E-01
         -1   -1    0    0    0  501 -0.00000000000E+00  0.00000000000E+00  0.63530218006E+03  0.63530218006E+03  0.00000000000E+00 0.  1.
          1   -1    0    0  501    0  0.00000000000E+00 -0.00000000000E+00 -0.96650488896E+03  0.96650488896E+03  0.00000000000E+00 0. -1.
         23    2    1    2    0    0  0.14439760001E+03 -0.36343233029E+03  0.24213541416E+03  0.46859703672E+03  0.89553885701E+02 0.  0.
        254    2    1    2    0    0 -0.14439760001E+03  0.36343233029E+03 -0.57333812307E+03  0.11332100323E+04  0.89583181923E+03 0.  0.
        -24    2    4    4    0    0 -0.23639124074E+03  0.21945659591E+03  0.16490344620E+03  0.37109395245E+03  0.80470856799E+02 0.  0.
         24    2    4    4    0    0  0.91993640725E+02  0.14397573438E+03 -0.73824156927E+03  0.76211607984E+03  0.81415370356E+02 0.  0.
         11    1    3    3    0    0  0.39395879501E+02 -0.30430802037E+02  0.14746846772E+02  0.51918575905E+02  0.00000000000E+00 0. -1.
        -11    1    3    3    0    0  0.10500172051E+03 -0.33300152825E+03  0.22738856739E+03  0.41667846082E+03  0.00000000000E+00 0.  1.
          2    1    6    6  502    0  0.77392107471E+02  0.11471058480E+03 -0.69061183831E+03  0.70433853208E+03  0.00000000000E+00 0. -1.
          1    1    5    5  503    0 -0.22101136339E+03  0.22507876734E+03  0.15154206506E+03  0.34995924297E+03  0.00000000000E+00 0. -1.
         -2    1    5    5    0  503 -0.15379877345E+02 -0.56221714394E+01  0.13361381145E+02  0.21134709483E+02  0.00000000000E+00 0.  1.
         -1    1    6    6    0  502  0.14601533254E+02  0.29265149586E+02 -0.47629730959E+02  0.57777547758E+02  0.00000000000E+00 0.  1.
<mgrwt>
<rscale>  0 0.15671920E+04</rscale>
<asrwt>0</asrwt>
<pdfrwt beam="1">  1        1 0.14869306E+00 0.15671920E+04</pdfrwt>
<pdfrwt beam="2">  1       -1 0.97738797E-01 0.15671920E+04</pdfrwt>
<totfact> 0.15538699E+01</totfact>
</mgrwt>
</event>
<event>
12    1  0.1467288E-007  0.1508065E+04  0.7818608E-02  0.8879108E-01
         -1   -1    0    0    0  501 -0.00000000000E+00  0.00000000000E+00  0.58093303784E+03  0.58093303784E+03  0.00000000000E+00 0.  1.
          1   -1    0    0  501    0  0.00000000000E+00 -0.00000000000E+00 -0.97870955858E+03  0.97870955858E+03  0.00000000000E+00 0. -1.
         23    2    1    2    0    0  0.18779843286E+03 -0.10060341025E+03  0.30869759830E+03  0.38647316563E+03  0.93155799723E+02 0.  0.
        254    2    1    2    0    0 -0.18779843286E+03  0.10060341025E+03 -0.70647411903E+03  0.11731694308E+04  0.91204798938E+03 0.  0.
        -24    2    4    4    0    0 -0.68742176790E+02 -0.25368531107E+03  0.90353235133E+02  0.28940797302E+03  0.80694137508E+02 0.  0.
         24    2    4    4    0    0 -0.11905625607E+03  0.35428872131E+03 -0.79682735416E+03  0.88376145776E+03  0.80034940665E+02 0.  0.
         11    1    3    3    0    0  0.67147297580E+02 -0.81823467067E+02  0.10573435349E+03  0.14961147297E+03  0.00000000000E+00 0. -1.
        -11    1    3    3    0    0  0.12065113528E+03 -0.18779943178E+02  0.20296324481E+03  0.23686169267E+03  0.00000000000E+00 0.  1.
          4    1    6    6  502    0 -0.46539744512E+02  0.12495447322E+03 -0.37738328941E+03  0.40024706785E+03  0.00000000000E+00 0. -1.
          1    1    5    5  503    0  0.72685817525E+00  0.59876907006E+01  0.31975031150E+01  0.68267700198E+01  0.00000000000E+00 0. -1.
         -2    1    5    5    0  503 -0.69469034966E+02 -0.25967300177E+03  0.87155732018E+02  0.28258120300E+03  0.00000000000E+00 0.  1.
         -3    1    6    6    0  502 -0.72516511562E+02  0.22933424809E+03 -0.41944406475E+03  0.48351438991E+03  0.00000000000E+00 0.  1.
<mgrwt>
<rscale>  0 0.15080646E+04</rscale>
<asrwt>0</asrwt>
<pdfrwt beam="1">  1        1 0.15057070E+00 0.15080646E+04</pdfrwt>
<pdfrwt beam="2">  1       -1 0.89374314E-01 0.15080646E+04</pdfrwt>
<totfact> 0.18653644E+01</totfact>
</mgrwt>
</event>
<event>
12    1  0.1467288E-007  0.2439230E+04  0.7818608E-02  0.8424961E-01
         -2   -1    0    0    0  501 -0.00000000000E+00  0.00000000000E+00  0.63009053953E+03  0.63009053953E+03  0.00000000000E+00 0.  1.
          2   -1    0    0  501    0  0.00000000000E+00 -0.00000000000E+00 -0.23607086330E+04  0.23607086330E+04  0.00000000000E+00 0. -1.
         23    2    1    2    0    0 -0.43753229053E+03 -0.85288750478E+03 -0.12820030512E+04  0.16033899093E+04  0.92063982979E+02 0.  0.
        254    2    1    2    0    0  0.43753229053E+03  0.85288750478E+03 -0.44861504232E+03  0.13874092632E+04  0.89710501420E+03 0.  0.
        -24    2    4    4    0    0  0.63887135602E+03  0.51655259335E+03 -0.52680162976E+03  0.97914647191E+03  0.78896546873E+02 0.  0.
         24    2    4    4    0    0 -0.20133906549E+03  0.33633491143E+03  0.78186587445E+02  0.40826279134E+03  0.83106993662E+02 0.  0.
         13    1    3    3    0    0 -0.36159354986E+03 -0.69903431345E+03 -0.99002234474E+03  0.12647304494E+04  0.00000000000E+00 0. -1.
        -13    1    3    3    0    0 -0.75938740671E+02 -0.15385319133E+03 -0.29198070644E+03  0.33865945985E+03  0.00000000000E+00 0.  1.
          4    1    6    6  502    0 -0.12911745482E+03  0.24474794218E+03  0.18743572105E+02  0.27735211165E+03  0.00000000000E+00 0. -1.
          1    1    5    5  503    0  0.50472960453E+03  0.36649107143E+03 -0.40994399905E+03  0.74640589593E+03  0.00000000000E+00 0. -1.
         -2    1    5    5    0  503  0.13414175149E+03  0.15006152192E+03 -0.11685763071E+03  0.23274057598E+03  0.00000000000E+00 0.  1.
         -3    1    6    6    0  502 -0.72221610665E+02  0.91586969252E+02  0.59443015340E+02  0.13091067969E+03  0.00000000000E+00 0.  1.
<mgrwt>
<rscale>  0 0.24392295E+04</rscale>
<asrwt>0</asrwt>
<pdfrwt beam="1">  1        2 0.36318594E+00 0.24392295E+04</pdfrwt>
<pdfrwt beam="2">  1       -2 0.96937007E-01 0.24392295E+04</pdfrwt>
<totfact> 0.33354057E+00</totfact>
</mgrwt>
</event>
<event>
12    1  0.1467288E-007  0.2203280E+04  0.7818608E-02  0.8517064E-01
          2   -1    0    0  501    0  0.00000000000E+00  0.00000000000E+00  0.70243266938E+03  0.70243266938E+03  0.00000000000E+00 0. -1.
         -2   -1    0    0    0  501 -0.00000000000E+00 -0.00000000000E+00 -0.17277248535E+04  0.17277248535E+04  0.00000000000E+00 0.  1.
         23    2    1    2    0    0  0.17797717515E+03  0.46430233065E+03 -0.12874077024E+04  0.13830977590E+04  0.91040043211E+02 0.  0.
        254    2    1    2    0    0 -0.17797717515E+03 -0.46430233065E+03  0.26211551830E+03  0.10470597639E+04  0.88338953762E+03 0.  0.
        -24    2    4    4    0    0 -0.52235780141E+03 -0.37358082860E+03  0.14615842879E+03  0.66394224155E+03  0.83885073928E+02 0.  0.
         24    2    4    4    0    0  0.34438062626E+03 -0.90721502051E+02  0.11595708950E+03  0.38311752237E+03  0.80650992943E+02 0.  0.
         11    1    3    3    0    0  0.12189005147E+03  0.40510968503E+03 -0.10470970861E+04  0.11293287162E+04  0.00000000000E+00 0.  1.
        -11    1    3    3    0    0  0.56087123681E+02  0.59192645617E+02 -0.24031061635E+03  0.25376904277E+03  0.00000000000E+00 0. -1.
          2    1    6    6  502    0  0.23820119117E+03 -0.10045074970E+03  0.83273472766E+02  0.27159645037E+03  0.00000000000E+00 0. -1.
          1    1    5    5  503    0 -0.38919882445E+03 -0.23111502593E+03  0.10194170211E+03  0.46398490363E+03  0.00000000000E+00 0. -1.
         -2    1    5    5    0  503 -0.13315897696E+03 -0.14246580266E+03  0.44216726683E+02  0.19995733793E+03  0.00000000000E+00 0.  1.
         -1    1    6    6    0  502  0.10617943509E+03  0.97292476460E+01  0.32683616738E+02  0.11152107200E+03  0.00000000000E+00 0.  1.
<mgrwt>
<rscale>  0 0.22032797E+04</rscale>
<asrwt>0</asrwt>
<pdfrwt beam="1">  1        2 0.10806657E+00 0.22032797E+04</pdfrwt>
<pdfrwt beam="2">  1       -2 0.26580382E+00 0.22032797E+04</pdfrwt>
<totfact> 0.19165411E+00</totfact>
</mgrwt>
</event>
<event>
12    1  0.1467288E-007  0.1963282E+04  0.7818608E-02  0.8623982E-01
          2   -1    0    0  501    0  0.00000000000E+00  0.00000000000E+00  0.13945663357E+04  0.13945663357E+04  0.00000000000E+00 0.  1.
         -2   -1    0    0    0  501 -0.00000000000E+00 -0.00000000000E+00 -0.69098124465E+03  0.69098124465E+03  0.00000000000E+00 0. -1.
         23    2    1    2    0    0 -0.60195720770E+03  0.35526923446E+03 -0.63381117566E+02  0.70773092344E+03  0.91088885615E+02 0.  0.
        254    2    1    2    0    0  0.60195720770E+03 -0.35526923446E+03  0.76696620858E+03  0.13778166569E+04  0.90640656773E+03 0.  0.
        -24    2    4    4    0    0 -0.14531565290E+03 -0.35144716205E+03  0.20368660630E+03  0.43853224210E+03  0.78680029807E+02 0.  0.
         24    2    4    4    0    0  0.74727286060E+03 -0.38220724131E+01  0.56327960228E+03  0.93928441478E+03  0.80870050515E+02 0.  0.
         11    1    3    3    0    0 -0.30818385757E+03  0.20114028891E+03 -0.75834056018E+02  0.37574660337E+03  0.00000000000E+00 0. -1.
        -11    1    3    3    0    0 -0.29377335012E+03  0.15412894555E+03  0.12452938452E+02  0.33198432008E+03  0.00000000000E+00 0.  1.
          2    1    6    6  502    0  0.66544215296E+02  0.14340839977E+02  0.75388948886E+02  0.10157404144E+03  0.00000000000E+00 0. -1.
          3    1    5    5  503    0  0.48779771408E+01 -0.77148708360E+01  0.17536916415E+02  0.19770112047E+02  0.00000000000E+00 0. -1.
         -4    1    5    5    0  503 -0.15019363004E+03 -0.34373229121E+03  0.18614968988E+03  0.41876213006E+03  0.00000000000E+00 0.  1.
         -1    1    6    6    0  502  0.68072864530E+03 -0.18162912390E+02  0.48789065340E+03  0.83771037333E+03  0.00000000000E+00 0.  1.
<mgrwt>
<rscale>  0 0.19632821E+04</rscale>
<asrwt>0</asrwt>
<pdfrwt beam="1">  1        2 0.21454867E+00 0.19632821E+04</pdfrwt>
<pdfrwt beam="2">  1       -2 0.10630481E+00 0.19632821E+04</pdfrwt>
<totfact> 0.96925031E+00</totfact>
</mgrwt>
</event>
<event>
12    1  0.1467288E-007  0.2094539E+04  0.7818608E-02  0.8563653E-01
          1   -1    0    0  501    0  0.00000000000E+00  0.00000000000E+00  0.18692921247E+04  0.18692921247E+04  0.00000000000E+00 0. -1.
         -1   -1    0    0    0  501 -0.00000000000E+00 -0.00000000000E+00 -0.58673187454E+03  0.58673187454E+03  0.00000000000E+00 0.  1.
         23    2    1    2    0    0 -0.45870786912E+03 -0.41299525439E+03 -0.16683225499E+03  0.64530381333E+03  0.87212504037E+02 0.  0.
        254    2    1    2    0    0  0.45870786912E+03  0.41299525439E+03  0.14493925051E+04  0.18107201859E+04  0.89274350645E+03 0.  0.
        -24    2    4    4    0    0  0.24909899305E+03 -0.21089529412E+02  0.12588217197E+04  0.12860648447E+04  0.82677604131E+02 0.  0.
         24    2    4    4    0    0  0.20960887607E+03  0.43408478380E+03  0.19057078543E+03  0.52465534118E+03  0.81120418567E+02 0.  0.
         13    1    3    3    0    0 -0.80575369558E+02 -0.45656372317E+02 -0.87392722574E+00  0.92615648037E+02  0.00000000000E+00 0. -1.
        -13    1    3    3    0    0 -0.37813249956E+03 -0.36733888207E+03 -0.16595832776E+03  0.55268816529E+03  0.00000000000E+00 0.  1.
          2    1    6    6  502    0  0.16135622232E+02  0.87916828827E+02  0.57839945714E+02  0.10646683247E+03  0.00000000000E+00 0. -1.
          3    1    5    5  503    0  0.42227190716E+02 -0.15919328819E+02  0.11248808576E+03  0.12120284693E+03  0.00000000000E+00 0. -1.
         -4    1    5    5    0  503  0.20687180233E+03 -0.51702005922E+01  0.11463336339E+04  0.11648619978E+04  0.00000000000E+00 0.  1.
         -1    1    6    6    0  502  0.19347325384E+03  0.34616795497E+03  0.13273083972E+03  0.41818850871E+03  0.00000000000E+00 0.  1.
<mgrwt>
<rscale>  0 0.20945389E+04</rscale>
<asrwt>0</asrwt>
<pdfrwt beam="1">  1        1 0.28758340E+00 0.20945389E+04</pdfrwt>
<pdfrwt beam="2">  1       -1 0.90266443E-01 0.20945389E+04</pdfrwt>
<totfact> 0.40358054E+00</totfact>
</mgrwt>
</event>
<event>
12    1  0.1467288E-007  0.1686327E+04  0.7818608E-02  0.8769201E-01
          1   -1    0    0  501    0  0.00000000000E+00  0.00000000000E+00  0.22467370763E+04  0.22467370763E+04  0.00000000000E+00 0. -1.
         -1   -1    0    0    0  501 -0.00000000000E+00 -0.00000000000E+00 -0.31642558701E+03  0.31642558701E+03  0.00000000000E+00 0.  1.
         23    2    1    2    0    0  0.54457564878E+03 -0.21985266789E+03  0.62025689532E+03  0.85898284602E+03  0.90747345627E+02 0.  0.
        254    2    1    2    0    0 -0.54457564878E+03  0.21985266789E+03  0.13100545940E+04  0.17041798173E+04  0.91819822353E+03 0.  0.
        -24    2    4    4    0    0  0.44854310827E+01 -0.29341739435E+03  0.56948143757E+03  0.64571343460E+03  0.80764134897E+02 0.  0.
         24    2    4    4    0    0 -0.54906107986E+03  0.51327006224E+03  0.74057315641E+03  0.10584663827E+04  0.83595796017E+02 0.  0.
         13    1    3    3    0    0  0.50322408839E+03 -0.22710418389E+03  0.57099320080E+03  0.79425690355E+03  0.00000000000E+00 0.  1.
        -13    1    3    3    0    0  0.41351560393E+02  0.72515159930E+01  0.49263694520E+02  0.64725942472E+02  0.00000000000E+00 0. -1.
          4    1    6    6  502    0 -0.13791737721E+03  0.13461026784E+03  0.24290394440E+03  0.31007007813E+03  0.00000000000E+00 0. -1.
          1    1    5    5  503    0  0.21094086564E+02 -0.15989011249E+03  0.23342586285E+03  0.28372071128E+03  0.00000000000E+00 0. -1.
         -2    1    5    5    0  503 -0.16608655482E+02 -0.13352728186E+03  0.33605557472E+03  0.36199272332E+03  0.00000000000E+00 0.  1.
         -3    1    6    6    0  502 -0.41114370265E+03  0.37865979440E+03  0.49766921201E+03  0.74839630458E+03  0.00000000000E+00 0.  1.
<mgrwt>
<rscale>  0 0.16863275E+04</rscale>
<asrwt>0</asrwt>
<pdfrwt beam="1">  1        1 0.34565185E+00 0.16863275E+04</pdfrwt>
<pdfrwt beam="2">  1       -1 0.48680861E-01 0.16863275E+04</pdfrwt>
<totfact> 0.81507698E+00</totfact>
</mgrwt>
</event>
<event>
12    1  0.1467288E-007  0.1807704E+04  0.7818608E-02  0.8702214E-01
         -2   -1    0    0    0  501 -0.00000000000E+00  0.00000000000E+00  0.50515141953E+03  0.50515141953E+03  0.00000000000E+00 0.  1.
          2   -1    0    0  501    0  0.00000000000E+00 -0.00000000000E+00 -0.16172339614E+04  0.16172339614E+04  0.00000000000E+00 0. -1.
         23    2    1    2    0    0 -0.50917196398E+01 -0.63101778017E+03 -0.66185384137E+03  0.92067762501E+03  0.10671184258E+03 0.  0.
        254    2    1    2    0    0  0.50917196398E+01  0.63101778017E+03 -0.45022870052E+03  0.12017077559E+04  0.91825175382E+03 0.  0.
        -24    2    4    4    0    0  0.78627132576E+02 -0.21945469075E+03 -0.17607980396E+03  0.30143592803E+03  0.74276066647E+02 0.  0.
         24    2    4    4    0    0 -0.73535412936E+02  0.85047247092E+03 -0.27414889656E+03  0.90027182790E+03  0.81368703330E+02 0.  0.
         11    1    3    3    0    0 -0.52415888120E+02 -0.36511482907E+03 -0.40805956624E+03  0.55006260856E+03  0.00000000000E+00 0. -1.
        -11    1    3    3    0    0  0.47324168480E+02 -0.26590295110E+03 -0.25379427514E+03  0.37061501645E+03  0.00000000000E+00 0.  1.
          2    1    6    6  502    0 -0.49736838159E+02  0.46595993411E+03 -0.10899655841E+03  0.48111605981E+03  0.00000000000E+00 0. -1.
          1    1    5    5  503    0  0.73711660219E+02 -0.13783740880E+03 -0.14722933257E+03  0.21473014806E+03  0.00000000000E+00 0. -1.
         -2    1    5    5    0  503  0.49154723574E+01 -0.81617281947E+02 -0.28850471392E+02  0.86705779972E+02  0.00000000000E+00 0.  1.
         -1    1    6    6    0  502 -0.23798574777E+02  0.38451253681E+03 -0.16515233815E+03  0.41915576809E+03  0.00000000000E+00 0.  1.
<mgrwt>
<rscale>  0 0.18077036E+04</rscale>
<asrwt>0</asrwt>
<pdfrwt beam="1">  1        2 0.24880523E+00 0.18077036E+04</pdfrwt>
<pdfrwt beam="2">  1       -2 0.77715601E-01 0.18077036E+04</pdfrwt>
<totfact> 0.15179237E+01</totfact>
</mgrwt>
</event>
<event>
12    1  0.1467288E-007  0.1464535E+04  0.7818608E-02  0.8908385E-01
         -2   -1    0    0    0  501 -0.00000000000E+00  0.00000000000E+00  0.32841255104E+03  0.32841255104E+03  0.00000000000E+00 0. -1.
          2   -1    0    0  501    0  0.00000000000E+00 -0.00000000000E+00 -0.16327512941E+04  0.16327512941E+04  0.00000000000E+00 0.  1.
         23    2    1    2    0    0  0.11029874644E+03  0.15839033359E+03 -0.95349249840E+03  0.97708935294E+03  0.91117220585E+02 0.  0.
        254    2    1    2    0    0 -0.11029874644E+03 -0.15839033359E+03 -0.35084624466E+03  0.98407449220E+03  0.89891946668E+03 0.  0.
        -24    2    4    4    0    0 -0.57613267367E+02  0.25140433486E+03 -0.47359282545E+03  0.54599402138E+03  0.85415917137E+02 0.  0.
         24    2    4    4    0    0 -0.52685479076E+02 -0.40979466845E+03  0.12274658080E+03  0.43808047082E+03  0.78360358741E+02 0.  0.
         11    1    3    3    0    0 -0.52783872468E+01  0.62352156074E+02 -0.24827179060E+03  0.25603619811E+03  0.00000000000E+00 0.  1.
        -11    1    3    3    0    0  0.11557713369E+03  0.96038177517E+02 -0.70522070780E+03  0.72105315483E+03  0.00000000000E+00 0. -1.
          2    1    6    6  502    0 -0.24251917541E+02 -0.37077881713E+03  0.11646639484E+03  0.38939633777E+03  0.00000000000E+00 0. -1.
          1    1    5    5  503    0 -0.22290411266E+02  0.13610990022E+03 -0.33502985408E+03  0.36230894344E+03  0.00000000000E+00 0. -1.
         -2    1    5    5    0  503 -0.35322856101E+02  0.11529443464E+03 -0.13856297137E+03  0.18368507794E+03  0.00000000000E+00 0.  1.
         -1    1    6    6    0  502 -0.28433561535E+02 -0.39015851317E+02  0.62801859539E+01  0.48684133053E+02  0.00000000000E+00 0.  1.
<mgrwt>
<rscale>  0 0.14645354E+04</rscale>
<asrwt>0</asrwt>
<pdfrwt beam="1">  1        2 0.25119251E+00 0.14645354E+04</pdfrwt>
<pdfrwt beam="2">  1       -2 0.50525007E-01 0.14645354E+04</pdfrwt>
<totfact> 0.38359199E+01</totfact>
</mgrwt>
</event>
<event>
12    1  0.1467288E-007  0.1656523E+04  0.7818608E-02  0.8786557E-01
         -1   -1    0    0    0  501 -0.00000000000E+00  0.00000000000E+00  0.55692632987E+03  0.55692632987E+03  0.00000000000E+00 0.  1.
          1   -1    0    0  501    0  0.00000000000E+00 -0.00000000000E+00 -0.12317908194E+04  0.12317908194E+04  0.00000000000E+00 0. -1.
         23    2    1    2    0    0  0.41832808614E+02  0.56637327009E+03 -0.12264378950E+03  0.58734752811E+03  0.86063666702E+02 0.  0.
        254    2    1    2    0    0 -0.41832808614E+02 -0.56637327009E+03 -0.55222070002E+03  0.12013696212E+04  0.90322344974E+03 0.  0.
        -24    2    4    4    0    0  0.22488098589E+03 -0.70669329146E+03 -0.31506380232E+03  0.80968105191E+03  0.79569719585E+02 0.  0.
         24    2    4    4    0    0 -0.26671379450E+03  0.14032002137E+03 -0.23715689770E+03  0.39168856925E+03  0.79690555122E+02 0.  0.
         13    1    3    3    0    0  0.13877306000E+02  0.14069430441E+02 -0.12765767008E+02  0.23526438363E+02  0.00000000000E+00 0.  1.
        -13    1    3    3    0    0  0.27955502614E+02  0.55230383965E+03 -0.10987802249E+03  0.56382108975E+03  0.00000000000E+00 0. -1.
          4    1    6    6  502    0 -0.20514353010E+03  0.10050053550E+03 -0.21831095536E+03  0.31598085196E+03  0.00000000000E+00 0. -1.
          3    1    5    5  503    0  0.17584345061E+03 -0.58297939203E+03 -0.22580666661E+03  0.64944171512E+03  0.00000000000E+00 0. -1.
         -4    1    5    5    0  503  0.49037535281E+02 -0.12371389943E+03 -0.89257135708E+02  0.16023933679E+03  0.00000000000E+00 0.  1.
         -3    1    6    6    0  502 -0.61570264406E+02  0.39819485869E+02 -0.18845942345E+02  0.75707717287E+02  0.00000000000E+00 0.  1.
<mgrwt>
<rscale>  0 0.16565226E+04</rscale>
<asrwt>0</asrwt>
<pdfrwt beam="1">  1        1 0.18950628E+00 0.16565226E+04</pdfrwt>
<pdfrwt beam="2">  1       -1 0.85680974E-01 0.16565226E+04</pdfrwt>
<totfact> 0.13019114E+01</totfact>
</mgrwt>
</event>
<event>
12    1  0.1467288E-007  0.1596910E+04  0.7818608E-02  0.8822449E-01
         -1   -1    0    0    0  501 -0.00000000000E+00  0.00000000000E+00  0.79106815865E+03  0.79106815865E+03  0.00000000000E+00 0.  1.
          1   -1    0    0  501    0  0.00000000000E+00 -0.00000000000E+00 -0.80591088717E+03  0.80591088717E+03  0.00000000000E+00 0. -1.
         23    2    1    2    0    0  0.39037951911E+03  0.13467339297E+02 -0.37109094984E+03  0.54690849035E+03  0.93930110169E+02 0.  0.
        254    2    1    2    0    0 -0.39037951911E+03 -0.13467339297E+02  0.35624822132E+03  0.10500705555E+04  0.90728046276E+03 0.  0.
        -24    2    4    4    0    0 -0.37913825045E+03 -0.37676688420E+03  0.40377166631E+03  0.67450235603E+03  0.78884547173E+02 0.  0.
         24    2    4    4    0    0 -0.11241268662E+02  0.36329954491E+03 -0.47523444996E+02  0.37556819945E+03  0.81731690062E+02 0.  0.
         11    1    3    3    0    0  0.35584656294E+02  0.27986293513E+01 -0.34239892979E+01  0.35858385247E+02  0.00000000000E+00 0.  1.
        -11    1    3    3    0    0  0.35479486282E+03  0.10668709946E+02 -0.36766696054E+03  0.51105010510E+03  0.00000000000E+00 0. -1.
          4    1    6    6  502    0 -0.25561360999E+02  0.34700361714E+03 -0.33094631486E+02  0.34951416012E+03  0.00000000000E+00 0. -1.
          1    1    5    5  503    0 -0.34221672532E+03 -0.34386822250E+03  0.39187968447E+03  0.62364038406E+03  0.00000000000E+00 0. -1.
         -2    1    5    5    0  503 -0.36921525127E+02 -0.32898661708E+02  0.11891981840E+02  0.50861971963E+02  0.00000000000E+00 0.  1.
         -3    1    6    6    0  502  0.14320092338E+02  0.16295927763E+02 -0.14428813510E+02  0.26054039332E+02  0.00000000000E+00 0.  1.
<mgrwt>
<rscale>  0 0.15969101E+04</rscale>
<asrwt>0</asrwt>
<pdfrwt beam="1">  1        1 0.12398629E+00 0.15969101E+04</pdfrwt>
<pdfrwt beam="2">  1       -1 0.12170279E+00 0.15969101E+04</pdfrwt>
<totfact> 0.12542885E+01</totfact>
</mgrwt>
</event>
<event>
12    1  0.1467288E-007  0.1501207E+04  0.7818608E-02  0.8883651E-01
          2   -1    0    0  501    0  0.00000000000E+00  0.00000000000E+00  0.10459667126E+04  0.10459667126E+04  0.00000000000E+00 0. -1.
         -2   -1    0    0    0  501 -0.00000000000E+00 -0.00000000000E+00 -0.53864549634E+03  0.53864549634E+03  0.00000000000E+00 0.  1.
         23    2    1    2    0    0  0.40900365135E+03 -0.24869267689E+03  0.10439489192E+03  0.49831050926E+03  0.91011185132E+02 0.  0.
        254    2    1    2    0    0 -0.40900365135E+03  0.24869267689E+03  0.40292632437E+03  0.10863016997E+04  0.88801448499E+03 0.  0.
        -24    2    4    4    0    0  0.20527989848E+03  0.20195924947E+03  0.35373778054E+03  0.46317151107E+03  0.80436659041E+02 0.  0.
         24    2    4    4    0    0 -0.61428354983E+03  0.46733427417E+02  0.49188543825E+02  0.62313018864E+03  0.79645629608E+02 0.  0.
         13    1    3    3    0    0  0.22808162922E+03 -0.97142814757E+02  0.82563089249E+02  0.26129412499E+03  0.00000000000E+00 0. -1.
        -13    1    3    3    0    0  0.18092202213E+03 -0.15154986213E+03  0.21831802675E+02  0.23701638427E+03  0.00000000000E+00 0.  1.
          2    1    6    6  502    0 -0.74116390879E+02 -0.29266497388E+01  0.30967802734E+02  0.80379160744E+02  0.00000000000E+00 0. -1.
          3    1    5    5  503    0  0.19576394675E+02  0.47246780512E+02  0.10245610211E+03  0.11451090060E+03  0.00000000000E+00 0. -1.
         -4    1    5    5    0  503  0.18570350380E+03  0.15471246896E+03  0.25128167844E+03  0.34866061047E+03  0.00000000000E+00 0.  1.
         -1    1    6    6    0  502 -0.54016715895E+03  0.49660077156E+02  0.18220741090E+02  0.54275102789E+03  0.00000000000E+00 0.  1.
<mgrwt>
<rscale>  0 0.15012065E+04</rscale>
<asrwt>0</asrwt>
<pdfrwt beam="1">  1        2 0.16091796E+00 0.15012065E+04</pdfrwt>
<pdfrwt beam="2">  1       -2 0.82868538E-01 0.15012065E+04</pdfrwt>
<totfact> 0.29044367E+01</totfact>
</mgrwt>
</event>
<event>
12    1  0.1467288E-007  0.1285823E+04  0.7818608E-02  0.9040884E-01
         -2   -1    0    0    0  501 -0.00000000000E+00  0.00000000000E+00  0.42870557926E+03  0.42870557926E+03  0.00000000000E+00 0.  1.
          2   -1    0    0  501    0  0.00000000000E+00 -0.00000000000E+00 -0.96414729421E+03  0.96414729421E+03  0.00000000000E+00 0. -1.
         23    2    1    2    0    0  0.13589982063E+03  0.25779440347E+02  0.16625394109E+03  0.23574122098E+03  0.93809432091E+02 0.  0.
        254    2    1    2    0    0 -0.13589982063E+03 -0.25779440347E+02 -0.70169565603E+03  0.11571116525E+04  0.90961378719E+03 0.  0.
        -24    2    4    4    0    0 -0.33684039073E+03  0.27377230546E+02 -0.83020860713E+03  0.89978232254E+03  0.78427896903E+02 0.  0.
         24    2    4    4    0    0  0.20094057010E+03 -0.53156670893E+02  0.12851295110E+03  0.25732932996E+03  0.80622956295E+02 0.  0.
         13    1    3    3    0    0  0.64944640141E+02  0.26691668017E+02  0.14590311106E+03  0.16191963822E+03  0.00000000000E+00 0.  1.
        -13    1    3    3    0    0  0.70955180490E+02 -0.91222766951E+00  0.20350830023E+02  0.73821582754E+02  0.00000000000E+00 0. -1.
          2    1    6    6  502    0  0.22019819942E+02 -0.63508887996E+01  0.52671112624E+02  0.57440859707E+02  0.00000000000E+00 0. -1.
          1    1    5    5  503    0 -0.39763090237E+02  0.29811108249E+02 -0.11002495857E+03  0.12072819484E+03  0.00000000000E+00 0. -1.
         -2    1    5    5    0  503 -0.29707730049E+03 -0.24338777030E+01 -0.72018364857E+03  0.77905412770E+03  0.00000000000E+00 0.  1.
         -1    1    6    6    0  502  0.17892075016E+03 -0.46805782094E+02  0.75841838480E+02  0.19988847025E+03  0.00000000000E+00 0.  1.
<mgrwt>
<rscale>  0 0.12858232E+04</rscale>
<asrwt>0</asrwt>
<pdfrwt beam="1">  1        2 0.14833035E+00 0.12858232E+04</pdfrwt>
<pdfrwt beam="2">  1       -2 0.65954705E-01 0.12858232E+04</pdfrwt>
<totfact> 0.55173892E+01</totfact>
</mgrwt>
</event>
<event>
12    1  0.1467288E-007  0.1381816E+04  0.7818608E-02  0.8967088E-01
         -1   -1    0    0    0  501 -0.00000000000E+00  0.00000000000E+00  0.20149660783E+03  0.20149660783E+03  0.00000000000E+00 0.  1.
          1   -1    0    0  501    0  0.00000000000E+00 -0.00000000000E+00 -0.23690400946E+04  0.23690400946E+04  0.00000000000E+00 0. -1.
         23    2    1    2    0    0  0.38857717658E+03  0.43281684448E+02 -0.70774841798E+03  0.81364916355E+03  0.90838382945E+02 0.  0.
        254    2    1    2    0    0 -0.38857717658E+03 -0.43281684448E+02 -0.14597950688E+04  0.17568875389E+04  0.89598362432E+03 0.  0.
        -24    2    4    4    0    0 -0.32667024638E+03  0.32566505064E+03 -0.12168398468E+04  0.13037985637E+04  0.80126818103E+02 0.  0.
         24    2    4    4    0    0 -0.61906930200E+02 -0.36894673509E+03 -0.24295522202E+03  0.45308897517E+03  0.79424292087E+02 0.  0.
         13    1    3    3    0    0  0.29180205488E+03  0.21860682597E+02 -0.59807682274E+03  0.66582446229E+03  0.00000000000E+00 0. -1.
        -13    1    3    3    0    0  0.96775121704E+02  0.21421001851E+02 -0.10967159524E+03  0.14782470126E+03  0.00000000000E+00 0.  1.
          2    1    6    6  502    0 -0.33847559949E+02 -0.32704123986E+03 -0.18902409307E+03  0.37925154930E+03  0.00000000000E+00 0. -1.
          3    1    5    5  503    0 -0.61125250577E+02  0.11093075241E+03 -0.33433307724E+03  0.35751997794E+03  0.00000000000E+00 0. -1.
         -4    1    5    5    0  503 -0.26554499581E+03  0.21473429823E+03 -0.88250676953E+03  0.94627858578E+03  0.00000000000E+00 0.  1.
         -3    1    6    6    0  502 -0.28059370251E+02 -0.41905495221E+02 -0.53931128948E+02  0.73837425864E+02  0.00000000000E+00 0.  1.
<mgrwt>
<rscale>  0 0.13818155E+04</rscale>
<asrwt>0</asrwt>
<pdfrwt beam="1">  1        1 0.36446772E+00 0.13818155E+04</pdfrwt>
<pdfrwt beam="2">  1       -1 0.30999477E-01 0.13818155E+04</pdfrwt>
<totfact> 0.15737165E+01</totfact>
</mgrwt>
</event>
<event>
12    1  0.1467288E-007  0.1732189E+04  0.7818608E-02  0.8743216E-01
         -2   -1    0    0    0  501 -0.00000000000E+00  0.00000000000E+00  0.30244346299E+03  0.30244346299E+03  0.00000000000E+00 0.  1.
          2   -1    0    0  501    0  0.00000000000E+00 -0.00000000000E+00 -0.24801992968E+04  0.24801992968E+04  0.00000000000E+00 0. -1.
         23    2    1    2    0    0  0.24582406093E+03  0.49539544648E+03 -0.31153082802E+03  0.64271327394E+03  0.10090975354E+03 0.  0.
        254    2    1    2    0    0 -0.24582406093E+03 -0.49539544648E+03 -0.18662250058E+04  0.21399294859E+04  0.88918857107E+03 0.  0.
        -24    2    4    4    0    0 -0.25260613149E+03 -0.44319135365E+03 -0.35873923326E+03  0.62904284338E+03  0.82295976321E+02 0.  0.
         24    2    4    4    0    0  0.67820705637E+01 -0.52204092838E+02 -0.15074857726E+04  0.15108866425E+04  0.86566900404E+02 0.  0.
         13    1    3    3    0    0  0.56636934546E+00  0.68490781916E+02 -0.24084363440E+02  0.72604163407E+02  0.00000000000E+00 0. -1.
        -13    1    3    3    0    0  0.24525769158E+03  0.42690466457E+03 -0.28744646458E+03  0.57010911053E+03  0.00000000000E+00 0.  1.
          4    1    6    6  502    0  0.29515863753E+01  0.37468225753E+01 -0.10452885738E+04  0.10452994562E+04  0.00000000000E+00 0. -1.
          3    1    5    5  503    0 -0.73113092663E+02 -0.18399644178E+03 -0.17428444821E+03  0.26377127173E+03  0.00000000000E+00 0. -1.
         -4    1    5    5    0  503 -0.17949303883E+03 -0.25919491187E+03 -0.18445478505E+03  0.36527157165E+03  0.00000000000E+00 0.  1.
         -3    1    6    6    0  502  0.38304841884E+01 -0.55950915414E+02 -0.46219719878E+03  0.46558718636E+03  0.00000000000E+00 0.  1.
<mgrwt>
<rscale>  0 0.17321894E+04</rscale>
<asrwt>0</asrwt>
<pdfrwt beam="1">  1        2 0.38156912E+00 0.17321894E+04</pdfrwt>
<pdfrwt beam="2">  1       -2 0.46529764E-01 0.17321894E+04</pdfrwt>
<totfact> 0.14876632E+01</totfact>
</mgrwt>
</event>
<event>
12    1  0.1467288E-007  0.2031742E+04  0.7818608E-02  0.8591922E-01
         -2   -1    0    0    0  501 -0.00000000000E+00  0.00000000000E+00  0.23308886387E+04  0.23308886387E+04  0.00000000000E+00 0.  1.
          2   -1    0    0  501    0  0.00000000000E+00 -0.00000000000E+00 -0.44274715509E+03  0.44274715509E+03  0.00000000000E+00 0. -1.
         23    2    1    2    0    0  0.72542760950E+03  0.23757846146E+03  0.11678406720E+04  0.13981305902E+04  0.90711466495E+02 0.  0.
        254    2    1    2    0    0 -0.72542760950E+03 -0.23757846146E+03  0.72030081157E+03  0.13755052035E+04  0.88909648736E+03 0.  0.
        -24    2    4    4    0    0 -0.38286463784E+02 -0.23194687641E+03  0.63053331575E+03  0.67777655197E+03  0.80892430733E+02 0.  0.
         24    2    4    4    0    0 -0.68714114571E+03 -0.56315850462E+01  0.89767495818E+02  0.69772865156E+03  0.81070333771E+02 0.  0.
         13    1    3    3    0    0  0.24854106925E+03  0.12723986502E+03  0.42099613262E+03  0.50517362365E+03  0.00000000000E+00 0. -1.
        -13    1    3    3    0    0  0.47688654025E+03  0.11033859644E+03  0.74684453941E+03  0.89295696659E+03  0.00000000000E+00 0.  1.
          4    1    6    6  502    0 -0.66348698103E+03  0.40533285138E+01  0.73800176548E+02  0.66759109456E+03  0.00000000000E+00 0. -1.
          1    1    5    5  503    0 -0.55220886288E+02 -0.20180555254E+03  0.57969599182E+03  0.61629722558E+03  0.00000000000E+00 0. -1.
         -2    1    5    5    0  503  0.16934422504E+02 -0.30141323870E+02  0.50837323926E+02  0.61479326396E+02  0.00000000000E+00 0.  1.
         -3    1    6    6    0  502 -0.23654164681E+02 -0.96849135599E+01  0.15967319270E+02  0.30137557003E+02  0.00000000000E+00 0.  1.
<mgrwt>
<rscale>  0 0.20317424E+04</rscale>
<asrwt>0</asrwt>
<pdfrwt beam="1">  1        2 0.68114948E-01 0.20317424E+04</pdfrwt>
<pdfrwt beam="2">  1       -2 0.35859825E+00 0.20317424E+04</pdfrwt>
<totfact> 0.90338767E-01</totfact>
</mgrwt>
</event>
<event>
12    1  0.1467288E-007  0.1481357E+04  0.7818608E-02  0.8896946E-01
          1   -1    0    0  501    0  0.00000000000E+00  0.00000000000E+00  0.23900454327E+04  0.23900454327E+04  0.00000000000E+00 0. -1.
         -1   -1    0    0    0  501 -0.00000000000E+00 -0.00000000000E+00 -0.22953735999E+03  0.22953735999E+03  0.00000000000E+00 0.  1.
         23    2    1    2    0    0 -0.62913903239E+00 -0.15187998405E+03  0.14428415071E+04  0.14536200499E+04  0.90286817912E+02 0.  0.
        254    2    1    2    0    0  0.62913903239E+00  0.15187998405E+03  0.71766656567E+03  0.11659627428E+04  0.90628687117E+03 0.  0.
        -24    2    4    4    0    0  0.16166723743E+03  0.32569589487E+03  0.81603136387E+03  0.89700835059E+03  0.80639212644E+02 0.  0.
         24    2    4    4    0    0 -0.16103809840E+03 -0.17381591082E+03 -0.98364798200E+02  0.26895439226E+03  0.80719214570E+02 0.  0.
         13    1    3    3    0    0  0.13907965717E+02 -0.15580917990E+03  0.11766015357E+04  0.11869545509E+04  0.00000000000E+00 0. -1.
        -13    1    3    3    0    0 -0.14537104749E+02  0.39291958500E+01  0.26623997137E+03  0.26666549899E+03  0.00000000000E+00 0.  1.
          4    1    6    6  502    0  0.12529773712E+01 -0.16169684695E+02  0.89681466058E+01  0.18532574267E+02  0.00000000000E+00 0. -1.
          3    1    5    5  503    0  0.11696316584E+03  0.15950951290E+03  0.38365120824E+03  0.43163864106E+03  0.00000000000E+00 0. -1.
         -4    1    5    5    0  503  0.44704071588E+02  0.16618638197E+03  0.43238015562E+03  0.46536970953E+03  0.00000000000E+00 0.  1.
         -3    1    6    6    0  502 -0.16229107577E+03 -0.15764622612E+03 -0.10733294481E+03  0.25042181799E+03  0.00000000000E+00 0.  1.
<mgrwt>
<rscale>  0 0.14813571E+04</rscale>
<asrwt>0</asrwt>
<pdfrwt beam="1">  1        1 0.36769928E+00 0.14813571E+04</pdfrwt>
<pdfrwt beam="2">  1       -1 0.35313442E-01 0.14813571E+04</pdfrwt>
<totfact> 0.11967090E+01</totfact>
</mgrwt>
</event>
<event>
12    1  0.1467288E-007  0.2101440E+04  0.7818608E-02  0.8560609E-01
          1   -1    0    0  501    0  0.00000000000E+00  0.00000000000E+00  0.11074557051E+04  0.11074557051E+04  0.00000000000E+00 0. -1.
         -1   -1    0    0    0  501 -0.00000000000E+00 -0.00000000000E+00 -0.99689073034E+03  0.99689073034E+03  0.00000000000E+00 0.  1.
         23    2    1    2    0    0 -0.76474787277E+02  0.36009525990E+03  0.81990709753E+03  0.90337527577E+03  0.91226372291E+02 0.  0.
        254    2    1    2    0    0  0.76474787277E+02 -0.36009525990E+03 -0.70934212278E+03  0.12009711597E+04  0.89646443874E+03 0.  0.
        -24    2    4    4    0    0  0.43932722116E+02 -0.56528618904E+01 -0.81557248520E+03  0.82061326366E+03  0.79281845014E+02 0.  0.
         24    2    4    4    0    0  0.32542065161E+02 -0.35444239801E+03  0.10623036243E+03  0.38035789602E+03  0.81846439446E+02 0.  0.
         13    1    3    3    0    0 -0.26578402644E+01  0.13766124650E+02  0.10121780972E+03  0.10218422240E+03  0.00000000000E+00 0.  1.
        -13    1    3    3    0    0 -0.73816947012E+02  0.34632913525E+03  0.71868928781E+03  0.80119105337E+03  0.00000000000E+00 0. -1.
          2    1    6    6  502    0  0.24823882316E+02 -0.24852508000E+03  0.11259709855E+03  0.27396906235E+03  0.00000000000E+00 0. -1.
          1    1    5    5  503    0  0.46382735347E+02  0.15228700636E+02 -0.75343948608E+03  0.75501942402E+03  0.00000000000E+00 0. -1.
         -2    1    5    5    0  503 -0.24500132315E+01 -0.20881562527E+02 -0.62132999122E+02  0.65593839637E+02  0.00000000000E+00 0.  1.
         -1    1    6    6    0  502  0.77181828445E+01 -0.10591731801E+03 -0.63667361228E+01  0.10638883367E+03  0.00000000000E+00 0.  1.
<mgrwt>
<rscale>  0 0.21014398E+04</rscale>
<asrwt>0</asrwt>
<pdfrwt beam="1">  1        1 0.17037780E+00 0.21014398E+04</pdfrwt>
<pdfrwt beam="2">  1       -1 0.15336780E+00 0.21014398E+04</pdfrwt>
<totfact> 0.37810307E+00</totfact>
</mgrwt>
</event>
<event>
12    1  0.1467288E-007  0.2727651E+04  0.7818608E-02  0.8326089E-01
          2   -1    0    0  501    0  0.00000000000E+00  0.00000000000E+00  0.20579536258E+04  0.20579536258E+04  0.00000000000E+00 0. -1.
         -2   -1    0    0    0  501 -0.00000000000E+00 -0.00000000000E+00 -0.90382005742E+03  0.90382005742E+03  0.00000000000E+00 0.  1.
         23    2    1    2    0    0  0.11208319902E+04  0.46220296447E+03  0.66620913711E+03  0.13863933167E+04  0.91410521662E+02 0.  0.
        254    2    1    2    0    0 -0.11208319902E+04 -0.46220296447E+03  0.48792443128E+03  0.15753803666E+04  0.87969149028E+03 0.  0.
        -24    2    4    4    0    0  0.17082573319E+02  0.17224289182E+03  0.89586553345E+02  0.21061339637E+03  0.79829969897E+02 0.  0.
         24    2    4    4    0    0 -0.11379145635E+04 -0.63444585629E+03  0.39833787793E+03  0.13647669702E+04  0.80899440526E+02 0.  0.
         11    1    3    3    0    0  0.69400226615E+03  0.24132768239E+03  0.38372872362E+03  0.82893059362E+03  0.00000000000E+00 0. -1.
        -11    1    3    3    0    0  0.42682972407E+03  0.22087528208E+03  0.28248041349E+03  0.55746272305E+03  0.00000000000E+00 0.  1.
          2    1    6    6  502    0 -0.20235975098E+03 -0.11977948906E+03  0.40418146304E+02  0.23860054771E+03  0.00000000000E+00 0. -1.
          1    1    5    5  503    0  0.13132631973E+02  0.23998185326E+02  0.50207621022E+02  0.57176779641E+02  0.00000000000E+00 0. -1.
         -2    1    5    5    0  503  0.39499413460E+01  0.14824470650E+03  0.39378932323E+02  0.15343661673E+03  0.00000000000E+00 0.  1.
         -1    1    6    6    0  502 -0.93555481256E+03 -0.51466636723E+03  0.35791973163E+03  0.11261664225E+04  0.00000000000E+00 0.  1.
<mgrwt>
<rscale>  0 0.27276508E+04</rscale>
<asrwt>0</asrwt>
<pdfrwt beam="1">  1        2 0.31660825E+00 0.27276508E+04</pdfrwt>
<pdfrwt beam="2">  1       -2 0.13904924E+00 0.27276508E+04</pdfrwt>
<totfact> 0.19847957E+00</totfact>
</mgrwt>
</event>
<event>
12    1  0.1467288E-007  0.1548629E+04  0.7818608E-02  0.8852744E-01
          1   -1    0    0  501    0  0.00000000000E+00  0.00000000000E+00  0.21792089158E+04  0.21792089158E+04  0.00000000000E+00 0. -1.
         -1   -1    0    0    0  501 -0.00000000000E+00 -0.00000000000E+00 -0.27512870435E+03  0.27512870435E+03  0.00000000000E+00 0.  1.
         23    2    1    2    0    0  0.43604437045E+03  0.45861292079E+02  0.13010601593E+04  0.13765831500E+04  0.99928372578E+02 0.  0.
        254    2    1    2    0    0 -0.43604437045E+03 -0.45861292079E+02  0.60302005208E+03  0.10777544701E+04  0.77825674647E+03 0.  0.
        -24    2    4    4    0    0 -0.40908271398E+03  0.18305460280E+03  0.68060212970E+03  0.81894210186E+03  0.81174212393E+02 0.  0.
         24    2    4    4    0    0 -0.26961656467E+02 -0.22891589488E+03 -0.77582077624E+02  0.25881236821E+03  0.88518050813E+02 0.  0.
         13    1    3    3    0    0  0.14808921959E+03 -0.25398972094E+02  0.51258769430E+03  0.53415509834E+03  0.00000000000E+00 0.  1.
        -13    1    3    3    0    0  0.28795515086E+03  0.71260264173E+02  0.78847246504E+03  0.84242805169E+03  0.00000000000E+00 0. -1.
          4    1    6    6  502    0 -0.21256103017E+02 -0.45077647391E+01 -0.14662799422E+01  0.21778242245E+02  0.00000000000E+00 0. -1.
          3    1    5    5  503    0 -0.44109988427E+02  0.49294013177E+02  0.84742544152E+02  0.10750297486E+03  0.00000000000E+00 0. -1.
         -4    1    5    5    0  503 -0.36497272556E+03  0.13376058963E+03  0.59585958555E+03  0.71143912700E+03  0.00000000000E+00 0.  1.
         -3    1    6    6    0  502 -0.57055534504E+01 -0.22440813014E+03 -0.76115797682E+02  0.23703412596E+03  0.00000000000E+00 0.  1.
<mgrwt>
<rscale>  0 0.15486290E+04</rscale>
<asrwt>0</asrwt>
<pdfrwt beam="1">  1        1 0.33526290E+00 0.15486290E+04</pdfrwt>
<pdfrwt beam="2">  1       -1 0.42327494E-01 0.15486290E+04</pdfrwt>
<totfact> 0.11915097E+01</totfact>
</mgrwt>
</event>
<event>
12    1  0.1467288E-007  0.2041591E+04  0.7818608E-02  0.8587419E-01
         -2   -1    0    0    0  501 -0.00000000000E+00  0.00000000000E+00  0.71800607400E+03  0.71800607400E+03  0.00000000000E+00 0.  1.
          2   -1    0    0  501    0  0.00000000000E+00 -0.00000000000E+00 -0.14512742842E+04  0.14512742842E+04  0.00000000000E+00 0. -1.
         23    2    1    2    0    0  0.13069429826E+03 -0.79359688650E+03 -0.47218222202E+03  0.93688194698E+03  0.88964677935E+02 0.  0.
        254    2    1    2    0    0 -0.13069429826E+03  0.79359688650E+03 -0.26108598818E+03  0.12323984112E+04  0.89652826664E+03 0.  0.
        -24    2    4    4    0    0 -0.24881298745E+03  0.85594526501E+03  0.37532124162E+02  0.89575828574E+03  0.80150151016E+02 0.  0.
         24    2    4    4    0    0  0.11811868919E+03 -0.62348378507E+02 -0.29861811234E+03  0.33664012548E+03  0.79463526395E+02 0.  0.
         11    1    3    3    0    0  0.14380747108E+03 -0.69462909519E+03 -0.41418572406E+03  0.82142557949E+03  0.00000000000E+00 0. -1.
        -11    1    3    3    0    0 -0.13113172818E+02 -0.98967791316E+02 -0.57996497951E+02  0.11545636749E+03  0.00000000000E+00 0.  1.
          4    1    6    6  502    0  0.11875942177E+03 -0.57135671547E+02 -0.30259753988E+03  0.33005083906E+03  0.00000000000E+00 0. -1.
          1    1    5    5  503    0 -0.20216178429E+03  0.78050156449E+03  0.32464540583E+02  0.80691141124E+03  0.00000000000E+00 0. -1.
         -2    1    5    5    0  503 -0.46651203158E+02  0.75443700522E+02  0.50675835789E+01  0.88846874497E+02  0.00000000000E+00 0.  1.
         -3    1    6    6    0  502 -0.64073258125E+00 -0.52127069601E+01  0.39794275344E+01  0.65892864253E+01  0.00000000000E+00 0.  1.
<mgrwt>
<rscale>  0 0.20415913E+04</rscale>
<asrwt>0</asrwt>
<pdfrwt beam="1">  1        2 0.22327296E+00 0.20415913E+04</pdfrwt>
<pdfrwt beam="2">  1       -2 0.11046247E+00 0.20415913E+04</pdfrwt>
<totfact> 0.81475385E+00</totfact>
</mgrwt>
</event>
<event>
12    1  0.1467288E-007  0.1568808E+04  0.7818608E-02  0.8839943E-01
         -2   -1    0    0    0  501 -0.00000000000E+00  0.00000000000E+00  0.23345885412E+03  0.23345885412E+03  0.00000000000E+00 0.  1.
          2   -1    0    0  501    0  0.00000000000E+00 -0.00000000000E+00 -0.26355383120E+04  0.26355383120E+04  0.00000000000E+00 0. -1.
         23    2    1    2    0    0 -0.17792947921E+03 -0.45829620018E+03 -0.49044303138E+03  0.69986178869E+03  0.87050844748E+02 0.  0.
        254    2    1    2    0    0  0.17792947921E+03  0.45829620018E+03 -0.19116364265E+04  0.21691353774E+04  0.89949994541E+03 0.  0.
        -24    2    4    4    0    0 -0.50783698646E+02  0.40309147148E+03 -0.18721334770E+04  0.19173866820E+04  0.80163670226E+02 0.  0.
         24    2    4    4    0    0  0.22871317785E+03  0.55204728701E+02 -0.39502949483E+02  0.25174869545E+03  0.80371903347E+02 0.  0.
         11    1    3    3    0    0 -0.55128103959E+02 -0.18130182277E+03 -0.13427078915E+03  0.23224578275E+03  0.00000000000E+00 0. -1.
        -11    1    3    3    0    0 -0.12280137525E+03 -0.27699437741E+03 -0.35617224223E+03  0.46761600594E+03  0.00000000000E+00 0.  1.
          2    1    6    6  502    0  0.31195021334E+02  0.31804904855E+02 -0.27785522075E+02  0.52504443296E+02  0.00000000000E+00 0. -1.
          1    1    5    5  503    0 -0.11629352704E+02  0.56806226296E+02 -0.16091620746E+03  0.17104448256E+03  0.00000000000E+00 0. -1.
         -2    1    5    5    0  503 -0.39154345943E+02  0.34628524518E+03 -0.17112172695E+04  0.17463421994E+04  0.00000000000E+00 0.  1.
         -1    1    6    6    0  502  0.19751815652E+03  0.23399823846E+02 -0.11717427408E+02  0.19924425215E+03  0.00000000000E+00 0.  1.
<mgrwt>
<rscale>  0 0.15688082E+04</rscale>
<asrwt>0</asrwt>
<pdfrwt beam="1">  1        2 0.40546745E+00 0.15688082E+04</pdfrwt>
<pdfrwt beam="2">  1       -2 0.35916746E-01 0.15688082E+04</pdfrwt>
<totfact> 0.20386042E+01</totfact>
</mgrwt>
</event>
<event>
12    1  0.1467288E-007  0.1560593E+04  0.7818608E-02  0.8845130E-01
          2   -1    0    0  501    0  0.00000000000E+00  0.00000000000E+00  0.12689027549E+04  0.12689027549E+04  0.00000000000E+00 0. -1.
         -2   -1    0    0    0  501 -0.00000000000E+00 -0.00000000000E+00 -0.47983390697E+03  0.47983390697E+03  0.00000000000E+00 0.  1.
         23    2    1    2    0    0 -0.31359537324E+02  0.49729662498E+03  0.45272015793E+03  0.67922413903E+03  0.90014086935E+02 0.  0.
        254    2    1    2    0    0  0.31359537324E+02 -0.49729662498E+03  0.33634869002E+03  0.10695125229E+04  0.88455595723E+03 0.  0.
        -24    2    4    4    0    0  0.11004171309E+03  0.23503015786E+03  0.54482955030E+02  0.27710077491E+03  0.80424457378E+02 0.  0.
         24    2    4    4    0    0 -0.78682175768E+02 -0.73232678284E+03  0.28186573499E+03  0.79241174795E+03  0.77296080570E+02 0.  0.
         13    1    3    3    0    0 -0.36289162413E+01  0.24157572572E+03  0.27779239281E+03  0.36815840856E+03  0.00000000000E+00 0. -1.
        -13    1    3    3    0    0 -0.27730621082E+02  0.25572089926E+03  0.17492776513E+03  0.31106573047E+03  0.00000000000E+00 0.  1.
          4    1    6    6  502    0 -0.91553861099E+01 -0.99024601854E+01  0.12150795999E+02  0.18152731363E+02  0.00000000000E+00 0. -1.
          3    1    5    5  503    0  0.52658311606E+01 -0.81015814942E+00  0.15142318165E+02  0.16052262565E+02  0.00000000000E+00 0. -1.
         -4    1    5    5    0  503  0.10477588193E+03  0.23584031601E+03  0.39340636865E+02  0.26104851235E+03  0.00000000000E+00 0.  1.
         -3    1    6    6    0  502 -0.69526789658E+02 -0.72242432266E+03  0.26971493900E+03  0.77425901658E+03  0.00000000000E+00 0.  1.
<mgrwt>
<rscale>  0 0.15605929E+04</rscale>
<asrwt>0</asrwt>
<pdfrwt beam="1">  1        2 0.19521581E+00 0.15605929E+04</pdfrwt>
<pdfrwt beam="2">  1       -2 0.73820601E-01 0.15605929E+04</pdfrwt>
<totfact> 0.27425291E+01</totfact>
</mgrwt>
</event>
<event>
12    1  0.1467288E-007  0.1370200E+04  0.7818608E-02  0.8975676E-01
          1   -1    0    0  501    0  0.00000000000E+00  0.00000000000E+00  0.11206076430E+04  0.11206076430E+04  0.00000000000E+00 0. -1.
         -1   -1    0    0    0  501 -0.00000000000E+00 -0.00000000000E+00 -0.41884620356E+03  0.41884620356E+03  0.00000000000E+00 0.  1.
         23    2    1    2    0    0 -0.33757455125E+03  0.43874531692E+02  0.28365992713E+01  0.35290137476E+03  0.93004203269E+02 0.  0.
        254    2    1    2    0    0  0.33757455125E+03 -0.43874531692E+02  0.69892484012E+03  0.11865524718E+04  0.89639794952E+03 0.  0.
        -24    2    4    4    0    0  0.13379085726E+03 -0.41298902962E+03  0.60224044204E+03  0.74684341928E+03  0.81373280695E+02 0.  0.
         24    2    4    4    0    0  0.20378369399E+03  0.36911449792E+03  0.96684398077E+02  0.43970905248E+03  0.78885179121E+02 0.  0.
         11    1    3    3    0    0 -0.34116797963E+02  0.28458392676E+02  0.19667525822E+02  0.48586495952E+02  0.00000000000E+00 0. -1.
        -11    1    3    3    0    0 -0.30345775329E+03  0.15416139017E+02 -0.16830926551E+02  0.30431487881E+03  0.00000000000E+00 0.  1.
          2    1    6    6  502    0  0.24278268658E+02  0.11637498614E+03  0.30314716038E+02  0.12268477385E+03  0.00000000000E+00 0. -1.
          1    1    5    5  503    0  0.14322037566E+03 -0.36033522876E+03  0.53960605574E+03  0.66447592017E+03  0.00000000000E+00 0. -1.
         -2    1    5    5    0  503 -0.94295183958E+01 -0.52653800859E+02  0.62634386302E+02  0.82367499109E+02  0.00000000000E+00 0.  1.
         -1    1    6    6    0  502  0.17950542533E+03  0.25273951179E+03  0.66369682039E+02  0.31702427862E+03  0.00000000000E+00 0.  1.
<mgrwt>
<rscale>  0 0.13702004E+04</rscale>
<asrwt>0</asrwt>
<pdfrwt beam="1">  1        1 0.17240118E+00 0.13702004E+04</pdfrwt>
<pdfrwt beam="2">  1       -1 0.64437878E-01 0.13702004E+04</pdfrwt>
<totfact> 0.29201414E+01</totfact>
</mgrwt>
</event>
<event>
12    1  0.1467288E-007  0.2900371E+04  0.7818608E-02  0.8272767E-01
         -2   -1    0    0    0  501 -0.00000000000E+00  0.00000000000E+00  0.77085523601E+03  0.77085523601E+03  0.00000000000E+00 0.  1.
          2   -1    0    0  501    0  0.00000000000E+00 -0.00000000000E+00 -0.27281879858E+04  0.27281879858E+04  0.00000000000E+00 0. -1.
         23    2    1    2    0    0 -0.80196285693E+03  0.29741286075E+03  0.31190320195E+03  0.91509477942E+03  0.92282253505E+02 0.  0.
        254    2    1    2    0    0  0.80196285693E+03 -0.29741286075E+03 -0.22692359517E+04  0.25839484424E+04  0.89205320168E+03 0.  0.
        -24    2    4    4    0    0  0.75971471406E+03 -0.36113807588E+03 -0.23149008909E+04  0.24643086108E+04  0.80396752856E+02 0.  0.
         24    2    4    4    0    0  0.42248142873E+02  0.63725215138E+02  0.45664939152E+02  0.11963983162E+03  0.79891138567E+02 0.  0.
         13    1    3    3    0    0 -0.43933225034E+03  0.19498147300E+03  0.13794712639E+03  0.50006000709E+03  0.00000000000E+00 0.  1.
        -13    1    3    3    0    0 -0.36263060658E+03  0.10243138775E+03  0.17395607555E+03  0.41503477234E+03  0.00000000000E+00 0. -1.
          4    1    6    6  502    0  0.10293627851E+02 -0.57639542521E+01 -0.17048030227E+02  0.20732035056E+02  0.00000000000E+00 0. -1.
          1    1    5    5  503    0  0.12820881140E+03 -0.50097836431E+02 -0.46704925216E+03  0.48691097387E+03  0.00000000000E+00 0. -1.
         -2    1    5    5    0  503  0.63150590266E+03 -0.31104023945E+03 -0.18478516387E+04  0.19773976369E+04  0.00000000000E+00 0.  1.
         -3    1    6    6    0  502  0.31954515022E+02  0.69489169390E+02  0.62712969378E+02  0.98907796563E+02  0.00000000000E+00 0.  1.
<mgrwt>
<rscale>  0 0.29003710E+04</rscale>
<asrwt>0</asrwt>
<pdfrwt beam="1">  1        2 0.41972123E+00 0.29003710E+04</pdfrwt>
<pdfrwt beam="2">  1       -2 0.11859311E+00 0.29003710E+04</pdfrwt>
<totfact> 0.12050274E+00</totfact>
</mgrwt>
</event>
<event>
12    1  0.1467288E-007  0.2013185E+04  0.7818608E-02  0.8600481E-01
          1   -1    0    0  501    0  0.00000000000E+00  0.00000000000E+00  0.10233743089E+04  0.10233743089E+04  0.00000000000E+00 0. -1.
         -1   -1    0    0    0  501 -0.00000000000E+00 -0.00000000000E+00 -0.99008635711E+03  0.99008635711E+03  0.00000000000E+00 0.  1.
         23    2    1    2    0    0  0.76066279760E+03  0.25455292887E+03  0.25698910928E+02  0.80772343785E+03  0.91387268107E+02 0.  0.
        254    2    1    2    0    0 -0.76066279760E+03 -0.25455292887E+03  0.75890408799E+01  0.12057372282E+04  0.90018863837E+03 0.  0.
        -24    2    4    4    0    0 -0.45315635902E+03  0.12804262640E+03 -0.35090938009E+03  0.59257589445E+03  0.79140367419E+02 0.  0.
         24    2    4    4    0    0 -0.30750643858E+03 -0.38259555527E+03  0.35849842097E+03  0.61316133374E+03  0.80660614157E+02 0.  0.
         13    1    3    3    0    0  0.37936077380E+03  0.14312936292E+03  0.56039973991E+02  0.40931783483E+03  0.00000000000E+00 0. -1.
        -13    1    3    3    0    0  0.38130202380E+03  0.11142356595E+03 -0.30341063063E+02  0.39840560302E+03  0.00000000000E+00 0.  1.
          2    1    6    6  502    0 -0.27078873054E+03 -0.36243881719E+03  0.34563694615E+03  0.56934465075E+03  0.00000000000E+00 0. -1.
          3    1    5    5  503    0 -0.42721097866E+03  0.10295228296E+03 -0.33743707030E+03  0.55405069197E+03  0.00000000000E+00 0. -1.
         -4    1    5    5    0  503 -0.25945380360E+02  0.25090343430E+02 -0.13472309791E+02  0.38525202486E+02  0.00000000000E+00 0.  1.
         -3    1    6    6    0  502 -0.36717708038E+02 -0.20156738074E+02  0.12861474820E+02  0.43816682986E+02  0.00000000000E+00 0.  1.
<mgrwt>
<rscale>  0 0.20131855E+04</rscale>
<asrwt>0</asrwt>
<pdfrwt beam="1">  1        1 0.15744220E+00 0.20131855E+04</pdfrwt>
<pdfrwt beam="2">  1       -1 0.15232098E+00 0.20131855E+04</pdfrwt>
<totfact> 0.45000077E+00</totfact>
</mgrwt>
</event>
<event>
12    1  0.1467288E-007  0.2481636E+04  0.7818608E-02  0.8409557E-01
         -2   -1    0    0    0  501 -0.00000000000E+00  0.00000000000E+00  0.13043089115E+04  0.13043089115E+04  0.00000000000E+00 0.  1.
          2   -1    0    0  501    0  0.00000000000E+00 -0.00000000000E+00 -0.11804179758E+04  0.11804179758E+04  0.00000000000E+00 0. -1.
         23    2    1    2    0    0  0.10054490662E+03 -0.91092694410E+03 -0.51069355946E+03  0.10530539733E+04  0.90650886898E+02 0.  0.
        254    2    1    2    0    0 -0.10054490662E+03  0.91092694410E+03  0.63458449515E+03  0.14316729140E+04  0.89838336776E+03 0.  0.
        -24    2    4    4    0    0 -0.37911662719E+02  0.97042934353E+03  0.21726039248E+03  0.99795981967E+03  0.74507171270E+02 0.  0.
         24    2    4    4    0    0 -0.62633243896E+02 -0.59502399432E+02  0.41732410267E+03  0.43371309434E+03  0.80524423309E+02 0.  0.
         11    1    3    3    0    0  0.11216658116E+03 -0.80190116285E+03 -0.46915226696E+03  0.93580482287E+03  0.00000000000E+00 0. -1.
        -11    1    3    3    0    0 -0.11621674547E+02 -0.10902578125E+03 -0.41541292496E+02  0.11724915044E+03  0.00000000000E+00 0.  1.
          4    1    6    6  502    0 -0.24930481064E+02 -0.67604736183E+02  0.33692594636E+03  0.34454465976E+03  0.00000000000E+00 0. -1.
          1    1    5    5  503    0 -0.32263112860E+01  0.78840859278E+03  0.18579281727E+03  0.81001079573E+03  0.00000000000E+00 0. -1.
         -2    1    5    5    0  503 -0.34685351433E+02  0.18202075075E+03  0.31467575213E+02  0.18794902394E+03  0.00000000000E+00 0.  1.
         -3    1    6    6    0  502 -0.37702762833E+02  0.81023367515E+01  0.80398156313E+02  0.89168434575E+02  0.00000000000E+00 0.  1.
<mgrwt>
<rscale>  0 0.24816363E+04</rscale>
<asrwt>0</asrwt>
<pdfrwt beam="1">  1        2 0.18160277E+00 0.24816363E+04</pdfrwt>
<pdfrwt beam="2">  1       -2 0.20066291E+00 0.24816363E+04</pdfrwt>
<totfact> 0.22887206E+00</totfact>
</mgrwt>
</event>
<event>
12    1  0.1467288E-007  0.1258212E+04  0.7818608E-02  0.9063376E-01
         -1   -1    0    0    0  501 -0.00000000000E+00  0.00000000000E+00  0.10647504104E+03  0.10647504104E+03  0.00000000000E+00 0.  1.
          1   -1    0    0  501    0  0.00000000000E+00 -0.00000000000E+00 -0.37170596519E+04  0.37170596519E+04  0.00000000000E+00 0. -1.
         23    2    1    2    0    0 -0.26393503820E+03 -0.10361692128E+03 -0.13310725272E+04  0.13640921462E+04  0.92709977654E+02 0.  0.
        254    2    1    2    0    0  0.26393503820E+03  0.10361692128E+03 -0.22795120837E+04  0.24594425468E+04  0.87879697900E+03 0.  0.
        -24    2    4    4    0    0  0.27058879022E+03  0.30022432910E+03 -0.21909899151E+04  0.22293904927E+04  0.79951356065E+02 0.  0.
         24    2    4    4    0    0 -0.66537520189E+01 -0.19660740782E+03 -0.88522168553E+02  0.23005205409E+03  0.79931395840E+02 0.  0.
         11    1    3    3    0    0 -0.17449759565E+03 -0.33711683219E+02 -0.94961041032E+03  0.96609824545E+03  0.00000000000E+00 0. -1.
        -11    1    3    3    0    0 -0.89437442542E+02 -0.69905238057E+02 -0.38146211683E+03  0.39799390072E+03  0.00000000000E+00 0.  1.
          2    1    6    6  502    0 -0.44242495419E+01 -0.18115552897E+03 -0.49238704902E+02  0.18778005677E+03  0.00000000000E+00 0. -1.
          3    1    5    5  503    0  0.26473115073E+03  0.28181789453E+03 -0.19719215884E+04  0.20094722339E+04  0.00000000000E+00 0. -1.
         -2    1    5    5    0  503  0.58576394890E+01  0.18406434571E+02 -0.21906832672E+03  0.21991825878E+03  0.00000000000E+00 0.  1.
         -1    1    6    6    0  502 -0.22295024771E+01 -0.15451878855E+02 -0.39283463652E+02  0.42271997326E+02  0.00000000000E+00 0.  1.
<mgrwt>
<rscale>  0 0.12582116E+04</rscale>
<asrwt>0</asrwt>
<pdfrwt beam="1">  1        1 0.57185544E+00 0.12582116E+04</pdfrwt>
<pdfrwt beam="2">  1       -1 0.16380772E-01 0.12582116E+04</pdfrwt>
<totfact> 0.48042996E+00</totfact>
</mgrwt>
</event>
<event>
12    1  0.1467288E-007  0.1703409E+04  0.7818608E-02  0.8759422E-01
          1   -1    0    0  501    0  0.00000000000E+00  0.00000000000E+00  0.50491795100E+03  0.50491795100E+03  0.00000000000E+00 0. -1.
         -1   -1    0    0    0  501 -0.00000000000E+00 -0.00000000000E+00 -0.14366705816E+04  0.14366705816E+04  0.00000000000E+00 0.  1.
         23    2    1    2    0    0  0.40042374004E+03  0.37506614334E+03 -0.47015265074E+02  0.55741817843E+03  0.86549448445E+02 0.  0.
        254    2    1    2    0    0 -0.40042374004E+03 -0.37506614334E+03 -0.88473736548E+03  0.13841703541E+04  0.91222452274E+03 0.  0.
        -24    2    4    4    0    0 -0.42788942610E+03  0.20104651292E+03 -0.35887130684E+03  0.59904868336E+03  0.81004005051E+02 0.  0.
         24    2    4    4    0    0  0.27465686058E+02 -0.57611265626E+03 -0.52586605864E+03  0.78512167077E+03  0.84975112017E+02 0.  0.
         13    1    3    3    0    0  0.35161344687E+03  0.35525325303E+03 -0.25412443352E+02  0.50048244933E+03  0.00000000000E+00 0. -1.
        -13    1    3    3    0    0  0.48810293178E+02  0.19812890309E+02 -0.21602821723E+02  0.56935729107E+02  0.00000000000E+00 0.  1.
          2    1    6    6  502    0 -0.10338456243E+02 -0.59971973389E+02 -0.27965596253E+02  0.66974591029E+02  0.00000000000E+00 0. -1.
          3    1    5    5  503    0 -0.53739457217E+02  0.55583894680E+02 -0.72015393752E+02  0.10565848545E+03  0.00000000000E+00 0. -1.
         -4    1    5    5    0  503 -0.37414996888E+03  0.14546261824E+03 -0.28685591309E+03  0.49339019791E+03  0.00000000000E+00 0.  1.
         -1    1    6    6    0  502  0.37804142301E+02 -0.51614068287E+03 -0.49790046239E+03  0.71814707974E+03  0.00000000000E+00 0.  1.
<mgrwt>
<rscale>  0 0.17034092E+04</rscale>
<asrwt>0</asrwt>
<pdfrwt beam="1">  1        1 0.77679687E-01 0.17034092E+04</pdfrwt>
<pdfrwt beam="2">  1       -1 0.22102624E+00 0.17034092E+04</pdfrwt>
<totfact> 0.45054049E+00</totfact>
</mgrwt>
</event>
<event>
12    1  0.1467288E-007  0.1039080E+04  0.7818608E-02  0.9266691E-01
          2   -1    0    0  501    0  0.00000000000E+00  0.00000000000E+00  0.28913574210E+04  0.28913574210E+04  0.00000000000E+00 0. -1.
         -2   -1    0    0    0  501 -0.00000000000E+00 -0.00000000000E+00 -0.93354728520E+02  0.93354728520E+02  0.00000000000E+00 0.  1.
         23    2    1    2    0    0 -0.90185548339E+02 -0.20824850346E+02  0.37845247828E+03  0.40072050738E+03  0.93720537772E+02 0.  0.
        254    2    1    2    0    0  0.90185548339E+02  0.20824850346E+02  0.24195502142E+04  0.25839916421E+04  0.90234276196E+03 0.  0.
        -24    2    4    4    0    0 -0.16128711935E+02 -0.13428108696E+03  0.23409684620E+01  0.15826955037E+03  0.82171922069E+02 0.  0.
         24    2    4    4    0    0  0.10631426027E+03  0.15510593731E+03  0.24172092457E+04  0.24257220917E+04  0.76593440191E+02 0.  0.
         11    1    3    3    0    0 -0.44426363624E+01  0.28275784833E+02  0.48756472639E+02  0.56537161673E+02  0.00000000000E+00 0.  1.
        -11    1    3    3    0    0 -0.85742911976E+02 -0.49100635179E+02  0.32969600564E+03  0.34418334571E+03  0.00000000000E+00 0. -1.
          4    1    6    6  502    0  0.27639041082E+02  0.60094436498E+02  0.47290150260E+03  0.47750506705E+03  0.00000000000E+00 0. -1.
          3    1    5    5  503    0 -0.18486730450E+01 -0.81887082380E+00  0.22455859833E+02  0.22546702249E+02  0.00000000000E+00 0. -1.
         -4    1    5    5    0  503 -0.14280038890E+02 -0.13346221614E+03 -0.20114891371E+02  0.13572284812E+03  0.00000000000E+00 0.  1.
         -3    1    6    6    0  502  0.78675219191E+02  0.95011500811E+02  0.19443077431E+04  0.19482170247E+04  0.00000000000E+00 0.  1.
<mgrwt>
<rscale>  0 0.10390801E+04</rscale>
<asrwt>0</asrwt>
<pdfrwt beam="1">  1        2 0.44482415E+00 0.10390801E+04</pdfrwt>
<pdfrwt beam="2">  1       -2 0.14362268E-01 0.10390801E+04</pdfrwt>
<totfact> 0.78065977E+01</totfact>
</mgrwt>
</event>
<event>
12    1  0.1467288E-007  0.2526576E+04  0.7818608E-02  0.8393578E-01
          2   -1    0    0  501    0  0.00000000000E+00  0.00000000000E+00  0.22971354812E+04  0.22971354812E+04  0.00000000000E+00 0. -1.
         -2   -1    0    0    0  501 -0.00000000000E+00 -0.00000000000E+00 -0.69473335722E+03  0.69473335722E+03  0.00000000000E+00 0.  1.
         23    2    1    2    0    0  0.89854646527E+03 -0.58738433910E+03  0.98302322251E+03  0.14584136619E+04  0.90717370380E+02 0.  0.
        254    2    1    2    0    0 -0.89854646527E+03  0.58738433910E+03  0.61937890149E+03  0.15334551765E+04  0.90302183951E+03 0.  0.
        -24    2    4    4    0    0 -0.21536197423E+03  0.58003419777E+03  0.25329761845E+02  0.62458149260E+03  0.81486155492E+02 0.  0.
         24    2    4    4    0    0 -0.68318449104E+03  0.73501413254E+01  0.59404913965E+03  0.90887368389E+03  0.79761642225E+02 0.  0.
         11    1    3    3    0    0  0.34818119770E+03 -0.22161287259E+03  0.31935160763E+03  0.52185042017E+03  0.00000000000E+00 0. -1.
        -11    1    3    3    0    0  0.55036526757E+03 -0.36577146651E+03  0.66367161488E+03  0.93656324178E+03  0.00000000000E+00 0.  1.
          2    1    6    6  502    0 -0.11383656177E+03  0.20390963979E+02  0.13215328630E+03  0.17561049310E+03  0.00000000000E+00 0. -1.
          3    1    5    5  503    0 -0.28300383025E+02  0.16985244610E+03 -0.91906701268E+01  0.17243907197E+03  0.00000000000E+00 0. -1.
         -4    1    5    5    0  503 -0.18706159121E+03  0.41018175167E+03  0.34520431972E+02  0.45214242063E+03  0.00000000000E+00 0.  1.
         -1    1    6    6    0  502 -0.56934792927E+03 -0.13040822654E+02  0.46189585335E+03  0.73326319079E+03  0.00000000000E+00 0.  1.
<mgrwt>
<rscale>  0 0.25265761E+04</rscale>
<asrwt>0</asrwt>
<pdfrwt beam="1">  1        2 0.35340546E+00 0.25265761E+04</pdfrwt>
<pdfrwt beam="2">  1       -2 0.10688206E+00 0.25265761E+04</pdfrwt>
<totfact> 0.28518357E+00</totfact>
</mgrwt>
</event>
<event>
12    1  0.1467288E-007  0.1376972E+04  0.7818608E-02  0.8970658E-01
         -2   -1    0    0    0  501 -0.00000000000E+00  0.00000000000E+00  0.60953953483E+03  0.60953953483E+03  0.00000000000E+00 0. -1.
          2   -1    0    0  501    0  0.00000000000E+00 -0.00000000000E+00 -0.77765759206E+03  0.77765759206E+03  0.00000000000E+00 0.  1.
         23    2    1    2    0    0 -0.25061793520E+03  0.23953277741E+03  0.12466439193E+03  0.37952318062E+03  0.91166513126E+02 0.  0.
        254    2    1    2    0    0  0.25061793520E+03 -0.23953277741E+03 -0.29278244916E+03  0.10076739463E+04  0.89972213407E+03 0.  0.
        -24    2    4    4    0    0 -0.48833069853E+02 -0.53040245375E+03 -0.17361416795E+03  0.56641326210E+03  0.83490553390E+02 0.  0.
         24    2    4    4    0    0  0.29945100505E+03  0.29086967634E+03 -0.11916828121E+03  0.44126068416E+03  0.78954664849E+02 0.  0.
         11    1    3    3    0    0 -0.17850278983E+03  0.16937074562E+03  0.42694218355E+02  0.24974485326E+03  0.00000000000E+00 0.  1.
        -11    1    3    3    0    0 -0.72115145376E+02  0.70162031792E+02  0.81970173577E+02  0.12977832737E+03  0.00000000000E+00 0. -1.
          4    1    6    6  502    0  0.28272518749E+03  0.27402051312E+03 -0.90418966732E+02  0.40397569580E+03  0.00000000000E+00 0. -1.
          1    1    5    5  503    0 -0.54885761800E+02 -0.52550744810E+03 -0.16239712940E+03  0.55275976020E+03  0.00000000000E+00 0. -1.
         -2    1    5    5    0  503  0.60526919475E+01 -0.48950056520E+01 -0.11217038553E+02  0.13653501896E+02  0.00000000000E+00 0.  1.
         -3    1    6    6    0  502  0.16725817560E+02  0.16849163217E+02 -0.28749314476E+02  0.37284988360E+02  0.00000000000E+00 0.  1.
<mgrwt>
<rscale>  0 0.13769721E+04</rscale>
<asrwt>0</asrwt>
<pdfrwt beam="1">  1        2 0.11963963E+00 0.13769721E+04</pdfrwt>
<pdfrwt beam="2">  1       -2 0.93775313E-01 0.13769721E+04</pdfrwt>
<totfact> 0.33506401E+01</totfact>
</mgrwt>
</event>
<event>
12    1  0.1467288E-007  0.1681480E+04  0.7818608E-02  0.8771998E-01
          1   -1    0    0  501    0  0.00000000000E+00  0.00000000000E+00  0.11879944920E+04  0.11879944920E+04  0.00000000000E+00 0. -1.
         -1   -1    0    0    0  501 -0.00000000000E+00 -0.00000000000E+00 -0.59498941038E+03  0.59498941038E+03  0.00000000000E+00 0.  1.
         23    2    1    2    0    0 -0.30555446963E+03 -0.50219634884E+03  0.32692145263E+03  0.67889373848E+03  0.91947622368E+02 0.  0.
        254    2    1    2    0    0  0.30555446963E+03  0.50219634884E+03  0.26608362899E+03  0.11040901639E+04  0.89590729748E+03 0.  0.
        -24    2    4    4    0    0  0.47528556834E+03 -0.45127425524E+02  0.19056658477E+03  0.52032943539E+03  0.80586860559E+02 0.  0.
         24    2    4    4    0    0 -0.16973109871E+03  0.54732377437E+03  0.75517044222E+02  0.58376072850E+03  0.81864548585E+02 0.  0.
         13    1    3    3    0    0 -0.12325717520E+03 -0.13928364255E+03  0.13426488964E+03  0.22938902526E+03  0.00000000000E+00 0. -1.
        -13    1    3    3    0    0 -0.18229729443E+03 -0.36291270629E+03  0.19265656299E+03  0.44950471322E+03  0.00000000000E+00 0.  1.
          4    1    6    6  502    0 -0.17393688717E+03  0.53938729218E+03  0.82059414176E+02  0.57264861751E+03  0.00000000000E+00 0. -1.
          3    1    5    5  503    0  0.35360182022E+03 -0.56455471797E+02  0.11259824802E+03  0.37536626515E+03  0.00000000000E+00 0. -1.
         -4    1    5    5    0  503  0.12168374812E+03  0.11328046273E+02  0.77968336753E+02  0.14496317024E+03  0.00000000000E+00 0.  1.
         -1    1    6    6    0  502  0.42057884562E+01  0.79364821907E+01 -0.65423699545E+01  0.11112110993E+02  0.00000000000E+00 0.  1.
<mgrwt>
<rscale>  0 0.16814805E+04</rscale>
<asrwt>0</asrwt>
<pdfrwt beam="1">  1        1 0.18276838E+00 0.16814805E+04</pdfrwt>
<pdfrwt beam="2">  1       -1 0.91536833E-01 0.16814805E+04</pdfrwt>
<totfact> 0.12093115E+01</totfact>
</mgrwt>
</event>
<event>
12    1  0.1467288E-007  0.1447144E+04  0.7818608E-02  0.8920383E-01
         -1   -1    0    0    0  501 -0.00000000000E+00  0.00000000000E+00  0.63907910721E+03  0.63907910721E+03  0.00000000000E+00 0.  1.
          1   -1    0    0  501    0  0.00000000000E+00 -0.00000000000E+00 -0.81923584387E+03  0.81923584387E+03  0.00000000000E+00 0. -1.
         23    2    1    2    0    0  0.17739111151E+02  0.22733548190E+03 -0.41566293389E+03  0.48289955768E+03  0.91761706646E+02 0.  0.
        254    2    1    2    0    0 -0.17739111151E+02 -0.22733548190E+03  0.23550619722E+03  0.97541539340E+03  0.91868162241E+03 0.  0.
        -24    2    4    4    0    0 -0.20538783282E+03  0.39900273089E+02  0.49999130682E+03  0.54770577622E+03  0.78829669208E+02 0.  0.
         24    2    4    4    0    0  0.18764872167E+03 -0.26723575499E+03 -0.26448510960E+03  0.42770961718E+03  0.79725478587E+02 0.  0.
         13    1    3    3    0    0  0.10531676736E+02  0.10025683955E+03 -0.97601989743E+02  0.14031571007E+03  0.00000000000E+00 0.  1.
        -13    1    3    3    0    0  0.72074344147E+01  0.12707864235E+03 -0.31806094414E+03  0.34258384761E+03  0.00000000000E+00 0. -1.
          4    1    6    6  502    0  0.16462228201E+03 -0.24072098421E+03 -0.26277086350E+03  0.39255014288E+03  0.00000000000E+00 0. -1.
          3    1    5    5  503    0 -0.13892660665E+03  0.31137994424E+02  0.41923821232E+03  0.44275371868E+03  0.00000000000E+00 0. -1.
         -4    1    5    5    0  503 -0.66461226173E+02  0.87622786651E+01  0.80753094500E+02  0.10495205755E+03  0.00000000000E+00 0.  1.
         -3    1    6    6    0  502  0.23026439659E+02 -0.26514770777E+02 -0.17142460996E+01  0.35159474291E+02  0.00000000000E+00 0.  1.
<mgrwt>
<rscale>  0 0.14471441E+04</rscale>
<asrwt>0</asrwt>
<pdfrwt beam="1">  1        1 0.12603628E+00 0.14471441E+04</pdfrwt>
<pdfrwt beam="2">  1       -1 0.98319863E-01 0.14471441E+04</pdfrwt>
<totfact> 0.20484258E+01</totfact>
</mgrwt>
</event>
<event>
12    1  0.1467288E-007  0.2252971E+04  0.7818608E-02  0.8496698E-01
          1   -1    0    0  501    0  0.00000000000E+00  0.00000000000E+00  0.11587105754E+04  0.11587105754E+04  0.00000000000E+00 0. -1.
         -1   -1    0    0    0  501 -0.00000000000E+00 -0.00000000000E+00 -0.10951562512E+04  0.10951562512E+04  0.00000000000E+00 0.  1.
         23    2    1    2    0    0 -0.93770467157E+03 -0.11726152448E+03  0.44704410768E+02  0.95023776603E+03  0.88955109094E+02 0.  0.
        254    2    1    2    0    0  0.93770467157E+03  0.11726152448E+03  0.18849913389E+02  0.13036290605E+04  0.89780459568E+03 0.  0.
        -24    2    4    4    0    0 -0.32298123521E+02  0.75023920237E+02  0.27319154853E+03  0.29680965483E+03  0.82405046101E+02 0.  0.
         24    2    4    4    0    0  0.97000279509E+03  0.42237604240E+02 -0.25434163514E+03  0.10068194057E+04  0.79411653056E+02 0.  0.
         11    1    3    3    0    0 -0.43500534103E+03 -0.36925401471E+02  0.61514184434E+02  0.44088221429E+03  0.00000000000E+00 0. -1.
        -11    1    3    3    0    0 -0.50269933055E+03 -0.80336123006E+02 -0.16809773666E+02  0.50935555173E+03  0.00000000000E+00 0.  1.
          2    1    6    6  502    0  0.88064955744E+03  0.17231414871E+02 -0.21995427350E+03  0.90786587506E+03  0.00000000000E+00 0. -1.
          1    1    5    5  503    0 -0.51060472631E+02  0.38950666601E+02  0.22381250394E+03  0.23284407489E+03  0.00000000000E+00 0. -1.
         -2    1    5    5    0  503  0.18762349110E+02  0.36073253637E+02  0.49379044587E+02  0.63965579935E+02  0.00000000000E+00 0.  1.
         -1    1    6    6    0  502  0.89353237652E+02  0.25006189368E+02 -0.34387361635E+02  0.98953530639E+02  0.00000000000E+00 0.  1.
<mgrwt>
<rscale>  0 0.22529706E+04</rscale>
<asrwt>0</asrwt>
<pdfrwt beam="1">  1        1 0.17826317E+00 0.22529706E+04</pdfrwt>
<pdfrwt beam="2">  1       -1 0.16848558E+00 0.22529706E+04</pdfrwt>
<totfact> 0.26261743E+00</totfact>
</mgrwt>
</event>
<event>
12    1  0.1467288E-007  0.2294747E+04  0.7818608E-02  0.8479995E-01
          1   -1    0    0  501    0  0.00000000000E+00  0.00000000000E+00  0.27878539622E+04  0.27878539622E+04  0.00000000000E+00 0. -1.
         -1   -1    0    0    0  501 -0.00000000000E+00 -0.00000000000E+00 -0.47221477278E+03  0.47221477278E+03  0.00000000000E+00 0.  1.
         23    2    1    2    0    0 -0.68316570914E+03 -0.62602030470E+03  0.13665156829E+04  0.16535627995E+04  0.91038520712E+02 0.  0.
        254    2    1    2    0    0  0.68316570914E+03  0.62602030470E+03  0.94912350653E+03  0.16065059355E+04  0.90631621527E+03 0.  0.
        -24    2    4    4    0    0  0.67897670392E+03  0.71903392312E+03  0.44437699724E+03  0.10870740760E+04  0.78993569555E+02 0.  0.
         24    2    4    4    0    0  0.41890052191E+01 -0.93013618423E+02  0.50474650929E+03  0.51943185946E+03  0.79820655201E+02 0.  0.
         11    1    3    3    0    0 -0.57173223370E+03 -0.55661983506E+03  0.11350087235E+04  0.13874250215E+04  0.00000000000E+00 0.  1.
        -11    1    3    3    0    0 -0.11143347544E+03 -0.69400469642E+02  0.23150695946E+03  0.26613777807E+03  0.00000000000E+00 0. -1.
          4    1    6    6  502    0 -0.16538993974E+01 -0.80277159004E+02  0.49695251832E+03  0.50339742064E+03  0.00000000000E+00 0. -1.
          3    1    5    5  503    0  0.61831844317E+03  0.65558212753E+03  0.37900341491E+03  0.97762426914E+03  0.00000000000E+00 0. -1.
         -4    1    5    5    0  503  0.60658260753E+02  0.63451795589E+02  0.65373582327E+02  0.10944980689E+03  0.00000000000E+00 0.  1.
         -3    1    6    6    0  502  0.58429046166E+01 -0.12736459419E+02  0.77939909741E+01  0.16034438818E+02  0.00000000000E+00 0.  1.
<mgrwt>
<rscale>  0 0.22947469E+04</rscale>
<asrwt>0</asrwt>
<pdfrwt beam="1">  1        1 0.42890060E+00 0.22947469E+04</pdfrwt>
<pdfrwt beam="2">  1       -1 0.72648428E-01 0.22947469E+04</pdfrwt>
<totfact> 0.14693106E+00</totfact>
</mgrwt>
</event>
<event>
12    1  0.1467288E-007  0.1992357E+04  0.7818608E-02  0.8610202E-01
          2   -1    0    0  501    0  0.00000000000E+00  0.00000000000E+00  0.85646983722E+03  0.85646983722E+03  0.00000000000E+00 0. -1.
         -2   -1    0    0    0  501 -0.00000000000E+00 -0.00000000000E+00 -0.11586766395E+04  0.11586766395E+04  0.00000000000E+00 0.  1.
         23    2    1    2    0    0 -0.45315009691E+03 -0.10610747681E+03  0.52681092612E+03  0.70838947783E+03  0.87647552513E+02 0.  0.
        254    2    1    2    0    0  0.45315009691E+03  0.10610747681E+03 -0.82901772840E+03  0.13067569989E+04  0.89651528328E+03 0.  0.
        -24    2    4    4    0    0  0.18959584809E+03  0.49373832041E+03 -0.43945235042E+03  0.69220479035E+03  0.79403959912E+02 0.  0.
         24    2    4    4    0    0  0.26355424882E+03 -0.38763084360E+03 -0.38956537799E+03  0.61455220853E+03  0.78706545490E+02 0.  0.
         13    1    3    3    0    0 -0.33522909422E+03 -0.11681076266E+03  0.40351878719E+03  0.53744833379E+03  0.00000000000E+00 0. -1.
        -13    1    3    3    0    0 -0.11792100269E+03  0.10703285848E+02  0.12329213894E+03  0.17094114404E+03  0.00000000000E+00 0.  1.
          4    1    6    6  502    0  0.24462337220E+02 -0.84346978702E+01 -0.12311087593E+02  0.28655068455E+02  0.00000000000E+00 0. -1.
          3    1    5    5  503    0 -0.32409009680E+01  0.77694945814E+01  0.11263673656E+01  0.84933614415E+01  0.00000000000E+00 0. -1.
         -4    1    5    5    0  503  0.19283674905E+03  0.48596882583E+03 -0.44057871778E+03  0.68371142891E+03  0.00000000000E+00 0.  1.
         -3    1    6    6    0  502  0.23909191160E+03 -0.37919614573E+03 -0.37725429039E+03  0.58589714008E+03  0.00000000000E+00 0.  1.
<mgrwt>
<rscale>  0 0.19923570E+04</rscale>
<asrwt>0</asrwt>
<pdfrwt beam="1">  1        2 0.13176459E+00 0.19923570E+04</pdfrwt>
<pdfrwt beam="2">  1       -2 0.17825794E+00 0.19923570E+04</pdfrwt>
<totfact> 0.54419029E+00</totfact>
</mgrwt>
</event>
<event>
12    1  0.1467288E-007  0.2058642E+04  0.7818608E-02  0.8579684E-01
         -1   -1    0    0    0  501 -0.00000000000E+00  0.00000000000E+00  0.56939037269E+03  0.56939037269E+03  0.00000000000E+00 0.  1.
          1   -1    0    0  501    0  0.00000000000E+00 -0.00000000000E+00 -0.18607652705E+04  0.18607652705E+04  0.00000000000E+00 0. -1.
         23    2    1    2    0    0  0.46257828692E+03 -0.28785475565E+03  0.22024213485E+03  0.59469567736E+03  0.91199335663E+02 0.  0.
        254    2    1    2    0    0 -0.46257828692E+03  0.28785475565E+03 -0.15116170327E+04  0.18354599659E+04  0.88717991461E+03 0.  0.
        -24    2    4    4    0    0 -0.47429684835E+03 -0.70344628859E+02 -0.13491928186E+04  0.14340535748E+04  0.79262390225E+02 0.  0.
         24    2    4    4    0    0  0.11718561424E+02  0.35819938451E+03 -0.16242421412E+03  0.40140639108E+03  0.79380990952E+02 0.  0.
         13    1    3    3    0    0  0.32924795679E+03 -0.25075525642E+03  0.15899040426E+03  0.44335128772E+03  0.00000000000E+00 0.  1.
        -13    1    3    3    0    0  0.13333033013E+03 -0.37099499226E+02  0.61251730592E+02  0.15134438964E+03  0.00000000000E+00 0. -1.
          4    1    6    6  502    0 -0.30890078417E+02  0.12355105555E+03 -0.72400867286E+02  0.14649554893E+03  0.00000000000E+00 0. -1.
          1    1    5    5  503    0 -0.28164018960E+03 -0.75477630821E+02 -0.86980756015E+03  0.91737847198E+03  0.00000000000E+00 0. -1.
         -2    1    5    5    0  503 -0.19265665875E+03  0.51330019617E+01 -0.47938525843E+03  0.51667510281E+03  0.00000000000E+00 0.  1.
         -3    1    6    6    0  502  0.42608639840E+02  0.23464832895E+03 -0.90023346831E+02  0.25491084215E+03  0.00000000000E+00 0.  1.
<mgrwt>
<rscale>  0 0.20586421E+04</rscale>
<asrwt>0</asrwt>
<pdfrwt beam="1">  1        1 0.28627158E+00 0.20586421E+04</pdfrwt>
<pdfrwt beam="2">  1       -1 0.87598518E-01 0.20586421E+04</pdfrwt>
<totfact> 0.43829324E+00</totfact>
</mgrwt>
</event>
<event>
12    1  0.1467288E-007  0.1676592E+04  0.7818608E-02  0.8774829E-01
          2   -1    0    0  501    0  0.00000000000E+00  0.00000000000E+00  0.25337418760E+04  0.25337418760E+04  0.00000000000E+00 0. -1.
         -2   -1    0    0    0  501 -0.00000000000E+00 -0.00000000000E+00 -0.27735263958E+03  0.27735263958E+03  0.00000000000E+00 0.  1.
         23    2    1    2    0    0  0.57055653706E+03  0.60044107551E+02  0.10312665064E+04  0.11837077336E+04  0.92267733738E+02 0.  0.
        254    2    1    2    0    0 -0.57055653706E+03 -0.60044107551E+02  0.12251227300E+04  0.16273867819E+04  0.90461150638E+03 0.  0.
        -24    2    4    4    0    0 -0.38430480051E+03 -0.46701142168E+02  0.13373477154E+04  0.13945853097E+04  0.80610779869E+02 0.  0.
         24    2    4    4    0    0 -0.18625173654E+03 -0.13342965383E+02 -0.11222498532E+03  0.23280147223E+03  0.82062988325E+02 0.  0.
         13    1    3    3    0    0  0.20969333995E+03  0.28781411601E+02  0.29394862867E+03  0.36222294622E+03  0.00000000000E+00 0. -1.
        -13    1    3    3    0    0  0.36086319711E+03  0.31262695949E+02  0.73731787769E+03  0.82148478741E+03  0.00000000000E+00 0.  1.
          4    1    6    6  502    0 -0.38283352463E+02 -0.39699321091E+01  0.10983167108E+02  0.40025059606E+02  0.00000000000E+00 0. -1.
          3    1    5    5  503    0 -0.87955316903E+02 -0.38173481853E+02  0.25725043445E+03  0.27453804566E+03  0.00000000000E+00 0. -1.
         -4    1    5    5    0  503 -0.29634948361E+03 -0.85276603146E+01  0.10800972809E+04  0.11200472640E+04  0.00000000000E+00 0.  1.
         -3    1    6    6    0  502 -0.14796838408E+03 -0.93730332736E+01 -0.12320815243E+03  0.19277641263E+03  0.00000000000E+00 0.  1.
<mgrwt>
<rscale>  0 0.16765918E+04</rscale>
<asrwt>0</asrwt>
<pdfrwt beam="1">  1        2 0.38980643E+00 0.16765918E+04</pdfrwt>
<pdfrwt beam="2">  1       -2 0.42669638E-01 0.16765918E+04</pdfrwt>
<totfact> 0.16547429E+01</totfact>
</mgrwt>
</event>
<event>
12    1  0.1467288E-007  0.1993216E+04  0.7818608E-02  0.8609799E-01
          1   -1    0    0  501    0  0.00000000000E+00  0.00000000000E+00  0.27937665819E+04  0.27937665819E+04  0.00000000000E+00 0. -1.
         -1   -1    0    0    0  501 -0.00000000000E+00 -0.00000000000E+00 -0.35551553224E+03  0.35551553224E+03  0.00000000000E+00 0.  1.
         23    2    1    2    0    0  0.66771593145E+03  0.35910002726E+03  0.11871325102E+04  0.14116009342E+04  0.92391590470E+02 0.  0.
        254    2    1    2    0    0 -0.66771593145E+03 -0.35910002726E+03  0.12511185394E+04  0.17376811799E+04  0.93778509727E+03 0.  0.
        -24    2    4    4    0    0  0.18936049461E+03  0.69992205943E+02  0.10408537461E+03  0.24040709302E+03  0.78774991926E+02 0.  0.
         24    2    4    4    0    0 -0.85707642606E+03 -0.42909223320E+03  0.11470331648E+04  0.14972740869E+04  0.86281315481E+02 0.  0.
         11    1    3    3    0    0  0.45575708158E+03  0.27809313131E+03  0.88797811618E+03  0.10361252057E+04  0.00000000000E+00 0. -1.
        -11    1    3    3    0    0  0.21195884987E+03  0.81006895943E+02  0.29915439406E+03  0.37547572853E+03  0.00000000000E+00 0.  1.
          2    1    6    6  502    0 -0.80586525811E+03 -0.42342089056E+03  0.10740738648E+04  0.14079555148E+04  0.00000000000E+00 0. -1.
          3    1    5    5  503    0  0.54013444311E+02  0.42594201904E+02  0.70061280266E+02  0.98185035493E+02  0.00000000000E+00 0. -1.
         -4    1    5    5    0  503  0.13534705030E+03  0.27398004040E+02  0.34024094341E+02  0.14222205752E+03  0.00000000000E+00 0.  1.
         -1    1    6    6    0  502 -0.51211167955E+02 -0.56713426354E+01  0.72959300069E+02  0.89318572073E+02  0.00000000000E+00 0.  1.
<mgrwt>
<rscale>  0 0.19932159E+04</rscale>
<asrwt>0</asrwt>
<pdfrwt beam="1">  1        1 0.42981023E+00 0.19932159E+04</pdfrwt>
<pdfrwt beam="2">  1       -1 0.54694699E-01 0.19932159E+04</pdfrwt>
<totfact> 0.26427001E+00</totfact>
</mgrwt>
</event>
<event>
12    1  0.1467288E-007  0.1693725E+04  0.7818608E-02  0.8764951E-01
          3   -1    0    0  501    0  0.00000000000E+00  0.00000000000E+00  0.90805922795E+03  0.90805922795E+03  0.00000000000E+00 0. -1.
         -3   -1    0    0    0  501 -0.00000000000E+00 -0.00000000000E+00 -0.78978983584E+03  0.78978983584E+03  0.00000000000E+00 0.  1.
         23    2    1    2    0    0  0.18901413461E+03  0.78655248053E+02  0.61029367227E+03  0.64934223403E+03  0.85287627234E+02 0.  0.
        254    2    1    2    0    0 -0.18901413461E+03 -0.78655248053E+02 -0.49202428016E+03  0.10485068298E+04  0.90297601776E+03 0.  0.
        -24    2    4    4    0    0 -0.34955449563E+03  0.18628756553E+03 -0.58782752482E+03  0.71328039116E+03  0.79600973536E+02 0.  0.
         24    2    4    4    0    0  0.16054036102E+03 -0.26494281358E+03  0.95803244663E+02  0.33522643860E+03  0.85032943400E+02 0.  0.
         13    1    3    3    0    0  0.16396232046E+03  0.93194452515E+02  0.56435904599E+03  0.59503779821E+03  0.00000000000E+00 0. -1.
        -13    1    3    3    0    0  0.25051814147E+02 -0.14539204462E+02  0.45934626283E+02  0.54304435824E+02  0.00000000000E+00 0.  1.
          4    1    6    6  502    0  0.16642616557E+03 -0.25777570037E+03  0.10281505362E+03  0.32359993130E+03  0.00000000000E+00 0. -1.
          1    1    5    5  503    0 -0.22343718480E+03  0.14734341085E+03 -0.34222316954E+03  0.43445477791E+03  0.00000000000E+00 0. -1.
         -2    1    5    5    0  503 -0.12611731082E+03  0.38944154679E+02 -0.24560435528E+03  0.27882561325E+03  0.00000000000E+00 0.  1.
         -3    1    6    6    0  502 -0.58858045516E+01 -0.71671132075E+01 -0.70118089597E+01  0.11626507293E+02  0.00000000000E+00 0.  1.
<mgrwt>
<rscale>  0 0.16937248E+04</rscale>
<asrwt>0</asrwt>
<pdfrwt beam="1">  1        3 0.13970142E+00 0.16937248E+04</pdfrwt>
<pdfrwt beam="2">  1       -3 0.12150613E+00 0.16937248E+04</pdfrwt>
<totfact> 0.53057272E-01</totfact>
</mgrwt>
</event>
<event>
12    1  0.1467288E-007  0.2841881E+04  0.7818608E-02  0.8290383E-01
          2   -1    0    0  501    0  0.00000000000E+00  0.00000000000E+00  0.20433383947E+04  0.20433383947E+04  0.00000000000E+00 0. -1.
         -2   -1    0    0    0  501 -0.00000000000E+00 -0.00000000000E+00 -0.98812439133E+03  0.98812439133E+03  0.00000000000E+00 0.  1.
         23    2    1    2    0    0  0.46022663304E+03  0.11563109608E+04  0.17694364501E+03  0.12602087420E+04  0.89181994521E+02 0.  0.
        254    2    1    2    0    0 -0.46022663304E+03 -0.11563109608E+04  0.87827035837E+03  0.17712540441E+04  0.90394605727E+03 0.  0.
        -24    2    4    4    0    0 -0.40200981378E+03 -0.11017104177E+04  0.10432036638E+04  0.15716190886E+04  0.79592340564E+02 0.  0.
         24    2    4    4    0    0 -0.58216819259E+02 -0.54600543075E+02 -0.16493330544E+03  0.19963495545E+03  0.79250885448E+02 0.  0.
         13    1    3    3    0    0  0.33502424249E+03  0.72607401385E+03  0.11369508461E+03  0.80768266597E+03  0.00000000000E+00 0.  1.
        -13    1    3    3    0    0  0.12520239055E+03  0.43023694691E+03  0.63248560398E+02  0.45252607602E+03  0.00000000000E+00 0. -1.
          4    1    6    6  502    0 -0.20876759784E+02 -0.13643587051E+02  0.72599378642E+00  0.24950223119E+02  0.00000000000E+00 0. -1.
          3    1    5    5  503    0 -0.63561272576E+02 -0.26091597750E+03  0.21835023450E+03  0.34611270938E+03  0.00000000000E+00 0. -1.
         -4    1    5    5    0  503 -0.33844854120E+03 -0.84079444019E+03  0.82485342931E+03  0.12255063792E+04  0.00000000000E+00 0.  1.
         -3    1    6    6    0  502 -0.37340059475E+02 -0.40956956024E+02 -0.16565929923E+03  0.17468473233E+03  0.00000000000E+00 0.  1.
<mgrwt>
<rscale>  0 0.28418814E+04</rscale>
<asrwt>0</asrwt>
<pdfrwt beam="1">  1        2 0.31435975E+00 0.28418814E+04</pdfrwt>
<pdfrwt beam="2">  1       -2 0.15201914E+00 0.28418814E+04</pdfrwt>
<totfact> 0.15847821E+00</totfact>
</mgrwt>
</event>
<event>
12    1  0.1467288E-007  0.2035138E+04  0.7818608E-02  0.8590367E-01
          1   -1    0    0  501    0  0.00000000000E+00  0.00000000000E+00  0.19452505334E+04  0.19452505334E+04  0.00000000000E+00 0. -1.
         -1   -1    0    0    0  501 -0.00000000000E+00 -0.00000000000E+00 -0.53229471700E+03  0.53229471700E+03  0.00000000000E+00 0.  1.
         23    2    1    2    0    0 -0.23909916504E+03  0.55018525475E+03 -0.99412215247E+02  0.61506839389E+03  0.92488460678E+02 0.  0.
        254    2    1    2    0    0  0.23909916504E+03 -0.55018525475E+03  0.15123680316E+04  0.18624768565E+04  0.90647159503E+03 0.  0.
        -24    2    4    4    0    0  0.20795594526E+03 -0.29129163415E+03  0.15448249505E+04  0.15876586546E+04  0.77970407332E+02 0.  0.
         24    2    4    4    0    0  0.31143219784E+02 -0.25889362060E+03 -0.32456918890E+02  0.27481820191E+03  0.80472265985E+02 0.  0.
         11    1    3    3    0    0 -0.61511053484E+02  0.13997273928E+03 -0.66889200331E+02  0.16688361982E+03  0.00000000000E+00 0.  1.
        -11    1    3    3    0    0 -0.17758811156E+03  0.41021251547E+03 -0.32523014916E+02  0.44818477408E+03  0.00000000000E+00 0. -1.
          4    1    6    6  502    0  0.38444542440E+01 -0.16987732637E+03  0.14501860740E+02  0.17053852881E+03  0.00000000000E+00 0. -1.
          3    1    5    5  503    0  0.14396053699E+03 -0.24301130590E+03  0.12883003405E+04  0.13188998818E+04  0.00000000000E+00 0. -1.
         -4    1    5    5    0  503  0.63995408262E+02 -0.48280328246E+02  0.25652461005E+03  0.26875877276E+03  0.00000000000E+00 0.  1.
         -3    1    6    6    0  502  0.27298765540E+02 -0.89016294230E+02 -0.46958779630E+02  0.10427967310E+03  0.00000000000E+00 0.  1.
<mgrwt>
<rscale>  0 0.20351379E+04</rscale>
<asrwt>0</asrwt>
<pdfrwt beam="1">  1        1 0.29926931E+00 0.20351379E+04</pdfrwt>
<pdfrwt beam="2">  1       -1 0.81891496E-01 0.20351379E+04</pdfrwt>
<totfact> 0.44542719E+00</totfact>
</mgrwt>
</event>
<event>
12    1  0.1467288E-007  0.1020553E+04  0.7818608E-02  0.9286285E-01
          1   -1    0    0  501    0  0.00000000000E+00  0.00000000000E+00  0.46241649387E+03  0.46241649387E+03  0.00000000000E+00 0. -1.
         -1   -1    0    0    0  501 -0.00000000000E+00 -0.00000000000E+00 -0.56309041119E+03  0.56309041119E+03  0.00000000000E+00 0.  1.
         23    2    1    2    0    0 -0.38448576628E+01  0.17372239965E+02 -0.20520642314E+02  0.94410452944E+02  0.90419351979E+02 0.  0.
        254    2    1    2    0    0  0.38448576628E+01 -0.17372239965E+02 -0.80153275005E+02  0.93109645211E+03  0.92746939464E+03 0.  0.
        -24    2    4    4    0    0 -0.89566385584E+02 -0.45350929901E+03 -0.93690324315E+02  0.47807351511E+03  0.77997354223E+02 0.  0.
         24    2    4    4    0    0  0.93411243246E+02  0.43613705904E+03  0.13537049309E+02  0.45302293701E+03  0.78136643873E+02 0.  0.
         11    1    3    3    0    0 -0.27233485631E+02 -0.28107496549E+02  0.44262630263E+00  0.39139366626E+02  0.00000000000E+00 0. -1.
        -11    1    3    3    0    0  0.23388627968E+02  0.45479736514E+02 -0.20963268617E+02  0.55271086318E+02  0.00000000000E+00 0.  1.
          4    1    6    6  502    0  0.52254783501E+02  0.11248254942E+03  0.25165133440E+02  0.12655500884E+03  0.00000000000E+00 0. -1.
          3    1    5    5  503    0  0.35240002849E+01 -0.29508172473E+01  0.57637680748E+01  0.73720365473E+01  0.00000000000E+00 0. -1.
         -4    1    5    5    0  503 -0.93090385869E+02 -0.45055848176E+03 -0.99454092389E+02  0.47070147856E+03  0.00000000000E+00 0.  1.
         -3    1    6    6    0  502  0.41156459745E+02  0.32365450962E+03 -0.11628084130E+02  0.32646792816E+03  0.00000000000E+00 0.  1.
<mgrwt>
<rscale>  0 0.10205534E+04</rscale>
<asrwt>0</asrwt>
<pdfrwt beam="1">  1        1 0.71140999E-01 0.10205534E+04</pdfrwt>
<pdfrwt beam="2">  1       -1 0.86629294E-01 0.10205534E+04</pdfrwt>
<totfact> 0.64950882E+01</totfact>
</mgrwt>
</event>
<event>
12    1  0.1467288E-007  0.1621343E+04  0.7818608E-02  0.8807543E-01
          2   -1    0    0  501    0  0.00000000000E+00  0.00000000000E+00  0.20898715848E+04  0.20898715848E+04  0.00000000000E+00 0. -1.
         -2   -1    0    0    0  501 -0.00000000000E+00 -0.00000000000E+00 -0.31446331297E+03  0.31446331297E+03  0.00000000000E+00 0.  1.
         23    2    1    2    0    0 -0.39129444298E+02  0.13374353395E+03 -0.18314350195E+03  0.24833088455E+03  0.93317949135E+02 0.  0.
        254    2    1    2    0    0  0.39129444298E+02 -0.13374353395E+03  0.19585517737E+04  0.21560040132E+04  0.89051098146E+03 0.  0.
        -24    2    4    4    0    0  0.10757528487E+03  0.36278719008E+03  0.98452202207E+03  0.10576802846E+04  0.78847861947E+02 0.  0.
         24    2    4    4    0    0 -0.68445840576E+02 -0.49653072403E+03  0.97402975167E+03  0.10983237286E+04  0.79708610286E+02 0.  0.
         11    1    3    3    0    0  0.80345379410E+01 -0.11922441204E+02 -0.19509840554E+02  0.24234939295E+02  0.00000000000E+00 0. -1.
        -11    1    3    3    0    0 -0.47163982239E+02  0.14566597515E+03 -0.16363366140E+03  0.22409594526E+03  0.00000000000E+00 0.  1.
          2    1    6    6  502    0 -0.37598530576E+02 -0.25378676662E+03  0.58429758706E+03  0.63814186718E+03  0.00000000000E+00 0. -1.
          1    1    5    5  503    0  0.11287360757E+03  0.36271672820E+03  0.97854631800E+03  0.10496936566E+04  0.00000000000E+00 0. -1.
         -2    1    5    5    0  503 -0.52983226981E+01  0.70461885534E-01  0.59757040692E+01  0.79866280378E+01  0.00000000000E+00 0.  1.
         -1    1    6    6    0  502 -0.30847310000E+02 -0.24274395741E+03  0.38973216462E+03  0.46018186137E+03  0.00000000000E+00 0.  1.
<mgrwt>
<rscale>  0 0.16213426E+04</rscale>
<asrwt>0</asrwt>
<pdfrwt beam="1">  1        2 0.32151870E+00 0.16213426E+04</pdfrwt>
<pdfrwt beam="2">  1       -2 0.48378973E-01 0.16213426E+04</pdfrwt>
<totfact> 0.23073707E+01</totfact>
</mgrwt>
</event>
<event>
12    1  0.1467288E-007  0.3607496E+04  0.7818608E-02  0.8088777E-01
         -2   -1    0    0    0  501 -0.00000000000E+00  0.00000000000E+00  0.22146391179E+04  0.22146391179E+04  0.00000000000E+00 0.  1.
          2   -1    0    0  501    0  0.00000000000E+00 -0.00000000000E+00 -0.14690908482E+04  0.14690908482E+04  0.00000000000E+00 0. -1.
         23    2    1    2    0    0  0.24256300365E+03  0.13780213310E+04  0.13137404881E+04  0.19214141612E+04  0.90214795626E+02 0.  0.
        254    2    1    2    0    0 -0.24256300365E+03 -0.13780213310E+04 -0.56819221843E+03  0.17623158049E+04  0.90836941819E+03 0.  0.
        -24    2    4    4    0    0 -0.55503573402E+02 -0.10480289425E+04  0.25924925898E+02  0.10528956039E+04  0.80447125695E+02 0.  0.
         24    2    4    4    0    0 -0.18705943025E+03 -0.32999238853E+03 -0.59411714432E+03  0.70942020105E+03  0.80097650100E+02 0.  0.
         11    1    3    3    0    0  0.79342791897E+02  0.29616331479E+03  0.25275209491E+03  0.39735577149E+03  0.00000000000E+00 0. -1.
        -11    1    3    3    0    0  0.16322021175E+03  0.10818580162E+04  0.10609883932E+04  0.15240583897E+04  0.00000000000E+00 0.  1.
          4    1    6    6  502    0 -0.13113939484E+03 -0.28161817659E+03 -0.51240428699E+03  0.59921990253E+03  0.00000000000E+00 0. -1.
          1    1    5    5  503    0 -0.24609017633E+02 -0.91972692322E+03  0.11372010963E+02  0.92012637159E+03  0.00000000000E+00 0. -1.
         -2    1    5    5    0  503 -0.30894555769E+02 -0.12830201923E+03  0.14552914935E+02  0.13276923231E+03  0.00000000000E+00 0.  1.
         -3    1    6    6    0  502 -0.55920035405E+02 -0.48374211932E+02 -0.81712857337E+02  0.11020029852E+03  0.00000000000E+00 0.  1.
<mgrwt>
<rscale>  0 0.36074956E+04</rscale>
<asrwt>0</asrwt>
<pdfrwt beam="1">  1        2 0.22601398E+00 0.36074956E+04</pdfrwt>
<pdfrwt beam="2">  1       -2 0.34071371E+00 0.36074956E+04</pdfrwt>
<totfact> 0.19151342E-01</totfact>
</mgrwt>
</event>
<event>
12    1  0.1467288E-007  0.1082552E+04  0.7818608E-02  0.9222367E-01
          2   -1    0    0  501    0  0.00000000000E+00  0.00000000000E+00  0.12583738543E+04  0.12583738543E+04  0.00000000000E+00 0.  1.
         -2   -1    0    0    0  501 -0.00000000000E+00 -0.00000000000E+00 -0.23282409179E+03  0.23282409179E+03  0.00000000000E+00 0. -1.
         23    2    1    2    0    0  0.79351517321E+02 -0.47067520866E+02  0.60913931231E+01  0.13026282653E+03  0.91756656888E+02 0.  0.
        254    2    1    2    0    0 -0.79351517321E+02  0.47067520866E+02  0.10194583694E+04  0.13609351196E+04  0.89684838067E+03 0.  0.
        -24    2    4    4    0    0 -0.29416161605E+01 -0.23658767273E+02 -0.15648085099E+03  0.17777104462E+03  0.80919078114E+02 0.  0.
         24    2    4    4    0    0 -0.76409901161E+02  0.70726288139E+02  0.11759392204E+04  0.11831640749E+04  0.78762283836E+02 0.  0.
         11    1    3    3    0    0 -0.16755344396E+01 -0.93766245740E+01 -0.31800923181E+02  0.33196795316E+02  0.00000000000E+00 0. -1.
        -11    1    3    3    0    0  0.81027051761E+02 -0.37690896292E+02  0.37892316305E+02  0.97066031212E+02  0.00000000000E+00 0.  1.
          4    1    6    6  502    0  0.11127121855E+02 -0.32841366859E+01  0.46616235337E+02  0.48038232603E+02  0.00000000000E+00 0. -1.
          3    1    5    5  503    0  0.19394544281E+02 -0.16149778248E+02 -0.66514783110E+01  0.26099920479E+02  0.00000000000E+00 0. -1.
         -4    1    5    5    0  503 -0.22336160441E+02 -0.75089890251E+01 -0.14982937268E+03  0.15167112414E+03  0.00000000000E+00 0.  1.
         -3    1    6    6    0  502 -0.87537023015E+02  0.74010424825E+02  0.11293229850E+04  0.11351258423E+04  0.00000000000E+00 0.  1.
<mgrwt>
<rscale>  0 0.10825521E+04</rscale>
<asrwt>0</asrwt>
<pdfrwt beam="1">  1        2 0.19359597E+00 0.10825521E+04</pdfrwt>
<pdfrwt beam="2">  1       -2 0.35819092E-01 0.10825521E+04</pdfrwt>
<totfact> 0.12723775E+02</totfact>
</mgrwt>
</event>
<event>
12    1  0.1467288E-007  0.2521375E+04  0.7818608E-02  0.8395410E-01
          1   -1    0    0  501    0  0.00000000000E+00  0.00000000000E+00  0.30182958958E+04  0.30182958958E+04  0.00000000000E+00 0. -1.
         -1   -1    0    0    0  501 -0.00000000000E+00 -0.00000000000E+00 -0.52656651701E+03  0.52656651701E+03  0.00000000000E+00 0.  1.
         23    2    1    2    0    0  0.90511862707E+03  0.37179871490E+03  0.39401722450E+03  0.10588773948E+04  0.92183244403E+02 0.  0.
        254    2    1    2    0    0 -0.90511862707E+03 -0.37179871490E+03  0.20977121543E+04  0.24859850180E+04  0.90678068681E+03 0.  0.
        -24    2    4    4    0    0 -0.20117869682E+03 -0.51737232480E+03  0.58838389030E+03  0.81236367437E+03  0.74780656165E+02 0.  0.
         24    2    4    4    0    0 -0.70393993025E+03  0.14557360990E+03  0.15093282640E+04  0.16736213436E+04  0.78825706953E+02 0.  0.
         13    1    3    3    0    0  0.64657260786E+03  0.22238971018E+03  0.28934874606E+03  0.74245270373E+03  0.00000000000E+00 0.  1.
        -13    1    3    3    0    0  0.25854601922E+03  0.14940900473E+03  0.10466847844E+03  0.31642469108E+03  0.00000000000E+00 0. -1.
          2    1    6    6  502    0 -0.16484760943E+01 -0.46764530252E+01  0.10578270163E+02  0.11682743085E+02  0.00000000000E+00 0. -1.
          3    1    5    5  503    0 -0.20957468074E+02 -0.11887337260E+03  0.99777778573E+02  0.15660683024E+03  0.00000000000E+00 0. -1.
         -4    1    5    5    0  503 -0.18022122875E+03 -0.39849895221E+03  0.48860611173E+03  0.65575684413E+03  0.00000000000E+00 0.  1.
         -1    1    6    6    0  502 -0.70229145416E+03  0.15025006293E+03  0.14987499938E+04  0.16619386006E+04  0.00000000000E+00 0.  1.
<mgrwt>
<rscale>  0 0.25213755E+04</rscale>
<asrwt>0</asrwt>
<pdfrwt beam="1">  1        1 0.46435320E+00 0.25213755E+04</pdfrwt>
<pdfrwt beam="2">  1       -1 0.81010235E-01 0.25213755E+04</pdfrwt>
<totfact> 0.78049511E-01</totfact>
</mgrwt>
</event>
<event>
12    1  0.1467288E-007  0.2033190E+04  0.7818608E-02  0.8591259E-01
          2   -1    0    0  501    0  0.00000000000E+00  0.00000000000E+00  0.13206818987E+04  0.13206818987E+04  0.00000000000E+00 0. -1.
         -2   -1    0    0    0  501 -0.00000000000E+00 -0.00000000000E+00 -0.78252379203E+03  0.78252379203E+03  0.00000000000E+00 0.  1.
         23    2    1    2    0    0 -0.54809151187E+03  0.18287089244E+02  0.85215798898E+03  0.10176463886E+04  0.93232027793E+02 0.  0.
        254    2    1    2    0    0  0.54809151187E+03 -0.18287089244E+02 -0.31399988227E+03  0.10855593022E+04  0.88266887873E+03 0.  0.
        -24    2    4    4    0    0  0.31485738857E+03 -0.57897735800E+02  0.28562965168E+03  0.43614746277E+03  0.78440986806E+02 0.  0.
         24    2    4    4    0    0  0.23323412329E+03  0.39610646556E+02 -0.59962953395E+03  0.64941183941E+03  0.78822583044E+02 0.  0.
         13    1    3    3    0    0 -0.54827694234E+03  0.10467465881E+02  0.83821865793E+03  0.10016624640E+04  0.00000000000E+00 0. -1.
        -13    1    3    3    0    0  0.18543047895E+00  0.78196233633E+01  0.13939331053E+02  0.15983924556E+02  0.00000000000E+00 0.  1.
          2    1    6    6  502    0  0.70116620751E+02  0.39021274569E+02 -0.13580439093E+03  0.15773976345E+03  0.00000000000E+00 0. -1.
          1    1    5    5  503    0  0.17526705701E+03 -0.71137347553E+02  0.15584463301E+03  0.24508491004E+03  0.00000000000E+00 0. -1.
         -2    1    5    5    0  503  0.13959033156E+03  0.13239611754E+02  0.12978501867E+03  0.19106255273E+03  0.00000000000E+00 0.  1.
         -1    1    6    6    0  502  0.16311750254E+03  0.58937198636E+00 -0.46382514302E+03  0.49167207597E+03  0.00000000000E+00 0.  1.
<mgrwt>
<rscale>  0 0.20331896E+04</rscale>
<asrwt>0</asrwt>
<pdfrwt beam="1">  1        2 0.20318183E+00 0.20331896E+04</pdfrwt>
<pdfrwt beam="2">  1       -2 0.12038828E+00 0.20331896E+04</pdfrwt>
<totfact> 0.78490858E+00</totfact>
</mgrwt>
</event>
<event>
12    1  0.1467288E-007  0.1620468E+04  0.7818608E-02  0.8808072E-01
         -2   -1    0    0    0  501 -0.00000000000E+00  0.00000000000E+00  0.94082274732E+03  0.94082274732E+03  0.00000000000E+00 0.  1.
          2   -1    0    0  501    0  0.00000000000E+00 -0.00000000000E+00 -0.69777127769E+03  0.69777127769E+03  0.00000000000E+00 0. -1.
         23    2    1    2    0    0  0.24011449668E+03 -0.44446134434E+03 -0.15929533055E+03  0.53731600812E+03  0.90181107308E+02 0.  0.
        254    2    1    2    0    0 -0.24011449668E+03  0.44446134434E+03  0.40234680018E+03  0.11012780169E+04  0.89203669474E+03 0.  0.
        -24    2    4    4    0    0  0.35735297960E+01  0.48678572672E+03  0.59816199868E+03  0.77533834893E+03  0.79866543725E+02 0.  0.
         24    2    4    4    0    0 -0.24368802648E+03 -0.42324382377E+02 -0.19581519849E+03  0.32593966797E+03  0.81962598796E+02 0.  0.
         11    1    3    3    0    0  0.10193573063E+03 -0.12729546648E+03 -0.83241520190E+02  0.18309609403E+03  0.00000000000E+00 0.  1.
        -11    1    3    3    0    0  0.13817876605E+03 -0.31716587786E+03 -0.76053810362E+02  0.35421991408E+03  0.00000000000E+00 0. -1.
          2    1    6    6  502    0 -0.39020493023E+02 -0.19831578874E+02 -0.30321327421E+01  0.43875781764E+02  0.00000000000E+00 0. -1.
          3    1    5    5  503    0 -0.23648901622E+02  0.49051771353E+02  0.58241686319E+02  0.79733561604E+02  0.00000000000E+00 0. -1.
         -4    1    5    5    0  503  0.27222431418E+02  0.43773395536E+03  0.53992031236E+03  0.69560478732E+03  0.00000000000E+00 0.  1.
         -1    1    6    6    0  502 -0.20466753346E+03 -0.22492803503E+02 -0.19278306575E+03  0.28206388621E+03  0.00000000000E+00 0.  1.
<mgrwt>
<rscale>  0 0.16204679E+04</rscale>
<asrwt>0</asrwt>
<pdfrwt beam="1">  1        2 0.10734943E+00 0.16204679E+04</pdfrwt>
<pdfrwt beam="2">  1       -2 0.14474196E+00 0.16204679E+04</pdfrwt>
<totfact> 0.12960472E+01</totfact>
</mgrwt>
</event>
<event>
12    1  0.1467288E-007  0.1687630E+04  0.7818608E-02  0.8768451E-01
          2   -1    0    0  501    0  0.00000000000E+00  0.00000000000E+00  0.84586793967E+03  0.84586793967E+03  0.00000000000E+00 0. -1.
         -2   -1    0    0    0  501 -0.00000000000E+00 -0.00000000000E+00 -0.84176731696E+03  0.84176731696E+03  0.00000000000E+00 0.  1.
         23    2    1    2    0    0 -0.35514040520E+03  0.44861316831E+03 -0.17002003353E+03  0.60384064663E+03  0.91313922982E+02 0.  0.
        254    2    1    2    0    0  0.35514040520E+03 -0.44861316831E+03  0.17412065624E+03  0.10837946100E+04  0.90383309939E+03 0.  0.
        -24    2    4    4    0    0  0.26773778921E+03 -0.14784489701E+03 -0.34792458050E+03  0.46983115561E+03  0.78410227116E+02 0.  0.
         24    2    4    4    0    0  0.87402615994E+02 -0.30076827130E+03  0.52204523674E+03  0.61396345440E+03  0.79492916859E+02 0.  0.
         13    1    3    3    0    0 -0.35396903483E+03  0.44487953133E+03 -0.15635437842E+03  0.58962578528E+03  0.00000000000E+00 0. -1.
        -13    1    3    3    0    0 -0.11713703758E+01  0.37336369774E+01 -0.13665655108E+02  0.14214861348E+02  0.00000000000E+00 0.  1.
          2    1    6    6  502    0  0.98785501811E+01 -0.10127607131E+03  0.11132121448E+03  0.15082055950E+03  0.00000000000E+00 0. -1.
          1    1    5    5  503    0  0.39872846247E+02 -0.90539077269E+01 -0.89464292834E+02  0.98365018199E+02  0.00000000000E+00 0. -1.
         -2    1    5    5    0  503  0.22786494296E+03 -0.13879098929E+03 -0.25846028767E+03  0.37146613741E+03  0.00000000000E+00 0.  1.
         -1    1    6    6    0  502  0.77524065813E+02 -0.19949219999E+03  0.41072402225E+03  0.46314289490E+03  0.00000000000E+00 0.  1.
<mgrwt>
<rscale>  0 0.16876303E+04</rscale>
<asrwt>0</asrwt>
<pdfrwt beam="1">  1        2 0.13013353E+00 0.16876303E+04</pdfrwt>
<pdfrwt beam="2">  1       -2 0.12950266E+00 0.16876303E+04</pdfrwt>
<totfact> 0.13343893E+01</totfact>
</mgrwt>
</event>
<event>
12    1  0.1467288E-007  0.1382528E+04  0.7818608E-02  0.8966564E-01
          1   -1    0    0  501    0  0.00000000000E+00  0.00000000000E+00  0.37427316516E+03  0.37427316516E+03  0.00000000000E+00 0. -1.
         -1   -1    0    0    0  501 -0.00000000000E+00 -0.00000000000E+00 -0.12767306682E+04  0.12767306682E+04  0.00000000000E+00 0.  1.
         23    2    1    2    0    0  0.26339462257E+02 -0.32327974640E+03  0.15739658358E+02  0.33815156381E+03  0.94314270191E+02 0.  0.
        254    2    1    2    0    0 -0.26339462257E+02  0.32327974640E+03 -0.91819716135E+03  0.13128522695E+04  0.88050638427E+03 0.  0.
        -24    2    4    4    0    0  0.34793955230E+03  0.18404499779E+02 -0.12057308152E+03  0.37718223956E+03  0.79548200396E+02 0.  0.
         24    2    4    4    0    0 -0.37427901455E+03  0.30487524662E+03 -0.79762407983E+03  0.93567002995E+03  0.78997060010E+02 0.  0.
         13    1    3    3    0    0 -0.22097543075E+01 -0.13191605867E+02 -0.20680994936E+02  0.24629353037E+02  0.00000000000E+00 0.  1.
        -13    1    3    3    0    0  0.28549216564E+02 -0.31008814053E+03  0.36420653294E+02  0.31352221078E+03  0.00000000000E+00 0. -1.
          4    1    6    6  502    0 -0.35513137177E+03  0.30650940450E+03 -0.77566873064E+03  0.90649229779E+03  0.00000000000E+00 0. -1.
          1    1    5    5  503    0  0.29568246934E+03  0.38630784930E+02 -0.82367273990E+02  0.30936196929E+03  0.00000000000E+00 0. -1.
         -2    1    5    5    0  503  0.52257082959E+02 -0.20226285151E+02 -0.38205807529E+02  0.67820270268E+02  0.00000000000E+00 0.  1.
         -3    1    6    6    0  502 -0.19147642779E+02 -0.16341578783E+01 -0.21955349191E+02  0.29177732161E+02  0.00000000000E+00 0.  1.
<mgrwt>
<rscale>  0 0.13825282E+04</rscale>
<asrwt>0</asrwt>
<pdfrwt beam="1">  1        1 0.57580486E-01 0.13825282E+04</pdfrwt>
<pdfrwt beam="2">  1       -1 0.19642010E+00 0.13825282E+04</pdfrwt>
<totfact> 0.10196776E+01</totfact>
</mgrwt>
</event>
<event>
12    1  0.1467288E-007  0.1576793E+04  0.7818608E-02  0.8834933E-01
         -1   -1    0    0    0  501 -0.00000000000E+00  0.00000000000E+00  0.45110467284E+03  0.45110467284E+03  0.00000000000E+00 0.  1.
          1   -1    0    0  501    0  0.00000000000E+00 -0.00000000000E+00 -0.13778821028E+04  0.13778821028E+04  0.00000000000E+00 0. -1.
         23    2    1    2    0    0 -0.43425612247E+03  0.30696370468E+03 -0.27208323076E+03  0.60445328978E+03  0.92354746322E+02 0.  0.
        254    2    1    2    0    0  0.43425612247E+03 -0.30696370468E+03 -0.65469419925E+03  0.12245334859E+04  0.88772330581E+03 0.  0.
        -24    2    4    4    0    0 -0.24633747625E+03 -0.72914187876E+02 -0.35387327354E+02  0.27156135830E+03  0.80589561272E+02 0.  0.
         24    2    4    4    0    0  0.68059359872E+03 -0.23404951680E+03 -0.61930687189E+03  0.95297212761E+03  0.81412845986E+02 0.  0.
         11    1    3    3    0    0 -0.42963356313E+03  0.30956583301E+03 -0.25729342269E+03  0.58874095228E+03  0.00000000000E+00 0.  1.
        -11    1    3    3    0    0 -0.46225593443E+01 -0.26021283371E+01 -0.14789808070E+02  0.15712337494E+02  0.00000000000E+00 0. -1.
          4    1    6    6  502    0  0.30162236894E+03 -0.96320452263E+02 -0.32522973844E+03  0.45390314577E+03  0.00000000000E+00 0. -1.
          1    1    5    5  503    0 -0.25228817086E+03 -0.72233974535E+02 -0.37742371169E+02  0.26512554538E+03  0.00000000000E+00 0. -1.
         -2    1    5    5    0  503  0.59506946107E+01 -0.68021334062E+00  0.23550438149E+01  0.64358129174E+01  0.00000000000E+00 0.  1.
         -3    1    6    6    0  502  0.37897122978E+03 -0.13772906454E+03 -0.29407713345E+03  0.49906898184E+03  0.00000000000E+00 0.  1.
<mgrwt>
<rscale>  0 0.15767930E+04</rscale>
<asrwt>0</asrwt>
<pdfrwt beam="1">  1        1 0.21198186E+00 0.15767930E+04</pdfrwt>
<pdfrwt beam="2">  1       -1 0.69400720E-01 0.15767930E+04</pdfrwt>
<totfact> 0.16076765E+01</totfact>
</mgrwt>
</event>
<event>
12    1  0.1467288E-007  0.1936317E+04  0.7818608E-02  0.8636987E-01
          1   -1    0    0  501    0  0.00000000000E+00  0.00000000000E+00  0.11604451052E+04  0.11604451052E+04  0.00000000000E+00 0. -1.
         -1   -1    0    0    0  501 -0.00000000000E+00 -0.00000000000E+00 -0.80773398529E+03  0.80773398529E+03  0.00000000000E+00 0.  1.
         23    2    1    2    0    0  0.23065124257E+03 -0.60961793151E+03 -0.25476182758E+03  0.70579740662E+03  0.91718985369E+02 0.  0.
        254    2    1    2    0    0 -0.23065124257E+03  0.60961793151E+03  0.60747294754E+03  0.12623816839E+04  0.89428749056E+03 0.  0.
        -24    2    4    4    0    0 -0.10593945162E+03  0.46272293650E+03 -0.12795592390E+03  0.49792358958E+03  0.78863801711E+02 0.  0.
         24    2    4    4    0    0 -0.12471179094E+03  0.14689499501E+03  0.73542887144E+03  0.76445809434E+03  0.80058620384E+02 0.  0.
         13    1    3    3    0    0  0.87053775946E+01 -0.11640909740E+03 -0.33542176916E+02  0.12145756127E+03  0.00000000000E+00 0. -1.
        -13    1    3    3    0    0  0.22194586497E+03 -0.49320883411E+03 -0.22121965066E+03  0.58433984535E+03  0.00000000000E+00 0.  1.
          2    1    6    6  502    0  0.56104109578E+01  0.38177888673E+02  0.15450642791E+03  0.15925220300E+03  0.00000000000E+00 0. -1.
          1    1    5    5  503    0  0.57071476250E+01  0.52189359513E+02 -0.33003001384E+02  0.62012086570E+02  0.00000000000E+00 0. -1.
         -2    1    5    5    0  503 -0.11164659925E+03  0.41053357699E+03 -0.94952922517E+02  0.43591150301E+03  0.00000000000E+00 0.  1.
         -1    1    6    6    0  502 -0.13032220190E+03  0.10871710634E+03  0.58092244353E+03  0.60520589135E+03  0.00000000000E+00 0.  1.
<mgrwt>
<rscale>  0 0.19363171E+04</rscale>
<asrwt>0</asrwt>
<pdfrwt beam="1">  1        1 0.17853002E+00 0.19363171E+04</pdfrwt>
<pdfrwt beam="2">  1       -1 0.12426677E+00 0.19363171E+04</pdfrwt>
<totfact> 0.60531906E+00</totfact>
</mgrwt>
</event>
<event>
12    1  0.1467288E-007  0.1372061E+04  0.7818608E-02  0.8974294E-01
          1   -1    0    0  501    0  0.00000000000E+00  0.00000000000E+00  0.11529223706E+04  0.11529223706E+04  0.00000000000E+00 0. -1.
         -1   -1    0    0    0  501 -0.00000000000E+00 -0.00000000000E+00 -0.40821284192E+03  0.40821284192E+03  0.00000000000E+00 0.  1.
         23    2    1    2    0    0 -0.27206097031E+03  0.79721899894E+02 -0.83079584819E+02  0.30878029637E+03  0.89834854724E+02 0.  0.
        254    2    1    2    0    0  0.27206097031E+03 -0.79721899894E+02  0.82778911354E+03  0.12523549162E+04  0.89598284959E+03 0.  0.
        -24    2    4    4    0    0  0.96974276989E+02 -0.44340876902E+03  0.66667974290E+03  0.81042602321E+03  0.79455098418E+02 0.  0.
         24    2    4    4    0    0  0.17508669332E+03  0.36368686913E+03  0.16110937064E+03  0.44192889299E+03  0.80133814330E+02 0.  0.
         13    1    3    3    0    0 -0.24241327341E+03  0.50071175514E+02 -0.43898446412E+02  0.25139290233E+03  0.00000000000E+00 0.  1.
        -13    1    3    3    0    0 -0.29647696892E+02  0.29650724380E+02 -0.39181138408E+02  0.57387394035E+02  0.00000000000E+00 0. -1.
          4    1    6    6  502    0  0.11071983021E+03  0.30302904173E+03  0.11787062663E+03  0.34348066256E+03  0.00000000000E+00 0. -1.
          3    1    5    5  503    0  0.82724850262E+02 -0.22422808596E+03  0.30824708463E+03  0.39004858745E+03  0.00000000000E+00 0. -1.
         -4    1    5    5    0  503  0.14249426727E+02 -0.21918068306E+03  0.35843265826E+03  0.42037743576E+03  0.00000000000E+00 0.  1.
         -3    1    6    6    0  502  0.64366863103E+02  0.60657827402E+02  0.43238744012E+02  0.98448230429E+02  0.00000000000E+00 0.  1.
<mgrwt>
<rscale>  0 0.13720608E+04</rscale>
<asrwt>0</asrwt>
<pdfrwt beam="1">  1        1 0.17737267E+00 0.13720608E+04</pdfrwt>
<pdfrwt beam="2">  1       -1 0.62801976E-01 0.13720608E+04</pdfrwt>
<totfact> 0.29085811E+01</totfact>
</mgrwt>
</event>
<event>
12    1  0.1467288E-007  0.1315302E+04  0.7818608E-02  0.9017518E-01
          2   -1    0    0  501    0  0.00000000000E+00  0.00000000000E+00  0.25151090523E+04  0.25151090523E+04  0.00000000000E+00 0. -1.
         -2   -1    0    0    0  501 -0.00000000000E+00 -0.00000000000E+00 -0.17196275393E+03  0.17196275393E+03  0.00000000000E+00 0.  1.
         23    2    1    2    0    0  0.89775440554E+02  0.30735118192E+03  0.86383621467E+03  0.92601210347E+03  0.93600380579E+02 0.  0.
        254    2    1    2    0    0 -0.89775440554E+02 -0.30735118192E+03  0.14793100837E+04  0.17610597028E+04  0.90024917340E+03 0.  0.
        -24    2    4    4    0    0 -0.44868245474E+02 -0.44458299139E+02 -0.10888376293E+03  0.14856597405E+03  0.78908016081E+02 0.  0.
         24    2    4    4    0    0 -0.44907195080E+02 -0.26289288278E+03  0.15881938466E+04  0.16124937287E+04  0.81529176704E+02 0.  0.
         11    1    3    3    0    0  0.22066378743E+02  0.19375358888E+03  0.59988561506E+03  0.63078532753E+03  0.00000000000E+00 0. -1.
        -11    1    3    3    0    0  0.67709061812E+02  0.11359759305E+03  0.26395059960E+03  0.29522677593E+03  0.00000000000E+00 0.  1.
          2    1    6    6  502    0  0.10691196742E+02 -0.38257621006E+02  0.40050928641E+03  0.40247439142E+03  0.00000000000E+00 0. -1.
          1    1    5    5  503    0 -0.30417195744E+02 -0.16611764583E+02  0.61324853032E+00  0.34663130171E+02  0.00000000000E+00 0. -1.
         -2    1    5    5    0  503 -0.14451049729E+02 -0.27846534556E+02 -0.10949701146E+03  0.11390284388E+03  0.00000000000E+00 0.  1.
         -1    1    6    6    0  502 -0.55598391823E+02 -0.22463526178E+03  0.11876845602E+04  0.12100193373E+04  0.00000000000E+00 0.  1.
<mgrwt>
<rscale>  0 0.13153024E+04</rscale>
<asrwt>0</asrwt>
<pdfrwt beam="1">  1        2 0.38693983E+00 0.13153024E+04</pdfrwt>
<pdfrwt beam="2">  1       -2 0.26455810E-01 0.13153024E+04</pdfrwt>
<totfact> 0.43427587E+01</totfact>
</mgrwt>
</event>
<event>
12    1  0.1467288E-007  0.1830783E+04  0.7818608E-02  0.8690099E-01
         -1   -1    0    0    0  501 -0.00000000000E+00  0.00000000000E+00  0.49790174221E+03  0.49790174221E+03  0.00000000000E+00 0.  1.
          1   -1    0    0  501    0  0.00000000000E+00 -0.00000000000E+00 -0.16829451742E+04  0.16829451742E+04  0.00000000000E+00 0. -1.
         23    2    1    2    0    0 -0.60016593067E+02  0.48712889167E+03 -0.10357567150E+04  0.11496631056E+04  0.89647839621E+02 0.  0.
        254    2    1    2    0    0  0.60016593067E+02 -0.48712889167E+03 -0.14928671691E+03  0.10311838107E+04  0.89451494071E+03 0.  0.
        -24    2    4    4    0    0 -0.10743860764E+03 -0.67226977840E+03 -0.27776032344E+03  0.73955369360E+03  0.79367241819E+02 0.  0.
         24    2    4    4    0    0  0.16745520071E+03  0.18514088673E+03  0.12847360652E+03  0.29163011715E+03  0.78894014149E+02 0.  0.
         11    1    3    3    0    0 -0.13626980370E+02  0.16294914266E+02 -0.20216385900E+02  0.29324411056E+02  0.00000000000E+00 0.  1.
        -11    1    3    3    0    0 -0.46389612697E+02  0.47083397740E+03 -0.10155403291E+04  0.11203386946E+04  0.00000000000E+00 0. -1.
          4    1    6    6  502    0  0.15238621276E+03  0.11741366067E+03  0.96917450065E+02  0.21540779391E+03  0.00000000000E+00 0. -1.
          1    1    5    5  503    0 -0.90649241204E+02 -0.62757115769E+03 -0.27661063866E+03  0.69179208460E+03  0.00000000000E+00 0. -1.
         -2    1    5    5    0  503 -0.16789366439E+02 -0.44698620718E+02 -0.11496847763E+01  0.47761609003E+02  0.00000000000E+00 0.  1.
         -3    1    6    6    0  502  0.15068987946E+02  0.67727226069E+02  0.31556156458E+02  0.76222323234E+02  0.00000000000E+00 0.  1.
<mgrwt>
<rscale>  0 0.18307827E+04</rscale>
<asrwt>0</asrwt>
<pdfrwt beam="1">  1        1 0.25891464E+00 0.18307827E+04</pdfrwt>
<pdfrwt beam="2">  1       -1 0.76600268E-01 0.18307827E+04</pdfrwt>
<totfact> 0.78795072E+00</totfact>
</mgrwt>
</event>
<event>
12    1  0.1467288E-007  0.1311146E+04  0.7818608E-02  0.9020773E-01
         -2   -1    0    0    0  501 -0.00000000000E+00  0.00000000000E+00  0.49489972646E+03  0.49489972646E+03  0.00000000000E+00 0.  1.
          2   -1    0    0  501    0  0.00000000000E+00 -0.00000000000E+00 -0.86840953719E+03  0.86840953719E+03  0.00000000000E+00 0. -1.
         23    2    1    2    0    0  0.79629502794E+01 -0.12519671315E+03 -0.42357225776E+03  0.45151046843E+03  0.93330702324E+02 0.  0.
        254    2    1    2    0    0 -0.79629502794E+01  0.12519671315E+03  0.50062447029E+02  0.91179879522E+03  0.90173896933E+03 0.  0.
        -24    2    4    4    0    0  0.36834164323E+03 -0.54074939457E+02  0.23705619039E+03  0.44842612598E+03  0.79313856592E+02 0.  0.
         24    2    4    4    0    0 -0.37630459351E+03  0.17927165260E+03 -0.18699374336E+03  0.46337266924E+03  0.77486115032E+02 0.  0.
         11    1    3    3    0    0  0.18506510542E+02 -0.43158608377E+02 -0.48819999713E+02  0.67738827724E+02  0.00000000000E+00 0.  1.
        -11    1    3    3    0    0 -0.10543560263E+02 -0.82038104770E+02 -0.37475225805E+03  0.38377164070E+03  0.00000000000E+00 0. -1.
          4    1    6    6  502    0 -0.24963194578E+02  0.30104235015E+02 -0.35150469302E+02  0.52583091783E+02  0.00000000000E+00 0. -1.
          3    1    5    5  503    0  0.11320557062E+03  0.19977144827E+02  0.69265971095E+02  0.13421014226E+03  0.00000000000E+00 0. -1.
         -4    1    5    5    0  503  0.25513607261E+03 -0.74052084283E+02  0.16779021929E+03  0.31421598372E+03  0.00000000000E+00 0.  1.
         -3    1    6    6    0  502 -0.35134139893E+03  0.14916741759E+03 -0.15184327406E+03  0.41078957746E+03  0.00000000000E+00 0.  1.
<mgrwt>
<rscale>  0 0.13111455E+04</rscale>
<asrwt>0</asrwt>
<pdfrwt beam="1">  1        2 0.13360147E+00 0.13111455E+04</pdfrwt>
<pdfrwt beam="2">  1       -2 0.76138420E-01 0.13111455E+04</pdfrwt>
<totfact> 0.46627161E+01</totfact>
</mgrwt>
</event>
<event>
12    1  0.1467288E-007  0.1812585E+04  0.7818608E-02  0.8699635E-01
         -1   -1    0    0    0  501 -0.00000000000E+00  0.00000000000E+00  0.57473954640E+03  0.57473954640E+03  0.00000000000E+00 0.  1.
          1   -1    0    0  501    0  0.00000000000E+00 -0.00000000000E+00 -0.14291106214E+04  0.14291106214E+04  0.00000000000E+00 0. -1.
         23    2    1    2    0    0 -0.38835785049E+03  0.90764215982E+02 -0.90087943194E+03  0.98936621113E+03  0.90563711787E+02 0.  0.
        254    2    1    2    0    0  0.38835785049E+03 -0.90764215982E+02  0.46508356981E+02  0.10144839566E+04  0.93164086861E+03 0.  0.
        -24    2    4    4    0    0  0.34567387023E+03  0.55344160946E+02 -0.39935134510E+03  0.53686645297E+03  0.78680942928E+02 0.  0.
         24    2    4    4    0    0  0.42683980263E+02 -0.14610837693E+03  0.44585970208E+03  0.47761750367E+03  0.78473090258E+02 0.  0.
         13    1    3    3    0    0 -0.21334671008E+03  0.57485631820E+02 -0.38900063746E+03  0.44737334802E+03  0.00000000000E+00 0. -1.
        -13    1    3    3    0    0 -0.17501114041E+03  0.33278584162E+02 -0.51187879447E+03  0.54199286311E+03  0.00000000000E+00 0.  1.
          2    1    6    6  502    0  0.40424022392E+02 -0.21017901305E+02  0.13712682244E+03  0.14449781727E+03  0.00000000000E+00 0. -1.
          3    1    5    5  503    0  0.53140658441E+02  0.17798155641E+02 -0.28011132755E+02  0.62652433967E+02  0.00000000000E+00 0. -1.
         -4    1    5    5    0  503  0.29253321179E+03  0.37546005305E+02 -0.37134021234E+03  0.47421401900E+03  0.00000000000E+00 0.  1.
         -1    1    6    6    0  502  0.22599578719E+01 -0.12509047562E+03  0.30873287964E+03  0.33311968640E+03  0.00000000000E+00 0.  1.
<mgrwt>
<rscale>  0 0.18125853E+04</rscale>
<asrwt>0</asrwt>
<pdfrwt beam="1">  1        1 0.21986317E+00 0.18125853E+04</pdfrwt>
<pdfrwt beam="2">  1       -1 0.88421470E-01 0.18125853E+04</pdfrwt>
<totfact> 0.86776314E+00</totfact>
</mgrwt>
</event>
<event>
12    1  0.1467288E-007  0.1370252E+04  0.7818608E-02  0.8975638E-01
          2   -1    0    0  501    0  0.00000000000E+00  0.00000000000E+00  0.78872048915E+03  0.78872048915E+03  0.00000000000E+00 0. -1.
         -2   -1    0    0    0  501 -0.00000000000E+00 -0.00000000000E+00 -0.59513826081E+03  0.59513826081E+03  0.00000000000E+00 0.  1.
         23    2    1    2    0    0 -0.24000276929E+03  0.29479992331E+03  0.28125166016E+02  0.39236882210E+03  0.93026574353E+02 0.  0.
        254    2    1    2    0    0  0.24000276929E+03 -0.29479992331E+03  0.16545706233E+03  0.99148992786E+03  0.90064860713E+03 0.  0.
        -24    2    4    4    0    0 -0.12926829286E+03 -0.48954874002E+03 -0.49640377341E+02  0.51475693828E+03  0.78372686858E+02 0.  0.
         24    2    4    4    0    0  0.36927106216E+03  0.19474881671E+03  0.21509743967E+03  0.47673298959E+03  0.81970823187E+02 0.  0.
         13    1    3    3    0    0 -0.22522975126E+03  0.22268957649E+03  0.33865863404E+02  0.31853725847E+03  0.00000000000E+00 0. -1.
        -13    1    3    3    0    0 -0.14773018033E+02  0.72110346825E+02 -0.57406973880E+01  0.73831563627E+02  0.00000000000E+00 0.  1.
          2    1    6    6  502    0  0.19317977230E+03  0.13323613732E+03  0.15300162058E+03  0.28014244343E+03  0.00000000000E+00 0. -1.
          1    1    5    5  503    0 -0.10849412051E+03 -0.45316970480E+03 -0.26107339649E+02  0.46670691951E+03  0.00000000000E+00 0. -1.
         -2    1    5    5    0  503 -0.20774172353E+02 -0.36379035219E+02 -0.23533037692E+02  0.48050018766E+02  0.00000000000E+00 0.  1.
         -1    1    6    6    0  502  0.17609128985E+03  0.61512679384E+02  0.62095819097E+02  0.19659054615E+03  0.00000000000E+00 0.  1.
<mgrwt>
<rscale>  0 0.13702522E+04</rscale>
<asrwt>0</asrwt>
<pdfrwt beam="1">  1        2 0.12134161E+00 0.13702522E+04</pdfrwt>
<pdfrwt beam="2">  1       -2 0.91559732E-01 0.13702522E+04</pdfrwt>
<totfact> 0.34784225E+01</totfact>
</mgrwt>
</event>
<event>
12    1  0.1467288E-007  0.2075169E+04  0.7818608E-02  0.8572261E-01
          1   -1    0    0  501    0  0.00000000000E+00  0.00000000000E+00  0.33681768507E+04  0.33681768507E+04  0.00000000000E+00 0. -1.
         -1   -1    0    0    0  501 -0.00000000000E+00 -0.00000000000E+00 -0.31963348703E+03  0.31963348703E+03  0.00000000000E+00 0.  1.
         23    2    1    2    0    0  0.35653788205E+03  0.76797621970E+03  0.16309201403E+04  0.18398884992E+04  0.91555722748E+02 0.  0.
        254    2    1    2    0    0 -0.35653788205E+03 -0.76797621970E+03  0.14176232234E+04  0.18479218385E+04  0.82961001818E+03 0.  0.
        -24    2    4    4    0    0 -0.32428011501E+03  0.28386320273E+02  0.68289087139E+03  0.76118391487E+03  0.84247456074E+02 0.  0.
         24    2    4    4    0    0 -0.32257767046E+02 -0.79636253997E+03  0.73473235201E+03  0.10867379236E+04  0.77031337373E+02 0.  0.
         13    1    3    3    0    0  0.10318244611E+02  0.87713648256E+02  0.17318074839E+03  0.19440093074E+03  0.00000000000E+00 0. -1.
        -13    1    3    3    0    0  0.34621963744E+03  0.68026257144E+03  0.14577393919E+04  0.16454875685E+04  0.00000000000E+00 0.  1.
          2    1    6    6  502    0  0.13371660203E+02 -0.14651934417E+03  0.16758110619E+03  0.22300257099E+03  0.00000000000E+00 0. -1.
          3    1    5    5  503    0 -0.44179995686E+02 -0.25305840546E+02  0.11126229000E+03  0.12235830483E+03  0.00000000000E+00 0. -1.
         -4    1    5    5    0  503 -0.28010011932E+03  0.53692160818E+02  0.57162858139E+03  0.63882561004E+03  0.00000000000E+00 0.  1.
         -1    1    6    6    0  502 -0.45629427249E+02 -0.64984319580E+03  0.56715124581E+03  0.86373535263E+03  0.00000000000E+00 0.  1.
<mgrwt>
<rscale>  0 0.20751695E+04</rscale>
<asrwt>0</asrwt>
<pdfrwt beam="1">  1        1 0.51818103E+00 0.20751695E+04</pdfrwt>
<pdfrwt beam="2">  1       -1 0.49174385E-01 0.20751695E+04</pdfrwt>
<totfact> 0.12127737E+00</totfact>
</mgrwt>
</event>
<event>
12    1  0.1467288E-007  0.1581060E+04  0.7818608E-02  0.8832269E-01
          2   -1    0    0  501    0  0.00000000000E+00  0.00000000000E+00  0.51734748079E+03  0.51734748079E+03  0.00000000000E+00 0. -1.
         -2   -1    0    0    0  501 -0.00000000000E+00 -0.00000000000E+00 -0.12079657224E+04  0.12079657224E+04  0.00000000000E+00 0.  1.
         23    2    1    2    0    0  0.32447927985E+03  0.42097489381E+03 -0.26204867819E+03  0.59877175824E+03  0.85740564773E+02 0.  0.
        254    2    1    2    0    0 -0.32447927985E+03 -0.42097489381E+03 -0.42856956343E+03  0.11265414450E+04  0.89605641131E+03 0.  0.
        -24    2    4    4    0    0 -0.14096549833E+03 -0.68330937875E+03 -0.21791359525E+03  0.73514456808E+03  0.78538030076E+02 0.  0.
         24    2    4    4    0    0 -0.18351378153E+03  0.26233448494E+03 -0.21065596818E+03  0.39139687689E+03  0.79491435460E+02 0.  0.
         11    1    3    3    0    0  0.15751735420E+03  0.23860543341E+03 -0.18182391101E+03  0.33882769123E+03  0.00000000000E+00 0.  1.
        -11    1    3    3    0    0  0.16696192565E+03  0.18236946041E+03 -0.80224767175E+02  0.25994406701E+03  0.00000000000E+00 0. -1.
          4    1    6    6  502    0  0.26919227308E+00  0.16816024214E+01 -0.19487097473E+02  0.19561370584E+02  0.00000000000E+00 0. -1.
          1    1    5    5  503    0 -0.36388273299E+02 -0.20580086449E+03 -0.28603917404E+02  0.21094142872E+03  0.00000000000E+00 0. -1.
         -2    1    5    5    0  503 -0.10457722503E+03 -0.47750851426E+03 -0.18930967785E+03  0.52420313936E+03  0.00000000000E+00 0.  1.
         -3    1    6    6    0  502 -0.18378297380E+03  0.26065288252E+03 -0.19116887071E+03  0.37183550631E+03  0.00000000000E+00 0.  1.
<mgrwt>
<rscale>  0 0.15810604E+04</rscale>
<asrwt>0</asrwt>
<pdfrwt beam="1">  1        2 0.79591921E-01 0.15810604E+04</pdfrwt>
<pdfrwt beam="2">  1       -2 0.18584088E+00 0.15810604E+04</pdfrwt>
<totfact> 0.93867409E+00</totfact>
</mgrwt>
</event>
<event>
12    1  0.1467288E-007  0.2527545E+04  0.7818608E-02  0.8393238E-01
          2   -1    0    0  501    0  0.00000000000E+00  0.00000000000E+00  0.23699851753E+04  0.23699851753E+04  0.00000000000E+00 0. -1.
         -2   -1    0    0    0  501 -0.00000000000E+00 -0.00000000000E+00 -0.67389494262E+03  0.67389494262E+03  0.00000000000E+00 0.  1.
         23    2    1    2    0    0  0.44509695871E+03  0.66353068343E+03 -0.17257700582E+03  0.82247899839E+03  0.91129629370E+02 0.  0.
        254    2    1    2    0    0 -0.44509695871E+03 -0.66353068343E+03  0.18686672385E+04  0.22214011196E+04  0.89683968196E+03 0.  0.
        -24    2    4    4    0    0 -0.46541842878E+02 -0.63606292270E+03  0.16222910571E+04  0.17449394056E+04  0.79013104564E+02 0.  0.
         24    2    4    4    0    0 -0.39855511583E+03 -0.27467760733E+02  0.24637618144E+03  0.47646171392E+03  0.81938292732E+02 0.  0.
         13    1    3    3    0    0  0.44421998931E+03  0.64888284867E+03 -0.17895777965E+03  0.80647767303E+03  0.00000000000E+00 0.  1.
        -13    1    3    3    0    0  0.87696939242E+00  0.14647834765E+02  0.63807738275E+01  0.16001325360E+02  0.00000000000E+00 0. -1.
          2    1    6    6  502    0 -0.61389904668E+02 -0.59503012741E+01  0.63005416512E+01  0.61998575028E+02  0.00000000000E+00 0. -1.
          3    1    5    5  503    0 -0.25414968455E+01  0.18731027391E+01  0.68555349515E+01  0.75475876648E+01  0.00000000000E+00 0. -1.
         -4    1    5    5    0  503 -0.44000346033E+02 -0.63793602544E+03  0.16154355221E+04  0.17373918180E+04  0.00000000000E+00 0.  1.
         -1    1    6    6    0  502 -0.33716521116E+03 -0.21517459459E+02  0.24007563979E+03  0.41446313889E+03  0.00000000000E+00 0.  1.
<mgrwt>
<rscale>  0 0.25275451E+04</rscale>
<asrwt>0</asrwt>
<pdfrwt beam="1">  1        2 0.36461310E+00 0.25275451E+04</pdfrwt>
<pdfrwt beam="2">  1       -2 0.10367615E+00 0.25275451E+04</pdfrwt>
<totfact> 0.27885699E+00</totfact>
</mgrwt>
</event>
<event>
12    1  0.1467288E-007  0.1848846E+04  0.7818608E-02  0.8680747E-01
         -1   -1    0    0    0  501 -0.00000000000E+00  0.00000000000E+00  0.19720984812E+04  0.19720984812E+04  0.00000000000E+00 0.  1.
          1   -1    0    0  501    0  0.00000000000E+00 -0.00000000000E+00 -0.43332391417E+03  0.43332391417E+03  0.00000000000E+00 0. -1.
         23    2    1    2    0    0 -0.36406030215E+03  0.27400473301E+03 -0.10342004818E+03  0.47700808760E+03  0.96033910458E+02 0.  0.
        254    2    1    2    0    0  0.36406030215E+03 -0.27400473301E+03  0.16421946152E+04  0.19284143077E+04  0.90241902178E+03 0.  0.
        -24    2    4    4    0    0  0.14093246813E+03 -0.15729667691E+02  0.15602312264E+04  0.15686591598E+04  0.79124564117E+02 0.  0.
         24    2    4    4    0    0  0.22312783403E+03 -0.25827506532E+03  0.81963388744E+02  0.35975514795E+03  0.78827214226E+02 0.  0.
         13    1    3    3    0    0 -0.27894449221E+02  0.61857692371E+02 -0.91205180799E+01  0.68466475394E+02  0.00000000000E+00 0.  1.
        -13    1    3    3    0    0 -0.33616585293E+03  0.21214704064E+03 -0.94299530095E+02  0.40854161221E+03  0.00000000000E+00 0. -1.
          4    1    6    6  502    0  0.22258508201E+03 -0.25548083443E+03  0.90529862903E+02  0.35072814482E+03  0.00000000000E+00 0. -1.
          1    1    5    5  503    0  0.13973381377E+03  0.46498221145E+01  0.14325323149E+04  0.14393387346E+04  0.00000000000E+00 0. -1.
         -2    1    5    5    0  503  0.11986543596E+01 -0.20379489805E+02  0.12769891148E+03  0.12932042518E+03  0.00000000000E+00 0.  1.
         -3    1    6    6    0  502  0.54275201613E+00 -0.27942308898E+01 -0.85664741589E+01  0.90270031312E+01  0.00000000000E+00 0.  1.
<mgrwt>
<rscale>  0 0.18488455E+04</rscale>
<asrwt>0</asrwt>
<pdfrwt beam="1">  1        1 0.66665219E-01 0.18488455E+04</pdfrwt>
<pdfrwt beam="2">  1       -1 0.30339976E+00 0.18488455E+04</pdfrwt>
<totfact> 0.15912207E+00</totfact>
</mgrwt>
</event>
<event>
12    1  0.1467288E-007  0.2796234E+04  0.7818608E-02  0.8304438E-01
          2   -1    0    0  501    0  0.00000000000E+00  0.00000000000E+00  0.26499830331E+04  0.26499830331E+04  0.00000000000E+00 0. -1.
         -2   -1    0    0    0  501 -0.00000000000E+00 -0.00000000000E+00 -0.73763923095E+03  0.73763923095E+03  0.00000000000E+00 0.  1.
         23    2    1    2    0    0  0.26808749745E+03 -0.67630563433E+03 -0.37594393736E+03  0.82387715052E+03  0.90440576025E+02 0.  0.
        254    2    1    2    0    0 -0.26808749745E+03  0.67630563433E+03  0.22882877395E+04  0.25637451135E+04  0.89848094641E+03 0.  0.
        -24    2    4    4    0    0 -0.17461233566E+03  0.29369440849E+02  0.12379754481E+02  0.19447785365E+03  0.79475439099E+02 0.  0.
         24    2    4    4    0    0 -0.93475161789E+02  0.64693619348E+03  0.22759079850E+04  0.23692672598E+04  0.80038416690E+02 0.  0.
         11    1    3    3    0    0  0.26549177381E+03 -0.59268390357E+03 -0.33441839748E+03  0.73047638981E+03  0.00000000000E+00 0.  1.
        -11    1    3    3    0    0  0.25957236412E+01 -0.83621730767E+02 -0.41525539882E+02  0.93400760704E+02  0.00000000000E+00 0. -1.
          2    1    6    6  502    0 -0.94584993854E+01  0.29014357256E+03  0.10907079691E+04  0.11286791527E+04  0.00000000000E+00 0. -1.
          1    1    5    5  503    0  0.29335223054E+01  0.15743291631E+02  0.12085937547E+01  0.16059809568E+02  0.00000000000E+00 0. -1.
         -2    1    5    5    0  503 -0.17754585796E+03  0.13626149218E+02  0.11171160727E+02  0.17841804408E+03  0.00000000000E+00 0.  1.
         -1    1    6    6    0  502 -0.84016662403E+02  0.35679262092E+03  0.11852000159E+04  0.12405881071E+04  0.00000000000E+00 0.  1.
<mgrwt>
<rscale>  0 0.27962342E+04</rscale>
<asrwt>0</asrwt>
<pdfrwt beam="1">  1        2 0.40768969E+00 0.27962342E+04</pdfrwt>
<pdfrwt beam="2">  1       -2 0.11348296E+00 0.27962342E+04</pdfrwt>
<totfact> 0.15070325E+00</totfact>
</mgrwt>
</event>
<event>
12    1  0.1467288E-007  0.1133806E+04  0.7818608E-02  0.9172854E-01
         -1   -1    0    0    0  501 -0.00000000000E+00  0.00000000000E+00  0.11169987424E+03  0.11169987424E+03  0.00000000000E+00 0.  1.
          1   -1    0    0  501    0  0.00000000000E+00 -0.00000000000E+00 -0.28771661183E+04  0.28771661183E+04  0.00000000000E+00 0. -1.
         23    2    1    2    0    0 -0.36309286998E+02 -0.18387699792E+03 -0.65911186809E+03  0.69142244294E+03  0.92235704889E+02 0.  0.
        254    2    1    2    0    0  0.36309286998E+02  0.18387699792E+03 -0.21063543760E+04  0.22974435496E+04  0.89799164349E+03 0.  0.
        -24    2    4    4    0    0 -0.22726983410E+03  0.46427585644E+03 -0.12478495640E+04  0.13533568511E+04  0.85103371602E+02 0.  0.
         24    2    4    4    0    0  0.26357912110E+03 -0.28039885852E+03 -0.85850481202E+03  0.94408669849E+03  0.78560225686E+02 0.  0.
         11    1    3    3    0    0 -0.35989822980E+02 -0.10258471004E+03 -0.51130806544E+03  0.52273781944E+03  0.00000000000E+00 0. -1.
        -11    1    3    3    0    0 -0.31946401737E+00 -0.81292287881E+02 -0.14780380265E+03  0.16868462349E+03  0.00000000000E+00 0.  1.
          2    1    6    6  502    0  0.26238575750E+03 -0.28506967273E+03 -0.84144535608E+03  0.92635915892E+03  0.00000000000E+00 0. -1.
          1    1    5    5  503    0 -0.15452478344E+03  0.24840538424E+03 -0.62267292908E+03  0.68797145306E+03  0.00000000000E+00 0. -1.
         -2    1    5    5    0  503 -0.72745050661E+02  0.21587047220E+03 -0.62517663489E+03  0.66538539808E+03  0.00000000000E+00 0.  1.
         -1    1    6    6    0  502  0.11933636023E+01  0.46708142121E+01 -0.17059455937E+02  0.17727539563E+02  0.00000000000E+00 0.  1.
<mgrwt>
<rscale>  0 0.11338061E+04</rscale>
<asrwt>0</asrwt>
<pdfrwt beam="1">  1        1 0.44264101E+00 0.11338061E+04</pdfrwt>
<pdfrwt beam="2">  1       -1 0.17184593E-01 0.11338061E+04</pdfrwt>
<totfact> 0.19469981E+01</totfact>
</mgrwt>
</event>
<event>
12    1  0.1467288E-007  0.1817159E+04  0.7818608E-02  0.8697227E-01
         -1   -1    0    0    0  501 -0.00000000000E+00  0.00000000000E+00  0.28288615008E+03  0.28288615008E+03  0.00000000000E+00 0.  1.
          1   -1    0    0  501    0  0.00000000000E+00 -0.00000000000E+00 -0.29181939401E+04  0.29181939401E+04  0.00000000000E+00 0. -1.
         23    2    1    2    0    0  0.33261586124E+03  0.25227370775E+03 -0.54403560533E+02  0.43085462192E+03  0.91654912896E+02 0.  0.
        254    2    1    2    0    0 -0.33261586124E+03 -0.25227370775E+03 -0.25809042294E+04  0.27702254682E+04  0.91586416481E+03 0.  0.
        -24    2    4    4    0    0 -0.64124809884E+02 -0.27100384898E+03 -0.15570260763E+03  0.32875316679E+03  0.79248124572E+02 0.  0.
         24    2    4    4    0    0 -0.26849105136E+03  0.18730141227E+02 -0.24252016218E+04  0.24414723014E+04  0.82132997586E+02 0.  0.
         11    1    3    3    0    0  0.14989761865E+03  0.66830727185E+02  0.34932401443E+01  0.16415798762E+03  0.00000000000E+00 0. -1.
        -11    1    3    3    0    0  0.18271824259E+03  0.18544298057E+03 -0.57896800677E+02  0.26669663430E+03  0.00000000000E+00 0.  1.
          2    1    6    6  502    0 -0.23230748403E+03  0.29104219239E+02 -0.22569854184E+04  0.22690960759E+04  0.00000000000E+00 0. -1.
          1    1    5    5  503    0 -0.31792059905E+02 -0.23009529814E+03 -0.10133835256E+03  0.25342462982E+03  0.00000000000E+00 0. -1.
         -2    1    5    5    0  503 -0.32332749979E+02 -0.40908550833E+02 -0.54364255065E+02  0.75328536965E+02  0.00000000000E+00 0.  1.
         -1    1    6    6    0  502 -0.36183567327E+02 -0.10374078012E+02 -0.16821620344E+03  0.17237622556E+03  0.00000000000E+00 0.  1.
<mgrwt>
<rscale>  0 0.18171589E+04</rscale>
<asrwt>0</asrwt>
<pdfrwt beam="1">  1        1 0.44895292E+00 0.18171589E+04</pdfrwt>
<pdfrwt beam="2">  1       -1 0.43520946E-01 0.18171589E+04</pdfrwt>
<totfact> 0.33750930E+00</totfact>
</mgrwt>
</event>
<event>
12    1  0.1467288E-007  0.1754871E+04  0.7818608E-02  0.8730674E-01
         -2   -1    0    0    0  501 -0.00000000000E+00  0.00000000000E+00  0.48721690285E+03  0.48721690285E+03  0.00000000000E+00 0.  1.
          2   -1    0    0  501    0  0.00000000000E+00 -0.00000000000E+00 -0.15801857416E+04  0.15801857416E+04  0.00000000000E+00 0. -1.
         23    2    1    2    0    0 -0.24527548742E+03  0.57339419844E+03 -0.18054277583E+03  0.65500132253E+03  0.86545173644E+02 0.  0.
        254    2    1    2    0    0  0.24527548742E+03 -0.57339419844E+03 -0.91242606297E+03  0.14124013220E+04  0.87944027788E+03 0.  0.
        -24    2    4    4    0    0  0.56618827211E+03 -0.33394222030E+03 -0.64410723466E+03  0.92384412440E+03  0.80791524748E+02 0.  0.
         24    2    4    4    0    0 -0.32091278469E+03 -0.23945197814E+03 -0.26831882831E+03  0.48855719756E+03  0.79817770260E+02 0.  0.
         13    1    3    3    0    0 -0.18368134430E+03  0.36301969680E+03 -0.83742016627E+02  0.41537315977E+03  0.00000000000E+00 0.  1.
        -13    1    3    3    0    0 -0.61594143121E+02  0.21037450164E+03 -0.96800759198E+02  0.23962816276E+03  0.00000000000E+00 0. -1.
          2    1    6    6  502    0 -0.29968026752E+03 -0.20219423772E+03 -0.25888576836E+03  0.44464886547E+03  0.00000000000E+00 0. -1.
          1    1    5    5  503    0  0.44871011739E+03 -0.25075467546E+03 -0.54446652291E+03  0.74877397877E+03  0.00000000000E+00 0. -1.
         -2    1    5    5    0  503  0.11747815472E+03 -0.83187544838E+02 -0.99640711756E+02  0.17507014563E+03  0.00000000000E+00 0.  1.
         -1    1    6    6    0  502 -0.21232517176E+02 -0.37257740421E+02 -0.94330599485E+01  0.43908332090E+02  0.00000000000E+00 0.  1.
<mgrwt>
<rscale>  0 0.17548712E+04</rscale>
<asrwt>0</asrwt>
<pdfrwt beam="1">  1        2 0.24310550E+00 0.17548712E+04</pdfrwt>
<pdfrwt beam="2">  1       -2 0.74956447E-01 0.17548712E+04</pdfrwt>
<totfact> 0.17329923E+01</totfact>
</mgrwt>
</event>
<event>
12    1  0.1467288E-007  0.1826517E+04  0.7818608E-02  0.8692324E-01
          2   -1    0    0  501    0  0.00000000000E+00  0.00000000000E+00  0.13264877560E+04  0.13264877560E+04  0.00000000000E+00 0. -1.
         -2   -1    0    0    0  501 -0.00000000000E+00 -0.00000000000E+00 -0.62875923724E+03  0.62875923724E+03  0.00000000000E+00 0.  1.
         23    2    1    2    0    0  0.49698314475E+03 -0.17624820545E+03  0.70563023729E+03  0.88548637695E+03  0.90091153283E+02 0.  0.
        254    2    1    2    0    0 -0.49698314475E+03  0.17624820545E+03 -0.79017184976E+01  0.10697606163E+04  0.93073608665E+03 0.  0.
        -24    2    4    4    0    0 -0.70917033479E+03  0.65178884733E+02 -0.20832310466E+03  0.74628034699E+03  0.79780885005E+02 0.  0.
         24    2    4    4    0    0  0.21218719004E+03  0.11106932072E+03  0.20042138616E+03  0.32348026933E+03  0.84326478618E+02 0.  0.
         13    1    3    3    0    0  0.45808307549E+02 -0.16341535483E+02  0.11759205723E+03  0.12725305004E+03  0.00000000000E+00 0.  1.
        -13    1    3    3    0    0  0.45117483720E+03 -0.15990666997E+03  0.58803818006E+03  0.75823332691E+03  0.00000000000E+00 0. -1.
          4    1    6    6  502    0  0.15891900549E+03  0.37859549685E+02  0.12786638227E+03  0.20745700163E+03  0.00000000000E+00 0. -1.
          1    1    5    5  503    0 -0.34743051540E+03 -0.80748613098E+01 -0.99330334939E+02  0.36144111811E+03  0.00000000000E+00 0. -1.
         -2    1    5    5    0  503 -0.36173981939E+03  0.73253746043E+02 -0.10899276972E+03  0.38483922889E+03  0.00000000000E+00 0.  1.
         -3    1    6    6    0  502  0.53268184542E+02  0.73209771032E+02  0.72555003897E+02  0.11602326771E+03  0.00000000000E+00 0.  1.
<mgrwt>
<rscale>  0 0.18265174E+04</rscale>
<asrwt>0</asrwt>
<pdfrwt beam="1">  1        2 0.20407504E+00 0.18265174E+04</pdfrwt>
<pdfrwt beam="2">  1       -2 0.96732191E-01 0.18265174E+04</pdfrwt>
<totfact> 0.13429354E+01</totfact>
</mgrwt>
</event>
<event>
12    1  0.1467288E-007  0.1256563E+04  0.7818608E-02  0.9064739E-01
          1   -1    0    0  501    0  0.00000000000E+00  0.00000000000E+00  0.37740539991E+04  0.37740539991E+04  0.00000000000E+00 0. -1.
         -1   -1    0    0    0  501 -0.00000000000E+00 -0.00000000000E+00 -0.10459240316E+03  0.10459240316E+03  0.00000000000E+00 0.  1.
         23    2    1    2    0    0 -0.15504924108E+03 -0.55517235278E+02  0.17231133122E+04  0.17333049554E+04  0.90023059069E+02 0.  0.
        254    2    1    2    0    0  0.15504924108E+03  0.55517235278E+02  0.19463482837E+04  0.21453414468E+04  0.88718422632E+03 0.  0.
        -24    2    4    4    0    0 -0.35978050953E+03  0.27703340380E+01  0.65388701680E+03  0.75089010181E+03  0.82571329565E+02 0.  0.
         24    2    4    4    0    0  0.51482975061E+03  0.52746901240E+02  0.12924612669E+04  0.13944513450E+04  0.78781466608E+02 0.  0.
         11    1    3    3    0    0 -0.60288034517E+02 -0.31584631988E+02  0.11422923829E+04  0.11443181918E+04  0.00000000000E+00 0.  1.
        -11    1    3    3    0    0 -0.94761206560E+02 -0.23932603290E+02  0.58082092937E+03  0.58898676365E+03  0.00000000000E+00 0. -1.
          2    1    6    6  502    0  0.41289152492E+03  0.67412407597E+02  0.10842294732E+04  0.11621434484E+04  0.00000000000E+00 0. -1.
          1    1    5    5  503    0 -0.25726172653E+03  0.34901772735E+02  0.49731199502E+03  0.56099995550E+03  0.00000000000E+00 0. -1.
         -2    1    5    5    0  503 -0.10251878300E+03 -0.32131438697E+02  0.15657502177E+03  0.18989014631E+03  0.00000000000E+00 0.  1.
         -1    1    6    6    0  502  0.10193822569E+03 -0.14665506357E+02  0.20823179366E+03  0.23230789660E+03  0.00000000000E+00 0.  1.
<mgrwt>
<rscale>  0 0.12565626E+04</rscale>
<asrwt>0</asrwt>
<pdfrwt beam="1">  1        1 0.58062359E+00 0.12565626E+04</pdfrwt>
<pdfrwt beam="2">  1       -1 0.16091142E-01 0.12565626E+04</pdfrwt>
<totfact> 0.44437534E+00</totfact>
</mgrwt>
</event>
<event>
12    1  0.1467288E-007  0.1882673E+04  0.7818608E-02  0.8663529E-01
          2   -1    0    0  501    0  0.00000000000E+00  0.00000000000E+00  0.16183919536E+04  0.16183919536E+04  0.00000000000E+00 0.  1.
         -2   -1    0    0    0  501 -0.00000000000E+00 -0.00000000000E+00 -0.54752770197E+03  0.54752770197E+03  0.00000000000E+00 0. -1.
         23    2    1    2    0    0 -0.54930046989E+03  0.10923591250E+03  0.92062328046E+03  0.10812431644E+04  0.88747198379E+02 0.  0.
        254    2    1    2    0    0  0.54930046989E+03 -0.10923591250E+03  0.15024097121E+03  0.10846764912E+04  0.91667183352E+03 0.  0.
        -24    2    4    4    0    0  0.46886050767E+03  0.32058444194E+03 -0.88207745576E+02  0.58065068505E+03  0.82280323311E+02 0.  0.
         24    2    4    4    0    0  0.80439962221E+02 -0.42982035444E+03  0.23844871678E+03  0.50402580617E+03  0.77253466792E+02 0.  0.
         13    1    3    3    0    0 -0.12895096635E+03  0.61023077994E+02  0.20163678596E+03  0.24700113607E+03  0.00000000000E+00 0. -1.
        -13    1    3    3    0    0 -0.42034950355E+03  0.48212834510E+02  0.71898649450E+03  0.83424202832E+03  0.00000000000E+00 0.  1.
          2    1    6    6  502    0  0.55586643696E+02 -0.39867604417E+03  0.20361226271E+03  0.45109912068E+03  0.00000000000E+00 0. -1.
          3    1    5    5  503    0  0.38706749232E+03  0.29564220893E+03 -0.60712008660E+02  0.49082737017E+03  0.00000000000E+00 0. -1.
         -4    1    5    5    0  503  0.81793015351E+02  0.24942233006E+02 -0.27495736916E+02  0.89823314880E+02  0.00000000000E+00 0.  1.
         -1    1    6    6    0  502  0.24853318525E+02 -0.31144310267E+02  0.34836454074E+02  0.52926685482E+02  0.00000000000E+00 0.  1.
<mgrwt>
<rscale>  0 0.18826730E+04</rscale>
<asrwt>0</asrwt>
<pdfrwt beam="1">  1        2 0.24898338E+00 0.18826730E+04</pdfrwt>
<pdfrwt beam="2">  1       -2 0.84235032E-01 0.18826730E+04</pdfrwt>
<totfact> 0.12562658E+01</totfact>
</mgrwt>
</event>
<event>
12    1  0.1467288E-007  0.2179909E+04  0.7818608E-02  0.8526837E-01
         -2   -1    0    0    0  501 -0.00000000000E+00  0.00000000000E+00  0.39594206643E+03  0.39594206643E+03  0.00000000000E+00 0.  1.
          2   -1    0    0  501    0  0.00000000000E+00 -0.00000000000E+00 -0.30004405984E+04  0.30004405984E+04  0.00000000000E+00 0. -1.
         23    2    1    2    0    0  0.44797897364E+03 -0.43841812089E+03 -0.20926094401E+04  0.21863780123E+04  0.91317766890E+02 0.  0.
        254    2    1    2    0    0 -0.44797897364E+03  0.43841812089E+03 -0.51188909188E+03  0.12100046525E+04  0.89954722340E+03 0.  0.
        -24    2    4    4    0    0  0.26700578338E+03  0.12337403331E+03 -0.88794282841E+02  0.31740727502E+03  0.79685087144E+02 0.  0.
         24    2    4    4    0    0 -0.71498475702E+03  0.31504408758E+03 -0.42309480904E+03  0.89259737748E+03  0.85234271035E+02 0.  0.
         13    1    3    3    0    0  0.25101957388E+03 -0.30358510246E+03 -0.12485266381E+04  0.13091957482E+04  0.00000000000E+00 0. -1.
        -13    1    3    3    0    0  0.19695939976E+03 -0.13483301843E+03 -0.84408280196E+03  0.87718226417E+03  0.00000000000E+00 0.  1.
          2    1    6    6  502    0 -0.15108993833E+03  0.38524736976E+02 -0.11012339909E+03  0.19089129852E+03  0.00000000000E+00 0. -1.
          1    1    5    5  503    0  0.59068085235E+02 -0.22719606701E+01 -0.34572317697E+02  0.68479527230E+02  0.00000000000E+00 0. -1.
         -2    1    5    5    0  503  0.20793769815E+03  0.12564599398E+03 -0.54221965144E+02  0.24892774779E+03  0.00000000000E+00 0.  1.
         -1    1    6    6    0  502 -0.56389481868E+03  0.27651935060E+03 -0.31297140995E+03  0.70170607896E+03  0.00000000000E+00 0.  1.
<mgrwt>
<rscale>  0 0.21799089E+04</rscale>
<asrwt>0</asrwt>
<pdfrwt beam="1">  1        2 0.46160624E+00 0.21799089E+04</pdfrwt>
<pdfrwt beam="2">  1       -2 0.60914165E-01 0.21799089E+04</pdfrwt>
<totfact> 0.40011938E+00</totfact>
</mgrwt>
</event>
<event>
12    1  0.1467288E-007  0.1240985E+04  0.7818608E-02  0.9077720E-01
         -2   -1    0    0    0  501 -0.00000000000E+00  0.00000000000E+00  0.37090115975E+03  0.37090115975E+03  0.00000000000E+00 0.  1.
          2   -1    0    0  501    0  0.00000000000E+00 -0.00000000000E+00 -0.10380419971E+04  0.10380419971E+04  0.00000000000E+00 0. -1.
         23    2    1    2    0    0 -0.53980611406E+01  0.21575833301E+02  0.16653284263E+03  0.19109272372E+03  0.91041670348E+02 0.  0.
        254    2    1    2    0    0  0.53980611406E+01 -0.21575833301E+02 -0.83367367995E+03  0.12178504331E+04  0.88749829133E+03 0.  0.
        -24    2    4    4    0    0 -0.43193356520E+03  0.10106773728E+02 -0.37364860334E+03  0.57687942056E+03  0.80671156374E+02 0.  0.
         24    2    4    4    0    0  0.43733162634E+03 -0.31682607029E+02 -0.46002507661E+03  0.64097101254E+03  0.83414799780E+02 0.  0.
         13    1    3    3    0    0 -0.35212438261E+02 -0.21428158642E+02  0.67689360374E+02  0.79252326773E+02  0.00000000000E+00 0. -1.
        -13    1    3    3    0    0  0.29814377120E+02  0.43003991943E+02  0.98843482253E+02  0.11184039695E+03  0.00000000000E+00 0.  1.
          2    1    6    6  502    0  0.19139021050E+03  0.16205228388E+02 -0.15926410406E+03  0.24951528399E+03  0.00000000000E+00 0. -1.
          1    1    5    5  503    0 -0.18129984864E+03 -0.28119966720E+02 -0.18765460738E+03  0.26243974416E+03  0.00000000000E+00 0. -1.
         -2    1    5    5    0  503 -0.25063371656E+03  0.38226740448E+02 -0.18599399596E+03  0.31443967640E+03  0.00000000000E+00 0.  1.
         -1    1    6    6    0  502  0.24594141584E+03 -0.47887835417E+02 -0.30076097255E+03  0.39145572855E+03  0.00000000000E+00 0.  1.
<mgrwt>
<rscale>  0 0.12409851E+04</rscale>
<asrwt>0</asrwt>
<pdfrwt beam="1">  1        2 0.15969877E+00 0.12409851E+04</pdfrwt>
<pdfrwt beam="2">  1       -2 0.57061716E-01 0.12409851E+04</pdfrwt>
<totfact> 0.67483085E+01</totfact>
</mgrwt>
</event>
<event>
12    1  0.1467288E-007  0.1914928E+04  0.7818608E-02  0.8647461E-01
          1   -1    0    0  501    0  0.00000000000E+00  0.00000000000E+00  0.26198617800E+04  0.26198617800E+04  0.00000000000E+00 0. -1.
         -1   -1    0    0    0  501 -0.00000000000E+00 -0.00000000000E+00 -0.34991806377E+03  0.34991806377E+03  0.00000000000E+00 0.  1.
         23    2    1    2    0    0 -0.32385657049E+02 -0.74054261092E+03  0.96957791653E+03  0.12240108694E+04  0.93107909837E+02 0.  0.
        254    2    1    2    0    0  0.32385657049E+02  0.74054261092E+03  0.13003657997E+04  0.17457689744E+04  0.89850203639E+03 0.  0.
        -24    2    4    4    0    0 -0.15141489014E+03  0.55139325081E+03  0.20001058622E+03  0.61143863274E+03  0.83017955984E+02 0.  0.
         24    2    4    4    0    0  0.18380054718E+03  0.18914936011E+03  0.11003552135E+04  0.11343303416E+04  0.79772216172E+02 0.  0.
         11    1    3    3    0    0  0.19298430892E+02 -0.38476258850E+02  0.52203511814E+02  0.67661352157E+02  0.00000000000E+00 0.  1.
        -11    1    3    3    0    0 -0.51684087941E+02 -0.70206635207E+03  0.91737440471E+03  0.11563495173E+04  0.00000000000E+00 0. -1.
          4    1    6    6  502    0  0.92164479879E+01  0.53944088280E+02  0.21834586136E+03  0.22509958407E+03  0.00000000000E+00 0. -1.
          1    1    5    5  503    0 -0.91779544670E+02  0.40080097631E+03  0.10784984340E+03  0.42508410479E+03  0.00000000000E+00 0. -1.
         -2    1    5    5    0  503 -0.59635345466E+02  0.15059227450E+03  0.92160742821E+02  0.18635452795E+03  0.00000000000E+00 0.  1.
         -3    1    6    6    0  502  0.17458409920E+03  0.13520527183E+03  0.88200935213E+03  0.90923075755E+03  0.00000000000E+00 0.  1.
<mgrwt>
<rscale>  0 0.19149276E+04</rscale>
<asrwt>0</asrwt>
<pdfrwt beam="1">  1        1 0.40305565E+00 0.19149276E+04</pdfrwt>
<pdfrwt beam="2">  1       -1 0.53833550E-01 0.19149276E+04</pdfrwt>
<totfact> 0.36405073E+00</totfact>
</mgrwt>
</event>
<event>
12    1  0.1467288E-007  0.1390746E+04  0.7818608E-02  0.8960544E-01
          3   -1    0    0  501    0  0.00000000000E+00  0.00000000000E+00  0.44186105769E+03  0.44186105769E+03  0.00000000000E+00 0. -1.
         -3   -1    0    0    0  501 -0.00000000000E+00 -0.00000000000E+00 -0.10943347920E+04  0.10943347920E+04  0.00000000000E+00 0.  1.
         23    2    1    2    0    0  0.33124355727E+03 -0.18892328274E+03 -0.68700606836E+02  0.39817130306E+03  0.91685943330E+02 0.  0.
        254    2    1    2    0    0 -0.33124355727E+03  0.18892328274E+03 -0.58377312747E+03  0.11380245466E+04  0.89938562552E+03 0.  0.
        -24    2    4    4    0    0 -0.55732895860E+03 -0.28179231162E+02 -0.58938945121E+03  0.81559134906E+03  0.79998039402E+02 0.  0.
         24    2    4    4    0    0  0.22608540132E+03  0.21710251390E+03  0.56163237391E+01  0.32243319757E+03  0.75389081241E+02 0.  0.
         11    1    3    3    0    0  0.26246394190E+03 -0.14891450939E+03 -0.14927013990E+02  0.30213518109E+03  0.00000000000E+00 0. -1.
        -11    1    3    3    0    0  0.68779615376E+02 -0.40008773348E+02 -0.53773592846E+02  0.96036121973E+02  0.00000000000E+00 0.  1.
          4    1    6    6  502    0  0.19988136785E+02  0.51852200619E+02 -0.14712707615E+02  0.57485999048E+02  0.00000000000E+00 0. -1.
          1    1    5    5  503    0 -0.90319203655E+02 -0.34333984478E+02 -0.10594402510E+03  0.14338939114E+03  0.00000000000E+00 0. -1.
         -2    1    5    5    0  503 -0.46700975494E+03  0.61547533160E+01 -0.48344542611E+03  0.67220195792E+03  0.00000000000E+00 0.  1.
         -3    1    6    6    0  502  0.20609726454E+03  0.16525031328E+03  0.20329031354E+02  0.26494719852E+03  0.00000000000E+00 0.  1.
<mgrwt>
<rscale>  0 0.13907465E+04</rscale>
<asrwt>0</asrwt>
<pdfrwt beam="1">  1        3 0.67978624E-01 0.13907465E+04</pdfrwt>
<pdfrwt beam="2">  1       -3 0.16835920E+00 0.13907465E+04</pdfrwt>
<totfact> 0.12602615E+00</totfact>
</mgrwt>
</event>
<event>
12    1  0.1467288E-007  0.1548597E+04  0.7818608E-02  0.8852764E-01
          2   -1    0    0  501    0  0.00000000000E+00  0.00000000000E+00  0.25155012920E+03  0.25155012920E+03  0.00000000000E+00 0. -1.
         -2   -1    0    0    0  501 -0.00000000000E+00 -0.00000000000E+00 -0.23833740459E+04  0.23833740459E+04  0.00000000000E+00 0.  1.
         23    2    1    2    0    0  0.15666907886E+03 -0.11782160491E+02 -0.16213748344E+04  0.16314808785E+04  0.90495765160E+02 0.  0.
        254    2    1    2    0    0 -0.15666907886E+03  0.11782160491E+02 -0.51044908227E+03  0.10034432966E+04  0.84950348110E+03 0.  0.
        -24    2    4    4    0    0 -0.17669838394E+03  0.19035805179E+03 -0.68736124730E+03  0.73937709597E+03  0.82185759015E+02 0.  0.
         24    2    4    4    0    0  0.20029305074E+02 -0.17857589130E+03  0.17691216503E+03  0.26406620067E+03  0.78374244391E+02 0.  0.
         11    1    3    3    0    0  0.13688574715E+03  0.14756215307E+02 -0.10273279082E+04  0.10365124623E+04  0.00000000000E+00 0.  1.
        -11    1    3    3    0    0  0.19783331716E+02 -0.26538375798E+02 -0.59404692626E+03  0.59496841614E+03  0.00000000000E+00 0. -1.
          4    1    6    6  502    0 -0.19036770213E+02 -0.59225165659E+02  0.96935273920E+02  0.11518014672E+03  0.00000000000E+00 0. -1.
          1    1    5    5  503    0 -0.12924255113E+03  0.11206265514E+03 -0.53438802987E+03  0.56109913756E+03  0.00000000000E+00 0. -1.
         -2    1    5    5    0  503 -0.47455832808E+02  0.78295396652E+02 -0.15297321743E+03  0.17827795841E+03  0.00000000000E+00 0.  1.
         -3    1    6    6    0  502  0.39066075287E+02 -0.11935072565E+03  0.79976891109E+02  0.14888605395E+03  0.00000000000E+00 0.  1.
<mgrwt>
<rscale>  0 0.15485968E+04</rscale>
<asrwt>0</asrwt>
<pdfrwt beam="1">  1        2 0.38700019E-01 0.15485968E+04</pdfrwt>
<pdfrwt beam="2">  1       -2 0.36667294E+00 0.15485968E+04</pdfrwt>
<totfact> 0.15804394E+00</totfact>
</mgrwt>
</event>
<event>
12    1  0.1467288E-007  0.2034273E+04  0.7818608E-02  0.8590763E-01
         -1   -1    0    0    0  501 -0.00000000000E+00  0.00000000000E+00  0.16783475134E+04  0.16783475134E+04  0.00000000000E+00 0.  1.
          1   -1    0    0  501    0  0.00000000000E+00 -0.00000000000E+00 -0.61641975897E+03  0.61641975897E+03  0.00000000000E+00 0. -1.
         23    2    1    2    0    0  0.30560749186E+03 -0.16931381204E+02 -0.43044506553E+03  0.53618978726E+03  0.92379233409E+02 0.  0.
        254    2    1    2    0    0 -0.30560749186E+03  0.16931381204E+02  0.14923728200E+04  0.17585774851E+04  0.87848479021E+03 0.  0.
        -24    2    4    4    0    0 -0.55562249435E+03 -0.14307147308E+03  0.12089579733E+04  0.13404115302E+04  0.77057682006E+02 0.  0.
         24    2    4    4    0    0  0.25001500249E+03  0.16000285429E+03  0.28341484664E+03  0.41816595493E+03  0.80189623486E+02 0.  0.
         13    1    3    3    0    0  0.11690591634E+03 -0.31089828176E+02 -0.10722511938E+03  0.16165023018E+03  0.00000000000E+00 0.  1.
        -13    1    3    3    0    0  0.18870157553E+03  0.14158446972E+02 -0.32321994615E+03  0.37453955708E+03  0.00000000000E+00 0. -1.
          4    1    6    6  502    0  0.24344111676E+03  0.15501610861E+03  0.28881989262E+03  0.40830197358E+03  0.00000000000E+00 0. -1.
          3    1    5    5  503    0 -0.54328041668E+03 -0.12731627168E+03  0.11790619958E+04  0.13044348332E+04  0.00000000000E+00 0. -1.
         -4    1    5    5    0  503 -0.12342077671E+02 -0.15755201405E+02  0.29895977545E+02  0.35976696985E+02  0.00000000000E+00 0.  1.
         -3    1    6    6    0  502  0.65738857260E+01  0.49867456791E+01 -0.54050459764E+01  0.98639813470E+01  0.00000000000E+00 0.  1.
<mgrwt>
<rscale>  0 0.20342729E+04</rscale>
<asrwt>0</asrwt>
<pdfrwt beam="1">  1        1 0.94833810E-01 0.20342729E+04</pdfrwt>
<pdfrwt beam="2">  1       -1 0.25820731E+00 0.20342729E+04</pdfrwt>
<totfact> 0.18773331E+00</totfact>
</mgrwt>
</event>
<event>
12    1  0.1467288E-007  0.1308300E+04  0.7818608E-02  0.9023009E-01
          1   -1    0    0  501    0  0.00000000000E+00  0.00000000000E+00  0.20044801513E+04  0.20044801513E+04  0.00000000000E+00 0. -1.
         -1   -1    0    0    0  501 -0.00000000000E+00 -0.00000000000E+00 -0.21347776426E+03  0.21347776426E+03  0.00000000000E+00 0.  1.
         23    2    1    2    0    0  0.69733995572E+02 -0.29201433487E+03  0.65520103651E+03  0.72641810467E+03  0.90882686115E+02 0.  0.
        254    2    1    2    0    0 -0.69733995572E+02  0.29201433487E+03  0.11358013505E+04  0.14915398109E+04  0.91897284928E+03 0.  0.
        -24    2    4    4    0    0  0.31578091011E+03  0.41542652059E+03  0.46276744456E+03  0.70211783743E+03  0.80740155432E+02 0.  0.
         24    2    4    4    0    0 -0.38551490569E+03 -0.12341218572E+03  0.67303390599E+03  0.78942197347E+03  0.79750257072E+02 0.  0.
         11    1    3    3    0    0  0.18940122502E+02 -0.69630585380E+02  0.80538391805E+02  0.10813685410E+03  0.00000000000E+00 0.  1.
        -11    1    3    3    0    0  0.50793873070E+02 -0.22238374949E+03  0.57466264471E+03  0.61828125056E+03  0.00000000000E+00 0. -1.
          2    1    6    6  502    0 -0.20980037320E+02 -0.18666009214E+02  0.86447715736E+02  0.90894386086E+02  0.00000000000E+00 0. -1.
          1    1    5    5  503    0  0.98126999749E+02  0.10268000074E+03  0.84782187805E+02  0.16540891754E+03  0.00000000000E+00 0. -1.
         -2    1    5    5    0  503  0.21765391037E+03  0.31274651985E+03  0.37798525675E+03  0.53670891990E+03  0.00000000000E+00 0.  1.
         -3    1    6    6    0  502 -0.36453486837E+03 -0.10474617651E+03  0.58658619025E+03  0.69852758739E+03  0.00000000000E+00 0.  1.
<mgrwt>
<rscale>  0 0.13082996E+04</rscale>
<asrwt>0</asrwt>
<pdfrwt beam="1">  1        1 0.30838155E+00 0.13082996E+04</pdfrwt>
<pdfrwt beam="2">  1       -1 0.32842734E-01 0.13082996E+04</pdfrwt>
<totfact> 0.25294920E+01</totfact>
</mgrwt>
</event>
<event>
12    1  0.1467288E-007  0.3307210E+04  0.7818608E-02  0.8161063E-01
          1   -1    0    0  501    0  0.00000000000E+00  0.00000000000E+00  0.99542059030E+03  0.99542059030E+03  0.00000000000E+00 0. -1.
         -1   -1    0    0    0  501 -0.00000000000E+00 -0.00000000000E+00 -0.27469883335E+04  0.27469883335E+04  0.00000000000E+00 0.  1.
         23    2    1    2    0    0 -0.81134729218E+03  0.90572241603E+03 -0.18646941260E+04  0.22279462848E+04  0.89682443351E+02 0.  0.
        254    2    1    2    0    0  0.81134729218E+03 -0.90572241603E+03  0.11312638285E+03  0.15144626390E+04  0.89564612607E+03 0.  0.
        -24    2    4    4    0    0  0.69922462275E+03 -0.26525358728E+03  0.33443496049E+03  0.82311020525E+03  0.79932024637E+02 0.  0.
         24    2    4    4    0    0  0.11212266943E+03 -0.64046882875E+03 -0.22130857765E+03  0.69135243379E+03  0.78859923723E+02 0.  0.
         13    1    3    3    0    0 -0.49408267415E+03  0.56182021868E+03 -0.10673450200E+04  0.13034512030E+04  0.00000000000E+00 0.  1.
        -13    1    3    3    0    0 -0.31726461803E+03  0.34390219735E+03 -0.79734910606E+03  0.92449508172E+03  0.00000000000E+00 0. -1.
          4    1    6    6  502    0  0.11395296272E+03 -0.50814377938E+03 -0.19711693312E+03  0.55682175205E+03  0.00000000000E+00 0. -1.
          1    1    5    5  503    0  0.44160457966E+03 -0.18958025215E+03  0.17880717930E+03  0.51276435539E+03  0.00000000000E+00 0. -1.
         -2    1    5    5    0  503  0.25762004308E+03 -0.75673335134E+02  0.15562778119E+03  0.31034584986E+03  0.00000000000E+00 0.  1.
         -3    1    6    6    0  502 -0.18302932955E+01 -0.13232504937E+03 -0.24191644526E+02  0.13453068174E+03  0.00000000000E+00 0.  1.
<mgrwt>
<rscale>  0 0.33072095E+04</rscale>
<asrwt>0</asrwt>
<pdfrwt beam="1">  1        1 0.15314163E+00 0.33072095E+04</pdfrwt>
<pdfrwt beam="2">  1       -1 0.42261358E+00 0.33072095E+04</pdfrwt>
<totfact> 0.63208094E-02</totfact>
</mgrwt>
</event>
<event>
12    1  0.1467288E-007  0.1290405E+04  0.7818608E-02  0.9037209E-01
          1   -1    0    0  501    0  0.00000000000E+00  0.00000000000E+00  0.83623001524E+03  0.83623001524E+03  0.00000000000E+00 0. -1.
         -1   -1    0    0    0  501 -0.00000000000E+00 -0.00000000000E+00 -0.49781316835E+03  0.49781316835E+03  0.00000000000E+00 0.  1.
         23    2    1    2    0    0  0.57829735268E+02 -0.31772124163E+03  0.82856785389E+02  0.34508111961E+03  0.89020596308E+02 0.  0.
        254    2    1    2    0    0 -0.57829735268E+02  0.31772124163E+03  0.25556006150E+03  0.98896206397E+03  0.89913511403E+03 0.  0.
        -24    2    4    4    0    0 -0.14624686125E+03  0.29716346613E+02 -0.30447861651E+03  0.34825810153E+03  0.79405740935E+02 0.  0.
         24    2    4    4    0    0  0.88417125982E+02  0.28800489501E+03  0.56003867800E+03  0.64070396244E+03  0.78063044460E+02 0.  0.
         11    1    3    3    0    0  0.72654164758E+02 -0.28879484620E+03  0.91342913985E+02  0.31148775062E+03  0.00000000000E+00 0.  1.
        -11    1    3    3    0    0 -0.14824429490E+02 -0.28926395425E+02 -0.84861285959E+01  0.33593368997E+02  0.00000000000E+00 0. -1.
          2    1    6    6  502    0  0.45799331464E+02  0.24623888820E+03  0.47221999033E+03  0.53453053055E+03  0.00000000000E+00 0. -1.
          1    1    5    5  503    0 -0.10449634700E+03 -0.17058183208E+02 -0.20355096408E+03  0.22944163338E+03  0.00000000000E+00 0. -1.
         -2    1    5    5    0  503 -0.41750514247E+02  0.46774529821E+02 -0.10092765243E+03  0.11881646815E+03  0.00000000000E+00 0.  1.
         -3    1    6    6    0  502  0.42617794518E+02  0.41766006813E+02  0.87818687676E+02  0.10617343189E+03  0.00000000000E+00 0.  1.
<mgrwt>
<rscale>  0 0.12904051E+04</rscale>
<asrwt>0</asrwt>
<pdfrwt beam="1">  1        1 0.12865077E+00 0.12904051E+04</pdfrwt>
<pdfrwt beam="2">  1       -1 0.76586641E-01 0.12904051E+04</pdfrwt>
<totfact> 0.34623497E+01</totfact>
</mgrwt>
</event>
<event>
12    1  0.1467288E-007  0.1109616E+04  0.7818608E-02  0.9195870E-01
         -2   -1    0    0    0  501 -0.00000000000E+00  0.00000000000E+00  0.11606551984E+04  0.11606551984E+04  0.00000000000E+00 0.  1.
          2   -1    0    0  501    0  0.00000000000E+00 -0.00000000000E+00 -0.26520546079E+03  0.26520546079E+03  0.00000000000E+00 0. -1.
         23    2    1    2    0    0 -0.37712492172E+02 -0.80332856766E+02 -0.38171702592E+02  0.13290149499E+03  0.91269537901E+02 0.  0.
        254    2    1    2    0    0  0.37712492172E+02  0.80332856766E+02  0.93362144024E+03  0.12929591642E+04  0.89006674287E+03 0.  0.
        -24    2    4    4    0    0  0.43254125486E+03  0.17215946175E+03  0.59345637019E+03  0.75864667513E+03  0.81384869318E+02 0.  0.
         24    2    4    4    0    0 -0.39482876268E+03 -0.91826604985E+02  0.34016507005E+03  0.53431248910E+03  0.73862601502E+02 0.  0.
         11    1    3    3    0    0 -0.22112821326E+02 -0.99786746120E+02 -0.28024210496E+02  0.10597984687E+03  0.00000000000E+00 0. -1.
        -11    1    3    3    0    0 -0.15599670846E+02  0.19453889355E+02 -0.10147492096E+02  0.26921648117E+02  0.00000000000E+00 0.  1.
          4    1    6    6  502    0 -0.35776236545E+03 -0.78518861030E+02  0.27441910788E+03  0.45767342990E+03  0.00000000000E+00 0. -1.
          3    1    5    5  503    0  0.35777425384E+03  0.17357978655E+03  0.50669091097E+03  0.64410250602E+03  0.00000000000E+00 0. -1.
         -4    1    5    5    0  503  0.74767001021E+02 -0.14203247982E+01  0.86765459215E+02  0.11454416911E+03  0.00000000000E+00 0.  1.
         -3    1    6    6    0  502 -0.37066397236E+02 -0.13307743954E+02  0.65745962169E+02  0.76639059198E+02  0.00000000000E+00 0.  1.
<mgrwt>
<rscale>  0 0.11096163E+04</rscale>
<asrwt>0</asrwt>
<pdfrwt beam="1">  1        2 0.40800841E-01 0.11096163E+04</pdfrwt>
<pdfrwt beam="2">  1       -2 0.17856234E+00 0.11096163E+04</pdfrwt>
<totfact> 0.23174355E+01</totfact>
</mgrwt>
</event>
<event>
12    1  0.1467288E-007  0.2254679E+04  0.7818608E-02  0.8496008E-01
          1   -1    0    0  501    0  0.00000000000E+00  0.00000000000E+00  0.19226021501E+04  0.19226021501E+04  0.00000000000E+00 0. -1.
         -1   -1    0    0    0  501 -0.00000000000E+00 -0.00000000000E+00 -0.66102803783E+03  0.66102803783E+03  0.00000000000E+00 0.  1.
         23    2    1    2    0    0 -0.42278459090E+03  0.81487221618E+03  0.78428185512E+03  0.12106806565E+04  0.88803630402E+02 0.  0.
        254    2    1    2    0    0  0.42278459090E+03 -0.81487221618E+03  0.47729225710E+03  0.13729495314E+04  0.90245164858E+03 0.  0.
        -24    2    4    4    0    0  0.60224548968E+03 -0.63103629062E+03  0.61586473698E+03  0.10705071883E+04  0.76090971437E+02 0.  0.
         24    2    4    4    0    0 -0.17946089878E+03 -0.18383592556E+03 -0.13857247988E+03  0.30244234312E+03  0.79165503920E+02 0.  0.
         13    1    3    3    0    0 -0.23226553684E+03  0.47405743792E+03  0.39494833846E+03  0.65928895342E+03  0.00000000000E+00 0.  1.
        -13    1    3    3    0    0 -0.19051905406E+03  0.34081477826E+03  0.38933351666E+03  0.55139170309E+03  0.00000000000E+00 0. -1.
          2    1    6    6  502    0 -0.79501337162E+02 -0.75168122137E+02 -0.10366431335E+03  0.15072159453E+03  0.00000000000E+00 0. -1.
          1    1    5    5  503    0  0.18063354398E+03 -0.22268007105E+03  0.23594692172E+03  0.37132982795E+03  0.00000000000E+00 0. -1.
         -2    1    5    5    0  503  0.42161194570E+03 -0.40835621957E+03  0.37991781526E+03  0.69917736031E+03  0.00000000000E+00 0.  1.
         -1    1    6    6    0  502 -0.99959561621E+02 -0.10866780342E+03 -0.34908166530E+02  0.15172074858E+03  0.00000000000E+00 0.  1.
<mgrwt>
<rscale>  0 0.22546786E+04</rscale>
<asrwt>0</asrwt>
<pdfrwt beam="1">  1        1 0.29578495E+00 0.22546786E+04</pdfrwt>
<pdfrwt beam="2">  1       -1 0.10169662E+00 0.22546786E+04</pdfrwt>
<totfact> 0.27978021E+00</totfact>
</mgrwt>
</event>
<event>
12    1  0.1467288E-007  0.1829148E+04  0.7818608E-02  0.8690951E-01
         -1   -1    0    0    0  501 -0.00000000000E+00  0.00000000000E+00  0.44631282368E+03  0.44631282368E+03  0.00000000000E+00 0.  1.
          1   -1    0    0  501    0  0.00000000000E+00 -0.00000000000E+00 -0.18741242341E+04  0.18741242341E+04  0.00000000000E+00 0. -1.
         23    2    1    2    0    0  0.71736451609E+02 -0.23575717516E+03 -0.14229057283E+04  0.14469668517E+04  0.91240310291E+02 0.  0.
        254    2    1    2    0    0 -0.71736451609E+02  0.23575717516E+03 -0.49056821254E+01  0.87347020607E+03  0.83797289398E+03 0.  0.
        -24    2    4    4    0    0 -0.38707020563E+02  0.14462920378E+03 -0.41265975241E+03  0.44597882968E+03  0.78696920160E+02 0.  0.
         24    2    4    4    0    0 -0.33029431046E+02  0.91127971382E+02  0.40775407028E+03  0.42749137638E+03  0.84203589993E+02 0.  0.
         11    1    3    3    0    0 -0.51641476314E+01 -0.13711290817E+03 -0.70010354722E+03  0.71342245187E+03  0.00000000000E+00 0. -1.
        -11    1    3    3    0    0  0.76900599240E+02 -0.98644266992E+02 -0.72280218104E+03  0.73354439981E+03  0.00000000000E+00 0.  1.
          4    1    6    6  502    0  0.22598517024E+02  0.49334107085E+01  0.46225536907E+02  0.51689764705E+02  0.00000000000E+00 0. -1.
          1    1    5    5  503    0 -0.58189516114E+02  0.12961452490E+03 -0.37485325651E+03  0.40087517854E+03  0.00000000000E+00 0. -1.
         -2    1    5    5    0  503  0.19482495551E+02  0.15014678881E+02 -0.37806495894E+02  0.45103651145E+02  0.00000000000E+00 0.  1.
         -3    1    6    6    0  502 -0.55627948070E+02  0.86194560674E+02  0.36152853337E+03  0.37580161168E+03  0.00000000000E+00 0.  1.
<mgrwt>
<rscale>  0 0.18291481E+04</rscale>
<asrwt>0</asrwt>
<pdfrwt beam="1">  1        1 0.28832681E+00 0.18291481E+04</pdfrwt>
<pdfrwt beam="2">  1       -1 0.68663510E-01 0.18291481E+04</pdfrwt>
<totfact> 0.73297664E+00</totfact>
</mgrwt>
</event>
<event>
12    1  0.1467288E-007  0.2109967E+04  0.7818608E-02  0.8556865E-01
         -2   -1    0    0    0  501 -0.00000000000E+00  0.00000000000E+00  0.69454045775E+03  0.69454045775E+03  0.00000000000E+00 0.  1.
          2   -1    0    0  501    0  0.00000000000E+00 -0.00000000000E+00 -0.16024847161E+04  0.16024847161E+04  0.00000000000E+00 0. -1.
         23    2    1    2    0    0 -0.68225035583E+03  0.36768689873E+03 -0.39373327870E+02  0.78127404501E+03  0.90441533188E+02 0.  0.
        254    2    1    2    0    0  0.68225035583E+03 -0.36768689873E+03 -0.86857093052E+03  0.15157511289E+04  0.97078670153E+03 0.  0.
        -24    2    4    4    0    0  0.44937486816E+03  0.28121829739E+03 -0.48422292123E+03  0.72239720383E+03  0.79777062738E+02 0.  0.
         24    2    4    4    0    0  0.23287548767E+03 -0.64890519612E+03 -0.38434800930E+03  0.79335392506E+03  0.79863081900E+02 0.  0.
         11    1    3    3    0    0 -0.48436128517E+03  0.27070343268E+03 -0.68078764574E+02  0.55903570657E+03  0.00000000000E+00 0.  1.
        -11    1    3    3    0    0 -0.19788907067E+03  0.96983466044E+02  0.28705436704E+02  0.22223833844E+03  0.00000000000E+00 0. -1.
          4    1    6    6  502    0  0.19147409894E+03 -0.44866958665E+03 -0.24475303987E+03  0.54577539251E+03  0.00000000000E+00 0. -1.
          1    1    5    5  503    0  0.28862875914E+03  0.19352527371E+03 -0.36458670972E+03  0.50366860243E+03  0.00000000000E+00 0. -1.
         -2    1    5    5    0  503  0.16074610902E+03  0.87693023686E+02 -0.11963621150E+03  0.21872860140E+03  0.00000000000E+00 0.  1.
         -3    1    6    6    0  502  0.41401388730E+02 -0.20023560947E+03 -0.13959496942E+03  0.24757853255E+03  0.00000000000E+00 0.  1.
<mgrwt>
<rscale>  0 0.21099673E+04</rscale>
<asrwt>0</asrwt>
<pdfrwt beam="1">  1        2 0.24653611E+00 0.21099673E+04</pdfrwt>
<pdfrwt beam="2">  1       -2 0.10685238E+00 0.21099673E+04</pdfrwt>
<totfact> 0.72148174E+00</totfact>
</mgrwt>
</event>
<event>
12    1  0.1467288E-007  0.1154579E+04  0.7818608E-02  0.9153569E-01
          1   -1    0    0  501    0  0.00000000000E+00  0.00000000000E+00  0.53289457942E+03  0.53289457942E+03  0.00000000000E+00 0. -1.
         -1   -1    0    0    0  501 -0.00000000000E+00 -0.00000000000E+00 -0.62538332872E+03  0.62538332872E+03  0.00000000000E+00 0.  1.
         23    2    1    2    0    0  0.62388689336E+02 -0.12113174859E+03 -0.19055410715E+03  0.25100812409E+03  0.90160753830E+02 0.  0.
        254    2    1    2    0    0 -0.62388689336E+02  0.12113174859E+03  0.98065357855E+02  0.90726978405E+03  0.89160327364E+03 0.  0.
        -24    2    4    4    0    0 -0.21876211821E+03  0.42418927478E+03 -0.11551130889E+03  0.49728057702E+03  0.78432803033E+02 0.  0.
         24    2    4    4    0    0  0.15637342887E+03 -0.30305752619E+03  0.21357666675E+03  0.40998920703E+03  0.78610710868E+02 0.  0.
         11    1    3    3    0    0 -0.34298910283E+01 -0.62844979317E+02 -0.34197350390E+02  0.71629004960E+02  0.00000000000E+00 0. -1.
        -11    1    3    3    0    0  0.65818580364E+02 -0.58286769273E+02 -0.15635675676E+03  0.17937911913E+03  0.00000000000E+00 0.  1.
          2    1    6    6  502    0  0.16308238608E+03 -0.27669425426E+03  0.20665583707E+03  0.38191911446E+03  0.00000000000E+00 0. -1.
          1    1    5    5  503    0 -0.18556145484E+03  0.37201411085E+03 -0.12633551054E+03  0.43449765641E+03  0.00000000000E+00 0. -1.
         -2    1    5    5    0  503 -0.33200663370E+02  0.52175163927E+02  0.10824201651E+02  0.62782920611E+02  0.00000000000E+00 0.  1.
         -3    1    6    6    0  502 -0.67089572077E+01 -0.26363271931E+02  0.69208296743E+01  0.28070092573E+02  0.00000000000E+00 0.  1.
<mgrwt>
<rscale>  0 0.11545794E+04</rscale>
<asrwt>0</asrwt>
<pdfrwt beam="1">  1        1 0.81983782E-01 0.11545794E+04</pdfrwt>
<pdfrwt beam="2">  1       -1 0.96212819E-01 0.11545794E+04</pdfrwt>
<totfact> 0.41925622E+01</totfact>
</mgrwt>
</event>
<event>
12    1  0.1467288E-007  0.1530905E+04  0.7818608E-02  0.8864158E-01
          2   -1    0    0  501    0  0.00000000000E+00  0.00000000000E+00  0.13783609726E+04  0.13783609726E+04  0.00000000000E+00 0. -1.
         -2   -1    0    0    0  501 -0.00000000000E+00 -0.00000000000E+00 -0.42508266182E+03  0.42508266182E+03  0.00000000000E+00 0.  1.
         23    2    1    2    0    0  0.31611556548E+03 -0.38879259530E+03  0.20883677044E+03  0.55028169367E+03  0.90046725698E+02 0.  0.
        254    2    1    2    0    0 -0.31611556548E+03  0.38879259530E+03  0.74444154031E+03  0.12531619407E+04  0.87471876040E+03 0.  0.
        -24    2    4    4    0    0 -0.39350569545E+03  0.14448479435E+03 -0.35429788629E+02  0.42827578362E+03  0.80263869596E+02 0.  0.
         24    2    4    4    0    0  0.77390129966E+02  0.24430780095E+03  0.77987132894E+03  0.82488615709E+03  0.81008324466E+02 0.  0.
         11    1    3    3    0    0  0.85236895710E+02 -0.49821315857E+02  0.33696226258E+02  0.10432127093E+03  0.00000000000E+00 0. -1.
        -11    1    3    3    0    0  0.23087866977E+03 -0.33897127944E+03  0.17514054418E+03  0.44596042275E+03  0.00000000000E+00 0.  1.
          2    1    6    6  502    0  0.60948658516E+02  0.24165145362E+03  0.75398031214E+03  0.79410104842E+03  0.00000000000E+00 0. -1.
          3    1    5    5  503    0 -0.38993933518E+03  0.13339853607E+03 -0.43034770048E+02  0.41436680125E+03  0.00000000000E+00 0. -1.
         -4    1    5    5    0  503 -0.35663602713E+01  0.11086258275E+02  0.76049814187E+01  0.13908982368E+02  0.00000000000E+00 0.  1.
         -1    1    6    6    0  502  0.16441471450E+02  0.26563473260E+01  0.25891016801E+02  0.30785108666E+02  0.00000000000E+00 0.  1.
<mgrwt>
<rscale>  0 0.15309048E+04</rscale>
<asrwt>0</asrwt>
<pdfrwt beam="1">  1        2 0.21205553E+00 0.15309048E+04</pdfrwt>
<pdfrwt beam="2">  1       -2 0.65397333E-01 0.15309048E+04</pdfrwt>
<totfact> 0.30926234E+01</totfact>
</mgrwt>
</event>
<event>
12    1  0.1467288E-007  0.1475926E+04  0.7818608E-02  0.8900621E-01
         -2   -1    0    0    0  501 -0.00000000000E+00  0.00000000000E+00  0.28325823346E+03  0.28325823346E+03  0.00000000000E+00 0.  1.
          2   -1    0    0  501    0  0.00000000000E+00 -0.00000000000E+00 -0.19225906524E+04  0.19225906524E+04  0.00000000000E+00 0. -1.
         23    2    1    2    0    0 -0.29419287419E+03  0.31041305608E+03 -0.24956322268E+03  0.50411384087E+03  0.94568757195E+02 0.  0.
        254    2    1    2    0    0  0.29419287419E+03 -0.31041305608E+03 -0.13897691963E+04  0.17017350450E+04  0.88404639691E+03 0.  0.
        -24    2    4    4    0    0  0.37529626460E+03  0.16774530760E+03 -0.96851557743E+03  0.10549931746E+04  0.77475158854E+02 0.  0.
         24    2    4    4    0    0 -0.81103390410E+02 -0.47815836368E+03 -0.42125361887E+03  0.64674187045E+03  0.74881605852E+02 0.  0.
         13    1    3    3    0    0 -0.14647882200E+03  0.15883913853E+03 -0.71699663723E+02  0.22765491210E+03  0.00000000000E+00 0.  1.
        -13    1    3    3    0    0 -0.14771405219E+03  0.15157391755E+03 -0.17786355896E+03  0.27645892878E+03  0.00000000000E+00 0. -1.
          4    1    6    6  502    0 -0.19224065186E+02 -0.96529086456E+02 -0.48605836204E+02  0.10977229399E+03  0.00000000000E+00 0. -1.
          3    1    5    5  503    0  0.55473306632E+01 -0.13838379758E-01 -0.55370875757E+02  0.55648063318E+02  0.00000000000E+00 0. -1.
         -4    1    5    5    0  503  0.36974893394E+03  0.16775914598E+03 -0.91314470167E+03  0.99934511126E+03  0.00000000000E+00 0.  1.
         -3    1    6    6    0  502 -0.61879325224E+02 -0.38162927722E+03 -0.37264778267E+03  0.53696957647E+03  0.00000000000E+00 0.  1.
<mgrwt>
<rscale>  0 0.14759263E+04</rscale>
<asrwt>0</asrwt>
<pdfrwt beam="1">  1        2 0.29578317E+00 0.14759263E+04</pdfrwt>
<pdfrwt beam="2">  1       -2 0.43578190E-01 0.14759263E+04</pdfrwt>
<totfact> 0.35663052E+01</totfact>
</mgrwt>
</event>
<event>
12    1  0.1467288E-007  0.1659315E+04  0.7818608E-02  0.8784915E-01
         -2   -1    0    0    0  501 -0.00000000000E+00  0.00000000000E+00  0.10219475911E+04  0.10219475911E+04  0.00000000000E+00 0.  1.
          2   -1    0    0  501    0  0.00000000000E+00 -0.00000000000E+00 -0.67354854293E+03  0.67354854293E+03  0.00000000000E+00 0. -1.
         23    2    1    2    0    0 -0.49305439910E+03  0.12706530975E+03 -0.22889473726E+03  0.56781116800E+03  0.10377132715E+03 0.  0.
        254    2    1    2    0    0  0.49305439910E+03 -0.12706530975E+03  0.57729378548E+03  0.11276849661E+04  0.82410984374E+03 0.  0.
        -24    2    4    4    0    0 -0.20830311609E+03  0.67276728689E+01  0.25713274387E+03  0.34055362054E+03  0.80150300903E+02 0.  0.
         24    2    4    4    0    0  0.70135751519E+03 -0.13379298262E+03  0.32016104161E+03  0.78713134554E+03  0.85262748274E+02 0.  0.
         13    1    3    3    0    0 -0.31301916614E+03  0.12890318732E+03 -0.13197901120E+03  0.36333935855E+03  0.00000000000E+00 0. -1.
        -13    1    3    3    0    0 -0.18003523296E+03 -0.18378775666E+01 -0.96915726062E+02  0.20447180945E+03  0.00000000000E+00 0.  1.
          2    1    6    6  502    0  0.13209258970E+03  0.81311481310E+01  0.62358907699E+02  0.14629832942E+03  0.00000000000E+00 0. -1.
          1    1    5    5  503    0 -0.11125580726E+03  0.54145954694E+01  0.19720044508E+03  0.22648441013E+03  0.00000000000E+00 0. -1.
         -2    1    5    5    0  503 -0.97047308839E+02  0.13130773994E+01  0.59932298792E+02  0.11406921041E+03  0.00000000000E+00 0.  1.
         -1    1    6    6    0  502  0.56926492550E+03 -0.14192413075E+03  0.25780213391E+03  0.64083301611E+03  0.00000000000E+00 0.  1.
<mgrwt>
<rscale>  0 0.16593147E+04</rscale>
<asrwt>0</asrwt>
<pdfrwt beam="1">  1        2 0.10362285E+00 0.16593147E+04</pdfrwt>
<pdfrwt beam="2">  1       -2 0.15722271E+00 0.16593147E+04</pdfrwt>
<totfact> 0.10838792E+01</totfact>
</mgrwt>
</event>
<event>
12    1  0.1467288E-007  0.1643820E+04  0.7818608E-02  0.8794071E-01
         -2   -1    0    0    0  501 -0.00000000000E+00  0.00000000000E+00  0.97721258104E+03  0.97721258104E+03  0.00000000000E+00 0.  1.
          2   -1    0    0  501    0  0.00000000000E+00 -0.00000000000E+00 -0.69128834904E+03  0.69128834904E+03  0.00000000000E+00 0. -1.
         23    2    1    2    0    0  0.45352743860E+03 -0.32716070338E+03 -0.13239025704E+02  0.56684256207E+03  0.91727612924E+02 0.  0.
        254    2    1    2    0    0 -0.45352743860E+03  0.32716070338E+03  0.29916325770E+03  0.11016583680E+04  0.90079478332E+03 0.  0.
        -24    2    4    4    0    0  0.69612543103E+02 -0.88917835981E+02  0.39769948424E+03  0.42118351967E+03  0.80488444880E+02 0.  0.
         24    2    4    4    0    0 -0.52313998170E+03  0.41607853936E+03 -0.98536226543E+02  0.68047484834E+03  0.80869276682E+02 0.  0.
         11    1    3    3    0    0  0.41268200181E+03 -0.25933956940E+03 -0.15296481893E+02  0.48764477771E+03  0.00000000000E+00 0. -1.
        -11    1    3    3    0    0  0.40845436793E+02 -0.67821133979E+02  0.20574561893E+01  0.79197784356E+02  0.00000000000E+00 0.  1.
          4    1    6    6  502    0 -0.38098173737E+03  0.34018682607E+03 -0.93517883231E+02  0.51924922276E+03  0.00000000000E+00 0. -1.
          3    1    5    5  503    0  0.76249116647E+02 -0.48912927673E+02  0.20284666354E+03  0.22215573635E+03  0.00000000000E+00 0. -1.
         -4    1    5    5    0  503 -0.66365735433E+01 -0.40004908308E+02  0.19485282070E+03  0.19902778332E+03  0.00000000000E+00 0.  1.
         -3    1    6    6    0  502 -0.14215824433E+03  0.75891713283E+02 -0.50183433126E+01  0.16122562558E+03  0.00000000000E+00 0.  1.
<mgrwt>
<rscale>  0 0.16438195E+04</rscale>
<asrwt>0</asrwt>
<pdfrwt beam="1">  1        2 0.10635205E+00 0.16438195E+04</pdfrwt>
<pdfrwt beam="2">  1       -2 0.15034040E+00 0.16438195E+04</pdfrwt>
<totfact> 0.11841712E+01</totfact>
</mgrwt>
</event>
<event>
12    1  0.1467288E-007  0.2529904E+04  0.7818608E-02  0.8392409E-01
          1   -1    0    0  501    0  0.00000000000E+00  0.00000000000E+00  0.25830691243E+04  0.25830691243E+04  0.00000000000E+00 0. -1.
         -1   -1    0    0    0  501 -0.00000000000E+00 -0.00000000000E+00 -0.61945807847E+03  0.61945807847E+03  0.00000000000E+00 0.  1.
         23    2    1    2    0    0  0.33931954929E+03 -0.70777417746E+03  0.18454794590E+04  0.20074339002E+04  0.88962841970E+02 0.  0.
        254    2    1    2    0    0 -0.33931954929E+03  0.70777417746E+03  0.11813158679E+03  0.11950933025E+04  0.89342648672E+03 0.  0.
        -24    2    4    4    0    0 -0.12353968161E+03  0.26782220015E+03 -0.38216165034E+03  0.48928851467E+03  0.79780572633E+02 0.  0.
         24    2    4    4    0    0 -0.21577986768E+03  0.43995197731E+03  0.50029323713E+03  0.70580478788E+03  0.88024893318E+02 0.  0.
         13    1    3    3    0    0  0.90391385797E+02 -0.14420180446E+03  0.32477534010E+03  0.36666576684E+03  0.00000000000E+00 0.  1.
        -13    1    3    3    0    0  0.24892816349E+03 -0.56357237300E+03  0.15207041189E+04  0.16407681334E+04  0.00000000000E+00 0. -1.
          4    1    6    6  502    0 -0.10579357048E+03  0.30844037399E+03  0.31536967209E+03  0.45363616912E+03  0.00000000000E+00 0. -1.
          3    1    5    5  503    0 -0.89027210851E+02  0.99136459359E+02 -0.17347986535E+03  0.21874447542E+03  0.00000000000E+00 0. -1.
         -2    1    5    5    0  503 -0.34512470758E+02  0.16868574080E+03 -0.20868178499E+03  0.27054403924E+03  0.00000000000E+00 0.  1.
         -3    1    6    6    0  502 -0.10998629720E+03  0.13151160332E+03  0.18492356504E+03  0.25216861876E+03  0.00000000000E+00 0.  1.
<mgrwt>
<rscale>  0 0.25299036E+04</rscale>
<asrwt>0</asrwt>
<pdfrwt beam="1">  1        1 0.39739524E+00 0.25299036E+04</pdfrwt>
<pdfrwt beam="2">  1       -1 0.95301244E-01 0.25299036E+04</pdfrwt>
<totfact> 0.11166801E+00</totfact>
</mgrwt>
</event>
<event>
12    1  0.1467288E-007  0.1627473E+04  0.7818608E-02  0.8803846E-01
          2   -1    0    0  501    0  0.00000000000E+00  0.00000000000E+00  0.10850971017E+04  0.10850971017E+04  0.00000000000E+00 0. -1.
         -2   -1    0    0    0  501 -0.00000000000E+00 -0.00000000000E+00 -0.61023774018E+03  0.61023774018E+03  0.00000000000E+00 0.  1.
         23    2    1    2    0    0 -0.26246397623E+03  0.45480754907E+02 -0.34349011149E+03  0.43942122697E+03  0.64418321387E+02 0.  0.
        254    2    1    2    0    0  0.26246397623E+03 -0.45480754907E+02  0.81834947301E+03  0.12559136149E+04  0.91469520073E+03 0.  0.
        -24    2    4    4    0    0  0.94987436688E+02  0.36505603736E+03  0.68371944324E+03  0.78500147101E+03  0.80414606159E+02 0.  0.
         24    2    4    4    0    0  0.16747653954E+03 -0.41053679226E+03  0.13463002977E+03  0.47091214390E+03  0.83929454039E+02 0.  0.
         13    1    3    3    0    0  0.16778551745E+01  0.61221075917E+01 -0.40942232992E+01  0.75536788239E+01  0.00000000000E+00 0. -1.
        -13    1    3    3    0    0 -0.26414183141E+03  0.39358647315E+02 -0.33939588819E+03  0.43186754814E+03  0.00000000000E+00 0.  1.
          4    1    6    6  502    0  0.10571885474E+03 -0.33997473891E+03  0.90945536909E+02  0.36746481468E+03  0.00000000000E+00 0. -1.
          3    1    5    5  503    0  0.18047850355E+02  0.16112598364E+03  0.35899146432E+03  0.39390630734E+03  0.00000000000E+00 0. -1.
         -2    1    5    5    0  503  0.76939586332E+02  0.20393005371E+03  0.32472797892E+03  0.39109516367E+03  0.00000000000E+00 0.  1.
         -1    1    6    6    0  502  0.61757684801E+02 -0.70562053352E+02  0.43684492864E+02  0.10344732922E+03  0.00000000000E+00 0.  1.
<mgrwt>
<rscale>  0 0.16274731E+04</rscale>
<asrwt>0</asrwt>
<pdfrwt beam="1">  1        2 0.16693802E+00 0.16274731E+04</pdfrwt>
<pdfrwt beam="2">  1       -2 0.93882729E-01 0.16274731E+04</pdfrwt>
<totfact> 0.20407772E+01</totfact>
</mgrwt>
</event>
<event>
12    1  0.1467288E-007  0.1799684E+04  0.7818608E-02  0.8706468E-01
          1   -1    0    0  501    0  0.00000000000E+00  0.00000000000E+00  0.79513823823E+03  0.79513823823E+03  0.00000000000E+00 0. -1.
         -1   -1    0    0    0  501 -0.00000000000E+00 -0.00000000000E+00 -0.10183330571E+04  0.10183330571E+04  0.00000000000E+00 0.  1.
         23    2    1    2    0    0 -0.39304068609E+03  0.54128752720E+03 -0.50752369629E+02  0.67711209831E+03  0.91824956419E+02 0.  0.
        254    2    1    2    0    0  0.39304068609E+03 -0.54128752720E+03 -0.17244244924E+03  0.11363591970E+04  0.90227637579E+03 0.  0.
        -24    2    4    4    0    0 -0.14902347692E+03 -0.37427104619E+03  0.19666921919E+03  0.45508691846E+03  0.78348636818E+02 0.  0.
         24    2    4    4    0    0  0.54206416301E+03 -0.16701648101E+03 -0.36911166842E+03  0.68127227855E+03  0.78488419611E+02 0.  0.
         11    1    3    3    0    0 -0.19120457201E+03  0.23839770604E+03 -0.66655072767E+02  0.31278675376E+03  0.00000000000E+00 0.  1.
        -11    1    3    3    0    0 -0.20183611408E+03  0.30288982116E+03  0.15902703138E+02  0.36432534455E+03  0.00000000000E+00 0. -1.
          4    1    6    6  502    0  0.47051167689E+03 -0.11682929431E+03 -0.30318089677E+03  0.57179452451E+03  0.00000000000E+00 0. -1.
          1    1    5    5  503    0 -0.12671479396E+03 -0.36466730301E+03  0.18673197086E+03  0.42884462202E+03  0.00000000000E+00 0. -1.
         -2    1    5    5    0  503 -0.22308682954E+02 -0.96037431772E+01  0.99372483260E+01  0.26242296440E+02  0.00000000000E+00 0.  1.
         -3    1    6    6    0  502  0.71552486119E+02 -0.50187186702E+02 -0.65930771658E+02  0.10947775404E+03  0.00000000000E+00 0.  1.
<mgrwt>
<rscale>  0 0.17996839E+04</rscale>
<asrwt>0</asrwt>
<pdfrwt beam="1">  1        1 0.12232896E+00 0.17996839E+04</pdfrwt>
<pdfrwt beam="2">  1       -1 0.15666662E+00 0.17996839E+04</pdfrwt>
<totfact> 0.65284431E+00</totfact>
</mgrwt>
</event>
<event>
12    1  0.1467288E-007  0.3398508E+04  0.7818608E-02  0.8138273E-01
          1   -1    0    0  501    0  0.00000000000E+00  0.00000000000E+00  0.23870522569E+04  0.23870522569E+04  0.00000000000E+00 0. -1.
         -1   -1    0    0    0  501 -0.00000000000E+00 -0.00000000000E+00 -0.12096360395E+04  0.12096360395E+04  0.00000000000E+00 0.  1.
         23    2    1    2    0    0  0.37654519568E+03 -0.72119511905E+03  0.19820087026E+04  0.21444910802E+04  0.92600280100E+02 0.  0.
        254    2    1    2    0    0 -0.37654519568E+03  0.72119511905E+03 -0.80459248518E+03  0.14521972162E+04  0.89420299896E+03 0.  0.
        -24    2    4    4    0    0 -0.52216720729E+03  0.84328160167E+03 -0.59918082610E+03  0.11617063289E+04  0.82228219875E+02 0.  0.
         24    2    4    4    0    0  0.14562201160E+03 -0.12208648262E+03 -0.20541165907E+03  0.29049088729E+03  0.77975165361E+02 0.  0.
         11    1    3    3    0    0  0.38162297523E+03 -0.70345170375E+03  0.19328561935E+04  0.20919879205E+04  0.00000000000E+00 0. -1.
        -11    1    3    3    0    0 -0.50777795520E+01 -0.17743415293E+02  0.49152509096E+02  0.52503159732E+02  0.00000000000E+00 0.  1.
          2    1    6    6  502    0  0.10016830339E+03 -0.34991363135E+02 -0.91905584051E+02  0.14037350490E+03  0.00000000000E+00 0. -1.
          3    1    5    5  503    0 -0.48234371311E+03  0.72825227637E+03 -0.52290963634E+03  0.10180576228E+04  0.00000000000E+00 0. -1.
         -4    1    5    5    0  503 -0.39823494173E+02  0.11502932530E+03 -0.76271189765E+02  0.14364870607E+03  0.00000000000E+00 0.  1.
         -1    1    6    6    0  502  0.45453708213E+02 -0.87095119485E+02 -0.11350607502E+03  0.15011738239E+03  0.00000000000E+00 0.  1.
<mgrwt>
<rscale>  0 0.33985082E+04</rscale>
<asrwt>0</asrwt>
<pdfrwt beam="1">  1        1 0.36723881E+00 0.33985082E+04</pdfrwt>
<pdfrwt beam="2">  1       -1 0.18609785E+00 0.33985082E+04</pdfrwt>
<totfact> 0.25117472E-01</totfact>
</mgrwt>
</event>
<event>
12    1  0.1467288E-007  0.2077539E+04  0.7818608E-02  0.8571203E-01
          1   -1    0    0  501    0  0.00000000000E+00  0.00000000000E+00  0.24542394064E+04  0.24542394064E+04  0.00000000000E+00 0. -1.
         -1   -1    0    0    0  501 -0.00000000000E+00 -0.00000000000E+00 -0.43966467457E+03  0.43966467457E+03  0.00000000000E+00 0.  1.
         23    2    1    2    0    0 -0.61720159798E+03 -0.16089910509E+03  0.15862595323E+04  0.17121844271E+04  0.92357316024E+02 0.  0.
        254    2    1    2    0    0  0.61720159798E+03  0.16089910509E+03  0.42831519949E+03  0.11817196539E+04  0.89787587991E+03 0.  0.
        -24    2    4    4    0    0  0.28912153643E+03 -0.16657304422E+03 -0.19953605535E+03  0.39738452240E+03  0.82231255427E+02 0.  0.
         24    2    4    4    0    0  0.32808006155E+03  0.32747214931E+03  0.62785125484E+03  0.78433513149E+03  0.78165624953E+02 0.  0.
         11    1    3    3    0    0 -0.42923503317E+03 -0.15185461265E+03  0.11645751291E+04  0.12504150385E+04  0.00000000000E+00 0. -1.
        -11    1    3    3    0    0 -0.18796656481E+03 -0.90444924381E+01  0.42168440317E+03  0.46176938855E+03  0.00000000000E+00 0.  1.
          2    1    6    6  502    0  0.31384610489E+03  0.30366932983E+03  0.61363926539E+03  0.75317168525E+03  0.00000000000E+00 0. -1.
          3    1    5    5  503    0  0.24342414587E+03 -0.13881399290E+03 -0.19938368474E+03  0.34391640432E+03  0.00000000000E+00 0. -1.
         -4    1    5    5    0  503  0.45697390561E+02 -0.27759051329E+02 -0.15237060739E+00  0.53468118085E+02  0.00000000000E+00 0.  1.
         -1    1    6    6    0  502  0.14233956656E+02  0.23802819480E+02  0.14211989450E+02  0.31163446238E+02  0.00000000000E+00 0.  1.
<mgrwt>
<rscale>  0 0.20775393E+04</rscale>
<asrwt>0</asrwt>
<pdfrwt beam="1">  1        1 0.37757528E+00 0.20775393E+04</pdfrwt>
<pdfrwt beam="2">  1       -1 0.67640721E-01 0.20775393E+04</pdfrwt>
<totfact> 0.29730665E+00</totfact>
</mgrwt>
</event>
<event>
12    1  0.1467288E-007  0.1599361E+04  0.7818608E-02  0.8820941E-01
         -2   -1    0    0    0  501 -0.00000000000E+00  0.00000000000E+00  0.52955777121E+03  0.52955777121E+03  0.00000000000E+00 0.  1.
          2   -1    0    0  501    0  0.00000000000E+00 -0.00000000000E+00 -0.12075905240E+04  0.12075905240E+04  0.00000000000E+00 0. -1.
         23    2    1    2    0    0 -0.44210020362E+02  0.51157444065E+03 -0.22529704963E+02  0.52219277399E+03  0.92275518827E+02 0.  0.
        254    2    1    2    0    0  0.44210020362E+02 -0.51157444065E+03 -0.65550304778E+03  0.12149555212E+04  0.88474275275E+03 0.  0.
        -24    2    4    4    0    0 -0.18978576280E+03 -0.48411526866E+03 -0.14913070522E+02  0.52676318251E+03  0.82890419617E+02 0.  0.
         24    2    4    4    0    0  0.23399578316E+03 -0.27459171991E+02 -0.64058997726E+03  0.68819233866E+03  0.88006496146E+02 0.  0.
         13    1    3    3    0    0 -0.67099475080E+01  0.18982564743E+03  0.35154475728E+02  0.19316996915E+03  0.00000000000E+00 0.  1.
        -13    1    3    3    0    0 -0.37500072854E+02  0.32174879322E+03 -0.57684180691E+02  0.32902280484E+03  0.00000000000E+00 0. -1.
          2    1    6    6  502    0  0.21327135727E+03 -0.40672718788E+02 -0.61715622160E+03  0.65423294303E+03  0.00000000000E+00 0. -1.
          3    1    5    5  503    0 -0.12439480830E+03 -0.38084081342E+03 -0.37736066045E+02  0.40241496516E+03  0.00000000000E+00 0. -1.
         -4    1    5    5    0  503 -0.65390954495E+02 -0.10327445524E+03  0.22822995523E+02  0.12434821736E+03  0.00000000000E+00 0.  1.
         -1    1    6    6    0  502  0.20724425887E+02  0.13213546797E+02 -0.23433755660E+02  0.33959395631E+02  0.00000000000E+00 0.  1.
<mgrwt>
<rscale>  0 0.15993611E+04</rscale>
<asrwt>0</asrwt>
<pdfrwt beam="1">  1        2 0.18578316E+00 0.15993611E+04</pdfrwt>
<pdfrwt beam="2">  1       -2 0.81470427E-01 0.15993611E+04</pdfrwt>
<totfact> 0.23849889E+01</totfact>
</mgrwt>
</event>
<event>
12    1  0.1467288E-007  0.1966499E+04  0.7818608E-02  0.8622446E-01
          2   -1    0    0  501    0  0.00000000000E+00  0.00000000000E+00  0.83612386261E+03  0.83612386261E+03  0.00000000000E+00 0. -1.
         -2   -1    0    0    0  501 -0.00000000000E+00 -0.00000000000E+00 -0.11562635337E+04  0.11562635337E+04  0.00000000000E+00 0.  1.
         23    2    1    2    0    0 -0.43036152665E+03  0.54898371970E+03  0.21057402456E+03  0.73467208163E+03  0.93848173079E+02 0.  0.
        254    2    1    2    0    0  0.43036152665E+03 -0.54898371970E+03 -0.53071369561E+03  0.12577153146E+04  0.90199590789E+03 0.  0.
        -24    2    4    4    0    0  0.17173338157E+03 -0.34394695720E+03  0.20806800341E+03  0.44465580581E+03  0.81453225154E+02 0.  0.
         24    2    4    4    0    0  0.25862814508E+03 -0.20503676250E+03 -0.73878169902E+03  0.81305950882E+03  0.79616422170E+02 0.  0.
         11    1    3    3    0    0 -0.33356591941E+03  0.39709783912E+03  0.11672589484E+03  0.53158052161E+03  0.00000000000E+00 0. -1.
        -11    1    3    3    0    0 -0.96795607242E+02  0.15188588058E+03  0.93848129721E+02  0.20309156003E+03  0.00000000000E+00 0.  1.
          4    1    6    6  502    0  0.18389023717E+03 -0.18759048593E+03 -0.57874318294E+03  0.63557020189E+03  0.00000000000E+00 0. -1.
          1    1    5    5  503    0  0.81586054989E+02 -0.82133818436E+02  0.69397691947E+02  0.13497513900E+03  0.00000000000E+00 0. -1.
         -2    1    5    5    0  503  0.90147326582E+02 -0.26181313876E+03  0.13867031146E+03  0.30968066681E+03  0.00000000000E+00 0.  1.
         -3    1    6    6    0  502  0.74737907916E+02 -0.17446276572E+02 -0.16003851608E+03  0.17748930693E+03  0.00000000000E+00 0.  1.
<mgrwt>
<rscale>  0 0.19664990E+04</rscale>
<asrwt>0</asrwt>
<pdfrwt beam="1">  1        2 0.12863444E+00 0.19664990E+04</pdfrwt>
<pdfrwt beam="2">  1       -2 0.17788670E+00 0.19664990E+04</pdfrwt>
<totfact> 0.56686641E+00</totfact>
</mgrwt>
</event>
<event>
12    1  0.1467288E-007  0.1976191E+04  0.7818608E-02  0.8617834E-01
          1   -1    0    0  501    0  0.00000000000E+00  0.00000000000E+00  0.10485777877E+04  0.10485777877E+04  0.00000000000E+00 0. -1.
         -1   -1    0    0    0  501 -0.00000000000E+00 -0.00000000000E+00 -0.93110144032E+03  0.93110144032E+03  0.00000000000E+00 0.  1.
         23    2    1    2    0    0 -0.20266052504E+02 -0.16722011260E+03 -0.72380903034E+03  0.74876620442E+03  0.91531620401E+02 0.  0.
        254    2    1    2    0    0  0.20266052504E+02  0.16722011260E+03  0.84128537772E+03  0.12309130236E+04  0.88261685116E+03 0.  0.
        -24    2    4    4    0    0 -0.14309390967E+03 -0.13346922440E+03 -0.94160819324E+02  0.23153110956E+03  0.80314967189E+02 0.  0.
         24    2    4    4    0    0  0.16335996217E+03  0.30068933700E+03  0.93544619704E+03  0.99938191404E+03  0.81265416470E+02 0.  0.
         11    1    3    3    0    0 -0.91767066013E+00  0.11642924251E+02 -0.50896034060E+02  0.52218828860E+02  0.00000000000E+00 0. -1.
        -11    1    3    3    0    0 -0.19348381844E+02 -0.17886303686E+03 -0.67291299628E+03  0.69654737556E+03  0.00000000000E+00 0.  1.
          2    1    6    6  502    0  0.87730764874E+02  0.11675227636E+03  0.30215642609E+03  0.33559840132E+03  0.00000000000E+00 0. -1.
          1    1    5    5  503    0 -0.11434492161E+03 -0.54042158824E+02 -0.64777104749E+02  0.14209640857E+03  0.00000000000E+00 0. -1.
         -2    1    5    5    0  503 -0.28748988058E+02 -0.79427065572E+02 -0.29383714575E+02  0.89434700995E+02  0.00000000000E+00 0.  1.
         -1    1    6    6    0  502  0.75629197297E+02  0.18393706064E+03  0.63328977096E+03  0.66378351272E+03  0.00000000000E+00 0.  1.
<mgrwt>
<rscale>  0 0.19761906E+04</rscale>
<asrwt>0</asrwt>
<pdfrwt beam="1">  1        1 0.16131966E+00 0.19761906E+04</pdfrwt>
<pdfrwt beam="2">  1       -1 0.14324638E+00 0.19761906E+04</pdfrwt>
<totfact> 0.50896752E+00</totfact>
</mgrwt>
</event>
<event>
12    1  0.1467288E-007  0.1547926E+04  0.7818608E-02  0.8853194E-01
         -1   -1    0    0    0  501 -0.00000000000E+00  0.00000000000E+00  0.25366580651E+03  0.25366580651E+03  0.00000000000E+00 0.  1.
          1   -1    0    0  501    0  0.00000000000E+00 -0.00000000000E+00 -0.23614483175E+04  0.23614483175E+04  0.00000000000E+00 0. -1.
         23    2    1    2    0    0 -0.43386584215E+03  0.17807609515E+03 -0.39628166545E+03  0.62082267830E+03  0.91820340195E+02 0.  0.
        254    2    1    2    0    0  0.43386584215E+03 -0.17807609515E+03 -0.17115008455E+04  0.19942914457E+04  0.90995195559E+03 0.  0.
        -24    2    4    4    0    0 -0.16727186055E+03 -0.30774845880E+03 -0.36598028814E+03  0.51273565724E+03  0.79166240746E+02 0.  0.
         24    2    4    4    0    0  0.60113770270E+03  0.12967236366E+03 -0.13455205574E+04  0.14815557885E+04  0.80003277630E+02 0.  0.
         13    1    3    3    0    0 -0.18599684934E+03  0.12073978349E+03 -0.21096774048E+03  0.30607239471E+03  0.00000000000E+00 0. -1.
        -13    1    3    3    0    0 -0.24786899281E+03  0.57336311660E+02 -0.18531392497E+03  0.31475028359E+03  0.00000000000E+00 0.  1.
          4    1    6    6  502    0  0.65221280097E+02  0.28210630442E+02 -0.21285378521E+03  0.22440229261E+03  0.00000000000E+00 0. -1.
          1    1    5    5  503    0 -0.43298560535E+02 -0.15124161174E+03 -0.13386663955E+03  0.20656492357E+03  0.00000000000E+00 0. -1.
         -2    1    5    5    0  503 -0.12397330002E+03 -0.15650684706E+03 -0.23211364860E+03  0.30617073368E+03  0.00000000000E+00 0.  1.
         -3    1    6    6    0  502  0.53591642260E+03  0.10146173321E+03 -0.11326667722E+04  0.12571534959E+04  0.00000000000E+00 0.  1.
<mgrwt>
<rscale>  0 0.15479260E+04</rscale>
<asrwt>0</asrwt>
<pdfrwt beam="1">  1        1 0.36329974E+00 0.15479260E+04</pdfrwt>
<pdfrwt beam="2">  1       -1 0.39025508E-01 0.15479260E+04</pdfrwt>
<totfact> 0.10387237E+01</totfact>
</mgrwt>
</event>
<event>
12    1  0.1467288E-007  0.1525814E+04  0.7818608E-02  0.8867466E-01
          1   -1    0    0  501    0  0.00000000000E+00  0.00000000000E+00  0.33099951591E+03  0.33099951591E+03  0.00000000000E+00 0.  1.
         -1   -1    0    0    0  501 -0.00000000000E+00 -0.00000000000E+00 -0.17583922633E+04  0.17583922633E+04  0.00000000000E+00 0. -1.
         23    2    1    2    0    0 -0.38280470891E+03  0.13487073206E+03 -0.86009887081E+03  0.95551192579E+03  0.92213953580E+02 0.  0.
        254    2    1    2    0    0  0.38280470891E+03 -0.13487073206E+03 -0.56729387659E+03  0.11338798534E+04  0.89394162003E+03 0.  0.
        -24    2    4    4    0    0  0.46999921608E+02  0.20200937281E+02 -0.71983290036E+03  0.72600385864E+03  0.79404834990E+02 0.  0.
         24    2    4    4    0    0  0.33580478731E+03 -0.15507166934E+03  0.15253902378E+03  0.40787599477E+03  0.79262825616E+02 0.  0.
         13    1    3    3    0    0 -0.23520058662E+03  0.73147245633E+02 -0.61849948050E+03  0.66574127322E+03  0.00000000000E+00 0. -1.
        -13    1    3    3    0    0 -0.14760412230E+03  0.61723486429E+02 -0.24159939031E+03  0.28977065257E+03  0.00000000000E+00 0.  1.
          4    1    6    6  502    0  0.25103476904E+03 -0.76456707947E+02  0.99068203269E+02  0.28049704519E+03  0.00000000000E+00 0. -1.
          1    1    5    5  503    0  0.63354642337E+02  0.26328798434E+01 -0.62389424475E+03  0.62710826130E+03  0.00000000000E+00 0. -1.
         -2    1    5    5    0  503 -0.16354720729E+02  0.17568057438E+02 -0.95938655615E+02  0.98895597341E+02  0.00000000000E+00 0.  1.
         -3    1    6    6    0  502  0.84770018262E+02 -0.78614961396E+02  0.53470820508E+02  0.12737894958E+03  0.00000000000E+00 0.  1.
<mgrwt>
<rscale>  0 0.15258139E+04</rscale>
<asrwt>0</asrwt>
<pdfrwt beam="1">  1        1 0.50923001E-01 0.15258139E+04</pdfrwt>
<pdfrwt beam="2">  1       -1 0.27052189E+00 0.15258139E+04</pdfrwt>
<totfact> 0.38191445E+00</totfact>
</mgrwt>
</event>
<event>
12    1  0.1467288E-007  0.1220425E+04  0.7818608E-02  0.9095164E-01
          2   -1    0    0  501    0  0.00000000000E+00  0.00000000000E+00  0.26034416007E+04  0.26034416007E+04  0.00000000000E+00 0.  1.
         -2   -1    0    0    0  501 -0.00000000000E+00 -0.00000000000E+00 -0.14302569318E+03  0.14302569318E+03  0.00000000000E+00 0. -1.
         23    2    1    2    0    0  0.11407410286E+03 -0.76930482731E+02  0.11203175909E+04  0.11324846824E+04  0.92080678115E+02 0.  0.
        254    2    1    2    0    0 -0.11407410286E+03  0.76930482731E+02  0.13400983166E+04  0.16139826114E+04  0.88890110350E+03 0.  0.
        -24    2    4    4    0    0 -0.46281168380E+03  0.21060857232E+03  0.83193958188E+03  0.97834149483E+03  0.80485944155E+02 0.  0.
         24    2    4    4    0    0  0.34873758094E+03 -0.13367808959E+03  0.50815873469E+03  0.63564111660E+03  0.79539911206E+02 0.  0.
         11    1    3    3    0    0  0.60151254759E+02 -0.19645725652E+02  0.80566531609E+03  0.80814647777E+03  0.00000000000E+00 0.  1.
        -11    1    3    3    0    0  0.53922848097E+02 -0.57284757079E+02  0.31465227485E+03  0.32433820467E+03  0.00000000000E+00 0. -1.
          4    1    6    6  502    0  0.53037261650E+02 -0.53685267791E+01  0.11849406779E+03  0.12993312243E+03  0.00000000000E+00 0. -1.
          1    1    5    5  503    0 -0.22950987638E+03  0.71602960173E+02  0.33993794850E+03  0.41636471523E+03  0.00000000000E+00 0. -1.
         -2    1    5    5    0  503 -0.23330180742E+03  0.13900561215E+03  0.49200163339E+03  0.56197677960E+03  0.00000000000E+00 0.  1.
         -3    1    6    6    0  502  0.29570031929E+03 -0.12830956281E+03  0.38966466691E+03  0.50570799418E+03  0.00000000000E+00 0.  1.
<mgrwt>
<rscale>  0 0.12204246E+04</rscale>
<asrwt>0</asrwt>
<pdfrwt beam="1">  1        2 0.40052944E+00 0.12204246E+04</pdfrwt>
<pdfrwt beam="2">  1       -2 0.22003955E-01 0.12204246E+04</pdfrwt>
<totfact> 0.54277280E+01</totfact>
</mgrwt>
</event>
<event>
12    1  0.1467288E-007  0.1561794E+04  0.7818608E-02  0.8844369E-01
          2   -1    0    0  501    0  0.00000000000E+00  0.00000000000E+00  0.45618070217E+03  0.45618070217E+03  0.00000000000E+00 0.  1.
         -2   -1    0    0    0  501 -0.00000000000E+00 -0.00000000000E+00 -0.13367509921E+04  0.13367509921E+04  0.00000000000E+00 0. -1.
         23    2    1    2    0    0  0.18083256434E+03  0.59596076789E+02  0.25545662205E+03  0.33039111111E+03  0.87453369603E+02 0.  0.
        254    2    1    2    0    0 -0.18083256434E+03 -0.59596076789E+02 -0.11360269119E+04  0.14625405831E+04  0.90123010599E+03 0.  0.
        -24    2    4    4    0    0  0.27354337411E+03  0.15283789254E+03 -0.77413584344E+03  0.83888266318E+03  0.79072242757E+02 0.  0.
         24    2    4    4    0    0 -0.45437593845E+03 -0.21243396933E+03 -0.36189106850E+03  0.62365791994E+03  0.79989817324E+02 0.  0.
         11    1    3    3    0    0  0.15468188315E+03  0.74968143621E+02  0.17915349162E+03  0.24827944154E+03  0.00000000000E+00 0.  1.
        -11    1    3    3    0    0  0.26150681194E+02 -0.15372066832E+02  0.76303130433E+02  0.82111669569E+02  0.00000000000E+00 0. -1.
          4    1    6    6  502    0 -0.32608736650E+03 -0.18767022031E+03 -0.25088813721E+03  0.45221448404E+03  0.00000000000E+00 0. -1.
          1    1    5    5  503    0  0.72987701820E+02  0.83635877508E+02 -0.26790390453E+03  0.28999080448E+03  0.00000000000E+00 0. -1.
         -2    1    5    5    0  503  0.20055567229E+03  0.69202015034E+02 -0.50623193891E+03  0.54889185870E+03  0.00000000000E+00 0.  1.
         -3    1    6    6    0  502 -0.12828857195E+03 -0.24763749022E+02 -0.11100293129E+03  0.17144343590E+03  0.00000000000E+00 0.  1.
<mgrwt>
<rscale>  0 0.15617938E+04</rscale>
<asrwt>0</asrwt>
<pdfrwt beam="1">  1        2 0.70181646E-01 0.15617938E+04</pdfrwt>
<pdfrwt beam="2">  1       -2 0.20565400E+00 0.15617938E+04</pdfrwt>
<totfact> 0.80363494E+00</totfact>
</mgrwt>
</event>
<event>
12    1  0.1467288E-007  0.1565886E+04  0.7818608E-02  0.8841784E-01
         -1   -1    0    0    0  501 -0.00000000000E+00  0.00000000000E+00  0.13451367304E+04  0.13451367304E+04  0.00000000000E+00 0.  1.
          1   -1    0    0  501    0  0.00000000000E+00 -0.00000000000E+00 -0.45571565800E+03  0.45571565800E+03  0.00000000000E+00 0. -1.
         23    2    1    2    0    0 -0.25652853212E+03  0.42637134205E+03  0.11740675746E+03  0.52014592706E+03  0.95749828347E+02 0.  0.
        254    2    1    2    0    0  0.25652853212E+03 -0.42637134205E+03  0.77201431490E+03  0.12807064613E+04  0.89252648617E+03 0.  0.
        -24    2    4    4    0    0 -0.35321352704E+02 -0.61359341549E+03  0.29709201795E+03  0.68743066523E+03  0.80949211725E+02 0.  0.
         24    2    4    4    0    0  0.29184988482E+03  0.18722207344E+03  0.47492229696E+03  0.59327579608E+03  0.78717990430E+02 0.  0.
         11    1    3    3    0    0 -0.67994892947E+02  0.19175982440E+03  0.71675289494E+02  0.21571389117E+03  0.00000000000E+00 0.  1.
        -11    1    3    3    0    0 -0.18853363917E+03  0.23461151765E+03  0.45731467965E+02  0.30443203589E+03  0.00000000000E+00 0. -1.
          4    1    6    6  502    0  0.13090762573E+02  0.81400797218E+01  0.15805087532E+01  0.15496030800E+02  0.00000000000E+00 0. -1.
          1    1    5    5  503    0  0.14686177892E+02 -0.22972766480E+03  0.14159238334E+03  0.27025707542E+03  0.00000000000E+00 0. -1.
         -2    1    5    5    0  503 -0.50007530596E+02 -0.38386575069E+03  0.15549963460E+03  0.41717358980E+03  0.00000000000E+00 0.  1.
         -3    1    6    6    0  502  0.27875912225E+03  0.17908199372E+03  0.47334178820E+03  0.57777976528E+03  0.00000000000E+00 0.  1.
<mgrwt>
<rscale>  0 0.15658862E+04</rscale>
<asrwt>0</asrwt>
<pdfrwt beam="1">  1        1 0.70110102E-01 0.15658862E+04</pdfrwt>
<pdfrwt beam="2">  1       -1 0.20694411E+00 0.15658862E+04</pdfrwt>
<totfact> 0.65306295E+00</totfact>
</mgrwt>
</event>
<event>
12    1  0.1467288E-007  0.3961020E+04  0.7818608E-02  0.8012457E-01
          2   -1    0    0  501    0  0.00000000000E+00  0.00000000000E+00  0.39575807957E+04  0.39575807957E+04  0.00000000000E+00 0. -1.
         -2   -1    0    0    0  501 -0.00000000000E+00 -0.00000000000E+00 -0.99111549628E+03  0.99111549628E+03  0.00000000000E+00 0.  1.
         23    2    1    2    0    0  0.54160749380E+03 -0.53588145605E+03 -0.73623783252E+03  0.10636272757E+04  0.93537283038E+02 0.  0.
        254    2    1    2    0    0 -0.54160749380E+03  0.53588145605E+03  0.37027031319E+04  0.38850690163E+04  0.89623834198E+03 0.  0.
        -24    2    4    4    0    0  0.17259409528E+03 -0.10665487789E+02  0.23890347811E+03  0.30556538958E+03  0.79955369433E+02 0.  0.
         24    2    4    4    0    0 -0.71420158909E+03  0.54654694384E+03  0.34637996538E+04  0.35795036267E+04  0.78362618216E+02 0.  0.
         13    1    3    3    0    0  0.40440404840E+03 -0.43026307513E+03 -0.61272385590E+03  0.85094034560E+03  0.00000000000E+00 0.  1.
        -13    1    3    3    0    0  0.13720344540E+03 -0.10561838092E+03 -0.12351397662E+03  0.21268693011E+03  0.00000000000E+00 0. -1.
          2    1    6    6  502    0 -0.26421252894E+03  0.24950028679E+03  0.13627450225E+04  0.14103661404E+04  0.00000000000E+00 0. -1.
          1    1    5    5  503    0  0.83795551506E+02 -0.31442525250E+02  0.16685013031E+03  0.18933909483E+03  0.00000000000E+00 0. -1.
         -2    1    5    5    0  503  0.88798543776E+02  0.20777037461E+02  0.72053347793E+02  0.11622629475E+03  0.00000000000E+00 0.  1.
         -1    1    6    6    0  502 -0.44998906015E+03  0.29704665705E+03  0.21010546314E+04  0.21691374863E+04  0.00000000000E+00 0.  1.
<mgrwt>
<rscale>  0 0.39610199E+04</rscale>
<asrwt>0</asrwt>
<pdfrwt beam="1">  1        2 0.60885858E+00 0.39610199E+04</pdfrwt>
<pdfrwt beam="2">  1       -2 0.15247931E+00 0.39610199E+04</pdfrwt>
<totfact> 0.83719206E-02</totfact>
</mgrwt>
</event>
<event>
12    1  0.1467288E-007  0.2188088E+04  0.7818608E-02  0.8523402E-01
          1   -1    0    0  501    0  0.00000000000E+00  0.00000000000E+00  0.20561819451E+04  0.20561819451E+04  0.00000000000E+00 0. -1.
         -1   -1    0    0    0  501 -0.00000000000E+00 -0.00000000000E+00 -0.58211422965E+03  0.58211422965E+03  0.00000000000E+00 0.  1.
         23    2    1    2    0    0 -0.66957642282E+03  0.44767237186E+03  0.10574635777E+03  0.81742365393E+03  0.90862529703E+02 0.  0.
        254    2    1    2    0    0  0.66957642282E+03 -0.44767237186E+03  0.13683213576E+04  0.18208725208E+04  0.89136426932E+03 0.  0.
        -24    2    4    4    0    0  0.53757028305E+03  0.13993435859E+03  0.87045176127E+03  0.10356079545E+04  0.78956524201E+02 0.  0.
         24    2    4    4    0    0  0.13200613977E+03 -0.58760673045E+03  0.49786959638E+03  0.78526456632E+03  0.77839665394E+02 0.  0.
         13    1    3    3    0    0 -0.46402451155E+03  0.34179826865E+03  0.43414055980E+02  0.57795292544E+03  0.00000000000E+00 0.  1.
        -13    1    3    3    0    0 -0.20555191127E+03  0.10587410321E+03  0.62332301789E+02  0.23947072850E+03  0.00000000000E+00 0. -1.
          4    1    6    6  502    0  0.12789940997E+03 -0.51859166632E+03  0.46720975365E+03  0.70963408131E+03  0.00000000000E+00 0. -1.
          3    1    5    5  503    0  0.52385477350E+03  0.14580206325E+03  0.82779073182E+03  0.99041383323E+03  0.00000000000E+00 0. -1.
         -4    1    5    5    0  503  0.13715509554E+02 -0.58677046611E+01  0.42661029452E+02  0.45194121235E+02  0.00000000000E+00 0.  1.
         -3    1    6    6    0  502  0.41067297925E+01 -0.69015064136E+02  0.30659842731E+02  0.75630485015E+02  0.00000000000E+00 0.  1.
<mgrwt>
<rscale>  0 0.21880885E+04</rscale>
<asrwt>0</asrwt>
<pdfrwt beam="1">  1        1 0.31633568E+00 0.21880885E+04</pdfrwt>
<pdfrwt beam="2">  1       -1 0.89556036E-01 0.21880885E+04</pdfrwt>
<totfact> 0.30415259E+00</totfact>
</mgrwt>
</event>
<event>
12    1  0.1467288E-007  0.1257418E+04  0.7818608E-02  0.9064032E-01
         -1   -1    0    0    0  501 -0.00000000000E+00  0.00000000000E+00  0.35401199249E+03  0.35401199249E+03  0.00000000000E+00 0.  1.
          1   -1    0    0  501    0  0.00000000000E+00 -0.00000000000E+00 -0.11165574854E+04  0.11165574854E+04  0.00000000000E+00 0. -1.
         23    2    1    2    0    0  0.58524092923E+02 -0.89977976696E+02  0.13278977587E+03  0.19312158900E+03  0.90231468019E+02 0.  0.
        254    2    1    2    0    0 -0.58524092923E+02  0.89977976696E+02 -0.89533526873E+03  0.12774478888E+04  0.90483521126E+03 0.  0.
        -24    2    4    4    0    0 -0.17272963525E+03 -0.36637325701E+03 -0.54474608190E+03  0.68474331918E+03  0.89778778471E+02 0.  0.
         24    2    4    4    0    0  0.11420554233E+03  0.45635123371E+03 -0.35058918683E+03  0.59270456967E+03  0.84181794786E+02 0.  0.
         13    1    3    3    0    0  0.16998308710E+02 -0.42509037931E+01 -0.10966349331E+02  0.20670595050E+02  0.00000000000E+00 0. -1.
        -13    1    3    3    0    0  0.41525784213E+02 -0.85727072903E+02  0.14375612520E+03  0.17245099395E+03  0.00000000000E+00 0.  1.
          2    1    6    6  502    0  0.10918551661E+03  0.32049902084E+03 -0.28089741453E+03  0.43993687830E+03  0.00000000000E+00 0. -1.
          1    1    5    5  503    0 -0.88914612246E+02 -0.18824834028E+03 -0.20557578843E+03  0.29258272451E+03  0.00000000000E+00 0. -1.
         -2    1    5    5    0  503 -0.83815023003E+02 -0.17812491673E+03 -0.33917029347E+03  0.39216059467E+03  0.00000000000E+00 0.  1.
         -1    1    6    6    0  502  0.50200257187E+01  0.13585221287E+03 -0.69691772305E+02  0.15276769137E+03  0.00000000000E+00 0.  1.
<mgrwt>
<rscale>  0 0.12574176E+04</rscale>
<asrwt>0</asrwt>
<pdfrwt beam="1">  1        1 0.17177807E+00 0.12574176E+04</pdfrwt>
<pdfrwt beam="2">  1       -1 0.54463384E-01 0.12574176E+04</pdfrwt>
<totfact> 0.41344873E+01</totfact>
</mgrwt>
</event>
<event>
12    1  0.1467288E-007  0.3528542E+04  0.7818608E-02  0.8107059E-01
         -2   -1    0    0    0  501 -0.00000000000E+00  0.00000000000E+00  0.12542553118E+04  0.12542553118E+04  0.00000000000E+00 0.  1.
          2   -1    0    0  501    0  0.00000000000E+00 -0.00000000000E+00 -0.24816739819E+04  0.24816739819E+04  0.00000000000E+00 0. -1.
         23    2    1    2    0    0  0.10846844755E+04  0.95556629219E+02 -0.18838491668E+04  0.21778135178E+04  0.91173209001E+02 0.  0.
        254    2    1    2    0    0 -0.10846844755E+04 -0.95556629219E+02  0.65643049670E+03  0.15581157760E+04  0.90063993562E+03 0.  0.
        -24    2    4    4    0    0 -0.63756483408E+03  0.20895906686E+03  0.74330374615E+03  0.10045974931E+04  0.81011449294E+02 0.  0.
         24    2    4    4    0    0 -0.44711964137E+03 -0.30451569608E+03 -0.86873249447E+02  0.55351828282E+03  0.78674933005E+02 0.  0.
         13    1    3    3    0    0  0.88825503290E+03  0.45091038593E+02 -0.15081884757E+04  0.17509033907E+04  0.00000000000E+00 0. -1.
        -13    1    3    3    0    0  0.19642944255E+03  0.50465590626E+02 -0.37566069111E+03  0.42691012706E+03  0.00000000000E+00 0.  1.
          2    1    6    6  502    0 -0.35571392571E+03 -0.26564353270E+03 -0.46825440976E+02  0.44642077162E+03  0.00000000000E+00 0. -1.
          1    1    5    5  503    0 -0.60539589658E+03  0.19426636607E+03  0.67261922680E+03  0.92555941832E+03  0.00000000000E+00 0. -1.
         -2    1    5    5    0  503 -0.32168937502E+02  0.14692700791E+02  0.70684519350E+02  0.79038074827E+02  0.00000000000E+00 0.  1.
         -1    1    6    6    0  502 -0.91405715664E+02 -0.38872163377E+02 -0.40047808471E+02  0.10709751120E+03  0.00000000000E+00 0.  1.
<mgrwt>
<rscale>  0 0.35285423E+04</rscale>
<asrwt>0</asrwt>
<pdfrwt beam="1">  1        2 0.38179599E+00 0.35285423E+04</pdfrwt>
<pdfrwt beam="2">  1       -2 0.19296236E+00 0.35285423E+04</pdfrwt>
<totfact> 0.43301083E-01</totfact>
</mgrwt>
</event>
<event>
12    1  0.1467288E-007  0.2760477E+04  0.7818608E-02  0.8315645E-01
          2   -1    0    0  501    0  0.00000000000E+00  0.00000000000E+00  0.22052295392E+04  0.22052295392E+04  0.00000000000E+00 0. -1.
         -2   -1    0    0    0  501 -0.00000000000E+00 -0.00000000000E+00 -0.86388236511E+03  0.86388236511E+03  0.00000000000E+00 0.  1.
         23    2    1    2    0    0 -0.25478123800E+03  0.32076456953E+03  0.18977616039E+04  0.19436677209E+04  0.92421402416E+02 0.  0.
        254    2    1    2    0    0  0.25478123800E+03 -0.32076456953E+03 -0.55641442978E+03  0.11254441835E+04  0.88838291525E+03 0.  0.
        -24    2    4    4    0    0  0.35868648559E+03  0.38499841833E+02 -0.63531716310E+03  0.73491838956E+03  0.79617264537E+02 0.  0.
         24    2    4    4    0    0 -0.10390524760E+03 -0.35926441137E+03  0.78902733314E+02  0.39052579391E+03  0.80109528955E+02 0.  0.
         11    1    3    3    0    0 -0.14998389272E+02  0.52815667190E+02  0.37688519988E+03  0.38086336167E+03  0.00000000000E+00 0.  1.
        -11    1    3    3    0    0 -0.23978284873E+03  0.26794890234E+03  0.15208764040E+04  0.15628043592E+04  0.00000000000E+00 0. -1.
          4    1    6    6  502    0  0.95602471572E+01 -0.64920784460E+02  0.26390386070E+02  0.70728771073E+02  0.00000000000E+00 0. -1.
          3    1    5    5  503    0 -0.32041684098E+01 -0.35952032824E+01 -0.54587891341E+01  0.72794615633E+01  0.00000000000E+00 0. -1.
         -4    1    5    5    0  503  0.36189065400E+03  0.42095045116E+02 -0.62985837396E+03  0.72763892799E+03  0.00000000000E+00 0.  1.
         -3    1    6    6    0  502 -0.11346549475E+03 -0.29434362691E+03  0.52512347244E+02  0.31979702283E+03  0.00000000000E+00 0.  1.
<mgrwt>
<rscale>  0 0.27604774E+04</rscale>
<asrwt>0</asrwt>
<pdfrwt beam="1">  1        2 0.33926608E+00 0.27604774E+04</pdfrwt>
<pdfrwt beam="2">  1       -2 0.13290498E+00 0.27604774E+04</pdfrwt>
<totfact> 0.18382382E+00</totfact>
</mgrwt>
</event>
<event>
12    1  0.1467288E-007  0.2119459E+04  0.7818608E-02  0.8552719E-01
         -1   -1    0    0    0  501 -0.00000000000E+00  0.00000000000E+00  0.13706516549E+04  0.13706516549E+04  0.00000000000E+00 0.  1.
          1   -1    0    0  501    0  0.00000000000E+00 -0.00000000000E+00 -0.81933808565E+03  0.81933808565E+03  0.00000000000E+00 0. -1.
         23    2    1    2    0    0 -0.31534733693E+03  0.40462813190E+03 -0.49292633308E+03  0.71977469059E+03  0.10923079847E+03 0.  0.
        254    2    1    2    0    0  0.31534733693E+03 -0.40462813190E+03  0.10442399023E+04  0.14702150499E+04  0.89884784666E+03 0.  0.
        -24    2    4    4    0    0  0.47025272137E+02 -0.64422222241E+03  0.78518784812E+03  0.10198443452E+04  0.79554279902E+02 0.  0.
         24    2    4    4    0    0  0.26832206480E+03  0.23959409051E+03  0.25905205419E+03  0.45037070478E+03  0.79521986120E+02 0.  0.
         11    1    3    3    0    0  0.12893405705E+01  0.14148170142E+02  0.19518030951E+01  0.14340245911E+02  0.00000000000E+00 0.  1.
        -11    1    3    3    0    0 -0.31663667750E+03  0.39047996176E+03 -0.49487813618E+03  0.70543444468E+03  0.00000000000E+00 0. -1.
          4    1    6    6  502    0  0.23137350924E+03  0.17801985842E+03  0.23458943939E+03  0.37450897966E+03  0.00000000000E+00 0. -1.
          3    1    5    5  503    0  0.82496975026E+01 -0.51902320901E+03  0.60796528922E+03  0.79942162962E+03  0.00000000000E+00 0. -1.
         -4    1    5    5    0  503  0.38775574634E+02 -0.12519901340E+03  0.17722255890E+03  0.22042271554E+03  0.00000000000E+00 0.  1.
         -3    1    6    6    0  502  0.36948555560E+02  0.61574232091E+02  0.24462614797E+02  0.75861725120E+02  0.00000000000E+00 0.  1.
<mgrwt>
<rscale>  0 0.21194595E+04</rscale>
<asrwt>0</asrwt>
<pdfrwt beam="1">  1        1 0.12605201E+00 0.21194595E+04</pdfrwt>
<pdfrwt beam="2">  1       -1 0.21086948E+00 0.21194595E+04</pdfrwt>
<totfact> 0.24766149E+00</totfact>
</mgrwt>
</event>
<event>
12    1  0.1467288E-007  0.1913457E+04  0.7818608E-02  0.8648187E-01
          1   -1    0    0  501    0  0.00000000000E+00  0.00000000000E+00  0.66173250913E+03  0.66173250913E+03  0.00000000000E+00 0. -1.
         -1   -1    0    0    0  501 -0.00000000000E+00 -0.00000000000E+00 -0.13832320257E+04  0.13832320257E+04  0.00000000000E+00 0.  1.
         23    2    1    2    0    0  0.20389590404E+03 -0.46670213883E+03 -0.86527509607E+03  0.10079090362E+04  0.88290470837E+02 0.  0.
        254    2    1    2    0    0 -0.20389590404E+03  0.46670213883E+03  0.14377557949E+03  0.10370554987E+04  0.89186785119E+03 0.  0.
        -24    2    4    4    0    0  0.15526402091E+03  0.12900033534E+03 -0.29904400156E+03  0.36949978693E+03  0.79716842412E+02 0.  0.
         24    2    4    4    0    0 -0.35915992496E+03  0.33770180349E+03  0.44281958106E+03  0.66755571174E+03  0.80641720761E+02 0.  0.
         11    1    3    3    0    0  0.32992517802E+02 -0.18090352441E+03 -0.30531227565E+03  0.35641293051E+03  0.00000000000E+00 0. -1.
        -11    1    3    3    0    0  0.17090338624E+03 -0.28579861442E+03 -0.55996282042E+03  0.65149610566E+03  0.00000000000E+00 0.  1.
          2    1    6    6  502    0 -0.35337623879E+03  0.34088456421E+03  0.42808207800E+03  0.65140718277E+03  0.00000000000E+00 0. -1.
          1    1    5    5  503    0  0.15860708122E+03  0.11050330777E+03 -0.24374158910E+03  0.31109025940E+03  0.00000000000E+00 0. -1.
         -2    1    5    5    0  503 -0.33430603096E+01  0.18497027569E+02 -0.55302412467E+02  0.58409527526E+02  0.00000000000E+00 0.  1.
         -1    1    6    6    0  502 -0.57836861663E+01 -0.31827607189E+01  0.14737503053E+02  0.16148528964E+02  0.00000000000E+00 0.  1.
<mgrwt>
<rscale>  0 0.19134572E+04</rscale>
<asrwt>0</asrwt>
<pdfrwt beam="1">  1        1 0.10180500E+00 0.19134572E+04</pdfrwt>
<pdfrwt beam="2">  1       -1 0.21280493E+00 0.19134572E+04</pdfrwt>
<totfact> 0.34096473E+00</totfact>
</mgrwt>
</event>
<event>
12    1  0.1467288E-007  0.1231781E+04  0.7818608E-02  0.9085485E-01
          2   -1    0    0  501    0  0.00000000000E+00  0.00000000000E+00  0.16795495958E+04  0.16795495958E+04  0.00000000000E+00 0. -1.
         -2   -1    0    0    0  501 -0.00000000000E+00 -0.00000000000E+00 -0.22584698321E+03  0.22584698321E+03  0.00000000000E+00 0.  1.
         23    2    1    2    0    0 -0.17514256946E+03 -0.14918236683E+03  0.11377674683E+03  0.27235947142E+03  0.91127577276E+02 0.  0.
        254    2    1    2    0    0  0.17514256946E+03  0.14918236683E+03  0.13399258658E+04  0.16330371076E+04  0.90469805507E+03 0.  0.
        -24    2    4    4    0    0  0.86840373748E+02  0.52177226588E+03  0.86515172371E+03  0.10172041002E+04  0.80181846416E+02 0.  0.
         24    2    4    4    0    0  0.88302195712E+02 -0.37258989904E+03  0.47477414205E+03  0.61583300739E+03  0.84966442735E+02 0.  0.
         11    1    3    3    0    0 -0.68103197386E+02 -0.38524742500E+02  0.85373327905E+02  0.11580503614E+03  0.00000000000E+00 0. -1.
        -11    1    3    3    0    0 -0.10703937207E+03 -0.11065762433E+03  0.28403418929E+02  0.15655443527E+03  0.00000000000E+00 0.  1.
          2    1    6    6  502    0  0.69232494322E+02 -0.36445200427E+03  0.45622270503E+03  0.58801152903E+03  0.00000000000E+00 0. -1.
          1    1    5    5  503    0  0.93931689802E+02  0.48525071926E+03  0.76937858455E+03  0.91445876301E+03  0.00000000000E+00 0. -1.
         -2    1    5    5    0  503 -0.70913160539E+01  0.36521546619E+02  0.95773139165E+02  0.10274533720E+03  0.00000000000E+00 0.  1.
         -1    1    6    6    0  502  0.19069701390E+02 -0.81378947701E+01  0.18551437021E+02  0.27821478357E+02  0.00000000000E+00 0.  1.
<mgrwt>
<rscale>  0 0.12317812E+04</rscale>
<asrwt>0</asrwt>
<pdfrwt beam="1">  1        2 0.25839224E+00 0.12317812E+04</pdfrwt>
<pdfrwt beam="2">  1       -2 0.34745691E-01 0.12317812E+04</pdfrwt>
<totfact> 0.76995754E+01</totfact>
</mgrwt>
</event>
<event>
12    1  0.1467288E-007  0.1584425E+04  0.7818608E-02  0.8830174E-01
         -2   -1    0    0    0  501 -0.00000000000E+00  0.00000000000E+00  0.82538531493E+03  0.82538531493E+03  0.00000000000E+00 0.  1.
          2   -1    0    0  501    0  0.00000000000E+00 -0.00000000000E+00 -0.76037253499E+03  0.76037253499E+03  0.00000000000E+00 0. -1.
         23    2    1    2    0    0  0.26943617876E+03 -0.28502334838E+03 -0.33912049715E+03  0.52660327642E+03  0.92055068357E+02 0.  0.
        254    2    1    2    0    0 -0.26943617876E+03  0.28502334838E+03  0.40413327709E+03  0.10591545735E+04  0.89702315543E+03 0.  0.
        -24    2    4    4    0    0 -0.56797680914E+03  0.24471176195E+02  0.21406806830E+03  0.61280970323E+03  0.80709976562E+02 0.  0.
         24    2    4    4    0    0  0.29854063038E+03  0.26055217219E+03  0.19006520879E+03  0.44634487028E+03  0.78006520312E+02 0.  0.
         11    1    3    3    0    0  0.20712820100E+03 -0.18259413064E+03 -0.27879782557E+03  0.39239130435E+03  0.00000000000E+00 0. -1.
        -11    1    3    3    0    0  0.62307977760E+02 -0.10242921775E+03 -0.60322671577E+02  0.13421197207E+03  0.00000000000E+00 0.  1.
          4    1    6    6  502    0  0.25239625136E+03  0.21693025629E+03  0.18921871350E+03  0.38283981681E+03  0.00000000000E+00 0. -1.
          3    1    5    5  503    0 -0.52851723316E+03  0.43512016045E+02  0.20051483246E+03  0.56694793352E+03  0.00000000000E+00 0. -1.
         -4    1    5    5    0  503 -0.39459575977E+02 -0.19040839850E+02  0.13553235844E+02  0.45861769704E+02  0.00000000000E+00 0.  1.
         -3    1    6    6    0  502  0.46144379023E+02  0.43621915899E+02  0.84649528659E+00  0.63505053471E+02  0.00000000000E+00 0.  1.
<mgrwt>
<rscale>  0 0.15844246E+04</rscale>
<asrwt>0</asrwt>
<pdfrwt beam="1">  1        2 0.11698039E+00 0.15844246E+04</pdfrwt>
<pdfrwt beam="2">  1       -2 0.12698236E+00 0.15844246E+04</pdfrwt>
<totfact> 0.16295053E+01</totfact>
</mgrwt>
</event>
<event>
12    1  0.1467288E-007  0.1263439E+04  0.7818608E-02  0.9059072E-01
         -2   -1    0    0    0  501 -0.00000000000E+00  0.00000000000E+00  0.51770966822E+03  0.51770966822E+03  0.00000000000E+00 0.  1.
          2   -1    0    0  501    0  0.00000000000E+00 -0.00000000000E+00 -0.77083593111E+03  0.77083593111E+03  0.00000000000E+00 0. -1.
         23    2    1    2    0    0  0.73360628823E+02 -0.16444133782E+03 -0.32499509393E+03  0.38236245362E+03  0.90313340177E+02 0.  0.
        254    2    1    2    0    0 -0.73360628823E+02  0.16444133782E+03  0.71868831046E+02  0.90618314571E+03  0.88520055878E+03 0.  0.
        -24    2    4    4    0    0  0.39771296864E+03  0.49945422492E+02 -0.83161646959E+01  0.40878300675E+03  0.79776170415E+02 0.  0.
         24    2    4    4    0    0 -0.47107359746E+03  0.11449591532E+03  0.80184995742E+02  0.49740013896E+03  0.77185593508E+02 0.  0.
         13    1    3    3    0    0  0.59089888931E+02 -0.16076570959E+03 -0.23293103619E+03  0.28912643596E+03  0.00000000000E+00 0. -1.
        -13    1    3    3    0    0  0.14270739892E+02 -0.36756282273E+01 -0.92064057746E+02  0.93236017658E+02  0.00000000000E+00 0.  1.
          4    1    6    6  502    0 -0.46330627474E+03  0.10489333541E+03  0.87532290992E+02  0.48302921029E+03  0.00000000000E+00 0. -1.
          1    1    5    5  503    0  0.20190204187E+03 -0.10895262339E+02  0.13116403058E+02  0.20262078196E+03  0.00000000000E+00 0. -1.
         -2    1    5    5    0  503  0.19581092677E+03  0.60840684831E+02 -0.21432567753E+02  0.20616222480E+03  0.00000000000E+00 0.  1.
         -3    1    6    6    0  502 -0.77673227178E+01  0.96025799186E+01 -0.73472952508E+01  0.14370928669E+02  0.00000000000E+00 0.  1.
<mgrwt>
<rscale>  0 0.12634385E+04</rscale>
<asrwt>0</asrwt>
<pdfrwt beam="1">  1        2 0.11859014E+00 0.12634385E+04</pdfrwt>
<pdfrwt beam="2">  1       -2 0.79647642E-01 0.12634385E+04</pdfrwt>
<totfact> 0.49656559E+01</totfact>
</mgrwt>
</event>
<event>
12    1  0.1467288E-007  0.1861522E+04  0.7818608E-02  0.8674250E-01
          1   -1    0    0  501    0  0.00000000000E+00  0.00000000000E+00  0.16515813807E+04  0.16515813807E+04  0.00000000000E+00 0. -1.
         -1   -1    0    0    0  501 -0.00000000000E+00 -0.00000000000E+00 -0.52453738997E+03  0.52453738997E+03  0.00000000000E+00 0.  1.
         23    2    1    2    0    0 -0.42096643828E+03  0.41970933631E+03 -0.33975707856E+02  0.60246628166E+03  0.91883636525E+02 0.  0.
        254    2    1    2    0    0  0.42096643828E+03 -0.41970933631E+03  0.11610196986E+04  0.15736524890E+04  0.88036739294E+03 0.  0.
        -24    2    4    4    0    0 -0.19140721249E+03  0.12145801594E+03  0.26915026523E+03  0.36147276482E+03  0.82655452319E+02 0.  0.
         24    2    4    4    0    0  0.61237365077E+03 -0.54116735225E+03  0.89186943337E+03  0.12121797242E+04  0.78006450470E+02 0.  0.
         13    1    3    3    0    0 -0.34097656868E+03  0.37263213669E+03 -0.52519267972E+02  0.50781689928E+03  0.00000000000E+00 0.  1.
        -13    1    3    3    0    0 -0.79989869599E+02  0.47077199626E+02  0.18543560117E+02  0.94649382380E+02  0.00000000000E+00 0. -1.
          4    1    6    6  502    0  0.24350262026E+03 -0.18280313903E+03  0.28966536161E+03  0.42025770121E+03  0.00000000000E+00 0. -1.
          1    1    5    5  503    0 -0.65247809293E+01  0.21950658251E+02  0.39781493680E+01  0.23242844839E+02  0.00000000000E+00 0. -1.
         -4    1    5    5    0  503 -0.18488243156E+03  0.99507357691E+02  0.26517211587E+03  0.33822991998E+03  0.00000000000E+00 0.  1.
         -3    1    6    6    0  502  0.36887103051E+03 -0.35836421323E+03  0.60220407176E+03  0.79192202301E+03  0.00000000000E+00 0.  1.
<mgrwt>
<rscale>  0 0.18615222E+04</rscale>
<asrwt>0</asrwt>
<pdfrwt beam="1">  1        1 0.25408944E+00 0.18615222E+04</pdfrwt>
<pdfrwt beam="2">  1       -1 0.80698061E-01 0.18615222E+04</pdfrwt>
<totfact> 0.73922633E+00</totfact>
</mgrwt>
</event>
<event>
12    1  0.1467288E-007  0.1851755E+04  0.7818608E-02  0.8679251E-01
          2   -1    0    0  501    0  0.00000000000E+00  0.00000000000E+00  0.11914032696E+04  0.11914032696E+04  0.00000000000E+00 0.  1.
         -2   -1    0    0    0  501 -0.00000000000E+00 -0.00000000000E+00 -0.71952876141E+03  0.71952876141E+03  0.00000000000E+00 0. -1.
         23    2    1    2    0    0 -0.53814013316E+03  0.26617920762E+03  0.56390874415E+03  0.82879524980E+03  0.91990873849E+02 0.  0.
        254    2    1    2    0    0  0.53814013316E+03 -0.26617920762E+03 -0.92034235928E+02  0.10821367813E+04  0.89560233322E+03 0.  0.
        -24    2    4    4    0    0  0.46940171692E+03 -0.25524446356E+03  0.33883611703E+03  0.63828036017E+03  0.84286392412E+02 0.  0.
         24    2    4    4    0    0  0.68738416241E+02 -0.10934744053E+02 -0.43087035296E+03  0.44385642108E+03  0.80713833901E+02 0.  0.
         11    1    3    3    0    0 -0.12734035968E+03  0.10415754110E+03  0.12976774529E+03  0.20953288117E+03  0.00000000000E+00 0. -1.
        -11    1    3    3    0    0 -0.41079977348E+03  0.16202166652E+03  0.43414099886E+03  0.61926236863E+03  0.00000000000E+00 0.  1.
          4    1    6    6  502    0 -0.14423908862E+02 -0.14233300754E+02 -0.49060764446E+02  0.53081019256E+02  0.00000000000E+00 0. -1.
          3    1    5    5  503    0  0.20180311664E+03 -0.92552143477E+02  0.95504387459E+02  0.24168468129E+03  0.00000000000E+00 0. -1.
         -4    1    5    5    0  503  0.26759860028E+03 -0.16269232009E+03  0.24333172957E+03  0.39659567888E+03  0.00000000000E+00 0.  1.
         -3    1    6    6    0  502  0.83162325103E+02  0.32985567004E+01 -0.38180958851E+03  0.39077540183E+03  0.00000000000E+00 0.  1.
<mgrwt>
<rscale>  0 0.18517548E+04</rscale>
<asrwt>0</asrwt>
<pdfrwt beam="1">  1        2 0.18329281E+00 0.18517548E+04</pdfrwt>
<pdfrwt beam="2">  1       -2 0.11069673E+00 0.18517548E+04</pdfrwt>
<totfact> 0.11661736E+01</totfact>
</mgrwt>
</event>
<event>
12    1  0.1467288E-007  0.1617467E+04  0.7818608E-02  0.8809889E-01
         -1   -1    0    0    0  501 -0.00000000000E+00  0.00000000000E+00  0.14367009997E+04  0.14367009997E+04  0.00000000000E+00 0.  1.
          1   -1    0    0  501    0  0.00000000000E+00 -0.00000000000E+00 -0.45524416098E+03  0.45524416098E+03  0.00000000000E+00 0. -1.
         23    2    1    2    0    0 -0.21298659749E+03  0.22665131658E+03  0.86971338241E+03  0.92811032716E+03  0.90847684706E+02 0.  0.
        254    2    1    2    0    0  0.21298659749E+03 -0.22665131658E+03  0.11174345629E+03  0.96383483350E+03  0.90540426121E+03 0.  0.
        -24    2    4    4    0    0  0.44916239948E+03 -0.23281812299E+02  0.34061420218E+03  0.56904598307E+03  0.74205068775E+02 0.  0.
         24    2    4    4    0    0 -0.23617580199E+03 -0.20336950428E+03 -0.22887074589E+03  0.39478885042E+03  0.79613148279E+02 0.  0.
         11    1    3    3    0    0 -0.21231335298E+03  0.23429304956E+03  0.85322346035E+03  0.90992332985E+03  0.00000000000E+00 0.  1.
        -11    1    3    3    0    0 -0.67324451176E+00 -0.76417329884E+01  0.16489922065E+02  0.18186997304E+02  0.00000000000E+00 0. -1.
          2    1    6    6  502    0 -0.99988729914E+02 -0.78926174582E+02 -0.47131526926E+02  0.13582513749E+03  0.00000000000E+00 0. -1.
          3    1    5    5  503    0  0.88743847492E+02  0.24462132973E+02  0.61737749555E+02  0.11083959643E+03  0.00000000000E+00 0. -1.
         -4    1    5    5    0  503  0.36041855199E+03 -0.47743945272E+02  0.27887645263E+03  0.45820638664E+03  0.00000000000E+00 0.  1.
         -1    1    6    6    0  502 -0.13618707208E+03 -0.12444332969E+03 -0.18173921897E+03  0.25896371293E+03  0.00000000000E+00 0.  1.
<mgrwt>
<rscale>  0 0.16174668E+04</rscale>
<asrwt>0</asrwt>
<pdfrwt beam="1">  1        1 0.70037564E-01 0.16174668E+04</pdfrwt>
<pdfrwt beam="2">  1       -1 0.22103092E+00 0.16174668E+04</pdfrwt>
<totfact> 0.52306177E+00</totfact>
</mgrwt>
</event>
<event>
12    1  0.1467288E-007  0.1293413E+04  0.7818608E-02  0.9034805E-01
          2   -1    0    0  501    0  0.00000000000E+00  0.00000000000E+00  0.20099900296E+04  0.20099900296E+04  0.00000000000E+00 0. -1.
         -2   -1    0    0    0  501 -0.00000000000E+00 -0.00000000000E+00 -0.20807520407E+03  0.20807520407E+03  0.00000000000E+00 0.  1.
         23    2    1    2    0    0 -0.11385014579E+03 -0.19957572774E+03  0.93333574967E+03  0.96549293102E+03  0.90932125412E+02 0.  0.
        254    2    1    2    0    0  0.11385014579E+03  0.19957572774E+03  0.86857907583E+03  0.12525723026E+04  0.87276310389E+03 0.  0.
        -24    2    4    4    0    0  0.69180082994E+02  0.45050920937E+03  0.15116004753E+03  0.48702662377E+03  0.81247404196E+02 0.  0.
         24    2    4    4    0    0  0.44670062795E+02 -0.25093348163E+03  0.71741902830E+03  0.76554567884E+03  0.80044347187E+02 0.  0.
         11    1    3    3    0    0 -0.93782527842E+02 -0.17246417127E+03  0.88525166488E+03  0.90675772016E+03  0.00000000000E+00 0. -1.
        -11    1    3    3    0    0 -0.20067617947E+02 -0.27111556464E+02  0.48084084793E+02  0.58735210856E+02  0.00000000000E+00 0.  1.
          4    1    6    6  502    0  0.35730435987E+02 -0.95425191866E+02  0.18990034505E+03  0.21551049243E+03  0.00000000000E+00 0. -1.
          1    1    5    5  503    0  0.18835511475E+02  0.17246977915E+03  0.98802709728E+02  0.19965614607E+03  0.00000000000E+00 0. -1.
         -2    1    5    5    0  503  0.50344571519E+02  0.27803943021E+03  0.52357337802E+02  0.28737047770E+03  0.00000000000E+00 0.  1.
         -3    1    6    6    0  502  0.89396268082E+01 -0.15550828976E+03  0.52751868324E+03  0.55003518641E+03  0.00000000000E+00 0.  1.
<mgrwt>
<rscale>  0 0.12934127E+04</rscale>
<asrwt>0</asrwt>
<pdfrwt beam="1">  1        2 0.30922922E+00 0.12934127E+04</pdfrwt>
<pdfrwt beam="2">  1       -2 0.32011571E-01 0.12934127E+04</pdfrwt>
<totfact> 0.58775422E+01</totfact>
</mgrwt>
</event>
<event>
12    1  0.1467288E-007  0.1407557E+04  0.7818608E-02  0.8948367E-01
          2   -1    0    0  501    0  0.00000000000E+00  0.00000000000E+00  0.46874690676E+03  0.46874690676E+03  0.00000000000E+00 0.  1.
         -2   -1    0    0    0  501 -0.00000000000E+00 -0.00000000000E+00 -0.10566551847E+04  0.10566551847E+04  0.00000000000E+00 0. -1.
         23    2    1    2    0    0 -0.10745336942E+03  0.12368099577E+03  0.22965093577E+03  0.29694099838E+03  0.92688666553E+02 0.  0.
        254    2    1    2    0    0  0.10745336942E+03 -0.12368099577E+03 -0.81755921371E+03  0.12284610931E+04  0.90214764532E+03 0.  0.
        -24    2    4    4    0    0 -0.24878983306E+03 -0.25202362085E+03 -0.47718087717E+02  0.36691960599E+03  0.83310832818E+02 0.  0.
         24    2    4    4    0    0  0.35624320248E+03  0.12834262508E+03 -0.76984112600E+03  0.86154148709E+03  0.78850022064E+02 0.  0.
         11    1    3    3    0    0 -0.30055287301E+01  0.18251307593E+02  0.94248693503E+02  0.96046653554E+02  0.00000000000E+00 0. -1.
        -11    1    3    3    0    0 -0.10444784069E+03  0.10542968818E+03  0.13540224226E+03  0.20089434483E+03  0.00000000000E+00 0.  1.
          2    1    6    6  502    0  0.26305749991E+03  0.82581938284E+02 -0.62714698820E+03  0.68507836749E+03  0.00000000000E+00 0. -1.
          1    1    5    5  503    0 -0.19654502389E+03 -0.22903976787E+03 -0.17450585369E+02  0.30231388425E+03  0.00000000000E+00 0. -1.
         -2    1    5    5    0  503 -0.52244809168E+02 -0.22983852980E+02 -0.30267502349E+02  0.64605721738E+02  0.00000000000E+00 0.  1.
         -1    1    6    6    0  502  0.93185702567E+02  0.45760686795E+02 -0.14269413779E+03  0.17646311960E+03  0.00000000000E+00 0.  1.
<mgrwt>
<rscale>  0 0.14075565E+04</rscale>
<asrwt>0</asrwt>
<pdfrwt beam="1">  1        2 0.72114910E-01 0.14075565E+04</pdfrwt>
<pdfrwt beam="2">  1       -2 0.16256233E+00 0.14075565E+04</pdfrwt>
<totfact> 0.15553092E+01</totfact>
</mgrwt>
</event>
<event>
12    1  0.1467288E-007  0.2538663E+04  0.7818608E-02  0.8389340E-01
         -2   -1    0    0    0  501 -0.00000000000E+00  0.00000000000E+00  0.13783708088E+04  0.13783708088E+04  0.00000000000E+00 0.  1.
          2   -1    0    0  501    0  0.00000000000E+00 -0.00000000000E+00 -0.11689179527E+04  0.11689179527E+04  0.00000000000E+00 0. -1.
         23    2    1    2    0    0 -0.60186695033E+03 -0.23593906231E+03  0.99525811277E+03  0.11903438096E+04  0.92025034034E+02 0.  0.
        254    2    1    2    0    0  0.60186695033E+03  0.23593906231E+03 -0.78580525676E+03  0.13569449519E+04  0.89771857173E+03 0.  0.
        -24    2    4    4    0    0  0.46002946635E+03  0.56673946204E+03 -0.56982903687E+03  0.92952144682E+03  0.80524909766E+02 0.  0.
         24    2    4    4    0    0  0.14183748398E+03 -0.33080039973E+03 -0.21597621989E+03  0.42742350513E+03  0.80612336828E+02 0.  0.
         13    1    3    3    0    0 -0.14887970906E+03 -0.44569222117E+02  0.17564050840E+03  0.23452328567E+03  0.00000000000E+00 0. -1.
        -13    1    3    3    0    0 -0.45298724127E+03 -0.19136984019E+03  0.81961760437E+03  0.95582052389E+03  0.00000000000E+00 0.  1.
          4    1    6    6  502    0  0.11821167230E+03 -0.29730248454E+03 -0.15910582206E+03  0.35731978590E+03  0.00000000000E+00 0. -1.
          3    1    5    5  503    0  0.37511999774E+03  0.48691504061E+03 -0.44559232198E+03  0.75917968024E+03  0.00000000000E+00 0. -1.
         -4    1    5    5    0  503  0.84909468607E+02  0.79824421434E+02 -0.12423671488E+03  0.17034176658E+03  0.00000000000E+00 0.  1.
         -3    1    6    6    0  502  0.23625811678E+02 -0.33497915197E+02 -0.56870397833E+02  0.70103719229E+02  0.00000000000E+00 0.  1.
<mgrwt>
<rscale>  0 0.25386629E+04</rscale>
<asrwt>0</asrwt>
<pdfrwt beam="1">  1        2 0.17983353E+00 0.25386629E+04</pdfrwt>
<pdfrwt beam="2">  1       -2 0.21205705E+00 0.25386629E+04</pdfrwt>
<totfact> 0.19524894E+00</totfact>
</mgrwt>
</event>
<event>
12    1  0.1467288E-007  0.1323919E+04  0.7818608E-02  0.9010809E-01
         -2   -1    0    0    0  501 -0.00000000000E+00  0.00000000000E+00  0.45850619699E+03  0.45850619699E+03  0.00000000000E+00 0. -1.
          2   -1    0    0  501    0  0.00000000000E+00 -0.00000000000E+00 -0.95569119973E+03  0.95569119973E+03  0.00000000000E+00 0.  1.
         23    2    1    2    0    0 -0.65429739974E+02 -0.30058266623E+03  0.36292965696E+02  0.32272037555E+03  0.90555349525E+02 0.  0.
        254    2    1    2    0    0  0.65429739974E+02  0.30058266623E+03 -0.53347796843E+03  0.10914770212E+04  0.90116166964E+03 0.  0.
        -24    2    4    4    0    0 -0.11385242733E+03  0.55783021051E+03 -0.15863169492E+03  0.59629139698E+03  0.79135936866E+02 0.  0.
         24    2    4    4    0    0  0.17928216730E+03 -0.25724754429E+03 -0.37484627351E+03  0.49518562419E+03  0.79879153034E+02 0.  0.
         11    1    3    3    0    0 -0.58755764051E+02 -0.11976360038E+03  0.47061767979E+02  0.14145801424E+03  0.00000000000E+00 0. -1.
        -11    1    3    3    0    0 -0.66739759233E+01 -0.18081906584E+03 -0.10768802283E+02  0.18126236132E+03  0.00000000000E+00 0.  1.
          4    1    6    6  502    0  0.89560616489E+02 -0.19389209348E+03 -0.24012231287E+03  0.32136268152E+03  0.00000000000E+00 0. -1.
          3    1    5    5  503    0 -0.69877809943E+01  0.22653537014E+03 -0.66653686206E+02  0.23624101441E+03  0.00000000000E+00 0. -1.
         -4    1    5    5    0  503 -0.10686464633E+03  0.33129484038E+03 -0.91978008713E+02  0.36005038256E+03  0.00000000000E+00 0.  1.
         -3    1    6    6    0  502  0.89721550811E+02 -0.63355450810E+02 -0.13472396064E+03  0.17382294267E+03  0.00000000000E+00 0.  1.
<mgrwt>
<rscale>  0 0.13239189E+04</rscale>
<asrwt>0</asrwt>
<pdfrwt beam="1">  1        2 0.14702941E+00 0.13239189E+04</pdfrwt>
<pdfrwt beam="2">  1       -2 0.70539417E-01 0.13239189E+04</pdfrwt>
<totfact> 0.48160905E+01</totfact>
</mgrwt>
</event>
<event>
12    1  0.1467288E-007  0.1939318E+04  0.7818608E-02  0.8635529E-01
         -1   -1    0    0    0  501 -0.00000000000E+00  0.00000000000E+00  0.90657089406E+03  0.90657089406E+03  0.00000000000E+00 0.  1.
          1   -1    0    0  501    0  0.00000000000E+00 -0.00000000000E+00 -0.10371372970E+04  0.10371372970E+04  0.00000000000E+00 0. -1.
         23    2    1    2    0    0  0.27756222792E+03 -0.69200329179E+03  0.31721960386E+02  0.75337837329E+03  0.10326347051E+03 0.  0.
        254    2    1    2    0    0 -0.27756222792E+03  0.69200329179E+03 -0.16228836328E+03  0.11903298177E+04  0.91358536321E+03 0.  0.
        -24    2    4    4    0    0 -0.23411390314E+03  0.11409512095E+03  0.32830751650E+03  0.42692447548E+03  0.81557747079E+02 0.  0.
         24    2    4    4    0    0 -0.43448324789E+02  0.57790817084E+03 -0.49059587978E+03  0.76340534224E+03  0.78979671194E+02 0.  0.
         11    1    3    3    0    0  0.12753144016E+03 -0.32835214758E+03 -0.36452359196E+02  0.35413016751E+03  0.00000000000E+00 0.  1.
        -11    1    3    3    0    0  0.15003078776E+03 -0.36365114421E+03  0.68174319582E+02  0.39924820577E+03  0.00000000000E+00 0. -1.
          4    1    6    6  502    0 -0.48593694851E+02  0.45695987771E+03 -0.34852133729E+03  0.57675020552E+03  0.00000000000E+00 0. -1.
          1    1    5    5  503    0 -0.17012072330E+03  0.10674030989E+03  0.28739909098E+03  0.35061772880E+03  0.00000000000E+00 0. -1.
         -2    1    5    5    0  503 -0.63993179831E+02  0.73548110634E+01  0.40908425520E+02  0.76306746682E+02  0.00000000000E+00 0.  1.
         -3    1    6    6    0  502  0.51453700621E+01  0.12094829312E+03 -0.14207454248E+03  0.18665513672E+03  0.00000000000E+00 0.  1.
<mgrwt>
<rscale>  0 0.19393179E+04</rscale>
<asrwt>0</asrwt>
<pdfrwt beam="1">  1        1 0.15955958E+00 0.19393179E+04</pdfrwt>
<pdfrwt beam="2">  1       -1 0.13947245E+00 0.19393179E+04</pdfrwt>
<totfact> 0.55894602E+00</totfact>
</mgrwt>
</event>
<event>
12    1  0.1467288E-007  0.1033648E+04  0.7818608E-02  0.9272391E-01
          1   -1    0    0  501    0  0.00000000000E+00  0.00000000000E+00  0.14794729950E+04  0.14794729950E+04  0.00000000000E+00 0. -1.
         -1   -1    0    0    0  501 -0.00000000000E+00 -0.00000000000E+00 -0.18054204184E+03  0.18054204184E+03  0.00000000000E+00 0.  1.
         23    2    1    2    0    0 -0.13596002286E+02 -0.95697913565E+02  0.12543265674E+03  0.18086433349E+03  0.87381999363E+02 0.  0.
        254    2    1    2    0    0  0.13596002286E+02  0.95697913565E+02  0.11734982965E+04  0.14791507034E+04  0.89523494658E+03 0.  0.
        -24    2    4    4    0    0 -0.28296815206E+03  0.24464156467E+03  0.17020468271E+03  0.41937398259E+03  0.83572920363E+02 0.  0.
         24    2    4    4    0    0  0.29656415434E+03 -0.14894365110E+03  0.10032936137E+04  0.10597767208E+04  0.79963202080E+02 0.  0.
         11    1    3    3    0    0 -0.79340356418E+01 -0.10832407439E+03  0.84370792132E+02  0.13753357619E+03  0.00000000000E+00 0. -1.
        -11    1    3    3    0    0 -0.56619666440E+01  0.12626160822E+02  0.41061864607E+02  0.43330757303E+02  0.00000000000E+00 0.  1.
          2    1    6    6  502    0  0.23010036051E+02 -0.36687210594E+02  0.91396290710E+02  0.10113701170E+03  0.00000000000E+00 0. -1.
          3    1    5    5  503    0 -0.15826234515E+03  0.10846806385E+03  0.12590316517E+03  0.22948616030E+03  0.00000000000E+00 0. -1.
         -4    1    5    5    0  503 -0.12470580690E+03  0.13617350081E+03  0.44301517547E+02  0.18988782230E+03  0.00000000000E+00 0.  1.
         -1    1    6    6    0  502  0.27355411829E+03 -0.11225644051E+03  0.91189732304E+03  0.95863970908E+03  0.00000000000E+00 0.  1.
<mgrwt>
<rscale>  0 0.10336481E+04</rscale>
<asrwt>0</asrwt>
<pdfrwt beam="1">  1        1 0.22761122E+00 0.10336481E+04</pdfrwt>
<pdfrwt beam="2">  1       -1 0.27775700E-01 0.10336481E+04</pdfrwt>
<totfact> 0.78960237E+01</totfact>
</mgrwt>
</event>
<event>
12    1  0.1467288E-007  0.2001995E+04  0.7818608E-02  0.8605688E-01
          2   -1    0    0  501    0  0.00000000000E+00  0.00000000000E+00  0.19294177302E+04  0.19294177302E+04  0.00000000000E+00 0. -1.
         -2   -1    0    0    0  501 -0.00000000000E+00 -0.00000000000E+00 -0.51932572809E+03  0.51932572809E+03  0.00000000000E+00 0.  1.
         23    2    1    2    0    0 -0.43265918490E+03  0.60269207026E+03  0.21195788451E+03  0.77680086543E+03  0.89787181102E+02 0.  0.
        254    2    1    2    0    0  0.43265918490E+03 -0.60269207026E+03  0.11981341176E+04  0.16719425929E+04  0.89968603870E+03 0.  0.
        -24    2    4    4    0    0  0.45309153683E+03 -0.57318460668E+03  0.13272341806E+04  0.15171886744E+04  0.80488320455E+02 0.  0.
         24    2    4    4    0    0 -0.20432351927E+02 -0.29507463577E+02 -0.12910006292E+03  0.15475391845E+03  0.77419491185E+02 0.  0.
         13    1    3    3    0    0 -0.48625752877E+02  0.51018625452E+02 -0.45149819785E+01  0.70623997679E+02  0.00000000000E+00 0. -1.
        -13    1    3    3    0    0 -0.38403343203E+03  0.55167344481E+03  0.21647286648E+03  0.70617686775E+03  0.00000000000E+00 0.  1.
          2    1    6    6  502    0 -0.92524364540E+00 -0.23109719592E+02  0.89718092449E+00  0.23145629156E+02  0.00000000000E+00 0. -1.
          3    1    5    5  503    0  0.25397541395E+03 -0.38390382458E+03  0.82549103648E+03  0.94515665830E+03  0.00000000000E+00 0. -1.
         -4    1    5    5    0  503  0.19911612288E+03 -0.18928078210E+03  0.50174314408E+03  0.57203201615E+03  0.00000000000E+00 0.  1.
         -1    1    6    6    0  502 -0.19507108282E+02 -0.63977439854E+01 -0.12999724385E+03  0.13160828929E+03  0.00000000000E+00 0.  1.
<mgrwt>
<rscale>  0 0.20019953E+04</rscale>
<asrwt>0</asrwt>
<pdfrwt beam="1">  1        2 0.29683349E+00 0.20019953E+04</pdfrwt>
<pdfrwt beam="2">  1       -2 0.79896267E-01 0.20019953E+04</pdfrwt>
<totfact> 0.94168937E+00</totfact>
</mgrwt>
</event>
<event>
12    1  0.1467288E-007  0.1769483E+04  0.7818608E-02  0.8722699E-01
          1   -1    0    0  501    0  0.00000000000E+00  0.00000000000E+00  0.68069173799E+03  0.68069173799E+03  0.00000000000E+00 0. -1.
         -1   -1    0    0    0  501 -0.00000000000E+00 -0.00000000000E+00 -0.11499582791E+04  0.11499582791E+04  0.00000000000E+00 0.  1.
         23    2    1    2    0    0  0.24023411922E+03  0.11260443551E+03 -0.80591415793E+03  0.85308318885E+03  0.88662879629E+02 0.  0.
        254    2    1    2    0    0 -0.24023411922E+03 -0.11260443551E+03  0.33664761685E+03  0.97756682821E+03  0.87858584939E+03 0.  0.
        -24    2    4    4    0    0 -0.24882324704E+03  0.70584312548E+02  0.59421095124E+03  0.65299367629E+03  0.80118245406E+02 0.  0.
         24    2    4    4    0    0  0.85891278229E+01 -0.18318874806E+03 -0.25756333440E+03  0.32457315192E+03  0.73327820046E+02 0.  0.
         11    1    3    3    0    0  0.59038316215E+02  0.26292425373E+02 -0.98982950875E+02  0.11821353128E+03  0.00000000000E+00 0.  1.
        -11    1    3    3    0    0  0.18119580301E+03  0.86312010137E+02 -0.70693120705E+03  0.73486965757E+03  0.00000000000E+00 0. -1.
          2    1    6    6  502    0  0.11191257485E+02 -0.23791257560E+02 -0.63533487238E+01  0.27048719385E+02  0.00000000000E+00 0. -1.
          1    1    5    5  503    0 -0.79940877315E+02 -0.24719018687E+01  0.11878254345E+03  0.14319897623E+03  0.00000000000E+00 0. -1.
         -2    1    5    5    0  503 -0.16888236973E+03  0.73056214417E+02  0.47542840780E+03  0.50979470006E+03  0.00000000000E+00 0.  1.
         -1    1    6    6    0  502 -0.26021296619E+01 -0.15939749050E+03 -0.25120998567E+03  0.29752443254E+03  0.00000000000E+00 0.  1.
<mgrwt>
<rscale>  0 0.17694825E+04</rscale>
<asrwt>0</asrwt>
<pdfrwt beam="1">  1        1 0.10472181E+00 0.17694825E+04</pdfrwt>
<pdfrwt beam="2">  1       -1 0.17691666E+00 0.17694825E+04</pdfrwt>
<totfact> 0.58900013E+00</totfact>
</mgrwt>
</event>
<event>
12    1  0.1467288E-007  0.4077283E+04  0.7818608E-02  0.7989135E-01
          2   -1    0    0  501    0  0.00000000000E+00  0.00000000000E+00  0.36512893938E+04  0.36512893938E+04  0.00000000000E+00 0. -1.
         -2   -1    0    0    0  501 -0.00000000000E+00 -0.00000000000E+00 -0.11382440762E+04  0.11382440762E+04  0.00000000000E+00 0.  1.
         23    2    1    2    0    0  0.58076657834E+03 -0.15854018392E+04  0.23153592870E+04  0.28670547531E+04  0.91244283182E+02 0.  0.
        254    2    1    2    0    0 -0.58076657834E+03  0.15854018392E+04  0.19768603061E+03  0.19224787169E+04  0.89780612597E+03 0.  0.
        -24    2    4    4    0    0  0.12355658280E+03  0.80054237621E+03  0.28234194085E+03  0.86149823991E+03  0.79548227732E+02 0.  0.
         24    2    4    4    0    0 -0.70432316114E+03  0.78485946300E+03 -0.84655910239E+02  0.10609804770E+04  0.80233767112E+02 0.  0.
         11    1    3    3    0    0  0.45579821528E+03 -0.12844157660E+04  0.18103569819E+04  0.22660247737E+04  0.00000000000E+00 0. -1.
        -11    1    3    3    0    0  0.12496836306E+03 -0.30098607318E+03  0.50500230511E+03  0.60102997944E+03  0.00000000000E+00 0.  1.
          2    1    6    6  502    0 -0.49905710826E+03  0.60839463859E+03 -0.60770126325E+02  0.78923699978E+03  0.00000000000E+00 0. -1.
          3    1    5    5  503    0  0.10265573984E+03  0.41225898209E+03  0.15752017477E+03  0.45310956147E+03  0.00000000000E+00 0. -1.
         -4    1    5    5    0  503  0.20900842956E+02  0.38828339413E+03  0.12482176607E+03  0.40838867844E+03  0.00000000000E+00 0.  1.
         -1    1    6    6    0  502 -0.20526605288E+03  0.17646482441E+03 -0.23885783914E+02  0.27174347718E+03  0.00000000000E+00 0.  1.
<mgrwt>
<rscale>  0 0.40772827E+04</rscale>
<asrwt>0</asrwt>
<pdfrwt beam="1">  1        2 0.56173682E+00 0.40772827E+04</pdfrwt>
<pdfrwt beam="2">  1       -2 0.17511448E+00 0.40772827E+04</pdfrwt>
<totfact> 0.97220414E-02</totfact>
</mgrwt>
</event>
<event>
12    1  0.1467288E-007  0.1411602E+04  0.7818608E-02  0.8945463E-01
          2   -1    0    0  501    0  0.00000000000E+00  0.00000000000E+00  0.86399191861E+03  0.86399191861E+03  0.00000000000E+00 0.  1.
         -2   -1    0    0    0  501 -0.00000000000E+00 -0.00000000000E+00 -0.57657361016E+03  0.57657361016E+03  0.00000000000E+00 0. -1.
         23    2    1    2    0    0 -0.14121839869E+03 -0.36125873441E+03 -0.45220872382E+02  0.40097456501E+03  0.91022882680E+02 0.  0.
        254    2    1    2    0    0  0.14121839869E+03  0.36125873441E+03  0.33263918083E+03  0.10395909638E+04  0.90534525900E+03 0.  0.
        -24    2    4    4    0    0  0.13078287588E+03 -0.24385751724E+03  0.31829392028E+03  0.42965877820E+03  0.82006076956E+02 0.  0.
         24    2    4    4    0    0  0.10435522813E+02  0.60511625165E+03  0.14345260552E+02  0.60993218556E+03  0.74410391281E+02 0.  0.
         11    1    3    3    0    0  0.83161093379E+00 -0.66947171279E+01 -0.16629093385E+02  0.17945405010E+02  0.00000000000E+00 0. -1.
        -11    1    3    3    0    0 -0.14205000963E+03 -0.35456401728E+03 -0.28591778997E+02  0.38302916000E+03  0.00000000000E+00 0.  1.
          2    1    6    6  502    0 -0.30415886004E+02  0.19783587164E+03 -0.39532849037E+01  0.20019936736E+03  0.00000000000E+00 0. -1.
          1    1    5    5  503    0  0.12774574666E+03 -0.16053078446E+03  0.23061451572E+03  0.30866189174E+03  0.00000000000E+00 0. -1.
         -2    1    5    5    0  503  0.30371292214E+01 -0.83326732783E+02  0.87679404557E+02  0.12099688646E+03  0.00000000000E+00 0.  1.
         -1    1    6    6    0  502  0.40851408818E+02  0.40728038001E+03  0.18298545456E+02  0.40973281820E+03  0.00000000000E+00 0.  1.
<mgrwt>
<rscale>  0 0.14116018E+04</rscale>
<asrwt>0</asrwt>
<pdfrwt beam="1">  1        2 0.13292183E+00 0.14116018E+04</pdfrwt>
<pdfrwt beam="2">  1       -2 0.88703632E-01 0.14116018E+04</pdfrwt>
<totfact> 0.32991535E+01</totfact>
</mgrwt>
</event>
<event>
12    1  0.1467288E-007  0.1747381E+04  0.7818608E-02  0.8734793E-01
          2   -1    0    0  501    0  0.00000000000E+00  0.00000000000E+00  0.23997125842E+04  0.23997125842E+04  0.00000000000E+00 0. -1.
         -2   -1    0    0    0  501 -0.00000000000E+00 -0.00000000000E+00 -0.31809450202E+03  0.31809450202E+03  0.00000000000E+00 0.  1.
         23    2    1    2    0    0 -0.46808702642E+03 -0.28874651206E+03  0.27311394632E+03  0.62078792839E+03  0.91139518519E+02 0.  0.
        254    2    1    2    0    0  0.46808702642E+03  0.28874651206E+03  0.18085041359E+04  0.20970191579E+04  0.90792187240E+03 0.  0.
        -24    2    4    4    0    0  0.15463656213E+03  0.11478977161E+03  0.17022805692E+04  0.17150367554E+04  0.80639803674E+02 0.  0.
         24    2    4    4    0    0  0.31345046429E+03  0.17395674045E+03  0.10622356667E+03  0.38198240248E+03  0.78198264546E+02 0.  0.
         11    1    3    3    0    0 -0.14936552747E+03 -0.53162857670E+02  0.51494819505E+02  0.16669753048E+03  0.00000000000E+00 0. -1.
        -11    1    3    3    0    0 -0.31872149895E+03 -0.23558365439E+03  0.22161912681E+03  0.45409039792E+03  0.00000000000E+00 0.  1.
          4    1    6    6  502    0  0.13523117121E+03  0.68698946681E+02  0.85108747445E+02  0.17392674847E+03  0.00000000000E+00 0. -1.
          3    1    5    5  503    0  0.78263181841E+01 -0.10676205816E+02  0.60143298133E+02  0.61582862366E+02  0.00000000000E+00 0. -1.
         -4    1    5    5    0  503  0.14681024395E+03  0.12546597742E+03  0.16421372711E+04  0.16534538930E+04  0.00000000000E+00 0.  1.
         -3    1    6    6    0  502  0.17821929308E+03  0.10525779377E+03  0.21114819223E+02  0.20805565401E+03  0.00000000000E+00 0.  1.
<mgrwt>
<rscale>  0 0.17473813E+04</rscale>
<asrwt>0</asrwt>
<pdfrwt beam="1">  1        2 0.36918654E+00 0.17473813E+04</pdfrwt>
<pdfrwt beam="2">  1       -2 0.48937617E-01 0.17473813E+04</pdfrwt>
<totfact> 0.14921397E+01</totfact>
</mgrwt>
</event>
<event>
12    1  0.1467288E-007  0.1983410E+04  0.7818608E-02  0.8614417E-01
          2   -1    0    0  501    0  0.00000000000E+00  0.00000000000E+00  0.25125616777E+04  0.25125616777E+04  0.00000000000E+00 0. -1.
         -2   -1    0    0    0  501 -0.00000000000E+00 -0.00000000000E+00 -0.39142471735E+03  0.39142471735E+03  0.00000000000E+00 0.  1.
         23    2    1    2    0    0  0.27882439585E+02 -0.78149226223E+03  0.86733956564E+03  0.11695899544E+04  0.64460474978E+02 0.  0.
        254    2    1    2    0    0 -0.27882439585E+02  0.78149226223E+03  0.12537973948E+04  0.17343964407E+04  0.90808343242E+03 0.  0.
        -24    2    4    4    0    0  0.73597071573E+02  0.15408374753E+02 -0.11611815756E+03  0.15953586443E+03  0.79462686635E+02 0.  0.
         24    2    4    4    0    0 -0.10147951116E+03  0.76608388747E+03  0.13699155523E+04  0.15748605763E+04  0.79590203884E+02 0.  0.
         13    1    3    3    0    0  0.38695841027E+02 -0.29358113608E+03  0.30762057625E+03  0.42698673341E+03  0.00000000000E+00 0. -1.
        -13    1    3    3    0    0 -0.10813401442E+02 -0.48791112615E+03  0.55971898939E+03  0.74260322094E+03  0.00000000000E+00 0.  1.
          4    1    6    6  502    0 -0.96857103483E+02  0.76237756360E+03  0.13671029552E+04  0.15683020558E+04  0.00000000000E+00 0. -1.
          1    1    5    5  503    0  0.44568501028E+02  0.32074862127E+02 -0.11334865976E+03  0.12594866706E+03  0.00000000000E+00 0. -1.
         -2    1    5    5    0  503  0.29028570545E+02 -0.16666487373E+02 -0.27694978017E+01  0.33587197372E+02  0.00000000000E+00 0.  1.
         -3    1    6    6    0  502 -0.46224076752E+01  0.37063238782E+01  0.28125970944E+01  0.65585205513E+01  0.00000000000E+00 0.  1.
<mgrwt>
<rscale>  0 0.19834099E+04</rscale>
<asrwt>0</asrwt>
<pdfrwt beam="1">  1        2 0.38654794E+00 0.19834099E+04</pdfrwt>
<pdfrwt beam="2">  1       -2 0.60219189E-01 0.19834099E+04</pdfrwt>
<totfact> 0.81895631E+00</totfact>
</mgrwt>
</event>
<event>
12    1  0.1467288E-007  0.2576531E+04  0.7818608E-02  0.8376217E-01
          1   -1    0    0  501    0  0.00000000000E+00  0.00000000000E+00  0.10325353900E+04  0.10325353900E+04  0.00000000000E+00 0. -1.
         -1   -1    0    0    0  501 -0.00000000000E+00 -0.00000000000E+00 -0.16073321848E+04  0.16073321848E+04  0.00000000000E+00 0.  1.
         23    2    1    2    0    0  0.99900009081E+03 -0.48619890480E+03 -0.44407568586E+03  0.11999538477E+04  0.91079445769E+02 0.  0.
        254    2    1    2    0    0 -0.99900009081E+03  0.48619890480E+03 -0.13072110892E+03  0.14399137271E+04  0.90657210232E+03 0.  0.
        -24    2    4    4    0    0 -0.10959870451E+04  0.49194804077E+03 -0.28899293211E+03  0.12381741464E+04  0.79735964388E+02 0.  0.
         24    2    4    4    0    0  0.96986954315E+02 -0.57491359641E+01  0.15827182318E+03  0.20173958073E+03  0.78799533943E+02 0.  0.
         13    1    3    3    0    0  0.98438057271E+03 -0.48090430694E+03 -0.42445603001E+03  0.11749199912E+04  0.00000000000E+00 0.  1.
        -13    1    3    3    0    0  0.14619518103E+02 -0.52945978621E+01 -0.19619655851E+02  0.25033856510E+02  0.00000000000E+00 0. -1.
          2    1    6    6  502    0  0.43825466337E+02  0.18713769365E+02  0.12644101347E+03  0.13512293125E+03  0.00000000000E+00 0. -1.
          3    1    5    5  503    0 -0.73398990336E+02  0.39873161606E+02 -0.65480296617E+00  0.83532685613E+02  0.00000000000E+00 0. -1.
         -4    1    5    5    0  503 -0.10225880548E+04  0.45207487916E+03 -0.28833812914E+03  0.11546414608E+04  0.00000000000E+00 0.  1.
         -3    1    6    6    0  502  0.53161487978E+02 -0.24462905329E+02  0.31830809717E+02  0.66616649484E+02  0.00000000000E+00 0.  1.
<mgrwt>
<rscale>  0 0.25765305E+04</rscale>
<asrwt>0</asrwt>
<pdfrwt beam="1">  1        1 0.15885160E+00 0.25765305E+04</pdfrwt>
<pdfrwt beam="2">  1       -1 0.24728187E+00 0.25765305E+04</pdfrwt>
<totfact> 0.91497441E-01</totfact>
</mgrwt>
</event>
<event>
12    1  0.1467288E-007  0.2425738E+04  0.7818608E-02  0.8429930E-01
         -1   -1    0    0    0  501 -0.00000000000E+00  0.00000000000E+00  0.11870043290E+04  0.11870043290E+04  0.00000000000E+00 0.  1.
          1   -1    0    0  501    0  0.00000000000E+00 -0.00000000000E+00 -0.12392973321E+04  0.12392973321E+04  0.00000000000E+00 0. -1.
         23    2    1    2    0    0  0.91394961619E+03  0.32157696365E+03  0.35917011314E+03  0.10372974700E+04  0.90924290292E+02 0.  0.
        254    2    1    2    0    0 -0.91394961619E+03 -0.32157696365E+03 -0.41146311629E+03  0.13890041911E+04  0.90626436676E+03 0.  0.
        -24    2    4    4    0    0 -0.24113114871E+03  0.19121982720E+03  0.16897601283E+03  0.35992026821E+03  0.79249311458E+02 0.  0.
         24    2    4    4    0    0 -0.67281846748E+03 -0.51279679085E+03 -0.58043912912E+03  0.10290839229E+04  0.80367275134E+02 0.  0.
         13    1    3    3    0    0  0.58789851469E+03  0.24194579621E+03  0.26451265223E+03  0.68857053021E+03  0.00000000000E+00 0. -1.
        -13    1    3    3    0    0  0.32605110150E+03  0.79631167445E+02  0.94657460910E+02  0.34872693977E+03  0.00000000000E+00 0.  1.
          4    1    6    6  502    0 -0.42158600849E+02 -0.29777537571E+02 -0.14143054690E+02  0.53517056770E+02  0.00000000000E+00 0. -1.
          3    1    5    5  503    0 -0.36053858270E+02 -0.17397143416E+01  0.16264431485E+02  0.39590895844E+02  0.00000000000E+00 0. -1.
         -4    1    5    5    0  503 -0.20507729044E+03  0.19295954154E+03  0.15271158135E+03  0.32032937237E+03  0.00000000000E+00 0.  1.
         -3    1    6    6    0  502 -0.63065986663E+03 -0.48301925328E+03 -0.56629607443E+03  0.97556686616E+03  0.00000000000E+00 0.  1.
<mgrwt>
<rscale>  0 0.24257381E+04</rscale>
<asrwt>0</asrwt>
<pdfrwt beam="1">  1        1 0.19066113E+00 0.24257381E+04</pdfrwt>
<pdfrwt beam="2">  1       -1 0.18261605E+00 0.24257381E+04</pdfrwt>
<totfact> 0.17829190E+00</totfact>
</mgrwt>
</event>
<event>
12    1  0.1467288E-007  0.1586689E+04  0.7818608E-02  0.8828767E-01
          1   -1    0    0  501    0  0.00000000000E+00  0.00000000000E+00  0.20344511166E+04  0.20344511166E+04  0.00000000000E+00 0. -1.
         -1   -1    0    0    0  501 -0.00000000000E+00 -0.00000000000E+00 -0.30936869932E+03  0.30936869932E+03  0.00000000000E+00 0.  1.
         23    2    1    2    0    0  0.34039472816E+02 -0.20011294440E+02  0.14555568608E+04  0.14590099249E+04  0.92222818538E+02 0.  0.
        254    2    1    2    0    0 -0.34039472816E+02  0.20011294440E+02  0.26952555651E+03  0.88480989107E+03  0.84183453250E+03 0.  0.
        -24    2    4    4    0    0  0.78385373499E+02  0.40174318907E+03  0.23165319449E+03  0.47709989098E+03  0.80120201647E+02 0.  0.
         24    2    4    4    0    0 -0.11242484631E+03 -0.38173189463E+03  0.37872362022E+02  0.40771000009E+03  0.80215602741E+02 0.  0.
         11    1    3    3    0    0  0.62677337014E+02 -0.94948337772E+01  0.11936670475E+04  0.11953491627E+04  0.00000000000E+00 0. -1.
        -11    1    3    3    0    0 -0.28637864198E+02 -0.10516460663E+02  0.26188981332E+03  0.26366076222E+03  0.00000000000E+00 0.  1.
          2    1    6    6  502    0  0.10879316184E+02 -0.23508638381E+02  0.10234799549E+02  0.27852589125E+02  0.00000000000E+00 0. -1.
          3    1    5    5  503    0  0.31912237682E+02  0.13460410693E+03  0.36643861703E+02  0.14310635596E+03  0.00000000000E+00 0. -1.
         -4    1    5    5    0  503  0.46473135817E+02  0.26713908214E+03  0.19500933278E+03  0.33399353502E+03  0.00000000000E+00 0.  1.
         -1    1    6    6    0  502 -0.12330416250E+03 -0.35822325625E+03  0.27637562473E+02  0.37985741097E+03  0.00000000000E+00 0.  1.
<mgrwt>
<rscale>  0 0.15866890E+04</rscale>
<asrwt>0</asrwt>
<pdfrwt beam="1">  1        1 0.31299247E+00 0.15866890E+04</pdfrwt>
<pdfrwt beam="2">  1       -1 0.47595186E-01 0.15866890E+04</pdfrwt>
<totfact> 0.11961340E+01</totfact>
</mgrwt>
</event>
<event>
12    1  0.1921479E-007  0.1191338E+04  0.7818608E-02  0.9120473E-01
         -2   -1    0    0    0  501 -0.00000000000E+00  0.00000000000E+00  0.28685462124E+03  0.28685462124E+03  0.00000000000E+00 0.  1.
          2   -1    0    0  501    0  0.00000000000E+00 -0.00000000000E+00 -0.12369378794E+04  0.12369378794E+04  0.00000000000E+00 0. -1.
         23    2    1    2    0    0  0.10625382279E+03  0.59727987099E+02  0.71563957094E+02  0.16791244988E+03  0.90641511288E+02 0.  0.
        254    2    1    2    0    0 -0.10625382279E+03 -0.59727987099E+02 -0.10216472152E+04  0.13558800508E+04  0.88305740036E+03 0.  0.
        -24    2    4    4    0    0  0.36950840625E+03  0.42551358962E+02 -0.58225061791E+03  0.69556601437E+03  0.80307022413E+02 0.  0.
         24    2    4    4    0    0 -0.47576222904E+03 -0.10227934606E+03 -0.43939659732E+03  0.66031403638E+03  0.78323008704E+02 0.  0.
         13    1    3    3    0    0  0.16933229757E+02  0.17143460693E+02 -0.21335998091E+02  0.32184737518E+02  0.00000000000E+00 0. -1.
        -13    1    3    3    0    0  0.89320593033E+02  0.42584526406E+02  0.92899955185E+02  0.13572771236E+03  0.00000000000E+00 0.  1.
          2    1    6    6  502    0 -0.44733662321E+03 -0.11479223316E+03 -0.41087564857E+03  0.61814732051E+03  0.00000000000E+00 0. -1.
          1    1    5    5  503    0  0.36121985222E+03  0.28216383442E+02 -0.56799209960E+03  0.67371430973E+03  0.00000000000E+00 0. -1.
         -2    1    5    5    0  503  0.82885540309E+01  0.14334975520E+02 -0.14258518314E+02  0.21851704638E+02  0.00000000000E+00 0.  1.
         -1    1    6    6    0  502 -0.28425605829E+02  0.12512887094E+02 -0.28520948752E+02  0.42166715877E+02  0.00000000000E+00 0.  1.
<mgrwt>
<rscale>  0 0.11913376E+04</rscale>
<asrwt>0</asrwt>
<pdfrwt beam="1">  1        2 0.19029814E+00 0.11913376E+04</pdfrwt>
<pdfrwt beam="2">  1       -2 0.44131480E-01 0.11913376E+04</pdfrwt>
<totfact> 0.86514332E+01</totfact>
</mgrwt>
</event>
<event>
12    1  0.1467288E-007  0.1416766E+04  0.7818608E-02  0.8941771E-01
         -2   -1    0    0    0  501 -0.00000000000E+00  0.00000000000E+00  0.27490105421E+03  0.27490105421E+03  0.00000000000E+00 0.  1.
          2   -1    0    0  501    0  0.00000000000E+00 -0.00000000000E+00 -0.18254087397E+04  0.18254087397E+04  0.00000000000E+00 0. -1.
         23    2    1    2    0    0 -0.35306010817E+03 -0.10774969916E+03 -0.78428249593E+03  0.87164818913E+03  0.91706567613E+02 0.  0.
        254    2    1    2    0    0  0.35306010817E+03  0.10774969916E+03 -0.76622518960E+03  0.12286616048E+04  0.88670562213E+03 0.  0.
        -24    2    4    4    0    0  0.40949391021E+03 -0.31696566792E+03 -0.43203974246E+03  0.67904602922E+03  0.79326373893E+02 0.  0.
         24    2    4    4    0    0 -0.56433802046E+02  0.42471536709E+03 -0.33418544714E+03  0.54961557559E+03  0.82640491266E+02 0.  0.
         11    1    3    3    0    0 -0.29856338347E+03 -0.55892420032E+02 -0.59723529661E+03  0.67004033914E+03  0.00000000000E+00 0. -1.
        -11    1    3    3    0    0 -0.54496724693E+02 -0.51857279130E+02 -0.18704719932E+03  0.20160784998E+03  0.00000000000E+00 0.  1.
          2    1    6    6  502    0  0.66914513513E+01  0.19345615813E+03 -0.11727147453E+03  0.22632423506E+03  0.00000000000E+00 0. -1.
          1    1    5    5  503    0  0.52859832410E+01 -0.20913234559E+02 -0.28332291660E+02  0.35609321101E+02  0.00000000000E+00 0. -1.
         -2    1    5    5    0  503  0.40420792697E+03 -0.29605243337E+03 -0.40370745080E+03  0.64343670812E+03  0.00000000000E+00 0.  1.
         -1    1    6    6    0  502 -0.63125253398E+02  0.23125920896E+03 -0.21691397261E+03  0.32329134053E+03  0.00000000000E+00 0.  1.
<mgrwt>
<rscale>  0 0.14167664E+04</rscale>
<asrwt>0</asrwt>
<pdfrwt beam="1">  1        2 0.28083212E+00 0.14167664E+04</pdfrwt>
<pdfrwt beam="2">  1       -2 0.42292468E-01 0.14167664E+04</pdfrwt>
<totfact> 0.43034175E+01</totfact>
</mgrwt>
</event>
<event>
12    1  0.1467288E-007  0.1380317E+04  0.7818608E-02  0.8968191E-01
         -1   -1    0    0    0  501 -0.00000000000E+00  0.00000000000E+00  0.35740738057E+03  0.35740738057E+03  0.00000000000E+00 0.  1.
          1   -1    0    0  501    0  0.00000000000E+00 -0.00000000000E+00 -0.13327048464E+04  0.13327048464E+04  0.00000000000E+00 0. -1.
         23    2    1    2    0    0  0.30605104661E+03  0.23381053265E+03 -0.28749959625E+03  0.48963416293E+03  0.93546712161E+02 0.  0.
        254    2    1    2    0    0 -0.30605104661E+03 -0.23381053265E+03 -0.68779786957E+03  0.12004780640E+04  0.90539884280E+03 0.  0.
        -24    2    4    4    0    0 -0.42905885012E+03  0.69631766100E+02 -0.82228887595E+01  0.44189700606E+03  0.79153448107E+02 0.  0.
         24    2    4    4    0    0  0.12300780351E+03 -0.30344229875E+03 -0.67957498081E+03  0.75858105797E+03  0.80093186845E+02 0.  0.
         11    1    3    3    0    0  0.47002716006E+02  0.14251851320E+01 -0.47879586955E+02  0.67109919622E+02  0.00000000000E+00 0. -1.
        -11    1    3    3    0    0  0.25904833061E+03  0.23238534752E+03 -0.23962000929E+03  0.42252424331E+03  0.00000000000E+00 0.  1.
          2    1    6    6  502    0  0.62473491243E+02 -0.21495644052E+03 -0.38831883351E+03  0.44821950525E+03  0.00000000000E+00 0. -1.
          3    1    5    5  503    0 -0.43176663805E+03  0.70431830311E+02 -0.48527689774E+01  0.43750042494E+03  0.00000000000E+00 0. -1.
         -4    1    5    5    0  503  0.27077879291E+01 -0.80006421148E+00 -0.33701197820E+01  0.43965811213E+01  0.00000000000E+00 0.  1.
         -1    1    6    6    0  502  0.60534312268E+02 -0.88485858231E+02 -0.29125614730E+03  0.31036155273E+03  0.00000000000E+00 0.  1.
<mgrwt>
<rscale>  0 0.13803167E+04</rscale>
<asrwt>0</asrwt>
<pdfrwt beam="1">  1        1 0.20503152E+00 0.13803167E+04</pdfrwt>
<pdfrwt beam="2">  1       -1 0.54985750E-01 0.13803167E+04</pdfrwt>
<totfact> 0.27980762E+01</totfact>
</mgrwt>
</event>
<event>
12    1  0.1467288E-007  0.2260611E+04  0.7818608E-02  0.8493616E-01
         -2   -1    0    0    0  501 -0.00000000000E+00  0.00000000000E+00  0.61061231112E+03  0.61061231112E+03  0.00000000000E+00 0.  1.
          2   -1    0    0  501    0  0.00000000000E+00 -0.00000000000E+00 -0.20923096847E+04  0.20923096847E+04  0.00000000000E+00 0. -1.
         23    2    1    2    0    0  0.55419741095E+03  0.72547692749E+03 -0.96447768343E+03  0.13309483782E+04  0.88061575132E+02 0.  0.
        254    2    1    2    0    0 -0.55419741095E+03 -0.72547692749E+03 -0.51721969011E+03  0.13719736176E+04  0.88393656833E+03 0.  0.
        -24    2    4    4    0    0 -0.40816039082E+03  0.68131996838E+02 -0.34076602073E+03  0.54208828428E+03  0.80630970752E+02 0.  0.
         24    2    4    4    0    0 -0.14603702013E+03 -0.79360892433E+03 -0.17645366938E+03  0.82988533329E+03  0.80198709071E+02 0.  0.
         11    1    3    3    0    0 -0.19555767573E+01  0.13786235482E+02 -0.13423199262E+02  0.19340807834E+02  0.00000000000E+00 0.  1.
        -11    1    3    3    0    0  0.55615298771E+03  0.71169069201E+03 -0.95105448417E+03  0.13116075704E+04  0.00000000000E+00 0. -1.
          4    1    6    6  502    0 -0.14042198258E+03 -0.61386130749E+03 -0.15705225007E+03  0.64900650789E+03  0.00000000000E+00 0. -1.
          1    1    5    5  503    0 -0.41143489756E+03  0.69978645448E+02 -0.33986394512E+03  0.53822224679E+03  0.00000000000E+00 0. -1.
         -2    1    5    5    0  503  0.32745067411E+01 -0.18466486100E+01 -0.90207561669E+00  0.38660374940E+01  0.00000000000E+00 0.  1.
         -3    1    6    6    0  502 -0.56150375498E+01 -0.17974761684E+03 -0.19401419312E+02  0.18087882540E+03  0.00000000000E+00 0.  1.
<mgrwt>
<rscale>  0 0.22606106E+04</rscale>
<asrwt>0</asrwt>
<pdfrwt beam="1">  1        2 0.32189380E+00 0.22606106E+04</pdfrwt>
<pdfrwt beam="2">  1       -2 0.93940355E-01 0.22606106E+04</pdfrwt>
<totfact> 0.51634468E+00</totfact>
</mgrwt>
</event>
<event>
12    1  0.1467288E-007  0.1219822E+04  0.7818608E-02  0.9095681E-01
         -2   -1    0    0    0  501 -0.00000000000E+00  0.00000000000E+00  0.20923266489E+03  0.20923266489E+03  0.00000000000E+00 0. -1.
          2   -1    0    0  501    0  0.00000000000E+00 -0.00000000000E+00 -0.17778830216E+04  0.17778830216E+04  0.00000000000E+00 0.  1.
         23    2    1    2    0    0 -0.16759428195E+03 -0.12689951117E+03 -0.10121897107E+03  0.25030454178E+03  0.90640797966E+02 0.  0.
        254    2    1    2    0    0  0.16759428195E+03  0.12689951117E+03 -0.14674313856E+04  0.17368111447E+04  0.90496781798E+03 0.  0.
        -24    2    4    4    0    0  0.25754095706E+03  0.48335637836E+03 -0.86784751188E+03  0.10289969308E+04  0.75595282114E+02 0.  0.
         24    2    4    4    0    0 -0.89946675116E+02 -0.35645686719E+03 -0.59958387374E+03  0.70781421389E+03  0.79675825707E+02 0.  0.
         11    1    3    3    0    0 -0.16095942954E+03 -0.85443468160E+02 -0.61014491481E+02  0.19217516068E+03  0.00000000000E+00 0. -1.
        -11    1    3    3    0    0 -0.66348524008E+01 -0.41456043010E+02 -0.40204479593E+02  0.58129381106E+02  0.00000000000E+00 0.  1.
          4    1    6    6  502    0 -0.40427942459E+02 -0.47478842327E+02 -0.11866780586E+03  0.13405486619E+03  0.00000000000E+00 0. -1.
          3    1    5    5  503    0  0.74674201403E+01  0.50659394845E+01 -0.38135836654E+02  0.39188877806E+02  0.00000000000E+00 0. -1.
         -4    1    5    5    0  503  0.25007353692E+03  0.47829043888E+03 -0.82971167523E+03  0.98980805301E+03  0.00000000000E+00 0.  1.
         -3    1    6    6    0  502 -0.49518732657E+02 -0.30897802486E+03 -0.48091606788E+03  0.57375934770E+03  0.00000000000E+00 0.  1.
<mgrwt>
<rscale>  0 0.12198216E+04</rscale>
<asrwt>0</asrwt>
<pdfrwt beam="1">  1        2 0.27352046E+00 0.12198216E+04</pdfrwt>
<pdfrwt beam="2">  1       -2 0.32189641E-01 0.12198216E+04</pdfrwt>
<totfact> 0.78587473E+01</totfact>
</mgrwt>
</event>
<event>
12    1  0.1467288E-007  0.1243476E+04  0.7818608E-02  0.9075631E-01
          2   -1    0    0  501    0  0.00000000000E+00  0.00000000000E+00  0.49111361169E+03  0.49111361169E+03  0.00000000000E+00 0. -1.
         -2   -1    0    0    0  501 -0.00000000000E+00 -0.00000000000E+00 -0.78710534405E+03  0.78710534405E+03  0.00000000000E+00 0.  1.
         23    2    1    2    0    0  0.17267592574E+03  0.72237197818E+02 -0.29635207232E+03  0.36156431516E+03  0.88707469545E+02 0.  0.
        254    2    1    2    0    0 -0.17267592574E+03 -0.72237197818E+02  0.36033996380E+00  0.91665464057E+03  0.89734074474E+03 0.  0.
        -24    2    4    4    0    0 -0.12637491522E+03  0.67310982807E+02 -0.42734728093E+03  0.45805740055E+03  0.81789339596E+02 0.  0.
         24    2    4    4    0    0 -0.46301010517E+02 -0.13954818063E+03  0.42770762089E+03  0.45859724003E+03  0.75895594732E+02 0.  0.
         11    1    3    3    0    0  0.14741200916E+03  0.67453565827E+02 -0.17929615128E+03  0.24171759111E+03  0.00000000000E+00 0.  1.
        -11    1    3    3    0    0  0.25263916577E+02  0.47836319910E+01 -0.11705592104E+03  0.11984672406E+03  0.00000000000E+00 0. -1.
          2    1    6    6  502    0 -0.34320906280E+01 -0.11068691798E+03  0.32967289327E+03  0.34777519983E+03  0.00000000000E+00 0. -1.
          1    1    5    5  503    0 -0.61466407128E+02 -0.30615945159E+01 -0.10409995540E+03  0.12093094426E+03  0.00000000000E+00 0. -1.
         -2    1    5    5    0  503 -0.64908508095E+02  0.70372577323E+02 -0.32324732553E+03  0.33712645629E+03  0.00000000000E+00 0.  1.
         -1    1    6    6    0  502 -0.42868919889E+02 -0.28861262647E+02  0.98034727624E+02  0.11082204020E+03  0.00000000000E+00 0.  1.
<mgrwt>
<rscale>  0 0.12434760E+04</rscale>
<asrwt>0</asrwt>
<pdfrwt beam="1">  1        2 0.75555942E-01 0.12434760E+04</pdfrwt>
<pdfrwt beam="2">  1       -2 0.12109313E+00 0.12434760E+04</pdfrwt>
<totfact> 0.32107265E+01</totfact>
</mgrwt>
</event>
<event>
12    1  0.1467288E-007  0.1814482E+04  0.7818608E-02  0.8698636E-01
         -2   -1    0    0    0  501 -0.00000000000E+00  0.00000000000E+00  0.62287306730E+03  0.62287306730E+03  0.00000000000E+00 0.  1.
          2   -1    0    0  501    0  0.00000000000E+00 -0.00000000000E+00 -0.13214347961E+04  0.13214347961E+04  0.00000000000E+00 0. -1.
         23    2    1    2    0    0 -0.64258098514E+03 -0.78597807955E+02 -0.46390788242E+02  0.65485819871E+03  0.87173489716E+02 0.  0.
        254    2    1    2    0    0  0.64258098514E+03  0.78597807955E+02 -0.65217094057E+03  0.12894496647E+04  0.90458032491E+03 0.  0.
        -24    2    4    4    0    0  0.15641867033E+03 -0.29297003540E+03 -0.57464797046E+03  0.66806581284E+03  0.76114376126E+02 0.  0.
         24    2    4    4    0    0  0.48616231480E+03  0.37156784336E+03 -0.77522970111E+02  0.62138385187E+03  0.75442838755E+02 0.  0.
         11    1    3    3    0    0 -0.96329312215E+02  0.61434387927E+01 -0.32664542259E+02  0.10190216167E+03  0.00000000000E+00 0. -1.
        -11    1    3    3    0    0 -0.54625167292E+03 -0.84741246748E+02 -0.13726245983E+02  0.55295603704E+03  0.00000000000E+00 0.  1.
          2    1    6    6  502    0  0.31117929325E+03  0.25733493014E+03 -0.18428804877E+02  0.40421954390E+03  0.00000000000E+00 0. -1.
          3    1    5    5  503    0  0.99901551406E+02 -0.14530116139E+03 -0.36612893294E+03  0.40637807890E+03  0.00000000000E+00 0. -1.
         -4    1    5    5    0  503  0.56517118926E+02 -0.14766887401E+03 -0.20851903752E+03  0.26168773394E+03  0.00000000000E+00 0.  1.
         -1    1    6    6    0  502  0.17498302155E+03  0.11423291322E+03 -0.59094165234E+02  0.21716430797E+03  0.00000000000E+00 0.  1.
<mgrwt>
<rscale>  0 0.18144819E+04</rscale>
<asrwt>0</asrwt>
<pdfrwt beam="1">  1        2 0.20329766E+00 0.18144819E+04</pdfrwt>
<pdfrwt beam="2">  1       -2 0.95826626E-01 0.18144819E+04</pdfrwt>
<totfact> 0.13835458E+01</totfact>
</mgrwt>
</event>
<event>
12    1  0.1467288E-007  0.1695236E+04  0.7818608E-02  0.8764086E-01
         -2   -1    0    0    0  501 -0.00000000000E+00  0.00000000000E+00  0.67463386687E+03  0.67463386687E+03  0.00000000000E+00 0.  1.
          2   -1    0    0  501    0  0.00000000000E+00 -0.00000000000E+00 -0.10649572975E+04  0.10649572975E+04  0.00000000000E+00 0. -1.
         23    2    1    2    0    0  0.21997020001E+03  0.39231715368E+03 -0.55929945334E+03  0.72325691542E+03  0.89359102755E+02 0.  0.
        254    2    1    2    0    0 -0.21997020001E+03 -0.39231715368E+03  0.16897602274E+03  0.10163342489E+04  0.89559073873E+03 0.  0.
        -24    2    4    4    0    0  0.90909750038E+01 -0.16278754179E+03  0.50867080087E+03  0.54011398308E+03  0.79966877364E+02 0.  0.
         24    2    4    4    0    0 -0.22906117501E+03 -0.22952961190E+03 -0.33969477813E+03  0.47622026583E+03  0.78995788945E+02 0.  0.
         11    1    3    3    0    0  0.33604999335E+02  0.14413589967E+03 -0.19072599530E+03  0.24141428880E+03  0.00000000000E+00 0.  1.
        -11    1    3    3    0    0  0.18636520067E+03  0.24818125401E+03 -0.36857345804E+03  0.48184262663E+03  0.00000000000E+00 0. -1.
          2    1    6    6  502    0 -0.18033763626E+03 -0.20357727973E+03 -0.31377148967E+03  0.41523236820E+03  0.00000000000E+00 0. -1.
          1    1    5    5  503    0  0.30001067514E+02 -0.15359720938E+03  0.41048178399E+03  0.43930338238E+03  0.00000000000E+00 0. -1.
         -2    1    5    5    0  503 -0.20910092510E+02 -0.91903324093E+01  0.98189016878E+02  0.10081060070E+03  0.00000000000E+00 0.  1.
         -1    1    6    6    0  502 -0.48723538749E+02 -0.25952332164E+02 -0.25923288459E+02  0.60987897631E+02  0.00000000000E+00 0.  1.
<mgrwt>
<rscale>  0 0.16952360E+04</rscale>
<asrwt>0</asrwt>
<pdfrwt beam="1">  1        2 0.16383958E+00 0.16952360E+04</pdfrwt>
<pdfrwt beam="2">  1       -2 0.10378983E+00 0.16952360E+04</pdfrwt>
<totfact> 0.16484105E+01</totfact>
</mgrwt>
</event>
<event>
12    1  0.1467288E-007  0.1768021E+04  0.7818608E-02  0.8723493E-01
         -1   -1    0    0    0  501 -0.00000000000E+00  0.00000000000E+00  0.66301246630E+03  0.66301246630E+03  0.00000000000E+00 0.  1.
          1   -1    0    0  501    0  0.00000000000E+00 -0.00000000000E+00 -0.11786721330E+04  0.11786721330E+04  0.00000000000E+00 0. -1.
         23    2    1    2    0    0  0.51260142178E+03  0.21963603639E+03  0.17666344286E+03  0.59181946209E+03  0.89666591175E+02 0.  0.
        254    2    1    2    0    0 -0.51260142178E+03 -0.21963603639E+03 -0.69232310957E+03  0.12498651372E+04  0.87855071972E+03 0.  0.
        -24    2    4    4    0    0  0.21176306286E+02 -0.29352901941E+03 -0.63162708186E+03  0.70154767300E+03  0.81293577710E+02 0.  0.
         24    2    4    4    0    0 -0.53377772806E+03  0.73892983019E+02 -0.60696027711E+02  0.54831746423E+03  0.81173874359E+02 0.  0.
         13    1    3    3    0    0  0.48266856492E+03  0.18007761631E+03  0.16362796336E+03  0.54052844685E+03  0.00000000000E+00 0.  1.
        -13    1    3    3    0    0  0.29932856860E+02  0.39558420075E+02  0.13035479501E+02  0.51291015241E+02  0.00000000000E+00 0. -1.
          2    1    6    6  502    0 -0.63209440666E+02  0.32792886927E+02  0.51252883840E+01  0.71393805077E+02  0.00000000000E+00 0. -1.
          3    1    5    5  503    0 -0.83083358941E+00 -0.99828328677E+01 -0.82861506608E+02  0.83464822014E+02  0.00000000000E+00 0. -1.
         -4    1    5    5    0  503  0.22007139876E+02 -0.28354618654E+03 -0.54876557525E+03  0.61808285099E+03  0.00000000000E+00 0.  1.
         -1    1    6    6    0  502 -0.47056828740E+03  0.41100096092E+02 -0.65821316094E+02  0.47692365915E+03  0.00000000000E+00 0.  1.
<mgrwt>
<rscale>  0 0.17680207E+04</rscale>
<asrwt>0</asrwt>
<pdfrwt beam="1">  1        1 0.18133418E+00 0.17680207E+04</pdfrwt>
<pdfrwt beam="2">  1       -1 0.10200192E+00 0.17680207E+04</pdfrwt>
<totfact> 0.95458179E+00</totfact>
</mgrwt>
</event>
<event>
12    1  0.1467288E-007  0.1402865E+04  0.7818608E-02  0.8951747E-01
          2   -1    0    0  501    0  0.00000000000E+00  0.00000000000E+00  0.61714539504E+03  0.61714539504E+03  0.00000000000E+00 0. -1.
         -2   -1    0    0    0  501 -0.00000000000E+00 -0.00000000000E+00 -0.79723115479E+03  0.79723115479E+03  0.00000000000E+00 0.  1.
         23    2    1    2    0    0  0.94490274448E+02 -0.39205822718E+03  0.91109472308E+00  0.41380887470E+03  0.92730195824E+02 0.  0.
        254    2    1    2    0    0 -0.94490274448E+02  0.39205822718E+03 -0.18099685447E+03  0.10005676751E+04  0.89762895771E+03 0.  0.
        -24    2    4    4    0    0 -0.25058080874E+03  0.29966833813E+03 -0.49019017155E+03  0.63186236400E+03  0.79823481308E+02 0.  0.
         24    2    4    4    0    0  0.15609053429E+03  0.92389889048E+02  0.30919331708E+03  0.36870531113E+03  0.86272548532E+02 0.  0.
         13    1    3    3    0    0  0.10295916762E+03 -0.35583616176E+03 -0.20299181347E+02  0.37098789870E+03  0.00000000000E+00 0. -1.
        -13    1    3    3    0    0 -0.84688931694E+01 -0.36222065417E+02  0.21210276070E+02  0.42820976000E+02  0.00000000000E+00 0.  1.
          4    1    6    6  502    0  0.28512609594E+02  0.18489468130E+02  0.14100986135E+03  0.14504692460E+03  0.00000000000E+00 0. -1.
          3    1    5    5  503    0  0.50532866818E+00 -0.35977968376E+01 -0.11481250925E+02  0.12042367789E+02  0.00000000000E+00 0. -1.
         -4    1    5    5    0  503 -0.25108613741E+03  0.30326613497E+03 -0.47870892063E+03  0.61981999621E+03  0.00000000000E+00 0.  1.
         -3    1    6    6    0  502  0.12757792470E+03  0.73900420918E+02  0.16818345573E+03  0.22365838653E+03  0.00000000000E+00 0.  1.
<mgrwt>
<rscale>  0 0.14028650E+04</rscale>
<asrwt>0</asrwt>
<pdfrwt beam="1">  1        2 0.94945445E-01 0.14028650E+04</pdfrwt>
<pdfrwt beam="2">  1       -2 0.12265095E+00 0.14028650E+04</pdfrwt>
<totfact> 0.23444327E+01</totfact>
</mgrwt>
</event>
<event>
12    1  0.1467288E-007  0.1516652E+04  0.7818608E-02  0.8873454E-01
         -2   -1    0    0    0  501 -0.00000000000E+00  0.00000000000E+00  0.53580850336E+03  0.53580850336E+03  0.00000000000E+00 0.  1.
          2   -1    0    0  501    0  0.00000000000E+00 -0.00000000000E+00 -0.10732537657E+04  0.10732537657E+04  0.00000000000E+00 0. -1.
         23    2    1    2    0    0 -0.25545026009E+03 -0.37474456106E+03 -0.10755525986E+01  0.46252221201E+03  0.90759673684E+02 0.  0.
        254    2    1    2    0    0  0.25545026009E+03  0.37474456106E+03 -0.53636970974E+03  0.11465400570E+04  0.90618613730E+03 0.  0.
        -24    2    4    4    0    0  0.19004479390E+03 -0.79766816653E+02 -0.63305176173E+03  0.67053668302E+03  0.79907080492E+02 0.  0.
         24    2    4    4    0    0  0.65405466190E+02  0.45451137771E+03  0.96682051999E+02  0.47600337401E+03  0.79833109757E+02 0.  0.
         13    1    3    3    0    0 -0.63659298271E+01 -0.63736141185E+02  0.85406802611E+00  0.64058958686E+02  0.00000000000E+00 0. -1.
        -13    1    3    3    0    0 -0.24908433026E+03 -0.31100841988E+03 -0.19296206247E+01  0.39846325333E+03  0.00000000000E+00 0.  1.
          4    1    6    6  502    0  0.11654006694E+02  0.17779447109E+02  0.20303456794E+02  0.29396512877E+02  0.00000000000E+00 0. -1.
          1    1    5    5  503    0  0.14830076733E+03 -0.24540740687E+02 -0.46822384984E+03  0.49176105895E+03  0.00000000000E+00 0. -1.
         -2    1    5    5    0  503  0.41744026571E+02 -0.55226075966E+02 -0.16482791190E+03  0.17877562407E+03  0.00000000000E+00 0.  1.
         -3    1    6    6    0  502  0.53751459496E+02  0.43673193061E+03  0.76378595205E+02  0.44660686114E+03  0.00000000000E+00 0.  1.
<mgrwt>
<rscale>  0 0.15166522E+04</rscale>
<asrwt>0</asrwt>
<pdfrwt beam="1">  1        2 0.16511596E+00 0.15166522E+04</pdfrwt>
<pdfrwt beam="2">  1       -2 0.82432078E-01 0.15166522E+04</pdfrwt>
<totfact> 0.28224721E+01</totfact>
</mgrwt>
</event>
<event>
12    1  0.1467288E-007  0.3817609E+04  0.7818608E-02  0.8042387E-01
          2   -1    0    0  501    0  0.00000000000E+00  0.00000000000E+00  0.25441072589E+04  0.25441072589E+04  0.00000000000E+00 0. -1.
         -2   -1    0    0    0  501 -0.00000000000E+00 -0.00000000000E+00 -0.14321462645E+04  0.14321462645E+04  0.00000000000E+00 0.  1.
         23    2    1    2    0    0 -0.14036381991E+04 -0.94672021082E+03 -0.11704179786E+03  0.17005462855E+04  0.10807189829E+03 0.  0.
        254    2    1    2    0    0  0.14036381991E+04  0.94672021082E+03  0.12290027922E+04  0.22757072379E+04  0.89549774850E+03 0.  0.
        -24    2    4    4    0    0  0.95393320197E+03  0.32811598408E+03  0.27161266829E+03  0.10477362862E+04  0.79556463661E+02 0.  0.
         24    2    4    4    0    0  0.44970499716E+03  0.61860422674E+03  0.95739012391E+03  0.12279709517E+04  0.80068939496E+02 0.  0.
         13    1    3    3    0    0 -0.13477716675E+03 -0.12878587396E+03 -0.57337274617E+00  0.18641624061E+03  0.00000000000E+00 0. -1.
        -13    1    3    3    0    0 -0.12688610324E+04 -0.81793433686E+03 -0.11646842512E+03  0.15141300449E+04  0.00000000000E+00 0.  1.
          2    1    6    6  502    0  0.27584686016E+03  0.31992534760E+03  0.55683054516E+03  0.69893059335E+03  0.00000000000E+00 0. -1.
          1    1    5    5  503    0  0.92668973452E+03  0.33122498074E+03  0.26890159547E+03  0.10201822974E+04  0.00000000000E+00 0. -1.
         -2    1    5    5    0  503  0.27243467449E+02 -0.31089966566E+01  0.27110728163E+01  0.27553988725E+02  0.00000000000E+00 0.  1.
         -1    1    6    6    0  502  0.17385813700E+03  0.29867887914E+03  0.40055957875E+03  0.52904035836E+03  0.00000000000E+00 0.  1.
<mgrwt>
<rscale>  0 0.38176085E+04</rscale>
<asrwt>0</asrwt>
<pdfrwt beam="1">  1        2 0.39140112E+00 0.38176085E+04</pdfrwt>
<pdfrwt beam="2">  1       -2 0.22033019E+00 0.38176085E+04</pdfrwt>
<totfact> 0.25840418E-01</totfact>
</mgrwt>
</event>
<event>
12    1  0.1467288E-007  0.2428224E+04  0.7818608E-02  0.8429012E-01
         -2   -1    0    0    0  501 -0.00000000000E+00  0.00000000000E+00  0.83994258173E+03  0.83994258173E+03  0.00000000000E+00 0.  1.
          2   -1    0    0  501    0  0.00000000000E+00 -0.00000000000E+00 -0.17549626546E+04  0.17549626546E+04  0.00000000000E+00 0. -1.
         23    2    1    2    0    0  0.97413438653E+03  0.92545235990E+02  0.75389048654E+01  0.98253933211E+03  0.88454962199E+02 0.  0.
        254    2    1    2    0    0 -0.97413438653E+03 -0.92545235990E+02 -0.92255897773E+03  0.16123659042E+04  0.88944157648E+03 0.  0.
        -24    2    4    4    0    0 -0.61393482608E+03  0.37498152630E+03 -0.55991747045E+03  0.91508429336E+03  0.79652837284E+02 0.  0.
         24    2    4    4    0    0 -0.36019956045E+03 -0.46752676229E+03 -0.36264150728E+03  0.69728161086E+03  0.79798403773E+02 0.  0.
         11    1    3    3    0    0  0.48471581586E+03  0.47218867752E+02 -0.40460739830E+02  0.48868815730E+03  0.00000000000E+00 0. -1.
        -11    1    3    3    0    0  0.48941857067E+03  0.45326368239E+02  0.47999644695E+02  0.49385117481E+03  0.00000000000E+00 0.  1.
          2    1    6    6  502    0 -0.12230827121E+03 -0.15460283175E+03 -0.16621182001E+03  0.25785212410E+03  0.00000000000E+00 0. -1.
          1    1    5    5  503    0 -0.61789107828E+02  0.13729785756E+02 -0.60581985445E+02  0.87616081992E+02  0.00000000000E+00 0. -1.
         -2    1    5    5    0  503 -0.55214571826E+03  0.36125174054E+03 -0.49933548501E+03  0.82746821136E+03  0.00000000000E+00 0.  1.
         -1    1    6    6    0  502 -0.23789128924E+03 -0.31292393053E+03 -0.19642968728E+03  0.43942948677E+03  0.00000000000E+00 0.  1.
<mgrwt>
<rscale>  0 0.24282239E+04</rscale>
<asrwt>0</asrwt>
<pdfrwt beam="1">  1        2 0.26999425E+00 0.24282239E+04</pdfrwt>
<pdfrwt beam="2">  1       -2 0.12922194E+00 0.24282239E+04</pdfrwt>
<totfact> 0.36164057E+00</totfact>
</mgrwt>
</event>
<event>
12    1  0.1467288E-007  0.1427877E+04  0.7818608E-02  0.8933883E-01
          1   -1    0    0  501    0  0.00000000000E+00  0.00000000000E+00  0.21904422553E+04  0.21904422553E+04  0.00000000000E+00 0. -1.
         -1   -1    0    0    0  501 -0.00000000000E+00 -0.00000000000E+00 -0.23269654913E+03  0.23269654913E+03  0.00000000000E+00 0.  1.
         23    2    1    2    0    0 -0.50575483302E+02 -0.13256315075E+03 -0.81323807438E+02  0.18729540442E+03  0.91296979213E+02 0.  0.
        254    2    1    2    0    0  0.50575483302E+02  0.13256315075E+03  0.20390695136E+04  0.22358434000E+04  0.90612381029E+03 0.  0.
        -24    2    4    4    0    0 -0.29151131051E+03  0.34348396522E+03  0.14338448883E+04  0.15050439875E+04  0.79285320029E+02 0.  0.
         24    2    4    4    0    0  0.34208679381E+03 -0.21092081447E+03  0.60522462527E+03  0.73079941251E+03  0.79119971002E+02 0.  0.
         13    1    3    3    0    0 -0.14864054147E+02 -0.43074283157E+02  0.17929063699E+02  0.48967185955E+02  0.00000000000E+00 0. -1.
        -13    1    3    3    0    0 -0.35711429155E+02 -0.89488867591E+02 -0.99252871137E+02  0.13832821847E+03  0.00000000000E+00 0.  1.
          2    1    6    6  502    0  0.12313876334E+03 -0.10993559632E+03  0.29314219223E+03  0.33642433806E+03  0.00000000000E+00 0. -1.
          1    1    5    5  503    0 -0.52708801156E+02  0.28675150607E+02  0.24557185201E+03  0.25279639333E+03  0.00000000000E+00 0. -1.
         -2    1    5    5    0  503 -0.23880250936E+03  0.31480881461E+03  0.11882730363E+04  0.12522475941E+04  0.00000000000E+00 0.  1.
         -1    1    6    6    0  502  0.21894803047E+03 -0.10098521815E+03  0.31208243304E+03  0.39437507445E+03  0.00000000000E+00 0.  1.
<mgrwt>
<rscale>  0 0.14278772E+04</rscale>
<asrwt>0</asrwt>
<pdfrwt beam="1">  1        1 0.33699110E+00 0.14278772E+04</pdfrwt>
<pdfrwt beam="2">  1       -1 0.35799471E-01 0.14278772E+04</pdfrwt>
<totfact> 0.16056889E+01</totfact>
</mgrwt>
</event>
<event>
12    1  0.1467288E-007  0.1767005E+04  0.7818608E-02  0.8724045E-01
         -2   -1    0    0    0  501 -0.00000000000E+00  0.00000000000E+00  0.85855895211E+03  0.85855895211E+03  0.00000000000E+00 0.  1.
          2   -1    0    0  501    0  0.00000000000E+00 -0.00000000000E+00 -0.90917038627E+03  0.90917038627E+03  0.00000000000E+00 0. -1.
         23    2    1    2    0    0 -0.60049569947E+03 -0.15503814158E+03  0.19202128606E+03  0.65554671628E+03  0.90760192272E+02 0.  0.
        254    2    1    2    0    0  0.60049569947E+03  0.15503814158E+03 -0.24263272022E+03  0.11121826221E+04  0.89075677800E+03 0.  0.
        -24    2    4    4    0    0  0.46961200502E+03 -0.32677739262E+03 -0.89873392547E+02  0.58398110953E+03  0.75085351502E+02 0.  0.
         24    2    4    4    0    0  0.13088369444E+03  0.48181553420E+03 -0.15275932767E+03  0.52820151257E+03  0.79904162726E+02 0.  0.
         13    1    3    3    0    0 -0.55241056715E+03 -0.16695155992E+03  0.18087338623E+03  0.60476891447E+03  0.00000000000E+00 0.  1.
        -13    1    3    3    0    0 -0.48085132314E+02  0.11913418336E+02  0.11147899827E+02  0.50777801810E+02  0.00000000000E+00 0. -1.
          2    1    6    6  502    0  0.57752661953E+02  0.26539068961E+03 -0.43837573337E+02  0.27511692229E+03  0.00000000000E+00 0. -1.
          1    1    5    5  503    0  0.38552968267E+03 -0.27985987520E+03 -0.47422899215E+02  0.47875214604E+03  0.00000000000E+00 0. -1.
         -2    1    5    5    0  503  0.84082322353E+02 -0.46917517416E+02 -0.42450493332E+02  0.10522896349E+03  0.00000000000E+00 0.  1.
         -1    1    6    6    0  502  0.73131032490E+02  0.21642484459E+03 -0.10892175434E+03  0.25308459028E+03  0.00000000000E+00 0.  1.
<mgrwt>
<rscale>  0 0.17670047E+04</rscale>
<asrwt>0</asrwt>
<pdfrwt beam="1">  1        2 0.13987237E+00 0.17670047E+04</pdfrwt>
<pdfrwt beam="2">  1       -2 0.13208599E+00 0.17670047E+04</pdfrwt>
<totfact> 0.11411030E+01</totfact>
</mgrwt>
</event>
<event>
12    1  0.1467288E-007  0.2248188E+04  0.7818608E-02  0.8498635E-01
         -1   -1    0    0    0  501 -0.00000000000E+00  0.00000000000E+00  0.11473939789E+04  0.11473939789E+04  0.00000000000E+00 0.  1.
          1   -1    0    0  501    0  0.00000000000E+00 -0.00000000000E+00 -0.11012673896E+04  0.11012673896E+04  0.00000000000E+00 0. -1.
         23    2    1    2    0    0 -0.73605487474E+03 -0.55595570640E+03  0.20861225123E+03  0.94908678339E+03  0.79894461118E+02 0.  0.
        254    2    1    2    0    0  0.73605487474E+03  0.55595570640E+03 -0.16248566199E+03  0.12995745851E+04  0.90090453759E+03 0.  0.
        -24    2    4    4    0    0  0.57622862416E+03  0.66397362047E+03 -0.41218844757E+03  0.97425177324E+03  0.79792263835E+02 0.  0.
         24    2    4    4    0    0  0.15982625059E+03 -0.10801791407E+03  0.24970278557E+03  0.32532281190E+03  0.79190597171E+02 0.  0.
         13    1    3    3    0    0 -0.53270726667E+03 -0.37480696345E+03  0.17668590999E+03  0.67488902984E+03  0.00000000000E+00 0.  1.
        -13    1    3    3    0    0 -0.20334760807E+03 -0.18114874295E+03  0.31926341243E+02  0.27419775354E+03  0.00000000000E+00 0. -1.
          2    1    6    6  502    0  0.28522713232E+02 -0.62934707276E+02  0.71574722560E+02  0.99484991127E+02  0.00000000000E+00 0. -1.
          3    1    5    5  503    0  0.39939953588E+03  0.43051036309E+03 -0.23910648571E+03  0.63405920346E+03  0.00000000000E+00 0. -1.
         -4    1    5    5    0  503  0.17682908827E+03  0.23346325739E+03 -0.17308196186E+03  0.34019256977E+03  0.00000000000E+00 0.  1.
         -1    1    6    6    0  502  0.13130353736E+03 -0.45083206793E+02  0.17812806301E+03  0.22583782077E+03  0.00000000000E+00 0.  1.
<mgrwt>
<rscale>  0 0.22481882E+04</rscale>
<asrwt>0</asrwt>
<pdfrwt beam="1">  1        1 0.16942575E+00 0.22481882E+04</pdfrwt>
<pdfrwt beam="2">  1       -1 0.17652215E+00 0.22481882E+04</pdfrwt>
<totfact> 0.25327856E+00</totfact>
</mgrwt>
</event>
<event>
12    1  0.1467288E-007  0.1998245E+04  0.7818608E-02  0.8607442E-01
         -2   -1    0    0    0  501 -0.00000000000E+00  0.00000000000E+00  0.56624676605E+03  0.56624676605E+03  0.00000000000E+00 0.  1.
          2   -1    0    0  501    0  0.00000000000E+00 -0.00000000000E+00 -0.17629163777E+04  0.17629163777E+04  0.00000000000E+00 0. -1.
         23    2    1    2    0    0 -0.25313686320E+03  0.65205948793E+03 -0.91455474322E+03  0.11550453773E+04  0.91976072940E+02 0.  0.
        254    2    1    2    0    0  0.25313686320E+03 -0.65205948793E+03 -0.28211486847E+03  0.11741177665E+04  0.89983547566E+03 0.  0.
        -24    2    4    4    0    0 -0.24033933371E+03 -0.58128422735E+03 -0.13335894990E+03  0.64789387901E+03  0.79545714210E+02 0.  0.
         24    2    4    4    0    0  0.49347619691E+03 -0.70775260580E+02 -0.14875591856E+03  0.52622388747E+03  0.79090846596E+02 0.  0.
         13    1    3    3    0    0 -0.19755427897E+03  0.46362525079E+03 -0.59294689119E+03  0.77817869547E+03  0.00000000000E+00 0.  1.
        -13    1    3    3    0    0 -0.55582584229E+02  0.18843423714E+03 -0.32160785203E+03  0.37686668184E+03  0.00000000000E+00 0. -1.
          4    1    6    6  502    0  0.42145971459E+02  0.15653571031E+02 -0.84104941767E+01  0.45738972535E+02  0.00000000000E+00 0. -1.
          3    1    5    5  503    0 -0.51328153160E+02 -0.94193091641E+02 -0.51679691509E+02  0.11907018239E+03  0.00000000000E+00 0. -1.
         -4    1    5    5    0  503 -0.18901118055E+03 -0.48709113570E+03 -0.81679258395E+02  0.52882369662E+03  0.00000000000E+00 0.  1.
         -3    1    6    6    0  502  0.45133022545E+03 -0.86428831611E+02 -0.14034542439E+03  0.48048491494E+03  0.00000000000E+00 0.  1.
<mgrwt>
<rscale>  0 0.19982449E+04</rscale>
<asrwt>0</asrwt>
<pdfrwt beam="1">  1        2 0.27121790E+00 0.19982449E+04</pdfrwt>
<pdfrwt beam="2">  1       -2 0.87114889E-01 0.19982449E+04</pdfrwt>
<totfact> 0.95761256E+00</totfact>
</mgrwt>
</event>
<event>
12    1  0.1467288E-007  0.2102961E+04  0.7818608E-02  0.8559940E-01
         -2   -1    0    0    0  501 -0.00000000000E+00  0.00000000000E+00  0.85269324832E+03  0.85269324832E+03  0.00000000000E+00 0.  1.
          2   -1    0    0  501    0  0.00000000000E+00 -0.00000000000E+00 -0.12966111652E+04  0.12966111652E+04  0.00000000000E+00 0. -1.
         23    2    1    2    0    0 -0.39047412951E+03  0.12800574736E+03  0.58711337876E+03  0.72445955460E+03  0.10622621881E+03 0.  0.
        254    2    1    2    0    0  0.39047412951E+03 -0.12800574736E+03 -0.10310312957E+04  0.14248448590E+04  0.89347737646E+03 0.  0.
        -24    2    4    4    0    0 -0.14883877440E+03 -0.18142063848E+03 -0.78727575186E+03  0.82544540636E+03  0.80564139571E+02 0.  0.
         24    2    4    4    0    0  0.53931290391E+03  0.53414891127E+02 -0.24375554383E+03  0.59939945260E+03  0.78430731968E+02 0.  0.
         13    1    3    3    0    0 -0.44400586310E+02  0.48630336749E+02  0.61118461698E+02  0.89843130385E+02  0.00000000000E+00 0. -1.
        -13    1    3    3    0    0 -0.34607354320E+03  0.79375410607E+02  0.52599491707E+03  0.63461642422E+03  0.00000000000E+00 0.  1.
          4    1    6    6  502    0  0.42894962728E+03  0.12246450141E+02 -0.17878970904E+03  0.46488011180E+03  0.00000000000E+00 0. -1.
          3    1    5    5  503    0 -0.28259451199E+02  0.14485517359E+01 -0.71217913232E+02  0.76633452548E+02  0.00000000000E+00 0. -1.
         -4    1    5    5    0  503 -0.12057932320E+03 -0.18286919022E+03 -0.71605783863E+03  0.74881195381E+03  0.00000000000E+00 0.  1.
         -3    1    6    6    0  502  0.11036327663E+03  0.41168440986E+02 -0.64965834789E+02  0.13451934081E+03  0.00000000000E+00 0.  1.
<mgrwt>
<rscale>  0 0.21029613E+04</rscale>
<asrwt>0</asrwt>
<pdfrwt beam="1">  1        2 0.19947864E+00 0.21029613E+04</pdfrwt>
<pdfrwt beam="2">  1       -2 0.13118358E+00 0.21029613E+04</pdfrwt>
<totfact> 0.64950212E+00</totfact>
</mgrwt>
</event>
<event>
12    1  0.1467288E-007  0.1682202E+04  0.7818608E-02  0.8771581E-01
         -1   -1    0    0    0  501 -0.00000000000E+00  0.00000000000E+00  0.52189165741E+03  0.52189165741E+03  0.00000000000E+00 0. -1.
          1   -1    0    0  501    0  0.00000000000E+00 -0.00000000000E+00 -0.13555506638E+04  0.13555506638E+04  0.00000000000E+00 0.  1.
         23    2    1    2    0    0  0.42439004353E+03 -0.17586022852E+03  0.12879971793E+03  0.48585057101E+03  0.91802401879E+02 0.  0.
        254    2    1    2    0    0 -0.42439004353E+03  0.17586022852E+03 -0.96245872432E+03  0.13915917502E+04  0.89396145006E+03 0.  0.
        -24    2    4    4    0    0  0.11652300823E+03  0.25435949214E+03 -0.74249327943E+03  0.79756126613E+03  0.80816709572E+02 0.  0.
         24    2    4    4    0    0 -0.54091305176E+03 -0.78499263621E+02 -0.21996544489E+03  0.59403048407E+03  0.75751931356E+02 0.  0.
         13    1    3    3    0    0  0.42376323622E+03 -0.16913979846E+03  0.13587413098E+03  0.47607282139E+03  0.00000000000E+00 0. -1.
        -13    1    3    3    0    0  0.62680730755E+00 -0.67204300602E+01 -0.70744130532E+01  0.97777496205E+01  0.00000000000E+00 0.  1.
          4    1    6    6  502    0 -0.71352054143E+02  0.95020166749E+01 -0.46900712976E+02  0.85913216847E+02  0.00000000000E+00 0. -1.
          3    1    5    5  503    0  0.11666455740E+01  0.17811642770E+02 -0.13100009983E+02  0.22141046534E+02  0.00000000000E+00 0. -1.
         -4    1    5    5    0  503  0.11535636266E+03  0.23654784937E+03 -0.72939326945E+03  0.77542021960E+03  0.00000000000E+00 0.  1.
         -3    1    6    6    0  502 -0.46956099762E+03 -0.88001280296E+02 -0.17306473191E+03  0.50811726722E+03  0.00000000000E+00 0.  1.
<mgrwt>
<rscale>  0 0.16822016E+04</rscale>
<asrwt>0</asrwt>
<pdfrwt beam="1">  1        1 0.20854626E+00 0.16822016E+04</pdfrwt>
<pdfrwt beam="2">  1       -1 0.80291024E-01 0.16822016E+04</pdfrwt>
<totfact> 0.12182412E+01</totfact>
</mgrwt>
</event>
<event>
12    1  0.1467288E-007  0.1653939E+04  0.7818608E-02  0.8788080E-01
          1   -1    0    0  501    0  0.00000000000E+00  0.00000000000E+00  0.73937926288E+03  0.73937926288E+03  0.00000000000E+00 0. -1.
         -1   -1    0    0    0  501 -0.00000000000E+00 -0.00000000000E+00 -0.92493605688E+03  0.92493605688E+03  0.00000000000E+00 0.  1.
         23    2    1    2    0    0  0.46539809952E+03  0.24181945338E+02  0.27420555599E+03  0.54839003249E+03  0.91448254673E+02 0.  0.
        254    2    1    2    0    0 -0.46539809952E+03 -0.24181945338E+02 -0.45976234999E+03  0.11159252873E+04  0.90372986605E+03 0.  0.
        -24    2    4    4    0    0 -0.49952828517E+03 -0.31599316659E+03 -0.40595689831E+02  0.59775640470E+03  0.79274966469E+02 0.  0.
         24    2    4    4    0    0  0.34130185645E+02  0.29181122126E+03 -0.41916666016E+03  0.51816888257E+03  0.80496232540E+02 0.  0.
         13    1    3    3    0    0  0.34860108589E+03 -0.16343380775E+02  0.17811124790E+03  0.39180791188E+03  0.00000000000E+00 0. -1.
        -13    1    3    3    0    0  0.11679701363E+03  0.40525326113E+02  0.96094308087E+02  0.15658212061E+03  0.00000000000E+00 0.  1.
          2    1    6    6  502    0 -0.22288030697E+02  0.14152626207E+03 -0.17864325099E+03  0.22899748971E+03  0.00000000000E+00 0. -1.
          1    1    5    5  503    0 -0.37499274320E+03 -0.26654330169E+03 -0.93400493010E+01  0.46016532426E+03  0.00000000000E+00 0. -1.
         -2    1    5    5    0  503 -0.12453554196E+03 -0.49449864908E+02 -0.31255640530E+02  0.13759108044E+03  0.00000000000E+00 0.  1.
         -3    1    6    6    0  502  0.56418216343E+02  0.15028495919E+03 -0.24052340917E+03  0.28917139287E+03  0.00000000000E+00 0.  1.
<mgrwt>
<rscale>  0 0.16539390E+04</rscale>
<asrwt>0</asrwt>
<pdfrwt beam="1">  1        1 0.11375066E+00 0.16539390E+04</pdfrwt>
<pdfrwt beam="2">  1       -1 0.14229785E+00 0.16539390E+04</pdfrwt>
<totfact> 0.96088526E+00</totfact>
</mgrwt>
</event>
<event>
12    1  0.1467288E-007  0.1574739E+04  0.7818608E-02  0.8836219E-01
         -1   -1    0    0    0  501 -0.00000000000E+00  0.00000000000E+00  0.13203933651E+04  0.13203933651E+04  0.00000000000E+00 0.  1.
          1   -1    0    0  501    0  0.00000000000E+00 -0.00000000000E+00 -0.46951956315E+03  0.46951956315E+03  0.00000000000E+00 0. -1.
         23    2    1    2    0    0 -0.24931338999E+03  0.45177405412E+03  0.38738093810E+03  0.65236179595E+03  0.96202698561E+02 0.  0.
        254    2    1    2    0    0  0.24931338999E+03 -0.45177405412E+03  0.46349286383E+03  0.11375511323E+04  0.90163184355E+03 0.  0.
        -24    2    4    4    0    0  0.47128443449E+03 -0.59477139856E+03  0.34455100856E+03  0.83731884500E+03  0.80780046748E+02 0.  0.
         24    2    4    4    0    0 -0.22197104450E+03  0.14299734444E+03  0.11894185527E+03  0.30023228727E+03  0.79201491607E+02 0.  0.
         13    1    3    3    0    0 -0.14496355993E+03  0.19257278816E+03  0.13743427102E+03  0.27746511727E+03  0.00000000000E+00 0. -1.
        -13    1    3    3    0    0 -0.10434983007E+03  0.25920126596E+03  0.24994666708E+03  0.37489667869E+03  0.00000000000E+00 0.  1.
          2    1    6    6  502    0 -0.22368779613E+03  0.12626986283E+03  0.10204391769E+03  0.27639332396E+03  0.00000000000E+00 0. -1.
          1    1    5    5  503    0  0.19363283803E+03 -0.24619398632E+03  0.18617502990E+03  0.36437109741E+03  0.00000000000E+00 0. -1.
         -2    1    5    5    0  503  0.27765159646E+03 -0.34857741223E+03  0.15837597866E+03  0.47294774759E+03  0.00000000000E+00 0.  1.
         -1    1    6    6    0  502  0.17167516261E+01  0.16727481612E+02  0.16897937577E+02  0.23838963308E+02  0.00000000000E+00 0.  1.
<mgrwt>
<rscale>  0 0.15747387E+04</rscale>
<asrwt>0</asrwt>
<pdfrwt beam="1">  1        1 0.72233779E-01 0.15747387E+04</pdfrwt>
<pdfrwt beam="2">  1       -1 0.20313744E+00 0.15747387E+04</pdfrwt>
<totfact> 0.66529493E+00</totfact>
</mgrwt>
</event>
<event>
12    1  0.1467288E-007  0.2442683E+04  0.7818608E-02  0.8423694E-01
          2   -1    0    0  501    0  0.00000000000E+00  0.00000000000E+00  0.25004709644E+04  0.25004709644E+04  0.00000000000E+00 0. -1.
         -2   -1    0    0    0  501 -0.00000000000E+00 -0.00000000000E+00 -0.59655771584E+03  0.59655771584E+03  0.00000000000E+00 0.  1.
         23    2    1    2    0    0  0.84866221538E+03  0.57124640715E+03  0.11495504552E+04  0.15415728671E+04  0.91818526889E+02 0.  0.
        254    2    1    2    0    0 -0.84866221538E+03 -0.57124640715E+03  0.75436279328E+03  0.15554558131E+04  0.89656541825E+03 0.  0.
        -24    2    4    4    0    0 -0.54399090726E+03 -0.67160712745E+03  0.16949784958E+03  0.88365660032E+03  0.71674440707E+02 0.  0.
         24    2    4    4    0    0 -0.30467130812E+03  0.10036072030E+03  0.58486494370E+03  0.67179921281E+03  0.79688768259E+02 0.  0.
         13    1    3    3    0    0  0.12426992711E+03  0.10815990939E+03  0.22728276193E+03  0.28071165749E+03  0.00000000000E+00 0. -1.
        -13    1    3    3    0    0  0.72439228827E+03  0.46308649776E+03  0.92226769330E+03  0.12608612096E+04  0.00000000000E+00 0.  1.
          2    1    6    6  502    0 -0.27664124978E+03  0.89356830828E+02  0.56591777534E+03  0.63622162235E+03  0.00000000000E+00 0. -1.
          1    1    5    5  503    0 -0.36726607141E+03 -0.40041983214E+03  0.96628318168E+02  0.55186723136E+03  0.00000000000E+00 0. -1.
         -2    1    5    5    0  503 -0.17672483585E+03 -0.27118729531E+03  0.72869531414E+02  0.33178936896E+03  0.00000000000E+00 0.  1.
         -1    1    6    6    0  502 -0.28030058338E+02  0.11003889472E+02  0.18947168359E+02  0.35577590458E+02  0.00000000000E+00 0.  1.
<mgrwt>
<rscale>  0 0.24426832E+04</rscale>
<asrwt>0</asrwt>
<pdfrwt beam="1">  1        2 0.38468783E+00 0.24426832E+04</pdfrwt>
<pdfrwt beam="2">  1       -2 0.91778112E-01 0.24426832E+04</pdfrwt>
<totfact> 0.31482129E+00</totfact>
</mgrwt>
</event>
<event>
12    1  0.1467288E-007  0.1591887E+04  0.7818608E-02  0.8825548E-01
          2   -1    0    0  501    0  0.00000000000E+00  0.00000000000E+00  0.27374051777E+04  0.27374051777E+04  0.00000000000E+00 0. -1.
         -2   -1    0    0    0  501 -0.00000000000E+00 -0.00000000000E+00 -0.23143308210E+03  0.23143308210E+03  0.00000000000E+00 0.  1.
         23    2    1    2    0    0  0.11446504163E+03 -0.35883243387E+03  0.15242044539E+04  0.15728834055E+04  0.94339963612E+02 0.  0.
        254    2    1    2    0    0 -0.11446504163E+03  0.35883243387E+03  0.98176764178E+03  0.13959548544E+04  0.91812814553E+03 0.  0.
        -24    2    4    4    0    0  0.21516205644E+03  0.36208302222E+03  0.96509084695E+03  0.10562572526E+04  0.82947063749E+02 0.  0.
         24    2    4    4    0    0 -0.32962709807E+03 -0.32505883453E+01  0.16676794829E+02  0.33969760172E+03  0.80322817559E+02 0.  0.
         13    1    3    3    0    0  0.70647396004E+02 -0.18139412902E+03  0.60029445055E+03  0.63106918160E+03  0.00000000000E+00 0.  1.
        -13    1    3    3    0    0  0.43817645629E+02 -0.17743830485E+03  0.92391000331E+03  0.94181422388E+03  0.00000000000E+00 0. -1.
          4    1    6    6  502    0 -0.19374606311E+03 -0.34002397179E+02 -0.13427162412E+02  0.19716487687E+03  0.00000000000E+00 0. -1.
          3    1    5    5  503    0 -0.42647108403E+01 -0.15747609869E+01  0.10533210680E+02  0.11472408550E+02  0.00000000000E+00 0. -1.
         -4    1    5    5    0  503  0.21942676728E+03  0.36365778321E+03  0.95455763627E+03  0.10447848441E+04  0.00000000000E+00 0.  1.
         -3    1    6    6    0  502 -0.13588103496E+03  0.30751808833E+02  0.30103957241E+02  0.14253272484E+03  0.00000000000E+00 0.  1.
<mgrwt>
<rscale>  0 0.15918871E+04</rscale>
<asrwt>0</asrwt>
<pdfrwt beam="1">  1        2 0.42113924E+00 0.15918871E+04</pdfrwt>
<pdfrwt beam="2">  1       -2 0.35605092E-01 0.15918871E+04</pdfrwt>
<totfact> 0.18008653E+01</totfact>
</mgrwt>
</event>
<event>
12    1  0.1467288E-007  0.2120077E+04  0.7818608E-02  0.8552450E-01
          2   -1    0    0  501    0  0.00000000000E+00  0.00000000000E+00  0.97049210113E+03  0.97049210113E+03  0.00000000000E+00 0. -1.
         -2   -1    0    0    0  501 -0.00000000000E+00 -0.00000000000E+00 -0.11578477632E+04  0.11578477632E+04  0.00000000000E+00 0.  1.
         23    2    1    2    0    0  0.60890147044E+03  0.61794998884E+03 -0.11617341113E+03  0.88008649427E+03  0.91830204900E+02 0.  0.
        254    2    1    2    0    0 -0.60890147044E+03 -0.61794998884E+03 -0.71182250969E+02  0.12482533701E+04  0.89467668666E+03 0.  0.
        -24    2    4    4    0    0 -0.83297110733E+03 -0.45455226903E+03 -0.10472827459E+03  0.95800009622E+03  0.79608679988E+02 0.  0.
         24    2    4    4    0    0  0.22406963690E+03 -0.16339771982E+03  0.33546023618E+02  0.29025327386E+03  0.78839141722E+02 0.  0.
         11    1    3    3    0    0  0.53617729834E+03  0.55336406845E+03 -0.13139007811E+03  0.78164009629E+03  0.00000000000E+00 0.  1.
        -11    1    3    3    0    0  0.72724172101E+02  0.64585920388E+02  0.15216666988E+02  0.98446397975E+02  0.00000000000E+00 0. -1.
          4    1    6    6  502    0  0.13603778377E+03 -0.14249762433E+03  0.12775878807E+02  0.19742105924E+03  0.00000000000E+00 0. -1.
          1    1    5    5  503    0 -0.62893616707E+02 -0.33948996931E+02  0.13124799832E+02  0.72666373143E+02  0.00000000000E+00 0. -1.
         -2    1    5    5    0  503 -0.77007749063E+03 -0.42060327210E+03 -0.11785307442E+03  0.88533372308E+03  0.00000000000E+00 0.  1.
         -3    1    6    6    0  502  0.88031853123E+02 -0.20900095486E+02  0.20770144812E+02  0.92832214619E+02  0.00000000000E+00 0.  1.
<mgrwt>
<rscale>  0 0.21200775E+04</rscale>
<asrwt>0</asrwt>
<pdfrwt beam="1">  1        2 0.14930648E+00 0.21200775E+04</pdfrwt>
<pdfrwt beam="2">  1       -2 0.17813043E+00 0.21200775E+04</pdfrwt>
<totfact> 0.45233144E+00</totfact>
</mgrwt>
</event>
<event>
12    1  0.1467288E-007  0.2563133E+04  0.7818608E-02  0.8380833E-01
         -2   -1    0    0    0  501 -0.00000000000E+00  0.00000000000E+00  0.80828789330E+03  0.80828789330E+03  0.00000000000E+00 0. -1.
          2   -1    0    0  501    0  0.00000000000E+00 -0.00000000000E+00 -0.20319657575E+04  0.20319657575E+04  0.00000000000E+00 0.  1.
         23    2    1    2    0    0  0.41245835703E+03 -0.10447406182E+04 -0.48173463344E+03  0.12254904908E+04  0.90298562778E+02 0.  0.
        254    2    1    2    0    0 -0.41245835703E+03  0.10447406182E+04 -0.74194323077E+03  0.16147631600E+04  0.89183824176E+03 0.  0.
        -24    2    4    4    0    0  0.16156502142E+03  0.30009070501E+03  0.83819378553E+02  0.36075188965E+03  0.83417925467E+02 0.  0.
         24    2    4    4    0    0 -0.57402337845E+03  0.74464991321E+03 -0.82576260932E+03  0.12540112703E+04  0.81572341350E+02 0.  0.
         11    1    3    3    0    0  0.47671994800E+02 -0.10383702985E+03 -0.79220503430E+02  0.13903465762E+03  0.00000000000E+00 0. -1.
        -11    1    3    3    0    0  0.36478636223E+03 -0.94090358837E+03 -0.40251413001E+03  0.10864558332E+04  0.00000000000E+00 0.  1.
          2    1    6    6  502    0 -0.46543678924E+03  0.65115962954E+03 -0.69527408317E+03  0.10602105068E+04  0.00000000000E+00 0. -1.
          3    1    5    5  503    0  0.14325855773E+03  0.26344655323E+03  0.43039692682E+02  0.30295134249E+03  0.00000000000E+00 0. -1.
         -4    1    5    5    0  503  0.18306463689E+02  0.36644151776E+02  0.40779685872E+02  0.57800547160E+02  0.00000000000E+00 0.  1.
         -1    1    6    6    0  502 -0.10858658921E+03  0.93490283678E+02 -0.13048852615E+03  0.19380076356E+03  0.00000000000E+00 0.  1.
<mgrwt>
<rscale>  0 0.25631335E+04</rscale>
<asrwt>0</asrwt>
<pdfrwt beam="1">  1        2 0.31261011E+00 0.25631335E+04</pdfrwt>
<pdfrwt beam="2">  1       -2 0.12435199E+00 0.25631335E+04</pdfrwt>
<totfact> 0.27640046E+00</totfact>
</mgrwt>
</event>
<event>
12    1  0.1467288E-007  0.1884442E+04  0.7818608E-02  0.8662640E-01
          1   -1    0    0  501    0  0.00000000000E+00  0.00000000000E+00  0.10790238203E+04  0.10790238203E+04  0.00000000000E+00 0. -1.
         -1   -1    0    0    0  501 -0.00000000000E+00 -0.00000000000E+00 -0.82276245335E+03  0.82276245335E+03  0.00000000000E+00 0.  1.
         23    2    1    2    0    0 -0.41954865171E+03  0.33847074693E+03 -0.38317182744E+03  0.66792908386E+03  0.93408211902E+02 0.  0.
        254    2    1    2    0    0  0.41954865171E+03 -0.33847074693E+03  0.63943319441E+03  0.12338571898E+04  0.90716329130E+03 0.  0.
        -24    2    4    4    0    0  0.93092953362E+02  0.29073938049E+03  0.74198868818E+02  0.32371705550E+03  0.78048539757E+02 0.  0.
         24    2    4    4    0    0  0.32645569835E+03 -0.62921012741E+03  0.56523432560E+03  0.91014013432E+03  0.79915667037E+02 0.  0.
         13    1    3    3    0    0 -0.92047595249E+02  0.51456403074E+02 -0.11720161855E+03  0.15766020613E+03  0.00000000000E+00 0. -1.
        -13    1    3    3    0    0 -0.32750105646E+03  0.28701434385E+03 -0.26597020889E+03  0.51026887773E+03  0.00000000000E+00 0.  1.
          4    1    6    6  502    0  0.13573276032E+03 -0.23902277552E+03  0.26770655595E+03  0.38369528214E+03  0.00000000000E+00 0. -1.
          1    1    5    5  503    0  0.36787494590E+02  0.11990115337E+03  0.70343864106E+02  0.14379800261E+03  0.00000000000E+00 0. -1.
         -2    1    5    5    0  503  0.56305458771E+02  0.17083822712E+03  0.38550047114E+01  0.17991905289E+03  0.00000000000E+00 0.  1.
         -3    1    6    6    0  502  0.19072293803E+03 -0.39018735189E+03  0.29752776965E+03  0.52644485217E+03  0.00000000000E+00 0.  1.
<mgrwt>
<rscale>  0 0.18844419E+04</rscale>
<asrwt>0</asrwt>
<pdfrwt beam="1">  1        1 0.16600367E+00 0.18844419E+04</pdfrwt>
<pdfrwt beam="2">  1       -1 0.12657884E+00 0.18844419E+04</pdfrwt>
<totfact> 0.66828677E+00</totfact>
</mgrwt>
</event>
<event>
12    1  0.1467288E-007  0.1508931E+04  0.7818608E-02  0.8878536E-01
          1   -1    0    0  501    0  0.00000000000E+00  0.00000000000E+00  0.18575541344E+04  0.18575541344E+04  0.00000000000E+00 0. -1.
         -1   -1    0    0    0  501 -0.00000000000E+00 -0.00000000000E+00 -0.30643412445E+03  0.30643412445E+03  0.00000000000E+00 0.  1.
         23    2    1    2    0    0  0.18864479512E+03  0.21956996830E+03  0.10429125515E+04  0.10861346386E+04  0.90686456176E+02 0.  0.
        254    2    1    2    0    0 -0.18864479512E+03 -0.21956996830E+03  0.50820745852E+03  0.10778536203E+04  0.90537051879E+03 0.  0.
        -24    2    4    4    0    0 -0.22244109586E+03  0.53849457093E+02  0.69404820109E+03  0.73480653229E+03  0.76537110586E+02 0.  0.
         24    2    4    4    0    0  0.33796300732E+02 -0.27341942539E+03 -0.18584074258E+03  0.34304708806E+03  0.85112577792E+02 0.  0.
         11    1    3    3    0    0  0.22085220794E+02  0.80905663304E+01  0.30335324618E+02  0.38385494145E+02  0.00000000000E+00 0.  1.
        -11    1    3    3    0    0  0.16655957433E+03  0.21147940197E+03  0.10125772269E+04  0.10477491444E+04  0.00000000000E+00 0. -1.
          2    1    6    6  502    0  0.24411723564E+02 -0.16904241687E+03 -0.64138609665E+02  0.18244185977E+03  0.00000000000E+00 0. -1.
          1    1    5    5  503    0 -0.16858296940E+02  0.25137498879E+02  0.13789944914E+03  0.14118198929E+03  0.00000000000E+00 0. -1.
         -2    1    5    5    0  503 -0.20558279892E+03  0.28711958214E+02  0.55614875195E+03  0.59362454300E+03  0.00000000000E+00 0.  1.
         -1    1    6    6    0  502  0.93845771679E+01 -0.10437700853E+03 -0.12170213291E+03  0.16060522829E+03  0.00000000000E+00 0.  1.
<mgrwt>
<rscale>  0 0.15089307E+04</rscale>
<asrwt>0</asrwt>
<pdfrwt beam="1">  1        1 0.28577755E+00 0.15089307E+04</pdfrwt>
<pdfrwt beam="2">  1       -1 0.47143713E-01 0.15089307E+04</pdfrwt>
<totfact> 0.16155321E+01</totfact>
</mgrwt>
</event>
<event>
12    1  0.1467288E-007  0.2930029E+04  0.7818608E-02  0.8263999E-01
          1   -1    0    0  501    0  0.00000000000E+00  0.00000000000E+00  0.24420732052E+04  0.24420732052E+04  0.00000000000E+00 0. -1.
         -1   -1    0    0    0  501 -0.00000000000E+00 -0.00000000000E+00 -0.87887103590E+03  0.87887103590E+03  0.00000000000E+00 0.  1.
         23    2    1    2    0    0  0.11466537838E+04 -0.46387233973E+03  0.16299243022E+03  0.12507372384E+04  0.88230718557E+02 0.  0.
        254    2    1    2    0    0 -0.11466537838E+04  0.46387233973E+03  0.14002097390E+04  0.20702070027E+04  0.89172712927E+03 0.  0.
        -24    2    4    4    0    0  0.48521103175E+01  0.30638448002E+03  0.52565025364E+03  0.61347380418E+03  0.78402338585E+02 0.  0.
         24    2    4    4    0    0 -0.11515058941E+04  0.15748785971E+03  0.87455948541E+03  0.14567331985E+04  0.80306088624E+02 0.  0.
         13    1    3    3    0    0  0.43080586898E+03 -0.20665197042E+03  0.31941021183E+02  0.47887259523E+03  0.00000000000E+00 0. -1.
        -13    1    3    3    0    0  0.71584791484E+03 -0.25722036930E+03  0.13105140904E+03  0.77186464317E+03  0.00000000000E+00 0.  1.
          4    1    6    6  502    0 -0.70623536743E+03  0.13286012162E+03  0.55864368428E+03  0.91022138631E+03  0.00000000000E+00 0. -1.
          3    1    5    5  503    0  0.34607634786E+02  0.81385610003E+02  0.12728394031E+03  0.15499195903E+03  0.00000000000E+00 0. -1.
         -4    1    5    5    0  503 -0.29755524468E+02  0.22499887001E+03  0.39836631333E+03  0.45848184516E+03  0.00000000000E+00 0.  1.
         -3    1    6    6    0  502 -0.44527052671E+03  0.24627738087E+02  0.31591580113E+03  0.54651181218E+03  0.00000000000E+00 0.  1.
<mgrwt>
<rscale>  0 0.29300289E+04</rscale>
<asrwt>0</asrwt>
<pdfrwt beam="1">  1        1 0.37570357E+00 0.29300289E+04</pdfrwt>
<pdfrwt beam="2">  1       -1 0.13521093E+00 0.29300289E+04</pdfrwt>
<totfact> 0.58345753E-01</totfact>
</mgrwt>
</event>
<event>
12    1  0.1467288E-007  0.2867340E+04  0.7818608E-02  0.8282662E-01
          1   -1    0    0  501    0  0.00000000000E+00  0.00000000000E+00  0.14821493309E+04  0.14821493309E+04  0.00000000000E+00 0. -1.
         -1   -1    0    0    0  501 -0.00000000000E+00 -0.00000000000E+00 -0.13867762281E+04  0.13867762281E+04  0.00000000000E+00 0.  1.
         23    2    1    2    0    0 -0.73789940225E+02  0.77944681085E+03  0.10555879381E+04  0.13174318446E+04  0.91534058745E+02 0.  0.
        254    2    1    2    0    0  0.73789940225E+02 -0.77944681085E+03 -0.96021483530E+03  0.15514937144E+04  0.93388325265E+03 0.  0.
        -24    2    4    4    0    0 -0.40663047454E+02 -0.66130918790E+03 -0.10334355727E+03  0.67528094696E+03  0.79631281955E+02 0.  0.
         24    2    4    4    0    0  0.11445298768E+03 -0.11813762295E+03 -0.85687127803E+03  0.87621276741E+03  0.80401755713E+02 0.  0.
         11    1    3    3    0    0 -0.82400851176E+02  0.71436462051E+03  0.99811832624E+03  0.12301816551E+04  0.00000000000E+00 0. -1.
        -11    1    3    3    0    0  0.86109109513E+01  0.65082190334E+02  0.57469611871E+02  0.87250189540E+02  0.00000000000E+00 0.  1.
          2    1    6    6  502    0 -0.75858772608E+01 -0.29977884549E+02 -0.10704758936E+03  0.11142443845E+03  0.00000000000E+00 0. -1.
          3    1    5    5  503    0 -0.47732533959E+02 -0.36566807765E+03 -0.88181642584E+02  0.37916690243E+03  0.00000000000E+00 0. -1.
         -4    1    5    5    0  503  0.70694865056E+01 -0.29564111025E+03 -0.15161914690E+02  0.29611404452E+03  0.00000000000E+00 0.  1.
         -1    1    6    6    0  502  0.12203886494E+03 -0.88159738399E+02 -0.74982368867E+03  0.76478832896E+03  0.00000000000E+00 0.  1.
<mgrwt>
<rscale>  0 0.28673399E+04</rscale>
<asrwt>0</asrwt>
<pdfrwt beam="1">  1        1 0.22802297E+00 0.28673399E+04</pdfrwt>
<pdfrwt beam="2">  1       -1 0.21335019E+00 0.28673399E+04</pdfrwt>
<totfact> 0.70691917E-01</totfact>
</mgrwt>
</event>
<event>
12    1  0.1467288E-007  0.1492584E+04  0.7818608E-02  0.8889400E-01
         -2   -1    0    0    0  501 -0.00000000000E+00  0.00000000000E+00  0.36886092917E+03  0.36886092917E+03  0.00000000000E+00 0.  1.
          2   -1    0    0  501    0  0.00000000000E+00 -0.00000000000E+00 -0.15099223917E+04  0.15099223917E+04  0.00000000000E+00 0. -1.
         23    2    1    2    0    0 -0.24158446819E+02 -0.33929938749E+03 -0.13840078181E+03  0.37837896923E+03  0.91149125338E+02 0.  0.
        254    2    1    2    0    0  0.24158446819E+02  0.33929938749E+03 -0.10026606807E+04  0.15004043517E+04  0.10630978661E+04 0.  0.
        -24    2    4    4    0    0  0.28361984677E+03  0.13011126038E+03  0.10687015474E+03  0.33906929898E+03  0.78597722451E+02 0.  0.
         24    2    4    4    0    0 -0.25946139996E+03  0.20918812711E+03 -0.11095308355E+04  0.11613350527E+04  0.80997155007E+02 0.  0.
         13    1    3    3    0    0 -0.24923438195E+01 -0.14897030918E+01  0.87909821950E+01  0.92580970490E+01  0.00000000000E+00 0.  1.
        -13    1    3    3    0    0 -0.21666103000E+02 -0.33780968440E+03 -0.14719176401E+03  0.36912087219E+03  0.00000000000E+00 0. -1.
          4    1    6    6  502    0 -0.17264129623E+03  0.93976379074E+02 -0.70318441004E+03  0.73014032317E+03  0.00000000000E+00 0. -1.
          1    1    5    5  503    0  0.26264292224E+03  0.14100305873E+03  0.10058802978E+03  0.31461264900E+03  0.00000000000E+00 0. -1.
         -2    1    5    5    0  503  0.20976924531E+02 -0.10891798353E+02  0.62821249558E+01  0.24456649977E+02  0.00000000000E+00 0.  1.
         -3    1    6    6    0  502 -0.86820103729E+02  0.11521174804E+03 -0.40634642543E+03  0.43119472951E+03  0.00000000000E+00 0.  1.
<mgrwt>
<rscale>  0 0.14925835E+04</rscale>
<asrwt>0</asrwt>
<pdfrwt beam="1">  1        2 0.23229575E+00 0.14925835E+04</pdfrwt>
<pdfrwt beam="2">  1       -2 0.56747836E-01 0.14925835E+04</pdfrwt>
<totfact> 0.35275200E+01</totfact>
</mgrwt>
</event>
<event>
12    1  0.1467288E-007  0.1314257E+04  0.7818608E-02  0.9018335E-01
          2   -1    0    0  501    0  0.00000000000E+00  0.00000000000E+00  0.34534802030E+04  0.34534802030E+04  0.00000000000E+00 0. -1.
         -2   -1    0    0    0  501 -0.00000000000E+00 -0.00000000000E+00 -0.12503850198E+03  0.12503850198E+03  0.00000000000E+00 0.  1.
         23    2    1    2    0    0 -0.33496592614E+03  0.51217774666E+01  0.75435471954E+03  0.83028575326E+03  0.89972133926E+02 0.  0.
        254    2    1    2    0    0  0.33496592614E+03 -0.51217774666E+01  0.25740869815E+04  0.27482329518E+04  0.90256975604E+03 0.  0.
        -24    2    4    4    0    0  0.23977274658E+03  0.42077904909E+03  0.10128703846E+04  0.11254787244E+04  0.79056718594E+02 0.  0.
         24    2    4    4    0    0  0.95193179559E+02 -0.42590082655E+03  0.15612165969E+04  0.16227542274E+04  0.74032187107E+02 0.  0.
         11    1    3    3    0    0 -0.69127139003E+02  0.17704190786E+02  0.25046630163E+03  0.26043303932E+03  0.00000000000E+00 0.  1.
        -11    1    3    3    0    0 -0.26583878714E+03 -0.12582413320E+02  0.50388841792E+03  0.56985271394E+03  0.00000000000E+00 0. -1.
          4    1    6    6  502    0  0.52202211193E+02 -0.35362832636E+03  0.13062917630E+04  0.13543176268E+04  0.00000000000E+00 0. -1.
          1    1    5    5  503    0  0.15984443143E+03  0.34350402001E+03  0.80680385026E+03  0.89133478941E+03  0.00000000000E+00 0. -1.
         -2    1    5    5    0  503  0.79928315155E+02  0.77275029077E+02  0.20606653439E+03  0.23414393496E+03  0.00000000000E+00 0.  1.
         -3    1    6    6    0  502  0.42990968366E+02 -0.72272500192E+02  0.25492483386E+03  0.26843660064E+03  0.00000000000E+00 0.  1.
<mgrwt>
<rscale>  0 0.13142572E+04</rscale>
<asrwt>0</asrwt>
<pdfrwt beam="1">  1        2 0.53130458E+00 0.13142572E+04</pdfrwt>
<pdfrwt beam="2">  1       -2 0.19236695E-01 0.13142572E+04</pdfrwt>
<totfact> 0.20013341E+01</totfact>
</mgrwt>
</event>
<event>
12    1  0.1467288E-007  0.2290444E+04  0.7818608E-02  0.8481698E-01
         -1   -1    0    0    0  501 -0.00000000000E+00  0.00000000000E+00  0.10724455987E+04  0.10724455987E+04  0.00000000000E+00 0.  1.
          1   -1    0    0  501    0  0.00000000000E+00 -0.00000000000E+00 -0.12229370294E+04  0.12229370294E+04  0.00000000000E+00 0. -1.
         23    2    1    2    0    0 -0.36607204776E+03  0.86950550835E+03 -0.26174144230E+03  0.98327945666E+03  0.91001835493E+02 0.  0.
        254    2    1    2    0    0  0.36607204776E+03 -0.86950550835E+03  0.11125001164E+03  0.13121031714E+04  0.90509093138E+03 0.  0.
        -24    2    4    4    0    0  0.16583015393E+01  0.17016254626E+03 -0.53528348519E+02  0.19583464681E+03  0.80795313489E+02 0.  0.
         24    2    4    4    0    0  0.36441374622E+03 -0.10396680546E+04  0.16477836016E+03  0.11162685246E+04  0.72086536690E+02 0.  0.
         13    1    3    3    0    0 -0.34902104324E+03  0.82391298358E+03 -0.22599691561E+03  0.92288834591E+03  0.00000000000E+00 0.  1.
        -13    1    3    3    0    0 -0.17051004525E+02  0.45592524767E+02 -0.35744526687E+02  0.60391110754E+02  0.00000000000E+00 0. -1.
          2    1    6    6  502    0  0.20295071569E+03 -0.51772019300E+03  0.52985845448E+02  0.55859707398E+03  0.00000000000E+00 0. -1.
          3    1    5    5  503    0  0.83644781455E+01  0.11239042441E+03  0.56735269393E+01  0.11284396706E+03  0.00000000000E+00 0. -1.
         -4    1    5    5    0  503 -0.67061766062E+01  0.57772121854E+02 -0.59201875458E+02  0.82990679754E+02  0.00000000000E+00 0.  1.
         -1    1    6    6    0  502  0.16146303053E+03 -0.52194786161E+03  0.11179251471E+03  0.55767145060E+03  0.00000000000E+00 0.  1.
<mgrwt>
<rscale>  0 0.22904440E+04</rscale>
<asrwt>0</asrwt>
<pdfrwt beam="1">  1        1 0.18814416E+00 0.22904440E+04</pdfrwt>
<pdfrwt beam="2">  1       -1 0.16499163E+00 0.22904440E+04</pdfrwt>
<totfact> 0.24930455E+00</totfact>
</mgrwt>
</event>
<event>
12    1  0.1467288E-007  0.1280547E+04  0.7818608E-02  0.9045135E-01
         -2   -1    0    0    0  501 -0.00000000000E+00  0.00000000000E+00  0.25560338768E+03  0.25560338768E+03  0.00000000000E+00 0.  1.
          2   -1    0    0  501    0  0.00000000000E+00 -0.00000000000E+00 -0.16038523950E+04  0.16038523950E+04  0.00000000000E+00 0. -1.
         23    2    1    2    0    0 -0.23367202331E+03  0.16601748359E+03 -0.16096764434E+03  0.34140036620E+03  0.92082616053E+02 0.  0.
        254    2    1    2    0    0  0.23367202331E+03 -0.16601748359E+03 -0.11872813630E+04  0.15180554165E+04  0.90149364574E+03 0.  0.
        -24    2    4    4    0    0 -0.15580180621E+02 -0.36995375418E+03 -0.11157822385E+04  0.11783315259E+04  0.79916574971E+02 0.  0.
         24    2    4    4    0    0  0.24925220393E+03  0.20393627058E+03 -0.71499124572E+02  0.33972389065E+03  0.81138976095E+02 0.  0.
         13    1    3    3    0    0 -0.37223184175E+02  0.10602923264E+02 -0.59840223150E+02  0.71265978759E+02  0.00000000000E+00 0. -1.
        -13    1    3    3    0    0 -0.19644883913E+03  0.15541456033E+03 -0.10112742119E+03  0.27013438744E+03  0.00000000000E+00 0.  1.
          4    1    6    6  502    0  0.12681202219E+03  0.15461993643E+03 -0.47964574021E+02  0.20564341486E+03  0.00000000000E+00 0. -1.
          3    1    5    5  503    0  0.23478528779E+02 -0.44056176643E+02 -0.17223212721E+03  0.17932120248E+03  0.00000000000E+00 0. -1.
         -4    1    5    5    0  503 -0.39058709400E+02 -0.32589757754E+03 -0.94355011124E+03  0.99901032339E+03  0.00000000000E+00 0.  1.
         -3    1    6    6    0  502  0.12244018174E+03  0.49316334151E+02 -0.23534550550E+02  0.13408047579E+03  0.00000000000E+00 0.  1.
<mgrwt>
<rscale>  0 0.12805469E+04</rscale>
<asrwt>0</asrwt>
<pdfrwt beam="1">  1        2 0.24674652E+00 0.12805469E+04</pdfrwt>
<pdfrwt beam="2">  1       -2 0.39323598E-01 0.12805469E+04</pdfrwt>
<totfact> 0.66577598E+01</totfact>
</mgrwt>
</event>
<event>
12    1  0.1467288E-007  0.1502239E+04  0.7818608E-02  0.8882966E-01
         -2   -1    0    0    0  501 -0.00000000000E+00  0.00000000000E+00  0.58478074925E+03  0.58478074925E+03  0.00000000000E+00 0.  1.
          2   -1    0    0  501    0  0.00000000000E+00 -0.00000000000E+00 -0.96477244216E+03  0.96477244216E+03  0.00000000000E+00 0. -1.
         23    2    1    2    0    0  0.65025291732E+02 -0.44546042596E+03 -0.27696197383E+03  0.53649343218E+03  0.91945571702E+02 0.  0.
        254    2    1    2    0    0 -0.65025291732E+02  0.44546042596E+03 -0.10302971907E+03  0.10130597592E+04  0.90167159937E+03 0.  0.
        -24    2    4    4    0    0 -0.39649435047E+03 -0.46193693501E+02 -0.11638057621E+02  0.40764999448E+03  0.81862362197E+02 0.  0.
         24    2    4    4    0    0  0.33146905874E+03  0.49165411947E+03 -0.91391661452E+02  0.60540976475E+03  0.81074270827E+02 0.  0.
         11    1    3    3    0    0  0.61710397780E+02 -0.44545111690E+03 -0.26051199589E+03  0.51971277716E+03  0.00000000000E+00 0. -1.
        -11    1    3    3    0    0  0.33148939511E+01 -0.93090672248E-02 -0.16449977943E+02  0.16780655019E+02  0.00000000000E+00 0.  1.
          2    1    6    6  502    0  0.27257356523E+03  0.42070726207E+03 -0.10510256188E+03  0.51218892738E+03  0.00000000000E+00 0. -1.
          1    1    5    5  503    0 -0.17933049161E+03 -0.27972091753E+02  0.34863365864E+02  0.18481698357E+03  0.00000000000E+00 0. -1.
         -2    1    5    5    0  503 -0.21716385886E+03 -0.18221601748E+02 -0.46501423486E+02  0.22283301091E+03  0.00000000000E+00 0.  1.
         -1    1    6    6    0  502  0.58895493507E+02  0.70946857393E+02  0.13710900426E+02  0.93220837369E+02  0.00000000000E+00 0.  1.
<mgrwt>
<rscale>  0 0.15022388E+04</rscale>
<asrwt>0</asrwt>
<pdfrwt beam="1">  1        2 0.14842653E+00 0.15022388E+04</pdfrwt>
<pdfrwt beam="2">  1       -2 0.89966269E-01 0.15022388E+04</pdfrwt>
<totfact> 0.27135479E+01</totfact>
</mgrwt>
</event>
<event>
12    1  0.1467288E-007  0.2019232E+04  0.7818608E-02  0.8597681E-01
          1   -1    0    0  501    0  0.00000000000E+00  0.00000000000E+00  0.90683572880E+03  0.90683572880E+03  0.00000000000E+00 0. -1.
         -1   -1    0    0    0  501 -0.00000000000E+00 -0.00000000000E+00 -0.11240455512E+04  0.11240455512E+04  0.00000000000E+00 0.  1.
         23    2    1    2    0    0  0.17852784741E+03 -0.69918420289E+03  0.30798683316E+03  0.78980732722E+03  0.90603437275E+02 0.  0.
        254    2    1    2    0    0 -0.17852784741E+03  0.69918420289E+03 -0.52519665555E+03  0.12410739528E+04  0.86238175269E+03 0.  0.
        -24    2    4    4    0    0 -0.42276643465E+03  0.74660706664E+03 -0.39656509266E+03  0.94874480920E+03  0.81849068723E+02 0.  0.
         24    2    4    4    0    0  0.24423858724E+03 -0.47422863748E+02 -0.12863156289E+03  0.29232914357E+03  0.83718777490E+02 0.  0.
         11    1    3    3    0    0  0.51642277896E+02 -0.24551784498E+03  0.62291013903E+02  0.25850746118E+03  0.00000000000E+00 0. -1.
        -11    1    3    3    0    0  0.12688556951E+03 -0.45366635791E+03  0.24569581926E+03  0.53129986604E+03  0.00000000000E+00 0.  1.
          4    1    6    6  502    0  0.19778305691E+03 -0.17649421057E+02 -0.66908806349E+02  0.20953860750E+03  0.00000000000E+00 0. -1.
          1    1    5    5  503    0 -0.42572177309E+03  0.73722942184E+03 -0.38746558929E+03  0.93534797342E+03  0.00000000000E+00 0. -1.
         -2    1    5    5    0  503  0.29553384366E+01  0.93776448036E+01 -0.90995033751E+01  0.13396835783E+02  0.00000000000E+00 0.  1.
         -3    1    6    6    0  502  0.46455530328E+02 -0.29773442692E+02 -0.61722756540E+02  0.82790536069E+02  0.00000000000E+00 0.  1.
<mgrwt>
<rscale>  0 0.20192322E+04</rscale>
<asrwt>0</asrwt>
<pdfrwt beam="1">  1        1 0.13951319E+00 0.20192322E+04</pdfrwt>
<pdfrwt beam="2">  1       -1 0.17293008E+00 0.20192322E+04</pdfrwt>
<totfact> 0.38960059E+00</totfact>
</mgrwt>
</event>
<event>
12    1  0.1467288E-007  0.9239956E+03  0.7818608E-02  0.9396073E-01
         -1   -1    0    0    0  501 -0.00000000000E+00  0.00000000000E+00  0.61641025397E+03  0.61641025397E+03  0.00000000000E+00 0.  1.
          1   -1    0    0  501    0  0.00000000000E+00 -0.00000000000E+00 -0.34626607469E+03  0.34626607469E+03  0.00000000000E+00 0. -1.
         23    2    1    2    0    0  0.69775726856E+02  0.24619059659E+02 -0.43823304321E+02  0.12566400877E+03  0.91630840563E+02 0.  0.
        254    2    1    2    0    0 -0.69775726856E+02 -0.24619059659E+02  0.31396748361E+03  0.83701231989E+03  0.77235956182E+03 0.  0.
        -24    2    4    4    0    0 -0.32550585868E+02 -0.19877892561E+03 -0.19631656233E+03  0.29179656732E+03  0.77668797756E+02 0.  0.
         24    2    4    4    0    0 -0.37225140988E+02  0.17415986595E+03  0.51028404594E+03  0.54521575258E+03  0.71784673082E+02 0.  0.
         13    1    3    3    0    0  0.44050352989E+02  0.34721445336E+02 -0.68554736024E+02  0.88576318482E+02  0.00000000000E+00 0. -1.
        -13    1    3    3    0    0  0.25725373868E+02 -0.10102385677E+02  0.24731431702E+02  0.37087690290E+02  0.00000000000E+00 0.  1.
          2    1    6    6  502    0  0.21544234249E+02  0.57144989687E+02  0.16327887010E+03  0.17432639874E+03  0.00000000000E+00 0. -1.
          3    1    5    5  503    0 -0.45340553957E+02 -0.94331881509E+02 -0.13204464336E+03  0.16849349406E+03  0.00000000000E+00 0. -1.
         -2    1    5    5    0  503  0.12789968089E+02 -0.10444704410E+03 -0.64271918975E+02  0.12330307325E+03  0.00000000000E+00 0.  1.
         -1    1    6    6    0  502 -0.58769375238E+02  0.11701487626E+03  0.34700517584E+03  0.37088935384E+03  0.00000000000E+00 0.  1.
<mgrwt>
<rscale>  0 0.92399558E+03</rscale>
<asrwt>0</asrwt>
<pdfrwt beam="1">  1        1 0.53271704E-01 0.92399558E+03</pdfrwt>
<pdfrwt beam="2">  1       -1 0.94832347E-01 0.92399558E+03</pdfrwt>
<totfact> 0.78661723E+01</totfact>
</mgrwt>
</event>
<event>
12    1  0.1467288E-007  0.2107582E+04  0.7818608E-02  0.8557911E-01
          2   -1    0    0  501    0  0.00000000000E+00  0.00000000000E+00  0.14776417544E+04  0.14776417544E+04  0.00000000000E+00 0. -1.
         -2   -1    0    0    0  501 -0.00000000000E+00 -0.00000000000E+00 -0.75151861151E+03  0.75151861151E+03  0.00000000000E+00 0.  1.
         23    2    1    2    0    0  0.69376055565E+03 -0.45626905910E+03  0.77624006661E+02  0.83947501664E+03  0.95956522890E+02 0.  0.
        254    2    1    2    0    0 -0.69376055565E+03  0.45626905910E+03  0.64849913618E+03  0.13896853492E+04  0.90619483412E+03 0.  0.
        -24    2    4    4    0    0 -0.36733214612E+03  0.63059592819E+03  0.69051349352E+03  0.10086048384E+04  0.88829641145E+02 0.  0.
         24    2    4    4    0    0 -0.32642840952E+03 -0.17432686910E+03 -0.42014357342E+02  0.38108051080E+03  0.80695635898E+02 0.  0.
         13    1    3    3    0    0  0.26703235634E+03 -0.19600435389E+03  0.75013089400E+02  0.33963355202E+03  0.00000000000E+00 0. -1.
        -13    1    3    3    0    0  0.42672819931E+03 -0.26026470520E+03  0.26109172611E+01  0.49984146462E+03  0.00000000000E+00 0.  1.
          2    1    6    6  502    0 -0.10218082032E+01 -0.15129884143E+02  0.45662149652E+01  0.15836912745E+02  0.00000000000E+00 0. -1.
          3    1    5    5  503    0 -0.11595381603E+03  0.15568040815E+03  0.14013072378E+03  0.23941239876E+03  0.00000000000E+00 0. -1.
         -4    1    5    5    0  503 -0.25137833009E+03  0.47491552004E+03  0.55038276975E+03  0.76919243967E+03  0.00000000000E+00 0.  1.
         -1    1    6    6    0  502 -0.32540660132E+03 -0.15919698495E+03 -0.46580572307E+02  0.36524359805E+03  0.00000000000E+00 0.  1.
<mgrwt>
<rscale>  0 0.21075818E+04</rscale>
<asrwt>0</asrwt>
<pdfrwt beam="1">  1        2 0.22732950E+00 0.21075818E+04</pdfrwt>
<pdfrwt beam="2">  1       -2 0.11561825E+00 0.21075818E+04</pdfrwt>
<totfact> 0.70059599E+00</totfact>
</mgrwt>
</event>
<event>
12    1  0.1467288E-007  0.2636257E+04  0.7818608E-02  0.8355989E-01
         -2   -1    0    0    0  501 -0.00000000000E+00  0.00000000000E+00  0.12364559167E+04  0.12364559167E+04  0.00000000000E+00 0.  1.
          2   -1    0    0  501    0  0.00000000000E+00 -0.00000000000E+00 -0.14051961991E+04  0.14051961991E+04  0.00000000000E+00 0. -1.
         23    2    1    2    0    0  0.27414451936E+03 -0.76741652366E+03  0.75529594716E+03  0.11146442266E+04  0.88749342741E+02 0.  0.
        254    2    1    2    0    0 -0.27414451936E+03  0.76741652366E+03 -0.92403622956E+03  0.15270078892E+04  0.90212349583E+03 0.  0.
        -24    2    4    4    0    0 -0.10397192308E+03  0.13622823249E+02 -0.70801542422E+03  0.72081259979E+03  0.85376934702E+02 0.  0.
         24    2    4    4    0    0 -0.17017259628E+03  0.75379370041E+03 -0.21602080534E+03  0.80619528936E+03  0.78244494680E+02 0.  0.
         11    1    3    3    0    0  0.11187107310E+03 -0.44378395310E+03  0.42622583570E+03  0.62540210828E+03  0.00000000000E+00 0.  1.
        -11    1    3    3    0    0  0.16227344627E+03 -0.32363257056E+03  0.32907011147E+03  0.48924211833E+03  0.00000000000E+00 0. -1.
          2    1    6    6  502    0 -0.51986692949E+02  0.10664213242E+03 -0.26125708347E+02  0.12148132896E+03  0.00000000000E+00 0. -1.
          3    1    5    5  503    0 -0.17968571971E+02  0.36712705697E+02 -0.13948172569E+03  0.14534732244E+03  0.00000000000E+00 0. -1.
         -4    1    5    5    0  503 -0.86003351113E+02 -0.23089882448E+02 -0.56853369853E+03  0.57546527735E+03  0.00000000000E+00 0.  1.
         -1    1    6    6    0  502 -0.11818590333E+03  0.64715156800E+03 -0.18989509699E+03  0.68471396040E+03  0.00000000000E+00 0.  1.
<mgrwt>
<rscale>  0 0.26362573E+04</rscale>
<asrwt>0</asrwt>
<pdfrwt beam="1">  1        2 0.21618403E+00 0.26362573E+04</pdfrwt>
<pdfrwt beam="2">  1       -2 0.19022399E+00 0.26362573E+04</pdfrwt>
<totfact> 0.19579975E+00</totfact>
</mgrwt>
</event>
<event>
12    1  0.1467288E-007  0.1935475E+04  0.7818608E-02  0.8637397E-01
          2   -1    0    0  501    0  0.00000000000E+00  0.00000000000E+00  0.13311569464E+04  0.13311569464E+04  0.00000000000E+00 0.  1.
         -2   -1    0    0    0  501 -0.00000000000E+00 -0.00000000000E+00 -0.70353545754E+03  0.70353545754E+03  0.00000000000E+00 0. -1.
         23    2    1    2    0    0  0.31503394220E+03  0.27437916917E+03 -0.41079284776E+03  0.59282176337E+03  0.90313709607E+02 0.  0.
        254    2    1    2    0    0 -0.31503394220E+03 -0.27437916917E+03  0.10384143366E+04  0.14418706406E+04  0.90893140361E+03 0.  0.
        -24    2    4    4    0    0  0.23944170536E+03  0.56364282561E+02  0.60939764070E+03  0.66196237139E+03  0.79494867946E+02 0.  0.
         24    2    4    4    0    0 -0.55447564756E+03 -0.33074345173E+03  0.42901669594E+03  0.77990826921E+03  0.85831861167E+02 0.  0.
         11    1    3    3    0    0  0.27582328720E+03  0.27223305326E+03 -0.36336863102E+03  0.53124954876E+03  0.00000000000E+00 0. -1.
        -11    1    3    3    0    0  0.39210654994E+02  0.21461159145E+01 -0.47424216734E+02  0.61572214605E+02  0.00000000000E+00 0.  1.
          2    1    6    6  502    0 -0.24612560978E+03 -0.17343140899E+03  0.24310342897E+03  0.38698261794E+03  0.00000000000E+00 0. -1.
          1    1    5    5  503    0  0.53079832382E+02  0.45325079071E+02  0.13112229068E+03  0.14854254109E+03  0.00000000000E+00 0. -1.
         -2    1    5    5    0  503  0.18636187298E+03  0.11039203489E+02  0.47827535002E+03  0.51341983030E+03  0.00000000000E+00 0.  1.
         -1    1    6    6    0  502 -0.30835003778E+03 -0.15731204274E+03  0.18591326697E+03  0.39292565127E+03  0.00000000000E+00 0.  1.
<mgrwt>
<rscale>  0 0.19354753E+04</rscale>
<asrwt>0</asrwt>
<pdfrwt beam="1">  1        2 0.20479338E+00 0.19354753E+04</pdfrwt>
<pdfrwt beam="2">  1       -2 0.10823622E+00 0.19354753E+04</pdfrwt>
<totfact> 0.10118608E+01</totfact>
</mgrwt>
</event>
<event>
12    1  0.1467288E-007  0.2858064E+04  0.7818608E-02  0.8285465E-01
          4   -1    0    0  501    0  0.00000000000E+00  0.00000000000E+00  0.12345768425E+04  0.12345768425E+04  0.00000000000E+00 0.  1.
         -4   -1    0    0    0  501 -0.00000000000E+00 -0.00000000000E+00 -0.16541155114E+04  0.16541155114E+04  0.00000000000E+00 0. -1.
         23    2    1    2    0    0  0.63110870420E+03  0.10018371410E+04  0.31912025560E+03  0.12296921640E+04  0.91264598864E+02 0.  0.
        254    2    1    2    0    0 -0.63110870420E+03 -0.10018371410E+04 -0.73865892449E+03  0.16590001899E+04  0.89704446361E+03 0.  0.
        -24    2    4    4    0    0  0.18436682731E+03 -0.37009598641E+03 -0.36995908208E+03  0.56060682658E+03  0.80300220607E+02 0.  0.
         24    2    4    4    0    0 -0.81547553150E+03 -0.63174115459E+03 -0.36869984241E+03  0.10983933633E+04  0.80194624804E+02 0.  0.
         11    1    3    3    0    0  0.46824282143E+03  0.73831505503E+03  0.19370054680E+03  0.89547772844E+03  0.00000000000E+00 0. -1.
        -11    1    3    3    0    0  0.16286588277E+03  0.26352208597E+03  0.12541970880E+03  0.33421443553E+03  0.00000000000E+00 0.  1.
          4    1    6    6  502    0 -0.58847141297E+03 -0.49714146421E+03 -0.26125970700E+03  0.81345244103E+03  0.00000000000E+00 0. -1.
          1    1    5    5  503    0  0.47981300552E+02 -0.61368552654E+02 -0.10900824436E+03  0.13398172187E+03  0.00000000000E+00 0. -1.
         -2    1    5    5    0  503  0.13638552676E+03 -0.30872743376E+03 -0.26095083772E+03  0.42662510471E+03  0.00000000000E+00 0.  1.
         -3    1    6    6    0  502 -0.22700411853E+03 -0.13459969038E+03 -0.10744013541E+03  0.28494092226E+03  0.00000000000E+00 0.  1.
<mgrwt>
<rscale>  0 0.28580642E+04</rscale>
<asrwt>0</asrwt>
<pdfrwt beam="1">  1        4 0.18993490E+00 0.28580642E+04</pdfrwt>
<pdfrwt beam="2">  1       -4 0.25447931E+00 0.28580642E+04</pdfrwt>
<totfact> 0.15665840E-02</totfact>
</mgrwt>
</event>
<event>
12    1  0.1467288E-007  0.2044965E+04  0.7818608E-02  0.8585882E-01
          2   -1    0    0  501    0  0.00000000000E+00  0.00000000000E+00  0.13317247780E+04  0.13317247780E+04  0.00000000000E+00 0. -1.
         -2   -1    0    0    0  501 -0.00000000000E+00 -0.00000000000E+00 -0.78504998539E+03  0.78504998539E+03  0.00000000000E+00 0.  1.
         23    2    1    2    0    0 -0.70347663556E+03  0.10806692308E+03 -0.18952217557E+03  0.74225449635E+03  0.92006769775E+02 0.  0.
        254    2    1    2    0    0  0.70347663556E+03 -0.10806692308E+03  0.73619696815E+03  0.13745202670E+04  0.91693083264E+03 0.  0.
        -24    2    4    4    0    0  0.75277608535E+03 -0.34078369373E+03  0.75507715133E+03  0.11222622843E+04  0.80782236066E+02 0.  0.
         24    2    4    4    0    0 -0.49299449790E+02  0.23271677064E+03 -0.18880183178E+02  0.25225798273E+03  0.81793015865E+02 0.  0.
         11    1    3    3    0    0 -0.50347210641E+03  0.48473044290E+02 -0.16547134106E+03  0.53217907012E+03  0.00000000000E+00 0.  1.
        -11    1    3    3    0    0 -0.20000452914E+03  0.59593878793E+02 -0.24050834513E+02  0.21007542623E+03  0.00000000000E+00 0. -1.
          4    1    6    6  502    0 -0.61205661116E+01  0.14806423939E+03  0.20095236128E+02  0.14954697868E+03  0.00000000000E+00 0. -1.
          1    1    5    5  503    0  0.12980585345E+03 -0.82212318490E+02  0.11017251344E+03  0.18906720397E+03  0.00000000000E+00 0. -1.
         -2    1    5    5    0  503  0.62297023190E+03 -0.25857137524E+03  0.64490463789E+03  0.93319508030E+03  0.00000000000E+00 0.  1.
         -3    1    6    6    0  502 -0.43178883678E+02  0.84652531254E+02 -0.38975419307E+02  0.10271100405E+03  0.00000000000E+00 0.  1.
<mgrwt>
<rscale>  0 0.20449651E+04</rscale>
<asrwt>0</asrwt>
<pdfrwt beam="1">  1        2 0.20488074E+00 0.20449651E+04</pdfrwt>
<pdfrwt beam="2">  1       -2 0.12077692E+00 0.20449651E+04</pdfrwt>
<totfact> 0.76648651E+00</totfact>
</mgrwt>
</event>
<event>
12    1  0.1467288E-007  0.1698326E+04  0.7818608E-02  0.8762320E-01
         -2   -1    0    0    0  501 -0.00000000000E+00  0.00000000000E+00  0.16095409622E+04  0.16095409622E+04  0.00000000000E+00 0.  1.
          2   -1    0    0  501    0  0.00000000000E+00 -0.00000000000E+00 -0.44800192282E+03  0.44800192282E+03  0.00000000000E+00 0. -1.
         23    2    1    2    0    0 -0.36161173193E+03 -0.56021705895E+03  0.26288584741E+03  0.72233391932E+03  0.89728058160E+02 0.  0.
        254    2    1    2    0    0  0.36161173193E+03  0.56021705895E+03  0.89865319194E+03  0.13352089657E+04  0.72842242195E+03 0.  0.
        -24    2    4    4    0    0  0.47094979972E+03  0.11913606849E+03  0.63674858523E+03  0.80474007304E+03  0.78553852268E+02 0.  0.
         24    2    4    4    0    0 -0.10933806778E+03  0.44108099045E+03  0.26190460671E+03  0.53046889262E+03  0.79347147467E+02 0.  0.
         11    1    3    3    0    0 -0.32105435881E+03 -0.44624218715E+03  0.19303909981E+03  0.58264233022E+03  0.00000000000E+00 0. -1.
        -11    1    3    3    0    0 -0.40557373124E+02 -0.11397487180E+03  0.69846747596E+02  0.13969158910E+03  0.00000000000E+00 0.  1.
          2    1    6    6  502    0 -0.90648044266E+02  0.43026809985E+03  0.24951767347E+03  0.50557568677E+03  0.00000000000E+00 0. -1.
          3    1    5    5  503    0  0.43042281770E+03  0.10673958630E+03  0.61161675034E+03  0.75546819296E+03  0.00000000000E+00 0. -1.
         -4    1    5    5    0  503  0.40526982018E+02  0.12396482191E+02  0.25131834889E+02  0.49271880085E+02  0.00000000000E+00 0.  1.
         -1    1    6    6    0  502 -0.18690023517E+02  0.10812890604E+02  0.12386933240E+02  0.24893205848E+02  0.00000000000E+00 0.  1.
<mgrwt>
<rscale>  0 0.16983256E+04</rscale>
<asrwt>0</asrwt>
<pdfrwt beam="1">  1        2 0.68923374E-01 0.16983256E+04</pdfrwt>
<pdfrwt beam="2">  1       -2 0.24762168E+00 0.16983256E+04</pdfrwt>
<totfact> 0.44217085E+00</totfact>
</mgrwt>
</event>
<event>
12    1  0.1467288E-007  0.2161080E+04  0.7818608E-02  0.8534804E-01
         -2   -1    0    0    0  501 -0.00000000000E+00  0.00000000000E+00  0.57338390926E+03  0.57338390926E+03  0.00000000000E+00 0.  1.
          2   -1    0    0  501    0  0.00000000000E+00 -0.00000000000E+00 -0.20362733270E+04  0.20362733270E+04  0.00000000000E+00 0. -1.
         23    2    1    2    0    0 -0.12715869617E+03  0.63543832368E+03  0.12981507656E+03  0.66667922059E+03  0.87510181429E+02 0.  0.
        254    2    1    2    0    0  0.12715869617E+03 -0.63543832368E+03 -0.15927044943E+04  0.19429780157E+04  0.90471253224E+03 0.  0.
        -24    2    4    4    0    0  0.22782582310E+02  0.17159110394E+03 -0.73038856472E+03  0.75478664863E+03  0.79201492857E+02 0.  0.
         24    2    4    4    0    0  0.10437611386E+03 -0.80702942762E+03 -0.86231592956E+03  0.11881913670E+04  0.77582808031E+02 0.  0.
         13    1    3    3    0    0 -0.41849601256E+02  0.72682962645E+02  0.28276553461E+02  0.88508562636E+02  0.00000000000E+00 0. -1.
        -13    1    3    3    0    0 -0.85309094913E+02  0.56275536104E+03  0.10153852310E+03  0.57817065796E+03  0.00000000000E+00 0.  1.
          4    1    6    6  502    0  0.18350018989E+02 -0.37354911382E+03 -0.35945256395E+03  0.51873096048E+03  0.00000000000E+00 0. -1.
          3    1    5    5  503    0  0.15372584554E+02 -0.29433123278E+01 -0.62485478896E+02  0.64415949238E+02  0.00000000000E+00 0. -1.
         -4    1    5    5    0  503  0.74099977564E+01  0.17453441626E+03 -0.66790308583E+03  0.69037069939E+03  0.00000000000E+00 0.  1.
         -3    1    6    6    0  502  0.86026094870E+02 -0.43348031380E+03 -0.50286336561E+03  0.66946040654E+03  0.00000000000E+00 0.  1.
<mgrwt>
<rscale>  0 0.21610797E+04</rscale>
<asrwt>0</asrwt>
<pdfrwt beam="1">  1        2 0.31327282E+00 0.21610797E+04</pdfrwt>
<pdfrwt beam="2">  1       -2 0.88212910E-01 0.21610797E+04</pdfrwt>
<totfact> 0.64718296E+00</totfact>
</mgrwt>
</event>
<event>
12    1  0.1467288E-007  0.2288400E+04  0.7818608E-02  0.8482509E-01
          1   -1    0    0  501    0  0.00000000000E+00  0.00000000000E+00  0.14307165979E+04  0.14307165979E+04  0.00000000000E+00 0. -1.
         -1   -1    0    0    0  501 -0.00000000000E+00 -0.00000000000E+00 -0.91506161767E+03  0.91506161767E+03  0.00000000000E+00 0.  1.
         23    2    1    2    0    0 -0.63564693067E+03 -0.55844694959E+03  0.69022255306E+03  0.10959219762E+04  0.93422636831E+02 0.  0.
        254    2    1    2    0    0  0.63564693067E+03  0.55844694959E+03 -0.17456757286E+03  0.12498562394E+04  0.90319254077E+03 0.  0.
        -24    2    4    4    0    0  0.50050233109E+03  0.76768843218E+03  0.26085217439E+02  0.92031374172E+03  0.80304621919E+02 0.  0.
         24    2    4    4    0    0  0.13514459958E+03 -0.20924148259E+03 -0.20065279030E+03  0.32954249768E+03  0.79313647599E+02 0.  0.
         13    1    3    3    0    0 -0.58978909911E+03 -0.51130670414E+03  0.60126872347E+03  0.98529681058E+03  0.00000000000E+00 0. -1.
        -13    1    3    3    0    0 -0.45857831557E+02 -0.47140245458E+02  0.88953829596E+02  0.11062516557E+03  0.00000000000E+00 0.  1.
          2    1    6    6  502    0  0.24593276043E+02 -0.77073872072E+02 -0.10471508039E+03  0.13232709112E+03  0.00000000000E+00 0. -1.
          1    1    5    5  503    0  0.31947901875E+03  0.55745909916E+03  0.18577082173E+02  0.64278503299E+03  0.00000000000E+00 0. -1.
         -2    1    5    5    0  503  0.18102331234E+03  0.21022933302E+03  0.75081352660E+01  0.27752870872E+03  0.00000000000E+00 0.  1.
         -1    1    6    6    0  502  0.11055132354E+03 -0.13216761051E+03 -0.95937709907E+02  0.19721540657E+03  0.00000000000E+00 0.  1.
<mgrwt>
<rscale>  0 0.22884002E+04</rscale>
<asrwt>0</asrwt>
<pdfrwt beam="1">  1        1 0.22011025E+00 0.22884002E+04</pdfrwt>
<pdfrwt beam="2">  1       -1 0.14077871E+00 0.22884002E+04</pdfrwt>
<totfact> 0.27327630E+00</totfact>
</mgrwt>
</event>
<event>
12    1  0.1467288E-007  0.1579058E+04  0.7818608E-02  0.8833518E-01
         -2   -1    0    0    0  501 -0.00000000000E+00  0.00000000000E+00  0.60927590776E+03  0.60927590776E+03  0.00000000000E+00 0. -1.
          2   -1    0    0  501    0  0.00000000000E+00 -0.00000000000E+00 -0.10231092140E+04  0.10231092140E+04  0.00000000000E+00 0.  1.
         23    2    1    2    0    0 -0.54885741098E+02 -0.24661564220E+03 -0.62630812465E+03  0.68200579714E+03  0.95070083528E+02 0.  0.
        254    2    1    2    0    0  0.54885741098E+02  0.24661564220E+03  0.21247481839E+03  0.95037932463E+03  0.89120345190E+03 0.  0.
        -24    2    4    4    0    0 -0.29420531879E+03  0.19024520146E+03  0.40522133759E+03  0.54071336648E+03  0.73597594914E+02 0.  0.
         24    2    4    4    0    0  0.34909105989E+03  0.56370440742E+02 -0.19274651920E+03  0.40966595815E+03  0.75051861533E+02 0.  0.
         11    1    3    3    0    0 -0.61307899828E+02 -0.80110714329E+02 -0.28191451274E+03  0.29941973486E+03  0.00000000000E+00 0. -1.
        -11    1    3    3    0    0  0.64221587300E+01 -0.16650492787E+03 -0.34439361191E+03  0.38258606228E+03  0.00000000000E+00 0.  1.
          4    1    6    6  502    0  0.24354191713E+02  0.25420571656E+02 -0.16293911410E+02  0.38792056743E+02  0.00000000000E+00 0. -1.
          1    1    5    5  503    0 -0.70023174918E+02  0.16575039015E+02  0.10920275031E+03  0.13077927060E+03  0.00000000000E+00 0. -1.
         -2    1    5    5    0  503 -0.22418214387E+03  0.17367016244E+03  0.29601858728E+03  0.40993409589E+03  0.00000000000E+00 0.  1.
         -1    1    6    6    0  502  0.32473686817E+03  0.30949869086E+02 -0.17645260779E+03  0.37087390140E+03  0.00000000000E+00 0.  1.
<mgrwt>
<rscale>  0 0.15790577E+04</rscale>
<asrwt>0</asrwt>
<pdfrwt beam="1">  1        2 0.15740142E+00 0.15790577E+04</pdfrwt>
<pdfrwt beam="2">  1       -2 0.93734756E-01 0.15790577E+04</pdfrwt>
<totfact> 0.22490377E+01</totfact>
</mgrwt>
</event>
<event>
12    1  0.1467288E-007  0.1845603E+04  0.7818608E-02  0.8682417E-01
          1   -1    0    0  501    0  0.00000000000E+00  0.00000000000E+00  0.10060729146E+04  0.10060729146E+04  0.00000000000E+00 0.  1.
         -1   -1    0    0    0  501 -0.00000000000E+00 -0.00000000000E+00 -0.84642203909E+03  0.84642203909E+03  0.00000000000E+00 0. -1.
         23    2    1    2    0    0  0.93051984642E+02 -0.29139790877E+03 -0.56507223854E+03  0.64854861474E+03  0.87961683893E+02 0.  0.
        254    2    1    2    0    0 -0.93051984642E+02  0.29139790877E+03  0.72472311408E+03  0.12039463390E+04  0.91142294352E+03 0.  0.
        -24    2    4    4    0    0 -0.30253014073E+03  0.38976731553E+03  0.80442674431E+03  0.94693699974E+03  0.78385255071E+02 0.  0.
         24    2    4    4    0    0  0.20947815608E+03 -0.98369406756E+02 -0.79703630228E+02  0.25700933924E+03  0.78380442219E+02 0.  0.
         13    1    3    3    0    0  0.53663746234E+02 -0.90062210794E+02 -0.12599137560E+03  0.16390493037E+03  0.00000000000E+00 0.  1.
        -13    1    3    3    0    0  0.39388238408E+02 -0.20133569798E+03 -0.43908086294E+03  0.48464368437E+03  0.00000000000E+00 0. -1.
          4    1    6    6  502    0  0.16717457902E+03 -0.78125658111E+02 -0.27054657334E+02  0.18650177696E+03  0.00000000000E+00 0. -1.
          1    1    5    5  503    0 -0.24936112482E+03  0.27165111044E+03  0.62435310534E+03  0.72511522983E+03  0.00000000000E+00 0. -1.
         -2    1    5    5    0  503 -0.53169015907E+02  0.11811620508E+03  0.18007363897E+03  0.22182176991E+03  0.00000000000E+00 0.  1.
         -3    1    6    6    0  502  0.42303577062E+02 -0.20243748646E+02 -0.52648972894E+02  0.70507562277E+02  0.00000000000E+00 0.  1.
<mgrwt>
<rscale>  0 0.18456027E+04</rscale>
<asrwt>0</asrwt>
<pdfrwt beam="1">  1        1 0.15478045E+00 0.18456027E+04</pdfrwt>
<pdfrwt beam="2">  1       -1 0.13021878E+00 0.18456027E+04</pdfrwt>
<totfact> 0.71050643E+00</totfact>
</mgrwt>
</event>
<event>
12    1  0.1467288E-007  0.2427569E+04  0.7818608E-02  0.8429254E-01
          2   -1    0    0  501    0  0.00000000000E+00  0.00000000000E+00  0.21548637565E+04  0.21548637565E+04  0.00000000000E+00 0. -1.
         -2   -1    0    0    0  501 -0.00000000000E+00 -0.00000000000E+00 -0.68369668903E+03  0.68369668903E+03  0.00000000000E+00 0.  1.
         23    2    1    2    0    0 -0.88230493158E+03  0.51594726557E+03  0.87638074821E+03  0.13494403255E+04  0.91007709690E+02 0.  0.
        254    2    1    2    0    0  0.88230493158E+03 -0.51594726557E+03  0.59478631931E+03  0.14891201200E+04  0.90501071436E+03 0.  0.
        -24    2    4    4    0    0  0.78469920926E+03  0.40651313757E+02  0.29080434515E+03  0.84159798218E+03  0.79464571543E+02 0.  0.
         24    2    4    4    0    0  0.97605722321E+02 -0.55659857933E+03  0.30398197416E+03  0.64752213785E+03  0.86896621658E+02 0.  0.
         13    1    3    3    0    0 -0.34950838923E+03  0.19358171141E+03  0.28613311276E+03  0.49142868389E+03  0.00000000000E+00 0. -1.
        -13    1    3    3    0    0 -0.53279654235E+03  0.32236555416E+03  0.59024763545E+03  0.85801164165E+03  0.00000000000E+00 0.  1.
          4    1    6    6  502    0  0.10378320221E+03 -0.49033085314E+03  0.29152254584E+03  0.57981091171E+03  0.00000000000E+00 0. -1.
          1    1    5    5  503    0  0.22417086320E+03  0.30326659946E+02  0.51293434445E+02  0.23195538069E+03  0.00000000000E+00 0. -1.
         -2    1    5    5    0  503  0.56052834606E+03  0.10324653811E+02  0.23951091071E+03  0.60964260150E+03  0.00000000000E+00 0.  1.
         -3    1    6    6    0  502 -0.61774798938E+01 -0.66267726183E+02  0.12459428318E+02  0.67711226139E+02  0.00000000000E+00 0.  1.
<mgrwt>
<rscale>  0 0.24275693E+04</rscale>
<asrwt>0</asrwt>
<pdfrwt beam="1">  1        2 0.33151750E+00 0.24275693E+04</pdfrwt>
<pdfrwt beam="2">  1       -2 0.10518411E+00 0.24275693E+04</pdfrwt>
<totfact> 0.35949299E+00</totfact>
</mgrwt>
</event>
<event>
12    1  0.1467288E-007  0.1497537E+04  0.7818608E-02  0.8886092E-01
         -1   -1    0    0    0  501 -0.00000000000E+00  0.00000000000E+00  0.41608049835E+03  0.41608049835E+03  0.00000000000E+00 0. -1.
          1   -1    0    0  501    0  0.00000000000E+00 -0.00000000000E+00 -0.13474664488E+04  0.13474664488E+04  0.00000000000E+00 0.  1.
         23    2    1    2    0    0 -0.13491896128E+03  0.29135555307E+02  0.23072960028E+03  0.28387703669E+03  0.91093451007E+02 0.  0.
        254    2    1    2    0    0  0.13491896128E+03 -0.29135555307E+02 -0.11621155507E+04  0.14796699104E+04  0.90546037127E+03 0.  0.
        -24    2    4    4    0    0  0.24773421881E+02 -0.14825825065E+03 -0.12619074115E+04  0.12734926680E+04  0.82334859515E+02 0.  0.
         24    2    4    4    0    0  0.11014553940E+03  0.11912269534E+03  0.99791860749E+02  0.20617724241E+03  0.78920107839E+02 0.  0.
         11    1    3    3    0    0 -0.11054036782E+03  0.58216902366E+02  0.15422950320E+03  0.19848204024E+03  0.00000000000E+00 0. -1.
        -11    1    3    3    0    0 -0.24378593468E+02 -0.29081347059E+02  0.76500097076E+02  0.85394996451E+02  0.00000000000E+00 0.  1.
          2    1    6    6  502    0  0.51113440181E+02  0.20623683786E+02  0.16875782855E+01  0.55143159327E+02  0.00000000000E+00 0. -1.
          1    1    5    5  503    0  0.51603963777E+02 -0.89849954784E+02 -0.64829177126E+03  0.65651976675E+03  0.00000000000E+00 0. -1.
         -2    1    5    5    0  503 -0.26830541896E+02 -0.58408295868E+02 -0.61361564019E+03  0.61697290126E+03  0.00000000000E+00 0.  1.
         -1    1    6    6    0  502  0.59032099222E+02  0.98499011558E+02  0.98104282463E+02  0.15103408309E+03  0.00000000000E+00 0.  1.
<mgrwt>
<rscale>  0 0.14975373E+04</rscale>
<asrwt>0</asrwt>
<pdfrwt beam="1">  1        1 0.20730253E+00 0.14975373E+04</pdfrwt>
<pdfrwt beam="2">  1       -1 0.64012384E-01 0.14975373E+04</pdfrwt>
<totfact> 0.20037185E+01</totfact>
</mgrwt>
</event>
<event>
12    1  0.1467288E-007  0.1202883E+04  0.7818608E-02  0.9110337E-01
          2   -1    0    0  501    0  0.00000000000E+00  0.00000000000E+00  0.48882855899E+03  0.48882855899E+03  0.00000000000E+00 0.  1.
         -2   -1    0    0    0  501 -0.00000000000E+00 -0.00000000000E+00 -0.73999682688E+03  0.73999682688E+03  0.00000000000E+00 0. -1.
         23    2    1    2    0    0  0.98149764603E+02  0.11383461072E+03 -0.27405577298E+03  0.32582612742E+03  0.92002194102E+02 0.  0.
        254    2    1    2    0    0 -0.98149764603E+02 -0.11383461072E+03  0.22887505091E+02  0.90299925844E+03  0.89010793051E+03 0.  0.
        -24    2    4    4    0    0 -0.37002835565E+03 -0.15567993461E+03 -0.27228050801E+03  0.49160565740E+03  0.79888806003E+02 0.  0.
         24    2    4    4    0    0  0.27187859104E+03  0.41845323888E+02  0.29516801310E+03  0.41139360104E+03  0.80321476720E+02 0.  0.
         11    1    3    3    0    0  0.99291653005E+02  0.92757268851E+02 -0.27269692918E+03  0.30467418411E+03  0.00000000000E+00 0. -1.
        -11    1    3    3    0    0 -0.11418884018E+01  0.21077341868E+02 -0.13588437994E+01  0.21151943310E+02  0.00000000000E+00 0.  1.
          2    1    6    6  502    0  0.26716622266E+02  0.24569354676E+02  0.16618653024E+02  0.39920054143E+02  0.00000000000E+00 0. -1.
          3    1    5    5  503    0 -0.57226776291E+02 -0.34580732204E+02 -0.82574422928E+02  0.10625095899E+03  0.00000000000E+00 0. -1.
         -4    1    5    5    0  503 -0.31280157936E+03 -0.12109920240E+03 -0.18970608508E+03  0.38535469841E+03  0.00000000000E+00 0.  1.
         -1    1    6    6    0  502  0.24516196878E+03  0.17275969212E+02  0.27854936007E+03  0.37147354690E+03  0.00000000000E+00 0.  1.
<mgrwt>
<rscale>  0 0.12028825E+04</rscale>
<asrwt>0</asrwt>
<pdfrwt beam="1">  1        2 0.75204393E-01 0.12028825E+04</pdfrwt>
<pdfrwt beam="2">  1       -2 0.11384567E+00 0.12028825E+04</pdfrwt>
<totfact> 0.37687947E+01</totfact>
</mgrwt>
</event>
<event>
12    1  0.1467288E-007  0.2537121E+04  0.7818608E-02  0.8389879E-01
          1   -1    0    0  501    0  0.00000000000E+00  0.00000000000E+00  0.23433260547E+04  0.23433260547E+04  0.00000000000E+00 0. -1.
         -1   -1    0    0    0  501 -0.00000000000E+00 -0.00000000000E+00 -0.68673559535E+03  0.68673559535E+03  0.00000000000E+00 0.  1.
         23    2    1    2    0    0  0.16100042946E+03  0.10750925300E+04  0.55056361289E+03  0.12219556704E+04  0.91160748940E+02 0.  0.
        254    2    1    2    0    0 -0.16100042946E+03 -0.10750925300E+04  0.11060268465E+04  0.18081059797E+04  0.92962721683E+03 0.  0.
        -24    2    4    4    0    0  0.31127505081E+03 -0.49163873096E+03  0.80257198058E+03  0.99457443888E+03  0.80347566499E+02 0.  0.
         24    2    4    4    0    0 -0.47227548026E+03 -0.58345379907E+03  0.30345486591E+03  0.81353154081E+03  0.79285858465E+02 0.  0.
         11    1    3    3    0    0  0.10416460243E+03  0.91581359021E+03  0.46992354095E+03  0.10345979561E+04  0.00000000000E+00 0.  1.
        -11    1    3    3    0    0  0.56835827025E+02  0.15927893981E+03  0.80640071938E+02  0.18735771429E+03  0.00000000000E+00 0. -1.
          2    1    6    6  502    0 -0.26586360281E+03 -0.38377947415E+03  0.20551663963E+03  0.51010511588E+03  0.00000000000E+00 0. -1.
          1    1    5    5  503    0  0.29879483832E+03 -0.44939403002E+03  0.76765564922E+03  0.93836482533E+03  0.00000000000E+00 0. -1.
         -2    1    5    5    0  503  0.12480212484E+02 -0.42244700941E+02  0.34916331352E+02  0.56209613559E+02  0.00000000000E+00 0.  1.
         -1    1    6    6    0  502 -0.20641187745E+03 -0.19967432492E+03  0.97938226279E+02  0.30342642494E+03  0.00000000000E+00 0.  1.
<mgrwt>
<rscale>  0 0.25371207E+04</rscale>
<asrwt>0</asrwt>
<pdfrwt beam="1">  1        1 0.36051170E+00 0.25371207E+04</pdfrwt>
<pdfrwt beam="2">  1       -1 0.10565163E+00 0.25371207E+04</pdfrwt>
<totfact> 0.12911024E+00</totfact>
</mgrwt>
</event>
<event>
12    1  0.1467288E-007  0.1351144E+04  0.7818608E-02  0.8989963E-01
         -1   -1    0    0    0  501 -0.00000000000E+00  0.00000000000E+00  0.71470250956E+03  0.71470250956E+03  0.00000000000E+00 0.  1.
          1   -1    0    0  501    0  0.00000000000E+00 -0.00000000000E+00 -0.63858370313E+03  0.63858370313E+03  0.00000000000E+00 0. -1.
         23    2    1    2    0    0  0.33672754197E+03 -0.60371116908E+02  0.16028958399E+03  0.38910713430E+03  0.93174577781E+02 0.  0.
        254    2    1    2    0    0 -0.33672754197E+03  0.60371116908E+02 -0.84170777552E+02  0.96417907839E+03  0.89751126240E+03 0.  0.
        -24    2    4    4    0    0 -0.24012094259E+03  0.16198411427E+03 -0.46318338416E+03  0.55251431686E+03  0.82681936533E+02 0.  0.
         24    2    4    4    0    0 -0.96606599381E+02 -0.10161299736E+03  0.37901260661E+03  0.41166476153E+03  0.78481103707E+02 0.  0.
         13    1    3    3    0    0  0.12545224432E+03 -0.31768384032E+02  0.11049569824E+03  0.17016696260E+03  0.00000000000E+00 0.  1.
        -13    1    3    3    0    0  0.21127529765E+03 -0.28602732876E+02  0.49793885743E+02  0.21894017170E+03  0.00000000000E+00 0. -1.
          2    1    6    6  502    0 -0.44952349622E+02 -0.35733155954E+01  0.15971438704E+03  0.16595833136E+03  0.00000000000E+00 0. -1.
          3    1    5    5  503    0 -0.83038660023E+02  0.42969015773E+02 -0.86415317174E+02  0.12731599435E+03  0.00000000000E+00 0. -1.
         -4    1    5    5    0  503 -0.15708228257E+03  0.11901509850E+03 -0.37676806699E+03  0.42519832251E+03  0.00000000000E+00 0.  1.
         -1    1    6    6    0  502 -0.51654249760E+02 -0.98039681769E+02  0.21929821957E+03  0.24570643017E+03  0.00000000000E+00 0.  1.
<mgrwt>
<rscale>  0 0.13511438E+04</rscale>
<asrwt>0</asrwt>
<pdfrwt beam="1">  1        1 0.98243647E-01 0.13511438E+04</pdfrwt>
<pdfrwt beam="2">  1       -1 0.10995423E+00 0.13511438E+04</pdfrwt>
<totfact> 0.23387907E+01</totfact>
</mgrwt>
</event>
<event>
12    1  0.1467288E-007  0.1318342E+04  0.7818608E-02  0.9015145E-01
         -1   -1    0    0    0  501 -0.00000000000E+00  0.00000000000E+00  0.12626944006E+03  0.12626944006E+03  0.00000000000E+00 0.  1.
          1   -1    0    0  501    0  0.00000000000E+00 -0.00000000000E+00 -0.34411050992E+04  0.34411050992E+04  0.00000000000E+00 0. -1.
         23    2    1    2    0    0  0.70612709448E+02  0.26401505776E+03 -0.14349824317E+04  0.14635509082E+04  0.90092042546E+02 0.  0.
        254    2    1    2    0    0 -0.70612709448E+02 -0.26401505776E+03 -0.18798532274E+04  0.21038236311E+04  0.90417675731E+03 0.  0.
        -24    2    4    4    0    0  0.20308044355E+03 -0.21506307431E+03 -0.17672014751E+04  0.17934195558E+04  0.76543171228E+02 0.  0.
         24    2    4    4    0    0 -0.27369315299E+03 -0.48951983447E+02 -0.11265175231E+03  0.31040407524E+03  0.79724738602E+02 0.  0.
         13    1    3    3    0    0  0.26489555306E+02  0.19944242993E+03 -0.11735358442E+04  0.11906575314E+04  0.00000000000E+00 0. -1.
        -13    1    3    3    0    0  0.44123154142E+02  0.64572627830E+02 -0.26144658746E+03  0.27289337678E+03  0.00000000000E+00 0.  1.
          2    1    6    6  502    0 -0.18997902904E+03 -0.55695059851E+01 -0.10148380920E+03  0.21545768587E+03  0.00000000000E+00 0. -1.
          3    1    5    5  503    0  0.18183481248E+03 -0.21147958533E+03 -0.15276555068E+04  0.15529065849E+04  0.00000000000E+00 0. -1.
         -4    1    5    5    0  503  0.21245631067E+02 -0.35834889751E+01 -0.23954596834E+03  0.24051297092E+03  0.00000000000E+00 0.  1.
         -1    1    6    6    0  502 -0.83714123951E+02 -0.43382477462E+02 -0.11167943116E+02  0.94946389362E+02  0.00000000000E+00 0.  1.
<mgrwt>
<rscale>  0 0.13183420E+04</rscale>
<asrwt>0</asrwt>
<pdfrwt beam="1">  1        1 0.52940078E+00 0.13183420E+04</pdfrwt>
<pdfrwt beam="2">  1       -1 0.19426068E-01 0.13183420E+04</pdfrwt>
<totfact> 0.59527961E+00</totfact>
</mgrwt>
</event>
<event>
12    1  0.1467288E-007  0.1749595E+04  0.7818608E-02  0.8733573E-01
         -2   -1    0    0    0  501 -0.00000000000E+00  0.00000000000E+00  0.42529531199E+03  0.42529531199E+03  0.00000000000E+00 0.  1.
          2   -1    0    0  501    0  0.00000000000E+00 -0.00000000000E+00 -0.17993864580E+04  0.17993864580E+04  0.00000000000E+00 0. -1.
         23    2    1    2    0    0 -0.30418831963E+03  0.25408963044E+03 -0.11476658085E+04  0.12173881376E+04  0.88345885793E+02 0.  0.
        254    2    1    2    0    0  0.30418831963E+03 -0.25408963044E+03 -0.22642533754E+03  0.10072936324E+04  0.89793092958E+03 0.  0.
        -24    2    4    4    0    0  0.31646958265E+03 -0.16606687447E+03 -0.55144148302E+03  0.66133346576E+03  0.74451596381E+02 0.  0.
         24    2    4    4    0    0 -0.12281263014E+02 -0.88022755969E+02  0.32501614547E+03  0.34596016664E+03  0.78448117205E+02 0.  0.
         13    1    3    3    0    0 -0.16412408818E+03  0.17781176797E+03 -0.59953986693E+03  0.64653058179E+03  0.00000000000E+00 0. -1.
        -13    1    3    3    0    0 -0.14006423145E+03  0.76277862468E+02 -0.54812594155E+03  0.57085755581E+03  0.00000000000E+00 0.  1.
          2    1    6    6  502    0 -0.43680794472E+02 -0.67963739248E+02  0.20724598517E+03  0.22243646290E+03  0.00000000000E+00 0. -1.
          1    1    5    5  503    0  0.26515162776E+03 -0.10758556129E+03 -0.41137973251E+03  0.50111208629E+03  0.00000000000E+00 0. -1.
         -2    1    5    5    0  503  0.51317954888E+02 -0.58481313185E+02 -0.14006175050E+03  0.16022137947E+03  0.00000000000E+00 0.  1.
         -3    1    6    6    0  502  0.31399531458E+02 -0.20059016721E+02  0.11777016031E+03  0.12352370374E+03  0.00000000000E+00 0.  1.
<mgrwt>
<rscale>  0 0.17495950E+04</rscale>
<asrwt>0</asrwt>
<pdfrwt beam="1">  1        2 0.27682869E+00 0.17495950E+04</pdfrwt>
<pdfrwt beam="2">  1       -2 0.65430048E-01 0.17495950E+04</pdfrwt>
<totfact> 0.17615806E+01</totfact>
</mgrwt>
</event>
<event>
12    1  0.1467288E-007  0.3184087E+04  0.7818608E-02  0.8193032E-01
          2   -1    0    0  501    0  0.00000000000E+00  0.00000000000E+00  0.14489871170E+04  0.14489871170E+04  0.00000000000E+00 0. -1.
         -2   -1    0    0    0  501 -0.00000000000E+00 -0.00000000000E+00 -0.17492240849E+04  0.17492240849E+04  0.00000000000E+00 0.  1.
         23    2    1    2    0    0 -0.57611831425E+03  0.82106175797E+03 -0.12091148263E+04  0.15736784384E+04  0.91926285667E+02 0.  0.
        254    2    1    2    0    0  0.57611831425E+03 -0.82106175797E+03  0.90887785838E+03  0.16245327635E+04  0.89832789999E+03 0.  0.
        -24    2    4    4    0    0  0.60354309570E+03 -0.65764771024E+03  0.10589234836E+04  0.13872737922E+04  0.80279830045E+02 0.  0.
         24    2    4    4    0    0 -0.27424781447E+02 -0.16341404774E+03 -0.15004562526E+03  0.23725897135E+03  0.79510126335E+02 0.  0.
         13    1    3    3    0    0 -0.55199482222E+03  0.74359408730E+03 -0.11101977393E+04  0.14457418410E+04  0.00000000000E+00 0.  1.
        -13    1    3    3    0    0 -0.24123492038E+02  0.77467670670E+02 -0.98917086958E+02  0.12793659742E+03  0.00000000000E+00 0. -1.
          2    1    6    6  502    0 -0.19441204544E+02 -0.14670983895E+03 -0.87263936805E+02  0.17180434205E+03  0.00000000000E+00 0. -1.
          1    1    5    5  503    0  0.31131218815E+03 -0.31767338715E+03  0.58528137011E+03  0.73510947592E+03  0.00000000000E+00 0. -1.
         -4    1    5    5    0  503  0.29223090756E+03 -0.33997432309E+03  0.47364211353E+03  0.65216431626E+03  0.00000000000E+00 0.  1.
         -1    1    6    6    0  502 -0.79835769032E+01 -0.16704208784E+02 -0.62781688460E+02  0.65454629302E+02  0.00000000000E+00 0.  1.
<mgrwt>
<rscale>  0 0.31840874E+04</rscale>
<asrwt>0</asrwt>
<pdfrwt beam="1">  1        2 0.22292109E+00 0.31840874E+04</pdfrwt>
<pdfrwt beam="2">  1       -2 0.26911140E+00 0.31840874E+04</pdfrwt>
<totfact> 0.56143446E-01</totfact>
</mgrwt>
</event>
<event>
12    1  0.1467288E-007  0.1827469E+04  0.7818608E-02  0.8691827E-01
         -3   -1    0    0    0  501 -0.00000000000E+00  0.00000000000E+00  0.69685925240E+03  0.69685925240E+03  0.00000000000E+00 0.  1.
          3   -1    0    0  501    0  0.00000000000E+00 -0.00000000000E+00 -0.11981055157E+04  0.11981055157E+04  0.00000000000E+00 0. -1.
         23    2    1    2    0    0  0.65469557068E+02  0.13574175660E+03  0.51479778649E+03  0.54362794839E+03  0.88331749124E+02 0.  0.
        254    2    1    2    0    0 -0.65469557068E+02 -0.13574175660E+03 -0.10160440498E+04  0.13513368197E+04  0.87809657886E+03 0.  0.
        -24    2    4    4    0    0  0.33576363018E+03 -0.87842368616E+02 -0.13889755628E+03  0.38242028564E+03  0.80617905280E+02 0.  0.
         24    2    4    4    0    0 -0.40123318725E+03 -0.47899387981E+02 -0.87714649351E+03  0.96891653407E+03  0.78299789258E+02 0.  0.
         11    1    3    3    0    0  0.20056749936E+02 -0.49647631937E+00  0.15398556343E+03  0.15528706788E+03  0.00000000000E+00 0. -1.
        -11    1    3    3    0    0  0.45412807131E+02  0.13623823292E+03  0.36081222306E+03  0.38834088050E+03  0.00000000000E+00 0.  1.
          2    1    6    6  502    0 -0.28538055990E+03 -0.23801758859E+01 -0.65019693576E+03  0.71007308390E+03  0.00000000000E+00 0. -1.
          3    1    5    5  503    0  0.26449560532E+02  0.14900030285E+02 -0.10849927497E+02  0.32238347996E+02  0.00000000000E+00 0. -1.
         -4    1    5    5    0  503  0.30931406965E+03 -0.10274239890E+03 -0.12804762878E+03  0.35018193764E+03  0.00000000000E+00 0.  1.
         -1    1    6    6    0  502 -0.11585262735E+03 -0.45519212095E+02 -0.22694955776E+03  0.25884345018E+03  0.00000000000E+00 0.  1.
<mgrwt>
<rscale>  0 0.18274692E+04</rscale>
<asrwt>0</asrwt>
<pdfrwt beam="1">  1        3 0.18432393E+00 0.18274692E+04</pdfrwt>
<pdfrwt beam="2">  1       -3 0.10720912E+00 0.18274692E+04</pdfrwt>
<totfact> 0.33950846E-01</totfact>
</mgrwt>
</event>
<event>
12    1  0.1467288E-007  0.1455372E+04  0.7818608E-02  0.8914685E-01
          1   -1    0    0  501    0  0.00000000000E+00  0.00000000000E+00  0.18533494241E+04  0.18533494241E+04  0.00000000000E+00 0. -1.
         -1   -1    0    0    0  501 -0.00000000000E+00 -0.00000000000E+00 -0.28571332169E+03  0.28571332169E+03  0.00000000000E+00 0.  1.
         23    2    1    2    0    0  0.10617442962E+03 -0.41510849363E+03  0.34766487546E+03  0.55918148853E+03  0.90691788474E+02 0.  0.
        254    2    1    2    0    0 -0.10617442962E+03  0.41510849363E+03  0.12199712269E+04  0.15798812572E+04  0.90780334954E+03 0.  0.
        -24    2    4    4    0    0  0.66015860857E+02 -0.59988443608E+02  0.10257417833E+04  0.10327896896E+04  0.80942137605E+02 0.  0.
         24    2    4    4    0    0 -0.17219029047E+03  0.47509693724E+03  0.19422944362E+03  0.54709156765E+03  0.78851193525E+02 0.  0.
         11    1    3    3    0    0  0.84171616211E+02 -0.24782322039E+03  0.15972931229E+03  0.30661810570E+03  0.00000000000E+00 0.  1.
        -11    1    3    3    0    0  0.22002813406E+02 -0.16728527324E+03  0.18793556317E+03  0.25256338283E+03  0.00000000000E+00 0. -1.
          2    1    6    6  502    0 -0.18251753599E+02  0.46320107710E+02  0.46608539975E+02  0.68198496217E+02  0.00000000000E+00 0. -1.
          3    1    5    5  503    0 -0.14970376974E+02 -0.26561160825E+01  0.57477060194E+02  0.59454012379E+02  0.00000000000E+00 0. -1.
         -4    1    5    5    0  503  0.80986237831E+02 -0.57332327525E+02  0.96826472309E+03  0.97333567719E+03  0.00000000000E+00 0.  1.
         -3    1    6    6    0  502 -0.15393853688E+03  0.42877682953E+03  0.14762090365E+03  0.47889307143E+03  0.00000000000E+00 0.  1.
<mgrwt>
<rscale>  0 0.14553716E+04</rscale>
<asrwt>0</asrwt>
<pdfrwt beam="1">  1        1 0.28513067E+00 0.14553716E+04</pdfrwt>
<pdfrwt beam="2">  1       -1 0.43955897E-01 0.14553716E+04</pdfrwt>
<totfact> 0.18623551E+01</totfact>
</mgrwt>
</event>
<event>
12    1  0.1467288E-007  0.2725801E+04  0.7818608E-02  0.8326682E-01
         -2   -1    0    0    0  501 -0.00000000000E+00  0.00000000000E+00  0.15192487340E+04  0.15192487340E+04  0.00000000000E+00 0. -1.
          2   -1    0    0  501    0  0.00000000000E+00 -0.00000000000E+00 -0.12226423849E+04  0.12226423849E+04  0.00000000000E+00 0.  1.
         23    2    1    2    0    0  0.30190726103E+03  0.11264967113E+04 -0.18677579820E+03  0.11846371106E+04  0.91307449218E+02 0.  0.
        254    2    1    2    0    0 -0.30190726103E+03 -0.11264967113E+04  0.48338214725E+03  0.15572540083E+04  0.91172304535E+03 0.  0.
        -24    2    4    4    0    0 -0.51907711944E+03 -0.35773412798E+03  0.39733433539E+03  0.74989267875E+03  0.83962451827E+02 0.  0.
         24    2    4    4    0    0  0.21716985841E+03 -0.76876258328E+03  0.86047811854E+02  0.80736132957E+03  0.79179755687E+02 0.  0.
         11    1    3    3    0    0  0.11943177235E+03  0.44363991652E+03 -0.28515972838E+02  0.46031889433E+03  0.00000000000E+00 0. -1.
        -11    1    3    3    0    0  0.18247548868E+03  0.68285679474E+03 -0.15825982536E+03  0.72431821627E+03  0.00000000000E+00 0.  1.
          2    1    6    6  502    0 -0.17790940525E+01 -0.76146260257E+02  0.13419633992E+02  0.77340188151E+02  0.00000000000E+00 0. -1.
          1    1    5    5  503    0 -0.95301141317E+01 -0.13831097630E+02 -0.18765773058E+01  0.16901002319E+02  0.00000000000E+00 0. -1.
         -2    1    5    5    0  503 -0.50954700531E+03 -0.34390303035E+03  0.39921091270E+03  0.73299167643E+03  0.00000000000E+00 0.  1.
         -1    1    6    6    0  502  0.21894895246E+03 -0.69261632302E+03  0.72628177862E+02  0.73002114142E+03  0.00000000000E+00 0.  1.
<mgrwt>
<rscale>  0 0.27258011E+04</rscale>
<asrwt>0</asrwt>
<pdfrwt beam="1">  1        2 0.18809883E+00 0.27258011E+04</pdfrwt>
<pdfrwt beam="2">  1       -2 0.23373057E+00 0.27258011E+04</pdfrwt>
<totfact> 0.13024389E+00</totfact>
</mgrwt>
</event>
<event>
12    1  0.1467288E-007  0.1688141E+04  0.7818608E-02  0.8768157E-01
          1   -1    0    0  501    0  0.00000000000E+00  0.00000000000E+00  0.14397283332E+04  0.14397283332E+04  0.00000000000E+00 0. -1.
         -1   -1    0    0    0  501 -0.00000000000E+00 -0.00000000000E+00 -0.49485356751E+03  0.49485356751E+03  0.00000000000E+00 0.  1.
         23    2    1    2    0    0  0.13674961188E+03  0.65764238567E+02 -0.32969336856E+03  0.37316534834E+03  0.86771357633E+02 0.  0.
        254    2    1    2    0    0 -0.13674961188E+03 -0.65764238567E+02  0.12745681343E+04  0.15614165524E+04  0.88908510830E+03 0.  0.
        -24    2    4    4    0    0 -0.18420141764E+03  0.26460063857E+03  0.11669072961E+03  0.35394455537E+03  0.87842823883E+02 0.  0.
         24    2    4    4    0    0  0.47451805757E+02 -0.33036487713E+03  0.11578774047E+04  0.12074719971E+04  0.76914975775E+02 0.  0.
         11    1    3    3    0    0  0.14916491119E+03  0.63681865089E+02 -0.30444199256E+03  0.34494996377E+03  0.00000000000E+00 0.  1.
        -11    1    3    3    0    0 -0.12415299315E+02  0.20823734779E+01 -0.25251375995E+02  0.28215384563E+02  0.00000000000E+00 0. -1.
          2    1    6    6  502    0  0.13078097731E+02 -0.28633673225E+03  0.97256962511E+03  0.10139287137E+04  0.00000000000E+00 0. -1.
          3    1    5    5  503    0 -0.88663592993E+02  0.16457381925E+03  0.26475720419E+02  0.18880343873E+03  0.00000000000E+00 0. -1.
         -4    1    5    5    0  503 -0.95537824643E+02  0.10002681931E+03  0.90215009192E+02  0.16514111663E+03  0.00000000000E+00 0.  1.
         -1    1    6    6    0  502  0.34373708027E+02 -0.44028144882E+02  0.18530777957E+03  0.19354328331E+03  0.00000000000E+00 0.  1.
<mgrwt>
<rscale>  0 0.16881406E+04</rscale>
<asrwt>0</asrwt>
<pdfrwt beam="1">  1        1 0.22149666E+00 0.16881406E+04</pdfrwt>
<pdfrwt beam="2">  1       -1 0.76131319E-01 0.16881406E+04</pdfrwt>
<totfact> 0.11891627E+01</totfact>
</mgrwt>
</event>
<event>
12    1  0.1467288E-007  0.1124237E+04  0.7818608E-02  0.9181885E-01
         -1   -1    0    0    0  501 -0.00000000000E+00  0.00000000000E+00  0.13915352643E+03  0.13915352643E+03  0.00000000000E+00 0.  1.
          1   -1    0    0  501    0  0.00000000000E+00 -0.00000000000E+00 -0.22707104937E+04  0.22707104937E+04  0.00000000000E+00 0. -1.
         23    2    1    2    0    0  0.20930956553E+02  0.50420163302E+01 -0.62852031057E+03  0.63527203330E+03  0.89828996598E+02 0.  0.
        254    2    1    2    0    0 -0.20930956553E+02 -0.50420163302E+01 -0.15030366567E+04  0.17745919868E+04  0.94318290984E+03 0.  0.
        -24    2    4    4    0    0 -0.33986933364E+03 -0.54827284378E+02 -0.15774636817E+03  0.38880286090E+03  0.88128048388E+02 0.  0.
         24    2    4    4    0    0  0.31893837708E+03  0.49785268048E+02 -0.13452902885E+04  0.13857891259E+04  0.80032992064E+02 0.  0.
         11    1    3    3    0    0  0.29292025745E+02  0.30669785196E+02 -0.56053729504E+03  0.56213941120E+03  0.00000000000E+00 0. -1.
        -11    1    3    3    0    0 -0.83610691917E+01 -0.25627768866E+02 -0.67983015528E+02  0.73132622101E+02  0.00000000000E+00 0.  1.
          2    1    6    6  502    0  0.25301585806E+02 -0.11958883094E+02 -0.64312899872E+02  0.70137965604E+02  0.00000000000E+00 0. -1.
          1    1    5    5  503    0 -0.27645815750E+01  0.10596858829E+02 -0.10494047548E+02  0.15167773807E+02  0.00000000000E+00 0. -1.
         -4    1    5    5    0  503 -0.33710475206E+03 -0.65424143207E+02 -0.14725232063E+03  0.37363508709E+03  0.00000000000E+00 0.  1.
         -1    1    6    6    0  502  0.29363679128E+03  0.61744151142E+02 -0.12809773886E+04  0.13156511603E+04  0.00000000000E+00 0.  1.
<mgrwt>
<rscale>  0 0.11242373E+04</rscale>
<asrwt>0</asrwt>
<pdfrwt beam="1">  1        1 0.34934006E+00 0.11242373E+04</pdfrwt>
<pdfrwt beam="2">  1       -1 0.21408236E-01 0.11242373E+04</pdfrwt>
<totfact> 0.35563502E+01</totfact>
</mgrwt>
</event>
<event>
12    1  0.1467288E-007  0.1961587E+04  0.7818608E-02  0.8624794E-01
         -1   -1    0    0    0  501 -0.00000000000E+00  0.00000000000E+00  0.13955158231E+04  0.13955158231E+04  0.00000000000E+00 0.  1.
          1   -1    0    0  501    0  0.00000000000E+00 -0.00000000000E+00 -0.68931916309E+03  0.68931916309E+03  0.00000000000E+00 0. -1.
         23    2    1    2    0    0 -0.62014155670E+03 -0.31526650233E+03 -0.72242900458E+02  0.70555571343E+03  0.92851011009E+02 0.  0.
        254    2    1    2    0    0  0.62014155670E+03  0.31526650233E+03  0.77843956046E+03  0.13792792727E+04  0.90137375438E+03 0.  0.
        -24    2    4    4    0    0  0.76457538329E+03  0.48019278974E+03  0.62608499916E+03  0.11015984320E+04  0.79850154386E+02 0.  0.
         24    2    4    4    0    0 -0.14443382659E+03 -0.16492628741E+03  0.15235456129E+03  0.27768084074E+03  0.76373597706E+02 0.  0.
         11    1    3    3    0    0 -0.21861603756E+03 -0.86406248184E+02 -0.62691956256E+02  0.24328849743E+03  0.00000000000E+00 0. -1.
        -11    1    3    3    0    0 -0.40152551915E+03 -0.22886025415E+03 -0.95509442025E+01  0.46226721600E+03  0.00000000000E+00 0.  1.
          4    1    6    6  502    0 -0.85050589297E+02 -0.40764632924E+02  0.56238326157E+02  0.10980941383E+03  0.00000000000E+00 0. -1.
          1    1    5    5  503    0  0.44740620512E+03  0.23549063142E+03  0.33792518397E+03  0.60812957487E+03  0.00000000000E+00 0. -1.
         -2    1    5    5    0  503  0.31716917816E+03  0.24470215832E+03  0.28815981520E+03  0.49346885713E+03  0.00000000000E+00 0.  1.
         -3    1    6    6    0  502 -0.59383237289E+02 -0.12416165449E+03  0.96116235136E+02  0.16787142691E+03  0.00000000000E+00 0.  1.
<mgrwt>
<rscale>  0 0.19615869E+04</rscale>
<asrwt>0</asrwt>
<pdfrwt beam="1">  1        1 0.10604910E+00 0.19615869E+04</pdfrwt>
<pdfrwt beam="2">  1       -1 0.21469474E+00 0.19615869E+04</pdfrwt>
<totfact> 0.31006961E+00</totfact>
</mgrwt>
</event>
<event>
12    1  0.1467288E-007  0.2811913E+04  0.7818608E-02  0.8299579E-01
         -1   -1    0    0    0  501 -0.00000000000E+00  0.00000000000E+00  0.89258919083E+03  0.89258919083E+03  0.00000000000E+00 0.  1.
          1   -1    0    0  501    0  0.00000000000E+00 -0.00000000000E+00 -0.22145842342E+04  0.22145842342E+04  0.00000000000E+00 0. -1.
         23    2    1    2    0    0  0.16828234038E+02 -0.12432691504E+04 -0.37447019848E+03  0.13019501781E+04  0.94047684145E+02 0.  0.
        254    2    1    2    0    0 -0.16828234038E+02  0.12432691504E+04 -0.94752484487E+03  0.18052232470E+04  0.90278805374E+03 0.  0.
        -24    2    4    4    0    0 -0.19540671000E+03  0.11438160604E+04 -0.42484144930E+03  0.12382614105E+04  0.79385775540E+02 0.  0.
         24    2    4    4    0    0  0.17857847596E+03  0.99453089928E+02 -0.52268339557E+03  0.56696183641E+03  0.80415189925E+02 0.  0.
         11    1    3    3    0    0  0.18900391983E+02 -0.60049663662E+03 -0.13318376507E+03  0.61537903010E+03  0.00000000000E+00 0. -1.
        -11    1    3    3    0    0 -0.20721579450E+01 -0.64277251376E+03 -0.24128643341E+03  0.68657114797E+03  0.00000000000E+00 0.  1.
          4    1    6    6  502    0  0.54921089790E+02 -0.55801413236E+01 -0.10027104459E+03  0.11446286063E+03  0.00000000000E+00 0. -1.
          1    1    5    5  503    0 -0.59501131301E+02  0.18970595729E+03 -0.58567188713E+02  0.20726516941E+03  0.00000000000E+00 0. -1.
         -4    1    5    5    0  503 -0.13590557870E+03  0.95411010316E+03 -0.36627426059E+03  0.10309962411E+04  0.00000000000E+00 0.  1.
         -3    1    6    6    0  502  0.12365738617E+03  0.10503323125E+03 -0.42241235098E+03  0.45249897578E+03  0.00000000000E+00 0.  1.
<mgrwt>
<rscale>  0 0.28119132E+04</rscale>
<asrwt>0</asrwt>
<pdfrwt beam="1">  1        1 0.34070527E+00 0.28119132E+04</pdfrwt>
<pdfrwt beam="2">  1       -1 0.13732141E+00 0.28119132E+04</pdfrwt>
<totfact> 0.81154350E-01</totfact>
</mgrwt>
</event>
<event>
12    1  0.1467288E-007  0.2556558E+04  0.7818608E-02  0.8383109E-01
          2   -1    0    0  501    0  0.00000000000E+00  0.00000000000E+00  0.98996667524E+03  0.98996667524E+03  0.00000000000E+00 0. -1.
         -2   -1    0    0    0  501 -0.00000000000E+00 -0.00000000000E+00 -0.16505578142E+04  0.16505578142E+04  0.00000000000E+00 0.  1.
         23    2    1    2    0    0 -0.62692252508E+03 -0.68939725814E+03 -0.92640708325E+03  0.13169628367E+04  0.88660010017E+02 0.  0.
        254    2    1    2    0    0  0.62692252508E+03  0.68939725814E+03  0.26581594432E+03  0.13235616527E+04  0.90158576979E+03 0.  0.
        -24    2    4    4    0    0 -0.36019384251E+02  0.99767348321E+02  0.40074064215E+03  0.42257101872E+03  0.81989534430E+02 0.  0.
         24    2    4    4    0    0  0.66294190933E+03  0.58962990982E+03 -0.13492469783E+03  0.90099063399E+03  0.80150126385E+02 0.  0.
         11    1    3    3    0    0 -0.60599882300E+03 -0.64967034033E+03 -0.85773770608E+03  0.12349170405E+04  0.00000000000E+00 0.  1.
        -11    1    3    3    0    0 -0.20923702081E+02 -0.39726917807E+02 -0.68669377162E+02  0.82045796157E+02  0.00000000000E+00 0. -1.
          4    1    6    6  502    0  0.44903873423E+02  0.70886109681E+02 -0.14952053274E+02  0.85233574905E+02  0.00000000000E+00 0. -1.
          3    1    5    5  503    0 -0.30932110383E+02  0.31208152972E+02  0.28168854014E+03  0.28509503312E+03  0.00000000000E+00 0. -1.
         -4    1    5    5    0  503 -0.50872738679E+01  0.68559195350E+02  0.11905210201E+03  0.13747598560E+03  0.00000000000E+00 0.  1.
         -3    1    6    6    0  502  0.61803803591E+03  0.51874380014E+03 -0.11997264456E+03  0.81575705909E+03  0.00000000000E+00 0.  1.
<mgrwt>
<rscale>  0 0.25565580E+04</rscale>
<asrwt>0</asrwt>
<pdfrwt beam="1">  1        2 0.15230257E+00 0.25565580E+04</pdfrwt>
<pdfrwt beam="2">  1       -2 0.25393197E+00 0.25565580E+04</pdfrwt>
<totfact> 0.13794145E+00</totfact>
</mgrwt>
</event>
<event>
12    1  0.1467288E-007  0.1189467E+04  0.7818608E-02  0.9122126E-01
         -2   -1    0    0    0  501 -0.00000000000E+00  0.00000000000E+00  0.44911781540E+03  0.44911781540E+03  0.00000000000E+00 0.  1.
          2   -1    0    0  501    0  0.00000000000E+00 -0.00000000000E+00 -0.78756160847E+03  0.78756160847E+03  0.00000000000E+00 0. -1.
         23    2    1    2    0    0 -0.31433700339E+02  0.23482730970E+03 -0.55698138073E+02  0.26087953720E+03  0.93935655877E+02 0.  0.
        254    2    1    2    0    0  0.31433700339E+02 -0.23482730970E+03 -0.28274565500E+03  0.97579988668E+03  0.90338716535E+03 0.  0.
        -24    2    4    4    0    0  0.30445959670E+03 -0.37574060521E+03 -0.40486088423E+03  0.63572188547E+03  0.79707789189E+02 0.  0.
         24    2    4    4    0    0 -0.27302589637E+03  0.14091329551E+03  0.12211522923E+03  0.34007800121E+03  0.79631782358E+02 0.  0.
         11    1    3    3    0    0  0.86883480076E+01  0.13387039596E+03  0.89698595920E+01  0.13445158492E+03  0.00000000000E+00 0.  1.
        -11    1    3    3    0    0 -0.40122048346E+02  0.10095691374E+03 -0.64667997665E+02  0.12642795228E+03  0.00000000000E+00 0. -1.
          4    1    6    6  502    0 -0.55172954307E+02  0.60081815234E+02  0.10331660126E+02  0.82223005356E+02  0.00000000000E+00 0. -1.
          3    1    5    5  503    0  0.12704596579E+03 -0.15460680889E+03 -0.11753762659E+03  0.23207549729E+03  0.00000000000E+00 0. -1.
         -4    1    5    5    0  503  0.17741363091E+03 -0.22113379632E+03 -0.28732325764E+03  0.40364638818E+03  0.00000000000E+00 0.  1.
         -3    1    6    6    0  502 -0.21785294206E+03  0.80831480277E+02  0.11178356910E+03  0.25785499586E+03  0.00000000000E+00 0.  1.
<mgrwt>
<rscale>  0 0.11894670E+04</rscale>
<asrwt>0</asrwt>
<pdfrwt beam="1">  1        2 0.12116332E+00 0.11894670E+04</pdfrwt>
<pdfrwt beam="2">  1       -2 0.69095049E-01 0.11894670E+04</pdfrwt>
<totfact> 0.66447697E+01</totfact>
</mgrwt>
</event>
<event>
12    1  0.1467288E-007  0.1920842E+04  0.7818608E-02  0.8644551E-01
         -1   -1    0    0    0  501 -0.00000000000E+00  0.00000000000E+00  0.37071271688E+03  0.37071271688E+03  0.00000000000E+00 0.  1.
          1   -1    0    0  501    0  0.00000000000E+00 -0.00000000000E+00 -0.24882024902E+04  0.24882024902E+04  0.00000000000E+00 0. -1.
         23    2    1    2    0    0  0.17788356347E+03  0.29246409174E+03 -0.18102256545E+04  0.18447172010E+04  0.94269954998E+02 0.  0.
        254    2    1    2    0    0 -0.17788356347E+03 -0.29246409174E+03 -0.30726411883E+03  0.10141980061E+04  0.90388525251E+03 0.  0.
        -24    2    4    4    0    0  0.35822895984E+03 -0.19614549451E+03 -0.14134430579E+03  0.43958730432E+03  0.80360081189E+02 0.  0.
         24    2    4    4    0    0 -0.53611252331E+03 -0.96318597224E+02 -0.16591981304E+03  0.57461070176E+03  0.77163232153E+02 0.  0.
         11    1    3    3    0    0  0.12691695620E+03  0.20902856373E+03 -0.14888240672E+04  0.15087736601E+04  0.00000000000E+00 0. -1.
        -11    1    3    3    0    0  0.50966607268E+02  0.83435528004E+02 -0.32140158726E+03  0.33594354092E+03  0.00000000000E+00 0.  1.
          2    1    6    6  502    0 -0.22650783789E+03 -0.33033879105E+02 -0.30947406165E+02  0.23098653585E+03  0.00000000000E+00 0. -1.
          1    1    5    5  503    0  0.11962361751E+03 -0.86136934488E+02 -0.87372317350E+02  0.17135723850E+03  0.00000000000E+00 0. -1.
         -2    1    5    5    0  503  0.23860534233E+03 -0.11000856002E+03 -0.53971988441E+02  0.26823006581E+03  0.00000000000E+00 0.  1.
         -3    1    6    6    0  502 -0.30960468542E+03 -0.63284718118E+02 -0.13497240688E+03  0.34362416591E+03  0.00000000000E+00 0.  1.
<mgrwt>
<rscale>  0 0.19208418E+04</rscale>
<asrwt>0</asrwt>
<pdfrwt beam="1">  1        1 0.38280037E+00 0.19208418E+04</pdfrwt>
<pdfrwt beam="2">  1       -1 0.57032727E-01 0.19208418E+04</pdfrwt>
<totfact> 0.40160383E+00</totfact>
</mgrwt>
</event>
<event>
12    1  0.1467288E-007  0.3208511E+04  0.7818608E-02  0.8186573E-01
          2   -1    0    0  501    0  0.00000000000E+00  0.00000000000E+00  0.18460478286E+04  0.18460478286E+04  0.00000000000E+00 0. -1.
         -2   -1    0    0    0  501 -0.00000000000E+00 -0.00000000000E+00 -0.13941323248E+04  0.13941323248E+04  0.00000000000E+00 0.  1.
         23    2    1    2    0    0  0.88084138632E+03  0.86109079696E+03 -0.61606383376E+03  0.13803425402E+04  0.91934610802E+02 0.  0.
        254    2    1    2    0    0 -0.88084138632E+03 -0.86109079696E+03  0.10679793376E+04  0.18598376132E+04  0.89501797368E+03 0.  0.
        -24    2    4    4    0    0 -0.55457997390E+03 -0.98806043854E+03  0.65271008569E+03  0.13101074998E+04  0.80801159587E+02 0.  0.
         24    2    4    4    0    0 -0.32626141242E+03  0.12696964158E+03  0.41526925195E+03  0.54973011336E+03  0.84775272349E+02 0.  0.
         11    1    3    3    0    0  0.54538730291E+03  0.50947500985E+03 -0.32629592456E+03  0.81454350788E+03  0.00000000000E+00 0.  1.
        -11    1    3    3    0    0  0.33545408341E+03  0.35161578711E+03 -0.28976790920E+03  0.56579903237E+03  0.00000000000E+00 0. -1.
          2    1    6    6  502    0 -0.19788178841E+03  0.68926694635E+02  0.30858366375E+03  0.37300397981E+03  0.00000000000E+00 0. -1.
          1    1    5    5  503    0 -0.53958619937E+03 -0.95065828478E+03  0.61177247134E+03  0.12526651578E+04  0.00000000000E+00 0. -1.
         -2    1    5    5    0  503 -0.14993774531E+02 -0.37402153765E+02  0.40937614351E+02  0.57442341959E+02  0.00000000000E+00 0.  1.
         -1    1    6    6    0  502 -0.12837962401E+03  0.58042946946E+02  0.10668558820E+03  0.17672613355E+03  0.00000000000E+00 0.  1.
<mgrwt>
<rscale>  0 0.32085105E+04</rscale>
<asrwt>0</asrwt>
<pdfrwt beam="1">  1        2 0.28400736E+00 0.32085105E+04</pdfrwt>
<pdfrwt beam="2">  1       -2 0.21448190E+00 0.32085105E+04</pdfrwt>
<totfact> 0.73370312E-01</totfact>
</mgrwt>
</event>
<event>
12    1  0.1467288E-007  0.1504330E+04  0.7818608E-02  0.8881579E-01
         -2   -1    0    0    0  501 -0.00000000000E+00  0.00000000000E+00  0.92446769713E+03  0.92446769713E+03  0.00000000000E+00 0. -1.
          2   -1    0    0  501    0  0.00000000000E+00 -0.00000000000E+00 -0.61197587573E+03  0.61197587573E+03  0.00000000000E+00 0.  1.
         23    2    1    2    0    0 -0.45773625415E+03  0.15700360836E+03  0.62087766813E+02  0.49682443089E+03  0.93845686862E+02 0.  0.
        254    2    1    2    0    0  0.45773625415E+03 -0.15700360836E+03  0.25040405458E+03  0.10396191420E+04  0.88539999910E+03 0.  0.
        -24    2    4    4    0    0  0.41265471870E+03 -0.49494284600E+03  0.91230270971E+02  0.65562462553E+03  0.79172909443E+02 0.  0.
         24    2    4    4    0    0  0.45081535451E+02  0.33793923764E+03  0.15917378361E+03  0.38399451644E+03  0.76682606178E+02 0.  0.
         13    1    3    3    0    0 -0.16979155659E+03  0.25784755549E+02 -0.10893175259E+02  0.17208337391E+03  0.00000000000E+00 0.  1.
        -13    1    3    3    0    0 -0.28794469755E+03  0.13121885282E+03  0.72980942071E+02  0.32474105698E+03  0.00000000000E+00 0. -1.
          4    1    6    6  502    0  0.33982371781E+02  0.11836822473E+03  0.22687139772E+02  0.12522198101E+03  0.00000000000E+00 0. -1.
          1    1    5    5  503    0  0.35744538389E+03 -0.46044917002E+03  0.94143045897E+02  0.59046045907E+03  0.00000000000E+00 0. -1.
         -2    1    5    5    0  503  0.55209334812E+02 -0.34493675988E+02 -0.29127749262E+01  0.65164166467E+02  0.00000000000E+00 0.  1.
         -3    1    6    6    0  502  0.11099163670E+02  0.21957101291E+03  0.13648664384E+03  0.25877253543E+03  0.00000000000E+00 0.  1.
<mgrwt>
<rscale>  0 0.15043297E+04</rscale>
<asrwt>0</asrwt>
<pdfrwt beam="1">  1        2 0.94150134E-01 0.15043297E+04</pdfrwt>
<pdfrwt beam="2">  1       -2 0.14222580E+00 0.15043297E+04</pdfrwt>
<totfact> 0.16110509E+01</totfact>
</mgrwt>
</event>
<event>
12    1  0.1467288E-007  0.1785379E+04  0.7818608E-02  0.8714114E-01
         -1   -1    0    0    0  501 -0.00000000000E+00  0.00000000000E+00  0.11879091131E+04  0.11879091131E+04  0.00000000000E+00 0.  1.
          1   -1    0    0  501    0  0.00000000000E+00 -0.00000000000E+00 -0.67083767111E+03  0.67083767111E+03  0.00000000000E+00 0. -1.
         23    2    1    2    0    0  0.40499639868E+03  0.17555639590E+03  0.71242868046E+03  0.84295856234E+03  0.90456519921E+02 0.  0.
        254    2    1    2    0    0 -0.40499639868E+03 -0.17555639590E+03 -0.19535723849E+03  0.10157882218E+04  0.89376682078E+03 0.  0.
        -24    2    4    4    0    0 -0.20137096069E+01 -0.37248888401E+03  0.18275286226E+03  0.42291079578E+03  0.81871294019E+02 0.  0.
         24    2    4    4    0    0 -0.40298268907E+03  0.19693248811E+03 -0.37811010075E+03  0.59287742606E+03  0.85784272928E+02 0.  0.
         11    1    3    3    0    0  0.63883596868E+02  0.64417277775E+01  0.61793661274E+02  0.89112661161E+02  0.00000000000E+00 0. -1.
        -11    1    3    3    0    0  0.34111280181E+03  0.16911466812E+03  0.65063501918E+03  0.75384590118E+03  0.00000000000E+00 0.  1.
          4    1    6    6  502    0 -0.37704058564E+03  0.16446119072E+03 -0.36312862595E+03  0.54869799112E+03  0.00000000000E+00 0. -1.
          3    1    5    5  503    0 -0.17099328400E+02 -0.28792763192E+03  0.10470357931E+03  0.30685101886E+03  0.00000000000E+00 0. -1.
         -4    1    5    5    0  503  0.15085618793E+02 -0.84561252096E+02  0.78049282955E+02  0.11605977693E+03  0.00000000000E+00 0.  1.
         -3    1    6    6    0  502 -0.25942103433E+02  0.32471297393E+02 -0.14981474795E+02  0.44179434944E+02  0.00000000000E+00 0.  1.
<mgrwt>
<rscale>  0 0.17853786E+04</rscale>
<asrwt>0</asrwt>
<pdfrwt beam="1">  1        1 0.10320580E+00 0.17853786E+04</pdfrwt>
<pdfrwt beam="2">  1       -1 0.18275525E+00 0.17853786E+04</pdfrwt>
<totfact> 0.54581886E+00</totfact>
</mgrwt>
</event>
<event>
12    1  0.1467288E-007  0.2169758E+04  0.7818608E-02  0.8531122E-01
          2   -1    0    0  501    0  0.00000000000E+00  0.00000000000E+00  0.27530564680E+04  0.27530564680E+04  0.00000000000E+00 0. -1.
         -2   -1    0    0    0  501 -0.00000000000E+00 -0.00000000000E+00 -0.42751117310E+03  0.42751117310E+03  0.00000000000E+00 0.  1.
         23    2    1    2    0    0 -0.54823334705E+03  0.14286027445E+03  0.19808356208E+04  0.20622500927E+04  0.90536331952E+02 0.  0.
        254    2    1    2    0    0  0.54823334705E+03 -0.14286027445E+03  0.34470967409E+03  0.11183175484E+04  0.90046683380E+03 0.  0.
        -24    2    4    4    0    0  0.62736016144E+02 -0.45564757597E+03  0.24362092176E+03  0.52665288052E+03  0.80383965027E+02 0.  0.
         24    2    4    4    0    0  0.48549733091E+03  0.31278730152E+03  0.10108875233E+03  0.59166466786E+03  0.79401442292E+02 0.  0.
         13    1    3    3    0    0 -0.31182159132E+03  0.11807008041E+03  0.10583173966E+04  0.11095985583E+04  0.00000000000E+00 0.  1.
        -13    1    3    3    0    0 -0.23641175573E+03  0.24790194043E+02  0.92251822427E+03  0.95265153444E+03  0.00000000000E+00 0. -1.
          4    1    6    6  502    0  0.30967621528E+03  0.24249887375E+03  0.76946516289E+02  0.40078152209E+03  0.00000000000E+00 0. -1.
          1    1    5    5  503    0  0.36105740822E+02 -0.35826849366E+03  0.22321477484E+03  0.42365643365E+03  0.00000000000E+00 0. -1.
         -2    1    5    5    0  503  0.26630275322E+02 -0.97379082311E+02  0.20406146921E+02  0.10299644687E+03  0.00000000000E+00 0.  1.
         -3    1    6    6    0  502  0.17582111562E+03  0.70288427771E+02  0.24142236040E+02  0.19088314577E+03  0.00000000000E+00 0.  1.
<mgrwt>
<rscale>  0 0.21697580E+04</rscale>
<asrwt>0</asrwt>
<pdfrwt beam="1">  1        2 0.42354714E+00 0.21697580E+04</pdfrwt>
<pdfrwt beam="2">  1       -2 0.65770951E-01 0.21697580E+04</pdfrwt>
<totfact> 0.48168189E+00</totfact>
</mgrwt>
</event>
<event>
12    1  0.1467288E-007  0.2087828E+04  0.7818608E-02  0.8566624E-01
         -2   -1    0    0    0  501 -0.00000000000E+00  0.00000000000E+00  0.60043143725E+03  0.60043143725E+03  0.00000000000E+00 0.  1.
          2   -1    0    0  501    0  0.00000000000E+00 -0.00000000000E+00 -0.18149563308E+04  0.18149563308E+04  0.00000000000E+00 0. -1.
         23    2    1    2    0    0 -0.20572531439E+03 -0.10253370345E+03 -0.14365872128E+04  0.14577293319E+04  0.91410720082E+02 0.  0.
        254    2    1    2    0    0  0.20572531439E+03  0.10253370345E+03  0.22206231925E+03  0.95765843617E+03  0.90275242531E+03 0.  0.
        -24    2    4    4    0    0  0.51816431699E+03 -0.11801025483E+03  0.85137923051E+02  0.54407702761E+03  0.79691068380E+02 0.  0.
         24    2    4    4    0    0 -0.31243900260E+03  0.22054395828E+03  0.13692439620E+03  0.41358140856E+03  0.77740101313E+02 0.  0.
         11    1    3    3    0    0 -0.21520874841E+03 -0.99729728987E+02 -0.13637023889E+04  0.13841766613E+04  0.00000000000E+00 0. -1.
        -11    1    3    3    0    0  0.94834340243E+01 -0.28039744626E+01 -0.72884823877E+02  0.73552670551E+02  0.00000000000E+00 0.  1.
          2    1    6    6  502    0 -0.14826271030E+03  0.14202365062E+03  0.47147130724E+02  0.21065469503E+03  0.00000000000E+00 0. -1.
          3    1    5    5  503    0  0.31439459927E+03 -0.66268235947E+02  0.90389967933E+02  0.33377505816E+03  0.00000000000E+00 0. -1.
         -4    1    5    5    0  503  0.20376971772E+03 -0.51742018879E+02 -0.52520448825E+01  0.21030196945E+03  0.00000000000E+00 0.  1.
         -1    1    6    6    0  502 -0.16417629230E+03  0.78520307651E+02  0.89777265478E+02  0.20292671353E+03  0.00000000000E+00 0.  1.
<mgrwt>
<rscale>  0 0.20878284E+04</rscale>
<asrwt>0</asrwt>
<pdfrwt beam="1">  1        2 0.27922404E+00 0.20878284E+04</pdfrwt>
<pdfrwt beam="2">  1       -2 0.92374070E-01 0.20878284E+04</pdfrwt>
<totfact> 0.77693456E+00</totfact>
</mgrwt>
</event>
<event>
12    1  0.1467288E-007  0.1505284E+04  0.7818608E-02  0.8880947E-01
          2   -1    0    0  501    0  0.00000000000E+00  0.00000000000E+00  0.17977053806E+04  0.17977053806E+04  0.00000000000E+00 0.  1.
         -2   -1    0    0    0  501 -0.00000000000E+00 -0.00000000000E+00 -0.31510710288E+03  0.31510710288E+03  0.00000000000E+00 0. -1.
         23    2    1    2    0    0  0.75275738539E+01 -0.37158289476E+03  0.59150716871E+02  0.38712480588E+03  0.90754041100E+02 0.  0.
        254    2    1    2    0    0 -0.75275738539E+01  0.37158289476E+03  0.14234475608E+04  0.17256876776E+04  0.90203353044E+03 0.  0.
        -24    2    4    4    0    0 -0.28534493405E+03  0.55640055492E+03  0.88281037954E+03  0.10850848925E+04  0.83974691201E+02 0.  0.
         24    2    4    4    0    0  0.27781736020E+03 -0.18481766016E+03  0.54063718127E+03  0.64060278507E+03  0.82117679805E+02 0.  0.
         13    1    3    3    0    0  0.33223385860E+02 -0.14171751288E+03 -0.94576347998E+01  0.14586669833E+03  0.00000000000E+00 0.  1.
        -13    1    3    3    0    0 -0.25695812006E+02 -0.22986538188E+03  0.68608351670E+02  0.24125810755E+03  0.00000000000E+00 0. -1.
          2    1    6    6  502    0  0.21683723878E+03 -0.13922535682E+03  0.34454939719E+03  0.43025152551E+03  0.00000000000E+00 0. -1.
          1    1    5    5  503    0 -0.26349812922E+03  0.47820525861E+03  0.72483744976E+03  0.90746948271E+03  0.00000000000E+00 0. -1.
         -2    1    5    5    0  503 -0.21846804828E+02  0.78195296302E+02  0.15797292978E+03  0.17761540977E+03  0.00000000000E+00 0.  1.
         -1    1    6    6    0  502  0.60980121414E+02 -0.45592303343E+02  0.19608778408E+03  0.21035125956E+03  0.00000000000E+00 0.  1.
<mgrwt>
<rscale>  0 0.15052837E+04</rscale>
<asrwt>0</asrwt>
<pdfrwt beam="1">  1        2 0.27657005E+00 0.15052837E+04</pdfrwt>
<pdfrwt beam="2">  1       -2 0.48478017E-01 0.15052837E+04</pdfrwt>
<totfact> 0.33684600E+01</totfact>
</mgrwt>
</event>
<event>
12    1  0.1467288E-007  0.2187950E+04  0.7818608E-02  0.8523460E-01
          4   -1    0    0  501    0  0.00000000000E+00  0.00000000000E+00  0.13634516031E+04  0.13634516031E+04  0.00000000000E+00 0. -1.
         -4   -1    0    0    0  501 -0.00000000000E+00 -0.00000000000E+00 -0.87775842458E+03  0.87775842458E+03  0.00000000000E+00 0.  1.
         23    2    1    2    0    0  0.56633354479E+03  0.63883534504E+03  0.52108075460E+03  0.10042163288E+04  0.89894383719E+02 0.  0.
        254    2    1    2    0    0 -0.56633354479E+03 -0.63883534504E+03 -0.35387576058E+02  0.12369936989E+04  0.89445896972E+03 0.  0.
        -24    2    4    4    0    0 -0.15144132351E+03 -0.48273292682E+03  0.36958832718E+03  0.63160216170E+03  0.79750899467E+02 0.  0.
         24    2    4    4    0    0 -0.41489222129E+03 -0.15610241821E+03 -0.40497590324E+03  0.60539153719E+03  0.77394514264E+02 0.  0.
         13    1    3    3    0    0  0.45616939367E+02  0.31244543973E+02  0.14542437566E+02  0.57171751553E+02  0.00000000000E+00 0.  1.
        -13    1    3    3    0    0  0.52071660543E+03  0.60759080106E+03  0.50653831704E+03  0.94704457727E+03  0.00000000000E+00 0. -1.
          2    1    6    6  502    0 -0.83075196253E+02 -0.20461785535E+02 -0.12036579861E+03  0.14767565261E+03  0.00000000000E+00 0. -1.
          3    1    5    5  503    0 -0.29821000866E+02 -0.27848181162E+02  0.22111078766E+02  0.46408114494E+02  0.00000000000E+00 0. -1.
         -4    1    5    5    0  503 -0.12162032264E+03 -0.45488474566E+03  0.34747724842E+03  0.58519404720E+03  0.00000000000E+00 0.  1.
         -1    1    6    6    0  502 -0.33181702503E+03 -0.13564063268E+03 -0.28461010463E+03  0.45771588458E+03  0.00000000000E+00 0.  1.
<mgrwt>
<rscale>  0 0.21879498E+04</rscale>
<asrwt>0</asrwt>
<pdfrwt beam="1">  1        4 0.20976178E+00 0.21879498E+04</pdfrwt>
<pdfrwt beam="2">  1       -4 0.13503976E+00 0.21879498E+04</pdfrwt>
<totfact> 0.81505227E-02</totfact>
</mgrwt>
</event>
<event>
12    1  0.1467288E-007  0.1647065E+04  0.7818608E-02  0.8792145E-01
         -1   -1    0    0    0  501 -0.00000000000E+00  0.00000000000E+00  0.13463669080E+04  0.13463669080E+04  0.00000000000E+00 0.  1.
          1   -1    0    0  501    0  0.00000000000E+00 -0.00000000000E+00 -0.50373003950E+03  0.50373003950E+03  0.00000000000E+00 0. -1.
         23    2    1    2    0    0 -0.46012228686E+03  0.52662766062E+02  0.71254167323E+03  0.85439265352E+03  0.88234259257E+02 0.  0.
        254    2    1    2    0    0  0.46012228686E+03 -0.52662766062E+02  0.13009519528E+03  0.99570429399E+03  0.87178919209E+03 0.  0.
        -24    2    4    4    0    0  0.26576738382E+03  0.30246721326E+03  0.33992956341E+03  0.53302606273E+03  0.80286724122E+02 0.  0.
         24    2    4    4    0    0  0.19435490305E+03 -0.35512997933E+03 -0.20983436813E+03  0.46267823126E+03  0.78419086196E+02 0.  0.
         11    1    3    3    0    0 -0.42530901175E+03  0.23520264650E+02  0.64889633858E+03  0.77621351222E+03  0.00000000000E+00 0.  1.
        -11    1    3    3    0    0 -0.34813275110E+02  0.29142501411E+02  0.63645334652E+02  0.78179141306E+02  0.00000000000E+00 0. -1.
          2    1    6    6  502    0  0.13063464032E+03 -0.30135505530E+03 -0.15776289245E+03  0.36437536805E+03  0.00000000000E+00 0. -1.
          3    1    5    5  503    0  0.65848539804E+02  0.11918377983E+03  0.14575974155E+03  0.19946605181E+03  0.00000000000E+00 0. -1.
         -4    1    5    5    0  503  0.19991884401E+03  0.18328343343E+03  0.19416982186E+03  0.33356001092E+03  0.00000000000E+00 0.  1.
         -1    1    6    6    0  502  0.63720262730E+02 -0.53774924025E+02 -0.52071475681E+02  0.98302863213E+02  0.00000000000E+00 0.  1.
<mgrwt>
<rscale>  0 0.16470646E+04</rscale>
<asrwt>0</asrwt>
<pdfrwt beam="1">  1        1 0.77496930E-01 0.16470646E+04</pdfrwt>
<pdfrwt beam="2">  1       -1 0.20713337E+00 0.16470646E+04</pdfrwt>
<totfact> 0.56371435E+00</totfact>
</mgrwt>
</event>
<event>
12    1  0.1467288E-007  0.1107926E+04  0.7818608E-02  0.9197501E-01
          2   -1    0    0  501    0  0.00000000000E+00  0.00000000000E+00  0.53165941450E+03  0.53165941450E+03  0.00000000000E+00 0. -1.
         -2   -1    0    0    0  501 -0.00000000000E+00 -0.00000000000E+00 -0.57720217640E+03  0.57720217640E+03  0.00000000000E+00 0.  1.
         23    2    1    2    0    0 -0.71331052874E+02  0.39827093526E+02  0.15631337968E+03  0.19787134943E+03  0.89693264923E+02 0.  0.
        254    2    1    2    0    0  0.71331052874E+02 -0.39827093526E+02 -0.20185614158E+03  0.91099024148E+03  0.88458069258E+03 0.  0.
        -24    2    4    4    0    0 -0.17205539168E+03 -0.39963647346E+03 -0.55982106124E+02  0.44589636133E+03  0.79857373554E+02 0.  0.
         24    2    4    4    0    0  0.24338644456E+03  0.35980937994E+03 -0.14587403546E+03  0.46509388015E+03  0.79582233232E+02 0.  0.
         13    1    3    3    0    0 -0.21818837829E+02 -0.79893058343E+00 -0.66094818539E+01  0.22811953548E+02  0.00000000000E+00 0.  1.
        -13    1    3    3    0    0 -0.49512215045E+02  0.40626024109E+02  0.16292286154E+03  0.17505939588E+03  0.00000000000E+00 0. -1.
          4    1    6    6  502    0  0.17797586487E+02  0.38454989754E+02  0.84767928162E+01  0.43213381471E+02  0.00000000000E+00 0. -1.
          3    1    5    5  503    0  0.11304270860E+01 -0.61208442118E+02 -0.18144289781E+02  0.63851127661E+02  0.00000000000E+00 0. -1.
         -4    1    5    5    0  503 -0.17318581877E+03 -0.33842803135E+03 -0.37837816343E+02  0.38204523367E+03  0.00000000000E+00 0.  1.
         -3    1    6    6    0  502  0.22558885807E+03  0.32135439018E+03 -0.15435082827E+03  0.42188049868E+03  0.00000000000E+00 0.  1.
<mgrwt>
<rscale>  0 0.11079259E+04</rscale>
<asrwt>0</asrwt>
<pdfrwt beam="1">  1        2 0.81793757E-01 0.11079259E+04</pdfrwt>
<pdfrwt beam="2">  1       -2 0.88800334E-01 0.11079259E+04</pdfrwt>
<totfact> 0.62020678E+01</totfact>
</mgrwt>
</event>
<event>
12    1  0.1467288E-007  0.1016418E+04  0.7818608E-02  0.9290718E-01
          2   -1    0    0  501    0  0.00000000000E+00  0.00000000000E+00  0.20306068867E+04  0.20306068867E+04  0.00000000000E+00 0. -1.
         -2   -1    0    0    0  501 -0.00000000000E+00 -0.00000000000E+00 -0.12719183874E+03  0.12719183874E+03  0.00000000000E+00 0.  1.
         23    2    1    2    0    0 -0.60219590250E+02 -0.40767761277E+02  0.29749330688E+03  0.31752384581E+03  0.83849362596E+02 0.  0.
        254    2    1    2    0    0  0.60219590250E+02  0.40767761277E+02  0.16059217411E+04  0.18402748796E+04  0.89573354562E+03 0.  0.
        -24    2    4    4    0    0 -0.19412807955E+02 -0.40419323070E+03  0.53648827452E+03  0.67649795479E+03  0.77979415785E+02 0.  0.
         24    2    4    4    0    0  0.79632398205E+02  0.44496099198E+03  0.10694334666E+04  0.11637769249E+04  0.79731977064E+02 0.  0.
         13    1    3    3    0    0 -0.88878912666E+01  0.16539105539E+02  0.13065395078E+02  0.22874465497E+02  0.00000000000E+00 0.  1.
        -13    1    3    3    0    0 -0.51331698984E+02 -0.57306866816E+02  0.28442791181E+03  0.29464938031E+03  0.00000000000E+00 0. -1.
          4    1    6    6  502    0  0.73197691226E+02  0.25364043278E+03  0.69029275572E+03  0.73905037700E+03  0.00000000000E+00 0. -1.
          3    1    5    5  503    0  0.49531944264E+01  0.22836327183E+00  0.10843021178E+01  0.50756276353E+01  0.00000000000E+00 0. -1.
         -4    1    5    5    0  503 -0.24366002381E+02 -0.40442159397E+03  0.53540397240E+03  0.67142232716E+03  0.00000000000E+00 0.  1.
         -3    1    6    6    0  502  0.64347069786E+01  0.19132055920E+03  0.37914071085E+03  0.42472654785E+03  0.00000000000E+00 0.  1.
<mgrwt>
<rscale>  0 0.10164185E+04</rscale>
<asrwt>0</asrwt>
<pdfrwt beam="1">  1        2 0.31240104E+00 0.10164185E+04</pdfrwt>
<pdfrwt beam="2">  1       -2 0.19567977E-01 0.10164185E+04</pdfrwt>
<totfact> 0.14286880E+02</totfact>
</mgrwt>
</event>
<event>
12    1  0.1467288E-007  0.1925564E+04  0.7818608E-02  0.8642235E-01
         -2   -1    0    0    0  501 -0.00000000000E+00  0.00000000000E+00  0.20583939958E+04  0.20583939958E+04  0.00000000000E+00 0.  1.
          2   -1    0    0  501    0  0.00000000000E+00 -0.00000000000E+00 -0.45032636504E+03  0.45032636504E+03  0.00000000000E+00 0. -1.
         23    2    1    2    0    0 -0.66241581312E+02  0.62941125834E+03  0.11474323067E+04  0.13135674758E+04  0.91170915607E+02 0.  0.
        254    2    1    2    0    0  0.66241581312E+02 -0.62941125834E+03  0.46063532408E+03  0.11951528850E+04  0.90313843768E+03 0.  0.
        -24    2    4    4    0    0 -0.29987201396E+03  0.22342826384E+02 -0.54341589925E+01  0.31080831727E+03  0.78421000693E+02 0.  0.
         24    2    4    4    0    0  0.36611359527E+03 -0.65175408472E+03  0.46606948307E+03  0.88434456777E+03  0.77601545759E+02 0.  0.
         13    1    3    3    0    0 -0.52547486745E+01  0.59120101088E+02  0.17269979351E+03  0.18261439542E+03  0.00000000000E+00 0. -1.
        -13    1    3    3    0    0 -0.60986832638E+02  0.57029115725E+03  0.97473251315E+03  0.11309530804E+04  0.00000000000E+00 0.  1.
          4    1    6    6  502    0  0.30105093763E+03 -0.58729986101E+03  0.40750866915E+03  0.77563916174E+03  0.00000000000E+00 0. -1.
          3    1    5    5  503    0 -0.10931622316E+03  0.43362827698E+02 -0.16617173330E+02  0.11877079575E+03  0.00000000000E+00 0. -1.
         -4    1    5    5    0  503 -0.19055579080E+03 -0.21020001314E+02  0.11183014338E+02  0.19203752152E+03  0.00000000000E+00 0.  1.
         -3    1    6    6    0  502  0.65062657646E+02 -0.64454223713E+02  0.58560813923E+02  0.10870540604E+03  0.00000000000E+00 0.  1.
<mgrwt>
<rscale>  0 0.19255639E+04</rscale>
<asrwt>0</asrwt>
<pdfrwt beam="1">  1        2 0.69280980E-01 0.19255639E+04</pdfrwt>
<pdfrwt beam="2">  1       -2 0.31667599E+00 0.19255639E+04</pdfrwt>
<totfact> 0.16333316E+00</totfact>
</mgrwt>
</event>
<event>
12    1  0.1467288E-007  0.1943652E+04  0.7818608E-02  0.8633428E-01
         -2   -1    0    0    0  501 -0.00000000000E+00  0.00000000000E+00  0.30103290208E+03  0.30103290208E+03  0.00000000000E+00 0.  1.
          2   -1    0    0  501    0  0.00000000000E+00 -0.00000000000E+00 -0.31373500803E+04  0.31373500803E+04  0.00000000000E+00 0. -1.
         23    2    1    2    0    0  0.21370247653E+03 -0.11572910155E+03  0.15816961442E+03  0.30092630268E+03  0.80480055290E+02 0.  0.
        254    2    1    2    0    0 -0.21370247653E+03  0.11572910155E+03 -0.29944867926E+04  0.31374566797E+04  0.90422413830E+03 0.  0.
        -24    2    4    4    0    0 -0.10729360148E+03  0.50637014785E+03 -0.17296238455E+04  0.18071646715E+04  0.79516408499E+02 0.  0.
         24    2    4    4    0    0 -0.10640887505E+03 -0.39064104630E+03 -0.12648629471E+04  0.13302920082E+04  0.76650351951E+02 0.  0.
         11    1    3    3    0    0  0.15339104143E+03 -0.80776005404E+02  0.66302383285E+02  0.18560598231E+03  0.00000000000E+00 0.  1.
        -11    1    3    3    0    0  0.60311435096E+02 -0.34953096146E+02  0.91867231136E+02  0.11532032037E+03  0.00000000000E+00 0. -1.
          4    1    6    6  502    0 -0.28794347529E+02 -0.11098758769E+03 -0.47952197685E+03  0.49304024720E+03  0.00000000000E+00 0. -1.
          1    1    5    5  503    0 -0.63390802805E+01  0.41431729898E+02 -0.80175403893E+02  0.90470257933E+02  0.00000000000E+00 0. -1.
         -2    1    5    5    0  503 -0.10095452120E+03  0.46493841795E+03 -0.16494484417E+04  0.17166944135E+04  0.00000000000E+00 0.  1.
         -3    1    6    6    0  502 -0.77614527517E+02 -0.27965345861E+03 -0.78534097023E+03  0.83725176101E+03  0.00000000000E+00 0.  1.
<mgrwt>
<rscale>  0 0.19436518E+04</rscale>
<asrwt>0</asrwt>
<pdfrwt beam="1">  1        2 0.48266923E+00 0.19436518E+04</pdfrwt>
<pdfrwt beam="2">  1       -2 0.46312755E-01 0.19436518E+04</pdfrwt>
<totfact> 0.58958062E+00</totfact>
</mgrwt>
</event>
<event>
12    1  0.1467288E-007  0.1783873E+04  0.7818608E-02  0.8714923E-01
          1   -1    0    0  501    0  0.00000000000E+00  0.00000000000E+00  0.10426218701E+04  0.10426218701E+04  0.00000000000E+00 0. -1.
         -1   -1    0    0    0  501 -0.00000000000E+00 -0.00000000000E+00 -0.76302902326E+03  0.76302902326E+03  0.00000000000E+00 0.  1.
         23    2    1    2    0    0 -0.25414303503E+03  0.15387575612E+03 -0.49659966174E+03  0.58603007642E+03  0.92485652131E+02 0.  0.
        254    2    1    2    0    0  0.25414303503E+03 -0.15387575612E+03  0.77619250861E+03  0.12196208170E+04  0.89259940409E+03 0.  0.
        -24    2    4    4    0    0  0.13732228732E+03  0.54623935987E+02 -0.17005940146E+03  0.24036352388E+03  0.83745081095E+02 0.  0.
         24    2    4    4    0    0  0.11682074771E+03 -0.20849969211E+03  0.94625191007E+03  0.97925729309E+03  0.80205735757E+02 0.  0.
         11    1    3    3    0    0 -0.18177770387E+03  0.70967361056E+02 -0.25994630457E+03  0.32504089161E+03  0.00000000000E+00 0.  1.
        -11    1    3    3    0    0 -0.72365331157E+02  0.82908395063E+02 -0.23665335717E+03  0.26098918481E+03  0.00000000000E+00 0. -1.
          4    1    6    6  502    0  0.66975168506E+02 -0.15812240285E+03  0.77732313841E+03  0.79606509092E+03  0.00000000000E+00 0. -1.
          1    1    5    5  503    0  0.13623477818E+03  0.66299934477E+02 -0.17115991691E+03  0.22858546160E+03  0.00000000000E+00 0. -1.
         -2    1    5    5    0  503  0.10875091423E+01 -0.11675998489E+02  0.11005154467E+01  0.11778062282E+02  0.00000000000E+00 0.  1.
         -3    1    6    6    0  502  0.49845579202E+02 -0.50377289258E+02  0.16892877166E+03  0.18319220217E+03  0.00000000000E+00 0.  1.
<mgrwt>
<rscale>  0 0.17838730E+04</rscale>
<asrwt>0</asrwt>
<pdfrwt beam="1">  1        1 0.16040336E+00 0.17838730E+04</pdfrwt>
<pdfrwt beam="2">  1       -1 0.11738908E+00 0.17838730E+04</pdfrwt>
<totfact> 0.86554560E+00</totfact>
</mgrwt>
</event>
<event>
12    1  0.1467288E-007  0.1161159E+04  0.7818608E-02  0.9147550E-01
         -2   -1    0    0    0  501 -0.00000000000E+00  0.00000000000E+00  0.20608087343E+04  0.20608087343E+04  0.00000000000E+00 0.  1.
          2   -1    0    0  501    0  0.00000000000E+00 -0.00000000000E+00 -0.16356332406E+03  0.16356332406E+03  0.00000000000E+00 0. -1.
         23    2    1    2    0    0 -0.26130429787E+02 -0.15290926674E+03  0.67066187925E+03  0.69451712342E+03  0.92209735011E+02 0.  0.
        254    2    1    2    0    0  0.26130429787E+02  0.15290926674E+03  0.12265835310E+04  0.15298549349E+04  0.90104656942E+03 0.  0.
        -24    2    4    4    0    0  0.30711011329E+03 -0.22187621805E+03  0.30489220120E+03  0.49283252098E+03  0.79868401549E+02 0.  0.
         24    2    4    4    0    0 -0.28097968350E+03  0.37478548479E+03  0.92169132979E+03  0.10370224140E+04  0.80540905777E+02 0.  0.
         11    1    3    3    0    0 -0.11130681183E+02 -0.37161696701E+02  0.51637937538E+02  0.64586069384E+02  0.00000000000E+00 0. -1.
        -11    1    3    3    0    0 -0.14999748604E+02 -0.11574757004E+03  0.61902394172E+03  0.62993105404E+03  0.00000000000E+00 0.  1.
          4    1    6    6  502    0 -0.23185981012E+03  0.24891970493E+03  0.65810738510E+03  0.74082745723E+03  0.00000000000E+00 0. -1.
          1    1    5    5  503    0  0.29437803200E+03 -0.22028314096E+03  0.27147298879E+03  0.45703465028E+03  0.00000000000E+00 0. -1.
         -2    1    5    5    0  503  0.12732081286E+02 -0.15930770880E+01  0.33419212411E+02  0.35797870700E+02  0.00000000000E+00 0.  1.
         -3    1    6    6    0  502 -0.49119873379E+02  0.12586577986E+03  0.26358394468E+03  0.29619495673E+03  0.00000000000E+00 0.  1.
<mgrwt>
<rscale>  0 0.11611593E+04</rscale>
<asrwt>0</asrwt>
<pdfrwt beam="1">  1        2 0.25163590E-01 0.11611593E+04</pdfrwt>
<pdfrwt beam="2">  1       -2 0.31704748E+00 0.11611593E+04</pdfrwt>
<totfact> 0.54413585E+00</totfact>
</mgrwt>
</event>
<event>
12    1  0.1467288E-007  0.1427104E+04  0.7818608E-02  0.8934430E-01
          2   -1    0    0  501    0  0.00000000000E+00  0.00000000000E+00  0.32756457538E+04  0.32756457538E+04  0.00000000000E+00 0. -1.
         -2   -1    0    0    0  501 -0.00000000000E+00 -0.00000000000E+00 -0.15543688980E+03  0.15543688980E+03  0.00000000000E+00 0.  1.
         23    2    1    2    0    0 -0.15861932374E+03  0.24910565483E+03  0.16310846414E+04  0.16600723303E+04  0.90494846425E+02 0.  0.
        254    2    1    2    0    0  0.15861932374E+03 -0.24910565483E+03  0.14891242226E+04  0.17710103133E+04  0.91201582352E+03 0.  0.
        -24    2    4    4    0    0 -0.41110998868E+02 -0.46834319568E+02 -0.10760136500E+03  0.14722206124E+03  0.78820770410E+02 0.  0.
         24    2    4    4    0    0  0.19973032261E+03 -0.20227133527E+03  0.15967255876E+04  0.16237882520E+04  0.79685573375E+02 0.  0.
         11    1    3    3    0    0 -0.92566517739E+01  0.33986756458E+02  0.85739062354E+02  0.92692890936E+02  0.00000000000E+00 0.  1.
        -11    1    3    3    0    0 -0.14936267197E+03  0.21511889838E+03  0.15453455791E+04  0.15673794394E+04  0.00000000000E+00 0. -1.
          4    1    6    6  502    0 -0.41081722244E+01 -0.47172784856E+01  0.11175896847E+03  0.11193389491E+03  0.00000000000E+00 0. -1.
          3    1    5    5  503    0 -0.38915234671E+02 -0.40448864137E+02 -0.20341942097E+02  0.59701764695E+02  0.00000000000E+00 0. -1.
         -4    1    5    5    0  503 -0.21957641969E+01 -0.63854554315E+01 -0.87259422907E+02  0.87520296546E+02  0.00000000000E+00 0.  1.
         -3    1    6    6    0  502  0.20383849484E+03 -0.19755405678E+03  0.14849666191E+04  0.15118543571E+04  0.00000000000E+00 0.  1.
<mgrwt>
<rscale>  0 0.14271036E+04</rscale>
<asrwt>0</asrwt>
<pdfrwt beam="1">  1        2 0.50394545E+00 0.14271036E+04</pdfrwt>
<pdfrwt beam="2">  1       -2 0.23913370E-01 0.14271036E+04</pdfrwt>
<totfact> 0.17683194E+01</totfact>
</mgrwt>
</event>
<event>
12    1  0.1467288E-007  0.1334534E+04  0.7818608E-02  0.9002619E-01
         -2   -1    0    0    0  501 -0.00000000000E+00  0.00000000000E+00  0.18072087118E+03  0.18072087118E+03  0.00000000000E+00 0. -1.
          2   -1    0    0  501    0  0.00000000000E+00 -0.00000000000E+00 -0.24637166188E+04  0.24637166188E+04  0.00000000000E+00 0.  1.
         23    2    1    2    0    0 -0.34088537998E+03  0.40500035159E+02 -0.85513580128E+03  0.92602630016E+03  0.91784393126E+02 0.  0.
        254    2    1    2    0    0  0.34088537998E+03 -0.40500035159E+02 -0.14278599463E+04  0.17184111898E+04  0.89236197577E+03 0.  0.
        -24    2    4    4    0    0 -0.13543330935E+03 -0.34879653625E+03 -0.57675261818E+03  0.69211306595E+03  0.79848033872E+02 0.  0.
         24    2    4    4    0    0  0.47631868933E+03  0.30829650109E+03 -0.85110732812E+03  0.10262981238E+04  0.83533996694E+02 0.  0.
         11    1    3    3    0    0 -0.53300376445E+02 -0.25881919235E+02 -0.11927585957E+03  0.13318233572E+03  0.00000000000E+00 0. -1.
        -11    1    3    3    0    0 -0.28758500353E+03  0.66381954394E+02 -0.73585994171E+03  0.79284396443E+03  0.00000000000E+00 0.  1.
          4    1    6    6  502    0  0.39085036954E+03  0.24878760060E+03 -0.63133356591E+03  0.78309728197E+03  0.00000000000E+00 0. -1.
          3    1    5    5  503    0 -0.26324376233E+02 -0.75827875709E+02 -0.71150108095E+02  0.10726218999E+03  0.00000000000E+00 0. -1.
         -4    1    5    5    0  503 -0.10910893312E+03 -0.27296866054E+03 -0.50560251008E+03  0.58485087597E+03  0.00000000000E+00 0.  1.
         -3    1    6    6    0  502  0.85468319789E+02  0.59508900491E+02 -0.21977376221E+03  0.24320084186E+03  0.00000000000E+00 0.  1.
<mgrwt>
<rscale>  0 0.13345336E+04</rscale>
<asrwt>0</asrwt>
<pdfrwt beam="1">  1        2 0.37903329E+00 0.13345336E+04</pdfrwt>
<pdfrwt beam="2">  1       -2 0.27803213E-01 0.13345336E+04</pdfrwt>
<totfact> 0.42362213E+01</totfact>
</mgrwt>
</event>
<event>
12    1  0.1467288E-007  0.2417933E+04  0.7818608E-02  0.8432820E-01
          1   -1    0    0  501    0  0.00000000000E+00  0.00000000000E+00  0.16408786974E+04  0.16408786974E+04  0.00000000000E+00 0. -1.
         -1   -1    0    0    0  501 -0.00000000000E+00 -0.00000000000E+00 -0.89074245243E+03  0.89074245243E+03  0.00000000000E+00 0.  1.
         23    2    1    2    0    0 -0.31593504965E+03  0.26491026229E+03  0.13146490531E+04  0.13807159893E+04  0.89900542989E+02 0.  0.
        254    2    1    2    0    0  0.31593504965E+03 -0.26491026229E+03 -0.56451280810E+03  0.11509051606E+04  0.91428418747E+03 0.  0.
        -24    2    4    4    0    0  0.25679007356E+03 -0.42268789314E+03 -0.74126671030E+03  0.89471969047E+03  0.80254543929E+02 0.  0.
         24    2    4    4    0    0  0.59144976093E+02  0.15777763086E+03  0.17675390220E+03  0.25618547010E+03  0.77441230304E+02 0.  0.
         11    1    3    3    0    0 -0.57038153403E+02  0.60258058780E+02  0.39570144019E+03  0.40430683195E+03  0.00000000000E+00 0.  1.
        -11    1    3    3    0    0 -0.25889689625E+03  0.20465220351E+03  0.91894761287E+03  0.97640915732E+03  0.00000000000E+00 0. -1.
          2    1    6    6  502    0 -0.99321564467E+01  0.77792329784E+02  0.90649348244E+02  0.11986491831E+03  0.00000000000E+00 0. -1.
          3    1    5    5  503    0  0.46285168481E+02 -0.71405644823E+02 -0.79300880603E+02  0.11631729277E+03  0.00000000000E+00 0. -1.
         -4    1    5    5    0  503  0.21050490508E+03 -0.35128224832E+03 -0.66196582970E+03  0.77840239769E+03  0.00000000000E+00 0.  1.
         -1    1    6    6    0  502  0.69077132539E+02  0.79985301075E+02  0.86104553960E+02  0.13632055179E+03  0.00000000000E+00 0.  1.
<mgrwt>
<rscale>  0 0.24179333E+04</rscale>
<asrwt>0</asrwt>
<pdfrwt beam="1">  1        1 0.25244288E+00 0.24179333E+04</pdfrwt>
<pdfrwt beam="2">  1       -1 0.13703730E+00 0.24179333E+04</pdfrwt>
<totfact> 0.20743252E+00</totfact>
</mgrwt>
</event>
<event>
12    1  0.1467288E-007  0.1419124E+04  0.7818608E-02  0.8940091E-01
         -2   -1    0    0    0  501 -0.00000000000E+00  0.00000000000E+00  0.15617616987E+03  0.15617616987E+03  0.00000000000E+00 0.  1.
          2   -1    0    0  501    0  0.00000000000E+00 -0.00000000000E+00 -0.32237833019E+04  0.32237833019E+04  0.00000000000E+00 0. -1.
         23    2    1    2    0    0 -0.12579786783E+03  0.80143906551E+02 -0.19045190184E+04  0.19124047121E+04  0.88605542867E+02 0.  0.
        254    2    1    2    0    0  0.12579786783E+03 -0.80143906551E+02 -0.11630881136E+04  0.14675547596E+04  0.88243688904E+03 0.  0.
        -24    2    4    4    0    0  0.27795653670E+03 -0.12764306430E+03 -0.27711216607E+02  0.31771300848E+03  0.81369872038E+02 0.  0.
         24    2    4    4    0    0 -0.15215866887E+03  0.47499157749E+02 -0.11353768970E+04  0.11498417512E+04  0.87446691741E+02 0.  0.
         11    1    3    3    0    0 -0.27147336253E+02  0.38667616311E+01 -0.86475723528E+03  0.86519188951E+03  0.00000000000E+00 0.  1.
        -11    1    3    3    0    0 -0.98650531579E+02  0.76277144920E+02 -0.10397617831E+04  0.10472128226E+04  0.00000000000E+00 0. -1.
          2    1    6    6  502    0 -0.56283560707E+02  0.41544122792E+01 -0.17879655279E+03  0.18749214820E+03  0.00000000000E+00 0. -1.
          1    1    5    5  503    0  0.26461308630E+03 -0.13715103640E+03 -0.17824972947E+02  0.29857699491E+03  0.00000000000E+00 0. -1.
         -2    1    5    5    0  503  0.13343450396E+02  0.95079720959E+01 -0.98862436602E+01  0.19136013576E+02  0.00000000000E+00 0.  1.
         -3    1    6    6    0  502 -0.95875108158E+02  0.43344745470E+02 -0.95658034423E+03  0.96234960295E+03  0.00000000000E+00 0.  1.
<mgrwt>
<rscale>  0 0.14191239E+04</rscale>
<asrwt>0</asrwt>
<pdfrwt beam="1">  1        2 0.49596667E+00 0.14191239E+04</pdfrwt>
<pdfrwt beam="2">  1       -2 0.24027103E-01 0.14191239E+04</pdfrwt>
<totfact> 0.18970263E+01</totfact>
</mgrwt>
</event>
<event>
12    1  0.1467288E-007  0.1473397E+04  0.7818608E-02  0.8902339E-01
          2   -1    0    0  501    0  0.00000000000E+00  0.00000000000E+00  0.13603727713E+04  0.13603727713E+04  0.00000000000E+00 0.  1.
         -2   -1    0    0    0  501 -0.00000000000E+00 -0.00000000000E+00 -0.39895282130E+03  0.39895282130E+03  0.00000000000E+00 0. -1.
         23    2    1    2    0    0 -0.19008413696E+03  0.20576663584E+03 -0.12260772680E+03  0.32124077772E+03  0.98443359623E+02 0.  0.
        254    2    1    2    0    0  0.19008413696E+03 -0.20576663584E+03  0.10840276768E+04  0.14380848149E+04  0.90249656132E+03 0.  0.
        -24    2    4    4    0    0 -0.93546957530E+01 -0.54091111843E+03  0.64185894347E+03  0.84337668629E+03  0.81418568472E+02 0.  0.
         24    2    4    4    0    0  0.19943883271E+03  0.33514448259E+03  0.44216873333E+03  0.59470812859E+03  0.77890290057E+02 0.  0.
         11    1    3    3    0    0 -0.83072366572E+02  0.63843758703E+02 -0.94874417613E+02  0.14134425609E+03  0.00000000000E+00 0. -1.
        -11    1    3    3    0    0 -0.10701177038E+03  0.14192287714E+03 -0.27733309184E+02  0.17989652163E+03  0.00000000000E+00 0.  1.
          2    1    6    6  502    0  0.82687981498E+02  0.21305034334E+03  0.24411462124E+03  0.33439452655E+03  0.00000000000E+00 0. -1.
          1    1    5    5  503    0 -0.30590413197E+02 -0.48597984773E+03  0.58919602119E+03  0.76437172708E+03  0.00000000000E+00 0. -1.
         -2    1    5    5    0  503  0.21235717444E+02 -0.54931270702E+02  0.52662922277E+02  0.79004959206E+02  0.00000000000E+00 0.  1.
         -1    1    6    6    0  502  0.11675085121E+03  0.12209413925E+03  0.19805411209E+03  0.26031360205E+03  0.00000000000E+00 0.  1.
<mgrwt>
<rscale>  0 0.14733968E+04</rscale>
<asrwt>0</asrwt>
<pdfrwt beam="1">  1        2 0.20928812E+00 0.14733968E+04</pdfrwt>
<pdfrwt beam="2">  1       -2 0.61377357E-01 0.14733968E+04</pdfrwt>
<totfact> 0.36436343E+01</totfact>
</mgrwt>
</event>
<event>
12    1  0.1467288E-007  0.2205068E+04  0.7818608E-02  0.8516322E-01
         -1   -1    0    0    0  501 -0.00000000000E+00  0.00000000000E+00  0.16509155029E+04  0.16509155029E+04  0.00000000000E+00 0.  1.
          1   -1    0    0  501    0  0.00000000000E+00 -0.00000000000E+00 -0.73630755000E+03  0.73630755000E+03  0.00000000000E+00 0. -1.
         23    2    1    2    0    0 -0.49774850530E+03  0.35539342304E+02 -0.44653191675E+03  0.67623745660E+03  0.94285341634E+02 0.  0.
        254    2    1    2    0    0  0.49774850530E+03 -0.35539342304E+02  0.13611398696E+04  0.17109855963E+04  0.90870971525E+03 0.  0.
        -24    2    4    4    0    0 -0.15931380824E+03  0.25316157829E+03  0.32453110142E+03  0.44756838638E+03  0.74332701281E+02 0.  0.
         24    2    4    4    0    0  0.65706231355E+03 -0.28870092060E+03  0.10366087682E+04  0.12634172099E+04  0.81155421796E+02 0.  0.
         11    1    3    3    0    0 -0.55784003896E+02 -0.25336712305E+02 -0.63383053816E+02  0.88154498422E+02  0.00000000000E+00 0.  1.
        -11    1    3    3    0    0 -0.44196450141E+03  0.60876054609E+02 -0.38314886294E+03  0.58808295818E+03  0.00000000000E+00 0. -1.
          4    1    6    6  502    0  0.36728633790E+03 -0.19962425391E+03  0.56658470006E+03  0.70410746275E+03  0.00000000000E+00 0. -1.
          1    1    5    5  503    0 -0.11420339797E+03  0.22755174534E+03  0.28628266413E+03  0.38311875012E+03  0.00000000000E+00 0. -1.
         -2    1    5    5    0  503 -0.45110410271E+02  0.25609832959E+02  0.38248437282E+02  0.64449636256E+02  0.00000000000E+00 0.  1.
         -3    1    6    6    0  502  0.28977597564E+03 -0.89076666687E+02  0.47002406813E+03  0.55930974713E+03  0.00000000000E+00 0.  1.
<mgrwt>
<rscale>  0 0.22050683E+04</rscale>
<asrwt>0</asrwt>
<pdfrwt beam="1">  1        1 0.11327808E+00 0.22050683E+04</pdfrwt>
<pdfrwt beam="2">  1       -1 0.25398700E+00 0.22050683E+04</pdfrwt>
<totfact> 0.15082657E+00</totfact>
</mgrwt>
</event>
<event>
12    1  0.1467288E-007  0.1255575E+04  0.7818608E-02  0.9065556E-01
          1   -1    0    0  501    0  0.00000000000E+00  0.00000000000E+00  0.21145828876E+04  0.21145828876E+04  0.00000000000E+00 0. -1.
         -1   -1    0    0    0  501 -0.00000000000E+00 -0.00000000000E+00 -0.18638042406E+03  0.18638042406E+03  0.00000000000E+00 0.  1.
         23    2    1    2    0    0 -0.69541123607E+02  0.23483314154E+03  0.82984312079E+03  0.86892915171E+03  0.80098023233E+02 0.  0.
        254    2    1    2    0    0  0.69541123607E+02 -0.23483314154E+03  0.10983593427E+04  0.14320341599E+04  0.88563311661E+03 0.  0.
        -24    2    4    4    0    0 -0.31493471837E+03 -0.21478340339E+03  0.92219743584E+03  0.10009926097E+04  0.78881600032E+02 0.  0.
         24    2    4    4    0    0  0.38447584198E+03 -0.20049738142E+02  0.17616190689E+03  0.43104155023E+03  0.80871104358E+02 0.  0.
         11    1    3    3    0    0  0.51402753932E+01  0.64546438096E+02  0.13639911931E+03  0.15098802883E+03  0.00000000000E+00 0.  1.
        -11    1    3    3    0    0 -0.74681399001E+02  0.17028670344E+03  0.69344400148E+03  0.71794112287E+03  0.00000000000E+00 0. -1.
          4    1    6    6  502    0  0.18599472364E+03  0.13500278893E+02  0.48539602833E+02  0.19269765902E+03  0.00000000000E+00 0. -1.
          3    1    5    5  503    0 -0.27766445423E+03 -0.15691372583E+03  0.78995411960E+03  0.85190784570E+03  0.00000000000E+00 0. -1.
         -4    1    5    5    0  503 -0.37270264136E+02 -0.57869677558E+02  0.13224331624E+03  0.14908476401E+03  0.00000000000E+00 0.  1.
         -3    1    6    6    0  502  0.19848111834E+03 -0.33550017035E+02  0.12762230405E+03  0.23834389120E+03  0.00000000000E+00 0.  1.
<mgrwt>
<rscale>  0 0.12555745E+04</rscale>
<asrwt>0</asrwt>
<pdfrwt beam="1">  1        1 0.32532043E+00 0.12555745E+04</pdfrwt>
<pdfrwt beam="2">  1       -1 0.28673913E-01 0.12555745E+04</pdfrwt>
<totfact> 0.27180553E+01</totfact>
</mgrwt>
</event>
<event>
12    1  0.1467288E-007  0.2341711E+04  0.7818608E-02  0.8461654E-01
          1   -1    0    0  501    0  0.00000000000E+00  0.00000000000E+00  0.15977672060E+04  0.15977672060E+04  0.00000000000E+00 0. -1.
         -1   -1    0    0    0  501 -0.00000000000E+00 -0.00000000000E+00 -0.85801150695E+03  0.85801150695E+03  0.00000000000E+00 0.  1.
         23    2    1    2    0    0 -0.13346159479E+03 -0.68537079973E+03  0.10619543328E+04  0.12741468527E+04  0.90322017589E+02 0.  0.
        254    2    1    2    0    0  0.13346159479E+03  0.68537079973E+03 -0.32219863375E+03  0.11816318603E+04  0.89716038878E+03 0.  0.
        -24    2    4    4    0    0  0.41910292026E+03  0.35711805390E+03  0.10371336085E+03  0.56625123982E+03  0.81874557613E+02 0.  0.
         24    2    4    4    0    0 -0.28564132547E+03  0.32825274583E+03 -0.42591199459E+03  0.61538062044E+03  0.89170897285E+02 0.  0.
         11    1    3    3    0    0 -0.13049648295E+03 -0.54852977501E+03  0.90080276149E+03  0.10627134427E+04  0.00000000000E+00 0. -1.
        -11    1    3    3    0    0 -0.29651118395E+01 -0.13684102472E+03  0.16115157131E+03  0.21143341001E+03  0.00000000000E+00 0.  1.
          2    1    6    6  502    0 -0.19636418319E+03  0.19548261567E+03 -0.21532516823E+03  0.35090920983E+03  0.00000000000E+00 0. -1.
          3    1    5    5  503    0  0.14582887058E+03  0.90617407479E+02  0.40139032618E+01  0.17173725703E+03  0.00000000000E+00 0. -1.
         -4    1    5    5    0  503  0.27327404968E+03  0.26650064642E+03  0.99699457587E+02  0.39451398278E+03  0.00000000000E+00 0.  1.
         -1    1    6    6    0  502 -0.89277142271E+02  0.13277013016E+03 -0.21058682636E+03  0.26447141061E+03  0.00000000000E+00 0.  1.
<mgrwt>
<rscale>  0 0.23417110E+04</rscale>
<asrwt>0</asrwt>
<pdfrwt beam="1">  1        1 0.24581034E+00 0.23417110E+04</pdfrwt>
<pdfrwt beam="2">  1       -1 0.13200177E+00 0.23417110E+04</pdfrwt>
<totfact> 0.24604717E+00</totfact>
</mgrwt>
</event>
<event>
12    1  0.1467288E-007  0.1361116E+04  0.7818608E-02  0.8982456E-01
          2   -1    0    0  501    0  0.00000000000E+00  0.00000000000E+00  0.17366384868E+04  0.17366384868E+04  0.00000000000E+00 0.  1.
         -2   -1    0    0    0  501 -0.00000000000E+00 -0.00000000000E+00 -0.26669865940E+03  0.26669865940E+03  0.00000000000E+00 0. -1.
         23    2    1    2    0    0  0.32895355273E+03 -0.19995599420E+03  0.42794671582E+03  0.58242800806E+03  0.88832164939E+02 0.  0.
        254    2    1    2    0    0 -0.32895355273E+03  0.19995599420E+03  0.10419931116E+04  0.14209091382E+04  0.88602499672E+03 0.  0.
        -24    2    4    4    0    0  0.10608081779E+03  0.18334674248E+03  0.93978786178E+03  0.96706443274E+03  0.84517596064E+02 0.  0.
         24    2    4    4    0    0 -0.43503437051E+03  0.16609251717E+02  0.10220524982E+03  0.45384470542E+03  0.77448904269E+02 0.  0.
         13    1    3    3    0    0  0.31671482043E+03 -0.17375374406E+03  0.36697737740E+03  0.51494760566E+03  0.00000000000E+00 0. -1.
        -13    1    3    3    0    0  0.12238732296E+02 -0.26202250136E+02  0.60969338423E+02  0.67480402401E+02  0.00000000000E+00 0.  1.
          4    1    6    6  502    0 -0.69423863526E+02 -0.23582793262E+02  0.28828615636E+02  0.78783945347E+02  0.00000000000E+00 0. -1.
          3    1    5    5  503    0  0.38023183474E+02  0.25511964554E+02  0.10170124378E+03  0.11153369806E+03  0.00000000000E+00 0. -1.
         -4    1    5    5    0  503  0.68057634312E+02  0.15783477793E+03  0.83808661800E+03  0.85553073468E+03  0.00000000000E+00 0.  1.
         -3    1    6    6    0  502 -0.36561050699E+03  0.40192044980E+02  0.73376634184E+02  0.37506076007E+03  0.00000000000E+00 0.  1.
<mgrwt>
<rscale>  0 0.13611159E+04</rscale>
<asrwt>0</asrwt>
<pdfrwt beam="1">  1        2 0.26717515E+00 0.13611159E+04</pdfrwt>
<pdfrwt beam="2">  1       -2 0.41030564E-01 0.13611159E+04</pdfrwt>
<totfact> 0.51376350E+01</totfact>
</mgrwt>
</event>
<event>
12    1  0.1467288E-007  0.3170765E+04  0.7818608E-02  0.8196581E-01
         -2   -1    0    0    0  501 -0.00000000000E+00  0.00000000000E+00  0.15028878635E+04  0.15028878635E+04  0.00000000000E+00 0.  1.
          2   -1    0    0  501    0  0.00000000000E+00 -0.00000000000E+00 -0.16724051726E+04  0.16724051726E+04  0.00000000000E+00 0. -1.
         23    2    1    2    0    0  0.75633399520E+03  0.11990859116E+04 -0.41215068859E+03  0.14795032260E+04  0.95986821138E+02 0.  0.
        254    2    1    2    0    0 -0.75633399520E+03 -0.11990859116E+04  0.24263337948E+03  0.16957898101E+04  0.89832287489E+03 0.  0.
        -24    2    4    4    0    0 -0.20727448230E+03 -0.77877417223E+03  0.50114006339E+03  0.95311403068E+03  0.88504632629E+02 0.  0.
         24    2    4    4    0    0 -0.54905951290E+03 -0.42031173937E+03 -0.25850668391E+03  0.74267577943E+03  0.81322203451E+02 0.  0.
         13    1    3    3    0    0  0.86630227882E+02  0.94810840396E+02 -0.21374939581E+02  0.13019516075E+03  0.00000000000E+00 0.  1.
        -13    1    3    3    0    0  0.66970376732E+03  0.11042750712E+04 -0.39077574901E+03  0.13493080652E+04  0.00000000000E+00 0. -1.
          2    1    6    6  502    0 -0.11331151573E+03 -0.58681598743E+02 -0.71852557634E+02  0.14644391304E+03  0.00000000000E+00 0. -1.
          1    1    5    5  503    0 -0.92467287331E+02 -0.33679245154E+03  0.16611042858E+03  0.38674543193E+03  0.00000000000E+00 0. -1.
         -2    1    5    5    0  503 -0.11480719497E+03 -0.44198172069E+03  0.33502963481E+03  0.56636859874E+03  0.00000000000E+00 0.  1.
         -1    1    6    6    0  502 -0.43574799717E+03 -0.36163014063E+03 -0.18665412627E+03  0.59623186639E+03  0.00000000000E+00 0.  1.
<mgrwt>
<rscale>  0 0.31707649E+04</rscale>
<asrwt>0</asrwt>
<pdfrwt beam="1">  1        2 0.25729310E+00 0.31707649E+04</pdfrwt>
<pdfrwt beam="2">  1       -2 0.23121352E+00 0.31707649E+04</pdfrwt>
<totfact> 0.72058845E-01</totfact>
</mgrwt>
</event>
<event>
12    1  0.1467288E-007  0.2542120E+04  0.7818608E-02  0.8388132E-01
         -2   -1    0    0    0  501 -0.00000000000E+00  0.00000000000E+00  0.11049505117E+04  0.11049505117E+04  0.00000000000E+00 0.  1.
          2   -1    0    0  501    0  0.00000000000E+00 -0.00000000000E+00 -0.14621414248E+04  0.14621414248E+04  0.00000000000E+00 0. -1.
         23    2    1    2    0    0  0.72649178957E+02 -0.29452172609E+03  0.91801936102E+03  0.97157826472E+03  0.95832285402E+02 0.  0.
        254    2    1    2    0    0 -0.72649178957E+02  0.29452172609E+03 -0.12752102740E+04  0.15955136718E+04  0.90966020220E+03 0.  0.
        -24    2    4    4    0    0 -0.32414154736E+03 -0.20318098194E+03 -0.60058768010E+03  0.71659703640E+03  0.80346107187E+02 0.  0.
         24    2    4    4    0    0  0.25149236840E+03  0.49770270803E+03 -0.67462259394E+03  0.87891663538E+03  0.80139944811E+02 0.  0.
         11    1    3    3    0    0 -0.95792405893E+01 -0.23978693095E+02  0.16903064405E+03  0.17099151500E+03  0.00000000000E+00 0. -1.
        -11    1    3    3    0    0  0.82228419546E+02 -0.27054303299E+03  0.74898871696E+03  0.80058674972E+03  0.00000000000E+00 0.  1.
          2    1    6    6  502    0  0.39086242640E+02  0.40536720573E+02 -0.97869342236E+02  0.11291310034E+03  0.00000000000E+00 0. -1.
          1    1    5    5  503    0 -0.13530612086E+03 -0.64401140658E+02 -0.30101541164E+03  0.33625218410E+03  0.00000000000E+00 0. -1.
         -2    1    5    5    0  503 -0.18883542649E+03 -0.13877984128E+03 -0.29957226845E+03  0.38034485230E+03  0.00000000000E+00 0.  1.
         -1    1    6    6    0  502  0.21240612576E+03  0.45716598746E+03 -0.57675325170E+03  0.76600353504E+03  0.00000000000E+00 0.  1.
<mgrwt>
<rscale>  0 0.25421203E+04</rscale>
<asrwt>0</asrwt>
<pdfrwt beam="1">  1        2 0.22494483E+00 0.25421203E+04</pdfrwt>
<pdfrwt beam="2">  1       -2 0.16999239E+00 0.25421203E+04</pdfrwt>
<totfact> 0.25270276E+00</totfact>
</mgrwt>
</event>
<event>
12    1  0.1467288E-007  0.1374899E+04  0.7818608E-02  0.8972191E-01
          2   -1    0    0  501    0  0.00000000000E+00  0.00000000000E+00  0.13075636646E+04  0.13075636646E+04  0.00000000000E+00 0.  1.
         -2   -1    0    0    0  501 -0.00000000000E+00 -0.00000000000E+00 -0.36142525314E+03  0.36142525314E+03  0.00000000000E+00 0. -1.
         23    2    1    2    0    0 -0.11311050432E+02 -0.15429724971E+03  0.70619575341E+03  0.73002778907E+03  0.10145220329E+03 0.  0.
        254    2    1    2    0    0  0.11311050432E+02  0.15429724971E+03  0.23994265807E+03  0.93896112870E+03  0.89450541693E+03 0.  0.
        -24    2    4    4    0    0  0.10054950646E+03 -0.35642654016E+03  0.14245402747E+03  0.40487785237E+03  0.80516107859E+02 0.  0.
         24    2    4    4    0    0 -0.89238456027E+02  0.51072378987E+03  0.97488630604E+02  0.53408327632E+03  0.83298387608E+02 0.  0.
         11    1    3    3    0    0  0.77359670053E+00 -0.15429978167E+03  0.49512570945E+03  0.51861207972E+03  0.00000000000E+00 0.  1.
        -11    1    3    3    0    0 -0.12084647133E+02  0.25319587168E-02  0.21107004396E+03  0.21141570935E+03  0.00000000000E+00 0. -1.
          4    1    6    6  502    0 -0.54765583290E+02  0.32231746881E+03  0.20255672471E+02  0.32756390534E+03  0.00000000000E+00 0. -1.
          3    1    5    5  503    0  0.67549051432E+02 -0.14908344112E+03  0.96336641896E+02  0.18991970761E+03  0.00000000000E+00 0. -1.
         -4    1    5    5    0  503  0.33000455027E+02 -0.20734309904E+03  0.46117385570E+02  0.21495814477E+03  0.00000000000E+00 0.  1.
         -3    1    6    6    0  502 -0.34472872737E+02  0.18840632106E+03  0.77232958133E+02  0.20651937098E+03  0.00000000000E+00 0.  1.
<mgrwt>
<rscale>  0 0.13748986E+04</rscale>
<asrwt>0</asrwt>
<pdfrwt beam="1">  1        2 0.20116364E+00 0.13748986E+04</pdfrwt>
<pdfrwt beam="2">  1       -2 0.55603886E-01 0.13748986E+04</pdfrwt>
<totfact> 0.48484484E+01</totfact>
</mgrwt>
</event>
<event>
12    1  0.1467288E-007  0.1393917E+04  0.7818608E-02  0.8958233E-01
          2   -1    0    0  501    0  0.00000000000E+00  0.00000000000E+00  0.87658958371E+03  0.87658958371E+03  0.00000000000E+00 0.  1.
         -2   -1    0    0    0  501 -0.00000000000E+00 -0.00000000000E+00 -0.55413772871E+03  0.55413772871E+03  0.00000000000E+00 0. -1.
         23    2    1    2    0    0  0.12259245736E+03  0.32570613916E+02  0.47012410843E+03  0.49484359989E+03  0.88112175856E+02 0.  0.
        254    2    1    2    0    0 -0.12259245736E+03 -0.32570613916E+02 -0.14767225343E+03  0.93588371253E+03  0.91541328014E+03 0.  0.
        -24    2    4    4    0    0 -0.16307110290E+03  0.35855355402E+03  0.15703562180E+03  0.43185274500E+03  0.81754334143E+02 0.  0.
         24    2    4    4    0    0  0.40478645539E+02 -0.39112416794E+03 -0.30470787522E+03  0.50403096753E+03  0.81139950206E+02 0.  0.
         11    1    3    3    0    0  0.64756957754E+01  0.34741776354E+02  0.73310774936E+02  0.81384245292E+02  0.00000000000E+00 0. -1.
        -11    1    3    3    0    0  0.11611676159E+03 -0.21711624381E+01  0.39681333349E+03  0.41345935460E+03  0.00000000000E+00 0.  1.
          4    1    6    6  502    0 -0.18767474600E+02 -0.21201111639E+03 -0.16172551861E+03  0.26731269133E+03  0.00000000000E+00 0. -1.
          1    1    5    5  503    0 -0.82290306282E+02  0.22462726358E+03  0.56124560331E+02  0.24572152597E+03  0.00000000000E+00 0. -1.
         -2    1    5    5    0  503 -0.80780796618E+02  0.13392629044E+03  0.10091106147E+03  0.18613121904E+03  0.00000000000E+00 0.  1.
         -3    1    6    6    0  502  0.59246120139E+02 -0.17911305154E+03 -0.14298235661E+03  0.23671827620E+03  0.00000000000E+00 0.  1.
<mgrwt>
<rscale>  0 0.13939173E+04</rscale>
<asrwt>0</asrwt>
<pdfrwt beam="1">  1        2 0.13485994E+00 0.13939173E+04</pdfrwt>
<pdfrwt beam="2">  1       -2 0.85251958E-01 0.13939173E+04</pdfrwt>
<totfact> 0.35462373E+01</totfact>
</mgrwt>
</event>
<event>
12    1  0.1467288E-007  0.2402799E+04  0.7818608E-02  0.8438456E-01
         -2   -1    0    0    0  501 -0.00000000000E+00  0.00000000000E+00  0.78658546878E+03  0.78658546878E+03  0.00000000000E+00 0.  1.
          2   -1    0    0  501    0  0.00000000000E+00 -0.00000000000E+00 -0.18349700720E+04  0.18349700720E+04  0.00000000000E+00 0. -1.
         23    2    1    2    0    0 -0.56524666202E+03  0.80691607291E+03 -0.77800281907E+03  0.12585537866E+04  0.89732434058E+02 0.  0.
        254    2    1    2    0    0  0.56524666202E+03 -0.80691607291E+03 -0.27038178415E+03  0.13630017541E+04  0.90224726930E+03 0.  0.
        -24    2    4    4    0    0 -0.90066301055E+02  0.10551905437E+03  0.84984579621E+02  0.18178702700E+03  0.81104469607E+02 0.  0.
         24    2    4    4    0    0  0.65531296307E+03 -0.91243512728E+03 -0.35536636378E+03  0.11812147272E+04  0.83725970115E+02 0.  0.
         13    1    3    3    0    0 -0.92944612068E+02  0.19549309937E+03 -0.18125035353E+03  0.28232595252E+03  0.00000000000E+00 0.  1.
        -13    1    3    3    0    0 -0.47230204995E+03  0.61142297354E+03 -0.59675246554E+03  0.97622783411E+03  0.00000000000E+00 0. -1.
          2    1    6    6  502    0  0.54174387379E+03 -0.74160800672E+03 -0.25682063586E+03  0.95363813862E+03  0.00000000000E+00 0. -1.
          1    1    5    5  503    0 -0.13675906512E+02  0.27534990849E+02 -0.14589664929E+02  0.34030346203E+02  0.00000000000E+00 0. -1.
         -2    1    5    5    0  503 -0.76390394543E+02  0.77984063521E+02  0.99574244550E+02  0.14775668079E+03  0.00000000000E+00 0.  1.
         -1    1    6    6    0  502  0.11356908929E+03 -0.17082712056E+03 -0.98545727912E+02  0.22757658853E+03  0.00000000000E+00 0.  1.
<mgrwt>
<rscale>  0 0.24027990E+04</rscale>
<asrwt>0</asrwt>
<pdfrwt beam="1">  1        2 0.28230308E+00 0.24027990E+04</pdfrwt>
<pdfrwt beam="2">  1       -2 0.12101315E+00 0.24027990E+04</pdfrwt>
<totfact> 0.38578217E+00</totfact>
</mgrwt>
</event>
<event>
12    1  0.1467288E-007  0.1383771E+04  0.7818608E-02  0.8965650E-01
         -2   -1    0    0    0  501 -0.00000000000E+00  0.00000000000E+00  0.62176009290E+03  0.62176009290E+03  0.00000000000E+00 0. -1.
          2   -1    0    0  501    0  0.00000000000E+00 -0.00000000000E+00 -0.76992026249E+03  0.76992026249E+03  0.00000000000E+00 0.  1.
         23    2    1    2    0    0 -0.16058725891E+03  0.32987290306E+02  0.31503874029E+03  0.36767107830E+03  0.95163989458E+02 0.  0.
        254    2    1    2    0    0  0.16058725891E+03 -0.32987290306E+02 -0.46319890988E+03  0.10240092771E+04  0.89842380889E+03 0.  0.
        -24    2    4    4    0    0  0.33081949577E+03  0.20282135114E+03  0.78741861248E+02  0.40389327852E+03  0.79696050454E+02 0.  0.
         24    2    4    4    0    0 -0.17023223686E+03 -0.23580864144E+03 -0.54194077113E+03  0.62011599856E+03  0.79115879682E+02 0.  0.
         11    1    3    3    0    0 -0.41694724268E+02  0.16612270025E+02  0.19961629397E+02  0.49121117611E+02  0.00000000000E+00 0.  1.
        -11    1    3    3    0    0 -0.11889253465E+03  0.16375020280E+02  0.29507711089E+03  0.31854996069E+03  0.00000000000E+00 0. -1.
          4    1    6    6  502    0 -0.42854500073E+02 -0.12460151531E+03 -0.25598972731E+03  0.28791107356E+03  0.00000000000E+00 0. -1.
          3    1    5    5  503    0  0.91378289633E+02  0.84894050402E+02  0.53760848539E+02  0.13582054501E+03  0.00000000000E+00 0. -1.
         -4    1    5    5    0  503  0.23944120614E+03  0.11792730073E+03  0.24981012708E+02  0.26807273351E+03  0.00000000000E+00 0.  1.
         -1    1    6    6    0  502 -0.12737773679E+03 -0.11120712613E+03 -0.28595104382E+03  0.33220492500E+03  0.00000000000E+00 0.  1.
<mgrwt>
<rscale>  0 0.13837712E+04</rscale>
<asrwt>0</asrwt>
<pdfrwt beam="1">  1        2 0.11844927E+00 0.13837712E+04</pdfrwt>
<pdfrwt beam="2">  1       -2 0.95655399E-01 0.13837712E+04</pdfrwt>
<totfact> 0.32394402E+01</totfact>
</mgrwt>
</event>
<event>
12    1  0.1467288E-007  0.1856488E+04  0.7818608E-02  0.8676824E-01
          2   -1    0    0  501    0  0.00000000000E+00  0.00000000000E+00  0.14513581397E+04  0.14513581397E+04  0.00000000000E+00 0. -1.
         -2   -1    0    0    0  501 -0.00000000000E+00 -0.00000000000E+00 -0.59367609942E+03  0.59367609942E+03  0.00000000000E+00 0.  1.
         23    2    1    2    0    0  0.42625820895E+03 -0.53224295246E+03  0.13146935367E+03  0.70054908352E+03  0.92229096950E+02 0.  0.
        254    2    1    2    0    0 -0.42625820895E+03  0.53224295246E+03  0.72621268666E+03  0.13444851556E+04  0.90292682225E+03 0.  0.
        -24    2    4    4    0    0  0.18045630812E+03  0.16561172155E+03 -0.76144330564E+02  0.27092841101E+03  0.87249775701E+02 0.  0.
         24    2    4    4    0    0 -0.60671451707E+03  0.36663123091E+03  0.80235701722E+03  0.10735567446E+04  0.78907136308E+02 0.  0.
         13    1    3    3    0    0  0.21806211428E+03 -0.21540158872E+03  0.88301633144E+02  0.31897665827E+03  0.00000000000E+00 0. -1.
        -13    1    3    3    0    0  0.20819609467E+03 -0.31684136374E+03  0.43167720529E+02  0.38157242525E+03  0.00000000000E+00 0.  1.
          2    1    6    6  502    0 -0.37542758698E+03  0.24934375123E+03  0.55764765903E+03  0.71700006344E+03  0.00000000000E+00 0. -1.
          3    1    5    5  503    0  0.15748545868E+03  0.15265012716E+03 -0.35065482442E+02  0.22211105122E+03  0.00000000000E+00 0. -1.
         -4    1    5    5    0  503  0.22970849435E+02  0.12961594391E+02 -0.41078848123E+02  0.48817359782E+02  0.00000000000E+00 0.  1.
         -3    1    6    6    0  502 -0.23128693010E+03  0.11728747968E+03  0.24470935819E+03  0.35655668120E+03  0.00000000000E+00 0.  1.
<mgrwt>
<rscale>  0 0.18564877E+04</rscale>
<asrwt>0</asrwt>
<pdfrwt beam="1">  1        2 0.22328587E+00 0.18564877E+04</pdfrwt>
<pdfrwt beam="2">  1       -2 0.91334785E-01 0.18564877E+04</pdfrwt>
<totfact> 0.12985319E+01</totfact>
</mgrwt>
</event>
<event>
12    1  0.1467288E-007  0.2228538E+04  0.7818608E-02  0.8506643E-01
          1   -1    0    0  501    0  0.00000000000E+00  0.00000000000E+00  0.92681087935E+03  0.92681087935E+03  0.00000000000E+00 0. -1.
         -1   -1    0    0    0  501 -0.00000000000E+00 -0.00000000000E+00 -0.13396431149E+04  0.13396431149E+04  0.00000000000E+00 0.  1.
         23    2    1    2    0    0  0.69977412857E+03 -0.56622315443E+03  0.55094782286E+02  0.90649980798E+03  0.91727723138E+02 0.  0.
        254    2    1    2    0    0 -0.69977412857E+03  0.56622315443E+03 -0.46792701783E+03  0.13599541863E+04  0.90566395704E+03 0.  0.
        -24    2    4    4    0    0  0.41033367219E+02  0.43242712823E+03 -0.40733900993E+03  0.60055083687E+03  0.77841378444E+02 0.  0.
         24    2    4    4    0    0 -0.74080749579E+03  0.13379602620E+03 -0.60588007901E+02  0.75940334939E+03  0.79532495990E+02 0.  0.
         13    1    3    3    0    0  0.25771595123E+03 -0.16947754950E+03  0.50099393303E+02  0.31249016067E+03  0.00000000000E+00 0. -1.
        -13    1    3    3    0    0  0.44205817734E+03 -0.39674560493E+03  0.49953889826E+01  0.59400964731E+03  0.00000000000E+00 0.  1.
          4    1    6    6  502    0 -0.70405200906E+03  0.10850347856E+03 -0.56641915987E+02  0.71461216262E+03  0.00000000000E+00 0. -1.
          3    1    5    5  503    0 -0.18361603565E+02  0.16386899808E+03 -0.13028302129E+03  0.21015199893E+03  0.00000000000E+00 0. -1.
         -4    1    5    5    0  503  0.59394970784E+02  0.26855813015E+03 -0.27705598863E+03  0.39039883794E+03  0.00000000000E+00 0.  1.
         -3    1    6    6    0  502 -0.36755486735E+02  0.25292547637E+02 -0.39460919136E+01  0.44791186772E+02  0.00000000000E+00 0.  1.
<mgrwt>
<rscale>  0 0.22285384E+04</rscale>
<asrwt>0</asrwt>
<pdfrwt beam="1">  1        1 0.14258629E+00 0.22285384E+04</pdfrwt>
<pdfrwt beam="2">  1       -1 0.20609894E+00 0.22285384E+04</pdfrwt>
<totfact> 0.21505499E+00</totfact>
</mgrwt>
</event>
<event>
12    1  0.1467288E-007  0.2042648E+04  0.7818608E-02  0.8586937E-01
          2   -1    0    0  501    0  0.00000000000E+00  0.00000000000E+00  0.35250961414E+04  0.35250961414E+04  0.00000000000E+00 0. -1.
         -2   -1    0    0    0  501 -0.00000000000E+00 -0.00000000000E+00 -0.29590746960E+03  0.29590746960E+03  0.00000000000E+00 0.  1.
         23    2    1    2    0    0 -0.11528156416E+03 -0.78423062914E+03  0.89590802491E+03  0.11995913602E+04  0.89781533307E+02 0.  0.
        254    2    1    2    0    0  0.11528156416E+03  0.78423062914E+03  0.23332806469E+04  0.26214122508E+04  0.89403360821E+03 0.  0.
        -24    2    4    4    0    0 -0.34042069742E+03  0.56893899637E+03  0.15331214459E+04  0.16722258410E+04  0.79372933331E+02 0.  0.
         24    2    4    4    0    0  0.45570226158E+03  0.21529163277E+03  0.80015920102E+03  0.94918640981E+03  0.81762187134E+02 0.  0.
         13    1    3    3    0    0 -0.93553305455E+02 -0.65841057258E+03  0.79745101140E+03  0.10383567877E+04  0.00000000000E+00 0. -1.
        -13    1    3    3    0    0 -0.21728258705E+02 -0.12582005655E+03  0.98457013504E+02  0.16123457249E+03  0.00000000000E+00 0.  1.
          4    1    6    6  502    0  0.17998365785E+03  0.41645803557E+02  0.29174036762E+03  0.34531280333E+03  0.00000000000E+00 0. -1.
          1    1    5    5  503    0 -0.14648218914E+03  0.32015548924E+03  0.78709621903E+03  0.86225113919E+03  0.00000000000E+00 0. -1.
         -2    1    5    5    0  503 -0.19393850828E+03  0.24878350713E+03  0.74602522685E+03  0.80997470177E+03  0.00000000000E+00 0.  1.
         -3    1    6    6    0  502  0.27571860373E+03  0.17364582921E+03  0.50841883340E+03  0.60387360648E+03  0.00000000000E+00 0.  1.
<mgrwt>
<rscale>  0 0.20426476E+04</rscale>
<asrwt>0</asrwt>
<pdfrwt beam="1">  1        2 0.54232246E+00 0.20426476E+04</pdfrwt>
<pdfrwt beam="2">  1       -2 0.45524228E-01 0.20426476E+04</pdfrwt>
<totfact> 0.33247794E+00</totfact>
</mgrwt>
</event>
<event>
12    1  0.1467288E-007  0.1569507E+04  0.7818608E-02  0.8839503E-01
          2   -1    0    0  501    0  0.00000000000E+00  0.00000000000E+00  0.28197663068E+04  0.28197663068E+04  0.00000000000E+00 0. -1.
         -2   -1    0    0    0  501 -0.00000000000E+00 -0.00000000000E+00 -0.21840031242E+03  0.21840031242E+03  0.00000000000E+00 0.  1.
         23    2    1    2    0    0 -0.24850343994E+03 -0.42840992761E+03  0.11408230339E+04  0.12467842042E+04  0.87776029584E+02 0.  0.
        254    2    1    2    0    0  0.24850343994E+03  0.42840992761E+03  0.14605429605E+04  0.17913824151E+04  0.91135952939E+03 0.  0.
        -24    2    4    4    0    0  0.52703606548E+02 -0.22764129628E+03  0.79776755331E+03  0.83516343688E+03  0.80415590903E+02 0.  0.
         24    2    4    4    0    0  0.19579983339E+03  0.65605122389E+03  0.66277540717E+03  0.95621897818E+03  0.79641137365E+02 0.  0.
         11    1    3    3    0    0 -0.11122251390E+03 -0.26422376895E+03  0.59365141746E+03  0.65924703498E+03  0.00000000000E+00 0.  1.
        -11    1    3    3    0    0 -0.13728092603E+03 -0.16418615866E+03  0.54717161647E+03  0.58753716922E+03  0.00000000000E+00 0. -1.
          4    1    6    6  502    0  0.12840960780E+03  0.53998176251E+03  0.53558781838E+03  0.77131293417E+03  0.00000000000E+00 0. -1.
          3    1    5    5  503    0 -0.12756285464E+02 -0.10506949317E+03  0.28941017480E+03  0.30815673040E+03  0.00000000000E+00 0. -1.
         -4    1    5    5    0  503  0.65459892012E+02 -0.12257180310E+03  0.50835737852E+03  0.52700670648E+03  0.00000000000E+00 0.  1.
         -3    1    6    6    0  502  0.67390225586E+02  0.11606946137E+03  0.12718758879E+03  0.18490604401E+03  0.00000000000E+00 0.  1.
<mgrwt>
<rscale>  0 0.15695067E+04</rscale>
<asrwt>0</asrwt>
<pdfrwt beam="1">  1        2 0.43381017E+00 0.15695067E+04</pdfrwt>
<pdfrwt beam="2">  1       -2 0.33600050E-01 0.15695067E+04</pdfrwt>
<totfact> 0.17989467E+01</totfact>
</mgrwt>
</event>
<event>
12    1  0.1467288E-007  0.1301993E+04  0.7818608E-02  0.9027986E-01
          1   -1    0    0  501    0  0.00000000000E+00  0.00000000000E+00  0.19178117798E+04  0.19178117798E+04  0.00000000000E+00 0. -1.
         -1   -1    0    0    0  501 -0.00000000000E+00 -0.00000000000E+00 -0.22097904731E+03  0.22097904731E+03  0.00000000000E+00 0.  1.
         23    2    1    2    0    0 -0.43913062678E+02  0.29749656466E+02  0.98736237266E+03  0.99312845670E+03  0.92770024354E+02 0.  0.
        254    2    1    2    0    0  0.43913062678E+02 -0.29749656466E+02  0.70947035987E+03  0.11456623704E+04  0.89798701348E+03 0.  0.
        -24    2    4    4    0    0 -0.15436454952E+03 -0.15465127547E+03  0.83604074065E+03  0.86763529844E+03  0.77983715833E+02 0.  0.
         24    2    4    4    0    0  0.19827761219E+03  0.12490161900E+03 -0.12657038078E+03  0.27802707200E+03  0.79778227273E+02 0.  0.
         13    1    3    3    0    0 -0.44224444702E+02  0.59070917227E+02  0.57336582416E+03  0.57809475269E+03  0.00000000000E+00 0. -1.
        -13    1    3    3    0    0  0.31138202420E+00 -0.29321260761E+02  0.41399654850E+03  0.41503370400E+03  0.00000000000E+00 0.  1.
          4    1    6    6  502    0  0.16872877477E+03  0.12570523420E+03 -0.13141230886E+03  0.24807337677E+03  0.00000000000E+00 0. -1.
          3    1    5    5  503    0 -0.14995087446E+03 -0.14205852737E+03  0.82454118329E+03  0.85002003087E+03  0.00000000000E+00 0. -1.
         -4    1    5    5    0  503 -0.44136750613E+01 -0.12592748097E+02  0.11499557361E+02  0.17615267573E+02  0.00000000000E+00 0.  1.
         -3    1    6    6    0  502  0.29548837423E+02 -0.80361519340E+00  0.48419280847E+01  0.29953695231E+02  0.00000000000E+00 0.  1.
<mgrwt>
<rscale>  0 0.13019927E+04</rscale>
<asrwt>0</asrwt>
<pdfrwt beam="1">  1        1 0.29504795E+00 0.13019927E+04</pdfrwt>
<pdfrwt beam="2">  1       -1 0.33996778E-01 0.13019927E+04</pdfrwt>
<totfact> 0.27236849E+01</totfact>
</mgrwt>
</event>
<event>
12    1  0.1467288E-007  0.1977105E+04  0.7818608E-02  0.8617400E-01
          2   -1    0    0  501    0  0.00000000000E+00  0.00000000000E+00  0.42446794397E+04  0.42446794397E+04  0.00000000000E+00 0. -1.
         -2   -1    0    0    0  501 -0.00000000000E+00 -0.00000000000E+00 -0.23022601535E+03  0.23022601535E+03  0.00000000000E+00 0.  1.
         23    2    1    2    0    0 -0.23544411761E+03  0.62761552904E+03  0.68942511878E+03  0.96579798961E+03  0.90130890995E+02 0.  0.
        254    2    1    2    0    0  0.23544411761E+03 -0.62761552904E+03  0.33250283056E+04  0.35091074654E+04  0.89927014092E+03 0.  0.
        -24    2    4    4    0    0  0.23718513357E+03 -0.74934003056E+03  0.32519950240E+04  0.33465812838E+04  0.79795890109E+02 0.  0.
         24    2    4    4    0    0 -0.17410159553E+01  0.12172450151E+03  0.73033281598E+02  0.16252618165E+03  0.79126570106E+02 0.  0.
         11    1    3    3    0    0 -0.53151513903E+00  0.60350271187E+02  0.41957282147E+02  0.73504090130E+02  0.00000000000E+00 0.  1.
        -11    1    3    3    0    0 -0.23491260247E+03  0.56726525786E+03  0.64746783663E+03  0.89229389948E+03  0.00000000000E+00 0. -1.
          2    1    6    6  502    0  0.40781478669E+01 -0.11234875786E+02  0.81447379506E+01  0.14463418691E+02  0.00000000000E+00 0. -1.
          1    1    5    5  503    0  0.12547353794E+03 -0.28437636740E+03  0.11997271377E+04  0.12393380217E+04  0.00000000000E+00 0. -1.
         -2    1    5    5    0  503  0.11171159562E+03 -0.46496366315E+03  0.20522678863E+04  0.21072432621E+04  0.00000000000E+00 0.  1.
         -1    1    6    6    0  502 -0.58191638222E+01  0.13295937730E+03  0.64888543647E+02  0.14806276296E+03  0.00000000000E+00 0.  1.
<mgrwt>
<rscale>  0 0.19771046E+04</rscale>
<asrwt>0</asrwt>
<pdfrwt beam="1">  1        2 0.65302755E+00 0.19771046E+04</pdfrwt>
<pdfrwt beam="2">  1       -2 0.35419390E-01 0.19771046E+04</pdfrwt>
<totfact> 0.15017511E+00</totfact>
</mgrwt>
</event>
<event>
12    1  0.1467288E-007  0.2483766E+04  0.7818608E-02  0.8408792E-01
          1   -1    0    0  501    0  0.00000000000E+00  0.00000000000E+00  0.26412942661E+04  0.26412942661E+04  0.00000000000E+00 0. -1.
         -1   -1    0    0    0  501 -0.00000000000E+00 -0.00000000000E+00 -0.58390805263E+03  0.58390805263E+03  0.00000000000E+00 0.  1.
         23    2    1    2    0    0  0.76440852320E+03 -0.40291871153E+03  0.56648863929E+02  0.87065297567E+03  0.90352818531E+02 0.  0.
        254    2    1    2    0    0 -0.76440852320E+03  0.40291871153E+03  0.20007373495E+04  0.23545493430E+04  0.89122880824E+03 0.  0.
        -24    2    4    4    0    0 -0.33798642692E+03  0.45912184463E+03  0.17668058185E+04  0.18581978786E+04  0.79176150297E+02 0.  0.
         24    2    4    4    0    0 -0.42642209628E+03 -0.56203133101E+02  0.23393153100E+03  0.49635146442E+03  0.81524344057E+02 0.  0.
         13    1    3    3    0    0  0.32864394888E+03 -0.15644464095E+03  0.66050362574E+02  0.36992488591E+03  0.00000000000E+00 0. -1.
        -13    1    3    3    0    0  0.43576457432E+03 -0.24647407058E+03 -0.94014986453E+01  0.50072808976E+03  0.00000000000E+00 0.  1.
          2    1    6    6  502    0 -0.36323575120E+02 -0.27108484592E+02  0.13279784913E+02  0.47229490085E+02  0.00000000000E+00 0. -1.
          1    1    5    5  503    0 -0.15516222999E+03  0.25384058153E+03  0.82038004158E+03  0.87265902337E+03  0.00000000000E+00 0. -1.
         -2    1    5    5    0  503 -0.18282419693E+03  0.20528126310E+03  0.94642577692E+03  0.98553885523E+03  0.00000000000E+00 0.  1.
         -3    1    6    6    0  502 -0.39009852116E+03 -0.29094648509E+02  0.22065174609E+03  0.44912197434E+03  0.00000000000E+00 0.  1.
<mgrwt>
<rscale>  0 0.24837657E+04</rscale>
<asrwt>0</asrwt>
<pdfrwt beam="1">  1        1 0.40635296E+00 0.24837657E+04</pdfrwt>
<pdfrwt beam="2">  1       -1 0.89832010E-01 0.24837657E+04</pdfrwt>
<totfact> 0.11644895E+00</totfact>
</mgrwt>
</event>
<event>
12    1  0.1467288E-007  0.1352160E+04  0.7818608E-02  0.8989195E-01
          2   -1    0    0  501    0  0.00000000000E+00  0.00000000000E+00  0.17828787012E+04  0.17828787012E+04  0.00000000000E+00 0. -1.
         -2   -1    0    0    0  501 -0.00000000000E+00 -0.00000000000E+00 -0.25637410727E+03  0.25637410727E+03  0.00000000000E+00 0.  1.
         23    2    1    2    0    0  0.17428216767E+02  0.81702783177E+02  0.96994533594E+03  0.97788804022E+03  0.92151923355E+02 0.  0.
        254    2    1    2    0    0 -0.17428216767E+02 -0.81702783177E+02  0.55655925797E+03  0.10613647682E+04  0.89986547666E+03 0.  0.
        -24    2    4    4    0    0 -0.31147601407E+03  0.10413409332E+03 -0.65708146434E+02  0.34394866706E+03  0.78242624789E+02 0.  0.
         24    2    4    4    0    0  0.29404779730E+03 -0.18583687649E+03  0.62226740440E+03  0.71741610117E+03  0.80434369945E+02 0.  0.
         13    1    3    3    0    0 -0.12291991571E+02  0.63185651414E+02  0.29073640093E+03  0.29777705490E+03  0.00000000000E+00 0.  1.
        -13    1    3    3    0    0  0.29720208338E+02  0.18517131763E+02  0.67920893501E+03  0.68011098532E+03  0.00000000000E+00 0. -1.
          4    1    6    6  502    0  0.71351746734E+02 -0.59174294701E+02  0.10421487726E+03  0.13947548013E+03  0.00000000000E+00 0. -1.
          3    1    5    5  503    0 -0.96714309691E+02  0.70673697489E+02 -0.32114675916E+02  0.12401524755E+03  0.00000000000E+00 0. -1.
         -4    1    5    5    0  503 -0.21476170438E+03  0.33460395828E+02 -0.33593470519E+02  0.21993341951E+03  0.00000000000E+00 0.  1.
         -1    1    6    6    0  502  0.22269605057E+03 -0.12666258179E+03  0.51805252714E+03  0.57794062103E+03  0.00000000000E+00 0.  1.
<mgrwt>
<rscale>  0 0.13521597E+04</rscale>
<asrwt>0</asrwt>
<pdfrwt beam="1">  1        2 0.27428902E+00 0.13521597E+04</pdfrwt>
<pdfrwt beam="2">  1       -2 0.39442171E-01 0.13521597E+04</pdfrwt>
<totfact> 0.52364793E+01</totfact>
</mgrwt>
</event>
<event>
12    1  0.1467288E-007  0.2524127E+04  0.7818608E-02  0.8394440E-01
          2   -1    0    0  501    0  0.00000000000E+00  0.00000000000E+00  0.41767926650E+04  0.41767926650E+04  0.00000000000E+00 0. -1.
         -2   -1    0    0    0  501 -0.00000000000E+00 -0.00000000000E+00 -0.38134633979E+03  0.38134633979E+03  0.00000000000E+00 0.  1.
         23    2    1    2    0    0  0.29573782031E+03  0.65155091072E+02 -0.25057664218E+03  0.40185242451E+03  0.83610245910E+02 0.  0.
        254    2    1    2    0    0 -0.29573782031E+03 -0.65155091072E+02  0.40460229673E+04  0.41562865802E+04  0.90150443183E+03 0.  0.
        -24    2    4    4    0    0 -0.11358012016E+03  0.19754403184E+03  0.35623733760E+04  0.35705139323E+04  0.78368246638E+02 0.  0.
         24    2    4    4    0    0 -0.18215770015E+03 -0.26269912291E+03  0.48364959132E+03  0.58577264798E+03  0.83787893146E+02 0.  0.
         11    1    3    3    0    0  0.29324102194E+03  0.48401735531E+02 -0.23788949998E+03  0.38068942611E+03  0.00000000000E+00 0.  1.
        -11    1    3    3    0    0  0.24967983712E+01  0.16753355541E+02 -0.12687142204E+02  0.21162998400E+02  0.00000000000E+00 0. -1.
          2    1    6    6  502    0 -0.73905073724E+02 -0.11489114838E+03  0.28185862770E+03  0.31321912762E+03  0.00000000000E+00 0. -1.
          3    1    5    5  503    0 -0.35601230537E+02  0.10939436009E+03  0.12995484071E+04  0.13046304595E+04  0.00000000000E+00 0. -1.
         -2    1    5    5    0  503 -0.77978889622E+02  0.88149671750E+02  0.22628249690E+04  0.22658834727E+04  0.00000000000E+00 0.  1.
         -1    1    6    6    0  502 -0.10825262643E+03 -0.14780797453E+03  0.20179096362E+03  0.27255352036E+03  0.00000000000E+00 0.  1.
<mgrwt>
<rscale>  0 0.25241273E+04</rscale>
<asrwt>0</asrwt>
<pdfrwt beam="1">  1        2 0.64258346E+00 0.25241273E+04</pdfrwt>
<pdfrwt beam="2">  1       -2 0.58668671E-01 0.25241273E+04</pdfrwt>
<totfact> 0.59102494E-01</totfact>
</mgrwt>
</event>
<event>
12    1  0.1467288E-007  0.1927096E+04  0.7818608E-02  0.8641485E-01
         -2   -1    0    0    0  501 -0.00000000000E+00  0.00000000000E+00  0.50259601926E+03  0.50259601926E+03  0.00000000000E+00 0.  1.
          2   -1    0    0  501    0  0.00000000000E+00 -0.00000000000E+00 -0.18472584142E+04  0.18472584142E+04  0.00000000000E+00 0. -1.
         23    2    1    2    0    0  0.48746612969E+03  0.56346774430E+03 -0.52748378729E+03  0.91742436516E+03  0.91154777552E+02 0.  0.
        254    2    1    2    0    0 -0.48746612969E+03 -0.56346774430E+03 -0.81717860766E+03  0.14324300683E+04  0.91047015181E+03 0.  0.
        -24    2    4    4    0    0 -0.37520544130E+03 -0.17873682560E+03  0.94042090945E+02  0.43372367309E+03  0.80909416795E+02 0.  0.
         24    2    4    4    0    0 -0.11226068839E+03 -0.38473091870E+03 -0.91122069860E+03  0.99870639522E+03  0.80442279553E+02 0.  0.
         13    1    3    3    0    0  0.37762855642E+02  0.14808357903E+02 -0.20287216728E+02  0.45352970053E+02  0.00000000000E+00 0. -1.
        -13    1    3    3    0    0  0.44970327404E+03  0.54865938639E+03 -0.50719657056E+03  0.87207139510E+03  0.00000000000E+00 0.  1.
          2    1    6    6  502    0  0.12450281314E+02 -0.23362838288E+02 -0.57113163634E+02  0.62950338982E+02  0.00000000000E+00 0. -1.
          1    1    5    5  503    0 -0.35710654612E+03 -0.18668870141E+03  0.94717461096E+02  0.41394341878E+03  0.00000000000E+00 0. -1.
         -2    1    5    5    0  503 -0.18098895177E+02  0.79518758162E+01 -0.67537015070E+00  0.19780254308E+02  0.00000000000E+00 0.  1.
         -1    1    6    6    0  502 -0.12471096970E+03 -0.36136808041E+03 -0.85410753497E+03  0.93575605624E+03  0.00000000000E+00 0.  1.
<mgrwt>
<rscale>  0 0.19270960E+04</rscale>
<asrwt>0</asrwt>
<pdfrwt beam="1">  1        2 0.28419360E+00 0.19270960E+04</pdfrwt>
<pdfrwt beam="2">  1       -2 0.77322465E-01 0.19270960E+04</pdfrwt>
<totfact> 0.11324785E+01</totfact>
</mgrwt>
</event>
<event>
12    1  0.1467288E-007  0.2161733E+04  0.7818608E-02  0.8534527E-01
          1   -1    0    0  501    0  0.00000000000E+00  0.00000000000E+00  0.19820706500E+04  0.19820706500E+04  0.00000000000E+00 0. -1.
         -1   -1    0    0    0  501 -0.00000000000E+00 -0.00000000000E+00 -0.58941991379E+03  0.58941991379E+03  0.00000000000E+00 0.  1.
         23    2    1    2    0    0  0.88258882250E+03  0.64737293917E+02  0.47449163373E+03  0.10082935576E+04  0.91431072627E+02 0.  0.
        254    2    1    2    0    0 -0.88258882250E+03 -0.64737293917E+02  0.91815910245E+03  0.15631970061E+04  0.90410994670E+03 0.  0.
        -24    2    4    4    0    0 -0.74420154535E+03 -0.19290650904E+03  0.17450304191E+03  0.79186834575E+03  0.74533911934E+02 0.  0.
         24    2    4    4    0    0 -0.13838727714E+03  0.12816921513E+03  0.74365606054E+03  0.77132866037E+03  0.79656636573E+02 0.  0.
         11    1    3    3    0    0  0.34680672620E+03  0.38139626018E+02  0.13890914605E+03  0.37553333709E+03  0.00000000000E+00 0. -1.
        -11    1    3    3    0    0  0.53578209630E+03  0.26597667899E+02  0.33558248767E+03  0.63276022053E+03  0.00000000000E+00 0.  1.
          4    1    6    6  502    0 -0.12628186591E+03  0.86076430110E+02  0.47091282708E+03  0.49509105444E+03  0.00000000000E+00 0. -1.
          1    1    5    5  503    0 -0.72358949263E+03 -0.17395204500E+03  0.16480928412E+03  0.76223563806E+03  0.00000000000E+00 0. -1.
         -2    1    5    5    0  503 -0.20612052725E+02 -0.18954464046E+02  0.96937577889E+01  0.29632707687E+02  0.00000000000E+00 0.  1.
         -3    1    6    6    0  502 -0.12105411229E+02  0.42092785017E+02  0.27274323346E+03  0.27623760593E+03  0.00000000000E+00 0.  1.
<mgrwt>
<rscale>  0 0.21617326E+04</rscale>
<asrwt>0</asrwt>
<pdfrwt beam="1">  1        1 0.30493394E+00 0.21617326E+04</pdfrwt>
<pdfrwt beam="2">  1       -1 0.90679988E-01 0.21617326E+04</pdfrwt>
<totfact> 0.33299658E+00</totfact>
</mgrwt>
</event>
<event>
12    1  0.1467288E-007  0.1240754E+04  0.7818608E-02  0.9077914E-01
         -2   -1    0    0    0  501 -0.00000000000E+00  0.00000000000E+00  0.32713509215E+03  0.32713509215E+03  0.00000000000E+00 0. -1.
          2   -1    0    0  501    0  0.00000000000E+00 -0.00000000000E+00 -0.11764798953E+04  0.11764798953E+04  0.00000000000E+00 0.  1.
         23    2    1    2    0    0  0.12528053408E+03  0.21304593075E+03 -0.36304181409E+03  0.44690387552E+03  0.82703895580E+02 0.  0.
        254    2    1    2    0    0 -0.12528053408E+03 -0.21304593075E+03 -0.48630298906E+03  0.10567111119E+04  0.90502154453E+03 0.  0.
        -24    2    4    4    0    0  0.67582208275E+02  0.28443873255E+03 -0.41275165298E+03  0.51205623023E+03  0.79780376206E+02 0.  0.
         24    2    4    4    0    0 -0.19286274236E+03 -0.49748466330E+03 -0.73551336076E+02  0.54465488169E+03  0.80945126496E+02 0.  0.
         11    1    3    3    0    0 -0.25910858459E+01  0.96252044212E+01  0.17223323774E+01  0.10115567944E+02  0.00000000000E+00 0.  1.
        -11    1    3    3    0    0  0.12787161993E+03  0.20342072633E+03 -0.36476414647E+03  0.43678830757E+03  0.00000000000E+00 0. -1.
          4    1    6    6  502    0 -0.70460081836E+02 -0.20509442565E+03 -0.69249920587E+02  0.22764862852E+03  0.00000000000E+00 0. -1.
          3    1    5    5  503    0  0.59398156741E+02  0.28431965077E+03 -0.41163604759E+03  0.50379563368E+03  0.00000000000E+00 0. -1.
         -4    1    5    5    0  503  0.81840515336E+01  0.11908177785E+00 -0.11156053928E+01  0.82605965504E+01  0.00000000000E+00 0.  1.
         -3    1    6    6    0  502 -0.12240266052E+03 -0.29239023765E+03 -0.43014154894E+01  0.31700625317E+03  0.00000000000E+00 0.  1.
<mgrwt>
<rscale>  0 0.12407544E+04</rscale>
<asrwt>0</asrwt>
<pdfrwt beam="1">  1        2 0.18099691E+00 0.12407544E+04</pdfrwt>
<pdfrwt beam="2">  1       -2 0.50328476E-01 0.12407544E+04</pdfrwt>
<totfact> 0.71883068E+01</totfact>
</mgrwt>
</event>
<event>
12    1  0.1467288E-007  0.1414155E+04  0.7818608E-02  0.8943636E-01
          2   -1    0    0  501    0  0.00000000000E+00  0.00000000000E+00  0.43773638568E+03  0.43773638568E+03  0.00000000000E+00 0. -1.
         -2   -1    0    0    0  501 -0.00000000000E+00 -0.00000000000E+00 -0.11421446032E+04  0.11421446032E+04  0.00000000000E+00 0.  1.
         23    2    1    2    0    0  0.51098588190E+02 -0.40410125831E+03 -0.17551207478E+03  0.45262594172E+03  0.90315347775E+02 0.  0.
        254    2    1    2    0    0 -0.51098588190E+02  0.40410125831E+03 -0.52889614271E+03  0.11272550471E+04  0.90833029170E+03 0.  0.
        -24    2    4    4    0    0  0.22560670917E+03  0.26737602810E+03  0.14077031531E+03  0.38551757811E+03  0.80119871019E+02 0.  0.
         24    2    4    4    0    0 -0.27670529736E+03  0.13672523021E+03 -0.66966645802E+03  0.74173746902E+03  0.80384686252E+02 0.  0.
         11    1    3    3    0    0  0.35015630069E+02 -0.24990702063E+03 -0.15524026301E+03  0.29627546738E+03  0.00000000000E+00 0.  1.
        -11    1    3    3    0    0  0.16082958121E+02 -0.15419423768E+03 -0.20271811769E+02  0.15635047435E+03  0.00000000000E+00 0. -1.
          2    1    6    6  502    0 -0.23240392157E+03  0.13114252415E+03 -0.50556215759E+03  0.57166689566E+03  0.00000000000E+00 0. -1.
          3    1    5    5  503    0  0.21676801088E+03  0.21511885753E+03  0.11253956332E+03  0.32546834980E+03  0.00000000000E+00 0. -1.
         -4    1    5    5    0  503  0.88386982952E+01  0.52257170565E+02  0.28230751987E+02  0.60049228311E+02  0.00000000000E+00 0.  1.
         -1    1    6    6    0  502 -0.44301375794E+02  0.55827060571E+01 -0.16410430043E+03  0.17007057336E+03  0.00000000000E+00 0.  1.
<mgrwt>
<rscale>  0 0.14141545E+04</rscale>
<asrwt>0</asrwt>
<pdfrwt beam="1">  1        2 0.67344060E-01 0.14141545E+04</pdfrwt>
<pdfrwt beam="2">  1       -2 0.17571455E+00 0.14141545E+04</pdfrwt>
<totfact> 0.13539745E+01</totfact>
</mgrwt>
</event>
<event>
12    1  0.1467288E-007  0.1221434E+04  0.7818608E-02  0.9094300E-01
          1   -1    0    0  501    0  0.00000000000E+00  0.00000000000E+00  0.62623684205E+03  0.62623684205E+03  0.00000000000E+00 0. -1.
         -1   -1    0    0    0  501 -0.00000000000E+00 -0.00000000000E+00 -0.59558157070E+03  0.59558157070E+03  0.00000000000E+00 0.  1.
         23    2    1    2    0    0 -0.72471424608E+02  0.73261026105E+02  0.22792158524E+03  0.26615377468E+03  0.90941175647E+02 0.  0.
        254    2    1    2    0    0  0.72471424608E+02 -0.73261026105E+02 -0.19726631389E+03  0.95566463808E+03  0.92938776436E+03 0.  0.
        -24    2    4    4    0    0  0.30176611462E+03  0.84057692124E+02  0.26046204156E+03  0.41486594926E+03  0.78388756966E+02 0.  0.
         24    2    4    4    0    0 -0.22929469001E+03 -0.15731871823E+03 -0.45772835545E+03  0.54079868882E+03  0.74984934936E+02 0.  0.
         11    1    3    3    0    0 -0.86527012514E+02  0.29406484057E+02  0.15153439763E+03  0.17695857952E+03  0.00000000000E+00 0. -1.
        -11    1    3    3    0    0  0.14055587906E+02  0.43854542048E+02  0.76387187603E+02  0.89195195159E+02  0.00000000000E+00 0.  1.
          4    1    6    6  502    0 -0.12509343809E+03 -0.44119001613E+02 -0.18457364474E+03  0.22729338945E+03  0.00000000000E+00 0. -1.
          3    1    5    5  503    0  0.29610234013E+03  0.65398768766E+02  0.24786641374E+03  0.39165208266E+03  0.00000000000E+00 0. -1.
         -4    1    5    5    0  503  0.56637744894E+01  0.18658923358E+02  0.12595627821E+02  0.23213866600E+02  0.00000000000E+00 0.  1.
         -3    1    6    6    0  502 -0.10420125192E+03 -0.11319971662E+03 -0.27315471071E+03  0.31350529936E+03  0.00000000000E+00 0.  1.
<mgrwt>
<rscale>  0 0.12214338E+04</rscale>
<asrwt>0</asrwt>
<pdfrwt beam="1">  1        1 0.96344129E-01 0.12214338E+04</pdfrwt>
<pdfrwt beam="2">  1       -1 0.91627934E-01 0.12214338E+04</pdfrwt>
<totfact> 0.36933943E+01</totfact>
</mgrwt>
</event>
<event>
12    1  0.1467288E-007  0.2338716E+04  0.7818608E-02  0.8462811E-01
          2   -1    0    0  501    0  0.00000000000E+00  0.00000000000E+00  0.23006366115E+04  0.23006366115E+04  0.00000000000E+00 0. -1.
         -2   -1    0    0    0  501 -0.00000000000E+00 -0.00000000000E+00 -0.59435625140E+03  0.59435625140E+03  0.00000000000E+00 0.  1.
         23    2    1    2    0    0  0.19353805767E+02 -0.88101702397E+02 -0.49567767289E+03  0.51206201352E+03  0.91513225980E+02 0.  0.
        254    2    1    2    0    0 -0.19353805767E+02  0.88101702397E+02  0.22019580330E+04  0.23829308494E+04  0.90642361737E+03 0.  0.
        -24    2    4    4    0    0  0.20072342834E+03  0.41153285682E+03  0.15540799376E+04  0.16225423887E+04  0.88488213259E+02 0.  0.
         24    2    4    4    0    0 -0.22007723411E+03 -0.32343115442E+03  0.64787809544E+03  0.76038846068E+03  0.73504312581E+02 0.  0.
         13    1    3    3    0    0 -0.13426915096E+02 -0.69508847582E+02 -0.43434216994E+03  0.44007372397E+03  0.00000000000E+00 0.  1.
        -13    1    3    3    0    0  0.32780720864E+02 -0.18592854815E+02 -0.61335502944E+02  0.71988289547E+02  0.00000000000E+00 0. -1.
          2    1    6    6  502    0 -0.12762232462E+02 -0.27780887650E+02  0.21475953135E+02  0.37361328390E+02  0.00000000000E+00 0. -1.
          3    1    5    5  503    0  0.13757727369E+02  0.10248790858E+02  0.13301723218E+03  0.13411896523E+03  0.00000000000E+00 0. -1.
         -4    1    5    5    0  503  0.18696570098E+03  0.40128406596E+03  0.14210627054E+04  0.14884234235E+04  0.00000000000E+00 0.  1.
         -1    1    6    6    0  502 -0.20731500165E+03 -0.29565026677E+03  0.62640214230E+03  0.72302713229E+03  0.00000000000E+00 0.  1.
<mgrwt>
<rscale>  0 0.23387157E+04</rscale>
<asrwt>0</asrwt>
<pdfrwt beam="1">  1        2 0.35394409E+00 0.23387157E+04</pdfrwt>
<pdfrwt beam="2">  1       -2 0.91439425E-01 0.23387157E+04</pdfrwt>
<totfact> 0.41698879E+00</totfact>
</mgrwt>
</event>
<event>
12    1  0.1467288E-007  0.1291152E+04  0.7818608E-02  0.9036611E-01
         -1   -1    0    0    0  501 -0.00000000000E+00  0.00000000000E+00  0.38967234703E+03  0.38967234703E+03  0.00000000000E+00 0.  1.
          1   -1    0    0  501    0  0.00000000000E+00 -0.00000000000E+00 -0.10695356236E+04  0.10695356236E+04  0.00000000000E+00 0. -1.
         23    2    1    2    0    0  0.30215282244E+03  0.84460652305E+02 -0.23682665482E+03  0.40439085846E+03  0.94948260009E+02 0.  0.
        254    2    1    2    0    0 -0.30215282244E+03 -0.84460652305E+02 -0.44303662173E+03  0.10548171121E+04  0.90439358798E+03 0.  0.
        -24    2    4    4    0    0 -0.34472945305E+03 -0.42361463876E+03 -0.43683015283E+03  0.70384272373E+03  0.79285808034E+02 0.  0.
         24    2    4    4    0    0  0.42576630606E+02  0.33915398646E+03 -0.62064689028E+01  0.35097438842E+03  0.79412247574E+02 0.  0.
         13    1    3    3    0    0  0.15601423092E+03  0.11730199768E+02 -0.16067766582E+03  0.22426624831E+03  0.00000000000E+00 0. -1.
        -13    1    3    3    0    0  0.14613859152E+03  0.72730452537E+02 -0.76148988992E+02  0.18012461015E+03  0.00000000000E+00 0.  1.
          2    1    6    6  502    0  0.51799513860E+01  0.12109769744E+02 -0.17141607174E+02  0.21617426215E+02  0.00000000000E+00 0. -1.
          1    1    5    5  503    0 -0.81452504157E+02 -0.15641026730E+03 -0.12705143870E+03  0.21734937365E+03  0.00000000000E+00 0. -1.
         -2    1    5    5    0  503 -0.26327694889E+03 -0.26720437147E+03 -0.30977871413E+03  0.48649335008E+03  0.00000000000E+00 0.  1.
         -1    1    6    6    0  502  0.37396679220E+02  0.32704421671E+03  0.10935138272E+02  0.32935696220E+03  0.00000000000E+00 0.  1.
<mgrwt>
<rscale>  0 0.12911521E+04</rscale>
<asrwt>0</asrwt>
<pdfrwt beam="1">  1        1 0.16454394E+00 0.12911521E+04</pdfrwt>
<pdfrwt beam="2">  1       -1 0.59949592E-01 0.12911521E+04</pdfrwt>
<totfact> 0.37087771E+01</totfact>
</mgrwt>
</event>
<event>
12    1  0.1467288E-007  0.1360063E+04  0.7818608E-02  0.8983245E-01
          1   -1    0    0  501    0  0.00000000000E+00  0.00000000000E+00  0.63104680605E+03  0.63104680605E+03  0.00000000000E+00 0. -1.
         -1   -1    0    0    0  501 -0.00000000000E+00 -0.00000000000E+00 -0.73281909471E+03  0.73281909471E+03  0.00000000000E+00 0.  1.
         23    2    1    2    0    0  0.16102539279E+03  0.21135575526E+03 -0.29588910694E+03  0.40780276184E+03  0.90290068977E+02 0.  0.
        254    2    1    2    0    0 -0.16102539279E+03 -0.21135575526E+03  0.19411681828E+03  0.95606313892E+03  0.89764968337E+03 0.  0.
        -24    2    4    4    0    0 -0.27934400109E+03  0.59072713953E+02  0.46237199000E+03  0.54934362121E+03  0.80423258770E+02 0.  0.
         24    2    4    4    0    0  0.11831860830E+03 -0.27042846922E+03 -0.26825517172E+03  0.40671951771E+03  0.79555508294E+02 0.  0.
         13    1    3    3    0    0  0.50281480052E+02  0.11496161134E+03 -0.87850719149E+02  0.15317358837E+03  0.00000000000E+00 0. -1.
        -13    1    3    3    0    0  0.11074391274E+03  0.96394143923E+02 -0.20803838779E+03  0.25462917348E+03  0.00000000000E+00 0.  1.
          2    1    6    6  502    0  0.90468082602E+02 -0.24410522185E+03 -0.19940945900E+03  0.32792676872E+03  0.00000000000E+00 0. -1.
          1    1    5    5  503    0 -0.26212669391E+03  0.68322991159E+02  0.45265195734E+03  0.52751514601E+03  0.00000000000E+00 0. -1.
         -2    1    5    5    0  503 -0.17217307178E+02 -0.92502772054E+01  0.97200326557E+01  0.21828475202E+02  0.00000000000E+00 0.  1.
         -1    1    6    6    0  502  0.27850525696E+02 -0.26323247364E+02 -0.68845712721E+02  0.78792748989E+02  0.00000000000E+00 0.  1.
<mgrwt>
<rscale>  0 0.13600635E+04</rscale>
<asrwt>0</asrwt>
<pdfrwt beam="1">  1        1 0.97084123E-01 0.13600635E+04</pdfrwt>
<pdfrwt beam="2">  1       -1 0.11274140E+00 0.13600635E+04</pdfrwt>
<totfact> 0.22409728E+01</totfact>
</mgrwt>
</event>
<event>
12    1  0.1467288E-007  0.1343839E+04  0.7818608E-02  0.8995505E-01
         -2   -1    0    0    0  501 -0.00000000000E+00  0.00000000000E+00  0.90244528059E+03  0.90244528059E+03  0.00000000000E+00 0.  1.
          2   -1    0    0  501    0  0.00000000000E+00 -0.00000000000E+00 -0.50028083549E+03  0.50028083549E+03  0.00000000000E+00 0. -1.
         23    2    1    2    0    0 -0.32006124698E+03 -0.18783372363E+03  0.19423740292E+03  0.42845520779E+03  0.90138708882E+02 0.  0.
        254    2    1    2    0    0  0.32006124698E+03  0.18783372363E+03  0.20792704219E+03  0.97427090829E+03  0.87649839607E+03 0.  0.
        -24    2    4    4    0    0  0.26026181161E+02 -0.69536902767E+02  0.47942491829E+03  0.49158317787E+03  0.79328592117E+02 0.  0.
         24    2    4    4    0    0  0.29403506582E+03  0.25737062640E+03 -0.27149787611E+03  0.48268773042E+03  0.81117748395E+02 0.  0.
         13    1    3    3    0    0 -0.32132900014E+02 -0.71124011686E+01 -0.66698698852E+01  0.33579706341E+02  0.00000000000E+00 0.  1.
        -13    1    3    3    0    0 -0.28792834696E+03 -0.18072132246E+03  0.20090727281E+03  0.39487550145E+03  0.00000000000E+00 0. -1.
          4    1    6    6  502    0  0.10060986225E+03  0.56824748891E+02 -0.46478555608E+02  0.12454578515E+03  0.00000000000E+00 0. -1.
          3    1    5    5  503    0 -0.27794632650E+02 -0.15783830400E+02  0.16702282377E+03  0.17005379904E+03  0.00000000000E+00 0. -1.
         -4    1    5    5    0  503  0.53820813811E+02 -0.53753072368E+02  0.31240209452E+03  0.32152937883E+03  0.00000000000E+00 0.  1.
         -3    1    6    6    0  502  0.19342520357E+03  0.20054587751E+03 -0.22501932050E+03  0.35814194527E+03  0.00000000000E+00 0.  1.
<mgrwt>
<rscale>  0 0.13438394E+04</rscale>
<asrwt>0</asrwt>
<pdfrwt beam="1">  1        2 0.76966283E-01 0.13438394E+04</pdfrwt>
<pdfrwt beam="2">  1       -2 0.13883774E+00 0.13438394E+04</pdfrwt>
<totfact> 0.22055665E+01</totfact>
</mgrwt>
</event>
<event>
12    1  0.1467288E-007  0.2212502E+04  0.7818608E-02  0.8513242E-01
          2   -1    0    0  501    0  0.00000000000E+00  0.00000000000E+00  0.12330009539E+04  0.12330009539E+04  0.00000000000E+00 0. -1.
         -2   -1    0    0    0  501 -0.00000000000E+00 -0.00000000000E+00 -0.99253087370E+03  0.99253087370E+03  0.00000000000E+00 0.  1.
         23    2    1    2    0    0 -0.50925138574E+03  0.35684434535E+03  0.79293649601E+03  0.10118857216E+04  0.92138841559E+02 0.  0.
        254    2    1    2    0    0  0.50925138574E+03 -0.35684434535E+03 -0.55246641579E+03  0.12136461061E+04  0.88376629801E+03 0.  0.
        -24    2    4    4    0    0 -0.17678923730E+03 -0.23941301060E+03 -0.38453762821E+03  0.49308390272E+03  0.81789507517E+02 0.  0.
         24    2    4    4    0    0  0.68604062305E+03 -0.11743133475E+03 -0.16792878758E+03  0.72056220334E+03  0.81042928991E+02 0.  0.
         13    1    3    3    0    0 -0.40751951348E+03  0.29888729424E+03  0.58339215270E+03  0.77184983796E+03  0.00000000000E+00 0. -1.
        -13    1    3    3    0    0 -0.10173187226E+03  0.57957051110E+02  0.20954434332E+03  0.24003588362E+03  0.00000000000E+00 0.  1.
          2    1    6    6  502    0  0.68720966773E+03 -0.11535506237E+03 -0.17015840149E+03  0.71729896099E+03  0.00000000000E+00 0. -1.
          1    1    5    5  503    0 -0.12945375596E+03 -0.18906223415E+03 -0.23432211505E+03  0.32773412534E+03  0.00000000000E+00 0. -1.
         -4    1    5    5    0  503 -0.47335481342E+02 -0.50350776448E+02 -0.15021551317E+03  0.16534977738E+03  0.00000000000E+00 0.  1.
         -1    1    6    6    0  502 -0.11690446840E+01 -0.20762723791E+01  0.22296139140E+01  0.32632423556E+01  0.00000000000E+00 0.  1.
<mgrwt>
<rscale>  0 0.22125022E+04</rscale>
<asrwt>0</asrwt>
<pdfrwt beam="1">  1        2 0.18969245E+00 0.22125022E+04</pdfrwt>
<pdfrwt beam="2">  1       -2 0.15269706E+00 0.22125022E+04</pdfrwt>
<totfact> 0.47235505E+00</totfact>
</mgrwt>
</event>
<event>
12    1  0.1467288E-007  0.2145166E+04  0.7818608E-02  0.8541604E-01
          1   -1    0    0  501    0  0.00000000000E+00  0.00000000000E+00  0.16886643600E+04  0.16886643600E+04  0.00000000000E+00 0. -1.
         -1   -1    0    0    0  501 -0.00000000000E+00 -0.00000000000E+00 -0.68126879153E+03  0.68126879153E+03  0.00000000000E+00 0.  1.
         23    2    1    2    0    0  0.19633993725E+03  0.20536915907E+03  0.13376498397E+04  0.13705951312E+04  0.92184909015E+02 0.  0.
        254    2    1    2    0    0 -0.19633993725E+03 -0.20536915907E+03 -0.33025427129E+03  0.99933802031E+03  0.89937908174E+03 0.  0.
        -24    2    4    4    0    0 -0.21348791669E+03  0.36198781073E+02 -0.59090847366E+03  0.63436601388E+03  0.79749438818E+02 0.  0.
         24    2    4    4    0    0  0.17147979441E+02 -0.24156794015E+03  0.26065420237E+03  0.36497200644E+03  0.81331601264E+02 0.  0.
         11    1    3    3    0    0  0.19239762241E+03  0.17190617381E+03  0.12567124849E+04  0.12829243342E+04  0.00000000000E+00 0. -1.
        -11    1    3    3    0    0  0.39423148383E+01  0.33462985267E+02  0.80937354829E+02  0.87670796939E+02  0.00000000000E+00 0.  1.
          4    1    6    6  502    0 -0.74267906546E+01 -0.11602515684E+03  0.17821127086E+03  0.21278216866E+03  0.00000000000E+00 0. -1.
          1    1    5    5  503    0 -0.21155331196E+03  0.17874615982E+02 -0.54598959488E+03  0.58581476886E+03  0.00000000000E+00 0. -1.
         -2    1    5    5    0  503 -0.19346047368E+01  0.18324165091E+02 -0.44918878779E+02  0.48551245016E+02  0.00000000000E+00 0.  1.
         -3    1    6    6    0  502  0.24574770096E+02 -0.12554278331E+03  0.82442931505E+02  0.15218983777E+03  0.00000000000E+00 0.  1.
<mgrwt>
<rscale>  0 0.21451660E+04</rscale>
<asrwt>0</asrwt>
<pdfrwt beam="1">  1        1 0.25979452E+00 0.21451660E+04</pdfrwt>
<pdfrwt beam="2">  1       -1 0.10481058E+00 0.21451660E+04</pdfrwt>
<totfact> 0.37995408E+00</totfact>
</mgrwt>
</event>
<event>
12    1  0.1467288E-007  0.1888393E+04  0.7818608E-02  0.8660656E-01
          2   -1    0    0  501    0  0.00000000000E+00  0.00000000000E+00  0.12875496990E+04  0.12875496990E+04  0.00000000000E+00 0.  1.
         -2   -1    0    0    0  501 -0.00000000000E+00 -0.00000000000E+00 -0.69240578272E+03  0.69240578272E+03  0.00000000000E+00 0. -1.
         23    2    1    2    0    0 -0.25081826126E+02  0.37189213845E+03 -0.41715213720E+03  0.56733077483E+03  0.94421617530E+02 0.  0.
        254    2    1    2    0    0  0.25081826126E+02 -0.37189213845E+03  0.10122960535E+04  0.14126247069E+04  0.91204846470E+03 0.  0.
        -24    2    4    4    0    0  0.25098644562E+03 -0.36504394711E+03  0.88329607298E+02  0.45866385633E+03  0.79492983155E+02 0.  0.
         24    2    4    4    0    0 -0.22590461949E+03 -0.68481913436E+01  0.92396644616E+03  0.95396085054E+03  0.72439739734E+02 0.  0.
         11    1    3    3    0    0 -0.29866407280E+02  0.37649264930E+03 -0.40735516873E+03  0.55549703037E+03  0.00000000000E+00 0. -1.
        -11    1    3    3    0    0  0.47845811542E+01 -0.46005108425E+01 -0.97969684728E+01  0.11833744466E+02  0.00000000000E+00 0.  1.
          4    1    6    6  502    0 -0.10947684503E+03  0.28729718535E+02  0.51321521349E+03  0.52554774444E+03  0.00000000000E+00 0. -1.
          3    1    5    5  503    0  0.23192251176E+03 -0.36118072018E+03  0.91713744324E+02  0.43892023761E+03  0.00000000000E+00 0. -1.
         -4    1    5    5    0  503  0.19063933860E+02 -0.38632269315E+01 -0.33841370256E+01  0.19743618715E+02  0.00000000000E+00 0.  1.
         -3    1    6    6    0  502 -0.11642777446E+03 -0.35577909879E+02  0.41075123267E+03  0.42841310610E+03  0.00000000000E+00 0.  1.
<mgrwt>
<rscale>  0 0.18883928E+04</rscale>
<asrwt>0</asrwt>
<pdfrwt beam="1">  1        2 0.19808457E+00 0.18883928E+04</pdfrwt>
<pdfrwt beam="2">  1       -2 0.10652397E+00 0.18883928E+04</pdfrwt>
<totfact> 0.11191423E+01</totfact>
</mgrwt>
</event>
<event>
12    1  0.1467288E-007  0.3878886E+04  0.7818608E-02  0.8029435E-01
          1   -1    0    0  501    0  0.00000000000E+00  0.00000000000E+00  0.16693363257E+04  0.16693363257E+04  0.00000000000E+00 0. -1.
         -1   -1    0    0    0  501 -0.00000000000E+00 -0.00000000000E+00 -0.22532538400E+04  0.22532538400E+04  0.00000000000E+00 0.  1.
         23    2    1    2    0    0 -0.17049353362E+04 -0.15704832699E+03 -0.93835266133E+03  0.19546209797E+04  0.92567702868E+02 0.  0.
        254    2    1    2    0    0  0.17049353362E+04  0.15704832699E+03  0.35443514708E+03  0.19679691860E+04  0.90322188064E+03 0.  0.
        -24    2    4    4    0    0  0.16391153199E+04 -0.13092308894E+01  0.51587464306E+03  0.17202072305E+04  0.79281286758E+02 0.  0.
         24    2    4    4    0    0  0.65820016345E+02  0.15835755788E+03 -0.16143949597E+03  0.24776195550E+03  0.76901788281E+02 0.  0.
         11    1    3    3    0    0 -0.59566503765E+02 -0.15614680129E+02 -0.18566839542E+02  0.64317292674E+02  0.00000000000E+00 0. -1.
        -11    1    3    3    0    0 -0.16453688325E+04 -0.14143364686E+03 -0.91978582178E+03  0.18903036870E+04  0.00000000000E+00 0.  1.
          2    1    6    6  502    0  0.50563866939E+02  0.74206845336E+02 -0.12706010532E+03  0.15558801656E+03  0.00000000000E+00 0. -1.
          3    1    5    5  503    0  0.96037483698E+03 -0.26537748305E+01  0.26126452823E+03  0.99528188155E+03  0.00000000000E+00 0. -1.
         -4    1    5    5    0  503  0.67874048290E+03  0.13445439411E+01  0.25461011482E+03  0.72492534891E+03  0.00000000000E+00 0.  1.
         -1    1    6    6    0  502  0.15256149406E+02  0.84150712547E+02 -0.34379390658E+02  0.92173938935E+02  0.00000000000E+00 0.  1.
<mgrwt>
<rscale>  0 0.38788857E+04</rscale>
<asrwt>0</asrwt>
<pdfrwt beam="1">  1        1 0.25682098E+00 0.38788857E+04</pdfrwt>
<pdfrwt beam="2">  1       -1 0.34665443E+00 0.38788857E+04</pdfrwt>
<totfact> 0.64622010E-02</totfact>
</mgrwt>
</event>
<event>
12    1  0.1467288E-007  0.2262401E+04  0.7818608E-02  0.8492895E-01
         -2   -1    0    0    0  501 -0.00000000000E+00  0.00000000000E+00  0.88408476216E+03  0.88408476216E+03  0.00000000000E+00 0.  1.
          2   -1    0    0  501    0  0.00000000000E+00 -0.00000000000E+00 -0.14473886509E+04  0.14473886509E+04  0.00000000000E+00 0. -1.
         23    2    1    2    0    0 -0.14251720765E+02 -0.94489849116E+03 -0.29005067308E+03  0.99256386242E+03  0.89539700027E+02 0.  0.
        254    2    1    2    0    0  0.14251720765E+02  0.94489849116E+03 -0.27325321562E+03  0.13389095506E+04  0.90828145124E+03 0.  0.
        -24    2    4    4    0    0  0.42593669984E+03  0.62178456627E+03 -0.28352133941E+03  0.80917017388E+03  0.79585810733E+02 0.  0.
         24    2    4    4    0    0 -0.41168497908E+03  0.32311392489E+03  0.10268123790E+02  0.52973937671E+03  0.81432440802E+02 0.  0.
         11    1    3    3    0    0 -0.62030389471E+01 -0.76905556653E+01  0.34103841087E+01  0.10452418782E+02  0.00000000000E+00 0.  1.
        -11    1    3    3    0    0 -0.80486818176E+01 -0.93720793550E+03 -0.29346105718E+03  0.98211144364E+03  0.00000000000E+00 0. -1.
          2    1    6    6  502    0 -0.23633228207E+03  0.22561255155E+03 -0.17445644515E+02  0.32719767951E+03  0.00000000000E+00 0. -1.
          1    1    5    5  503    0  0.18292782044E+03  0.20138869552E+03 -0.11138143221E+03  0.29398268251E+03  0.00000000000E+00 0. -1.
         -2    1    5    5    0  503  0.24300887940E+03  0.42039587075E+03 -0.17213990720E+03  0.51518749137E+03  0.00000000000E+00 0.  1.
         -1    1    6    6    0  502 -0.17535269700E+03  0.97501373346E+02  0.27713768304E+02  0.20254169720E+03  0.00000000000E+00 0.  1.
<mgrwt>
<rscale>  0 0.22624007E+04</rscale>
<asrwt>0</asrwt>
<pdfrwt beam="1">  1        2 0.22267518E+00 0.22624007E+04</pdfrwt>
<pdfrwt beam="2">  1       -2 0.13601304E+00 0.22624007E+04</pdfrwt>
<totfact> 0.47864068E+00</totfact>
</mgrwt>
</event>
<event>
12    1  0.1467288E-007  0.3278936E+04  0.7818608E-02  0.8168276E-01
         -1   -1    0    0    0  501 -0.00000000000E+00  0.00000000000E+00  0.90299034410E+03  0.90299034410E+03  0.00000000000E+00 0.  1.
          1   -1    0    0  501    0  0.00000000000E+00 -0.00000000000E+00 -0.29766156681E+04  0.29766156681E+04  0.00000000000E+00 0. -1.
         23    2    1    2    0    0 -0.52610143095E+03  0.95703928023E+03 -0.22168458107E+04  0.24727424296E+04  0.85690579450E+02 0.  0.
        254    2    1    2    0    0  0.52610143095E+03 -0.95703928023E+03  0.14322048664E+03  0.14068635826E+04  0.87524061421E+03 0.  0.
        -24    2    4    4    0    0 -0.20114071213E+02  0.38868759906E+02  0.24747034924E+03  0.26351635322E+03  0.79271295608E+02 0.  0.
         24    2    4    4    0    0  0.54621550216E+03 -0.99590804013E+03 -0.10424986260E+03  0.11433472294E+04  0.78680708655E+02 0.  0.
         11    1    3    3    0    0 -0.66151019651E+01  0.33250452210E+02 -0.96347171897E+02  0.10213779750E+03  0.00000000000E+00 0.  1.
        -11    1    3    3    0    0 -0.51948632898E+03  0.92378882802E+03 -0.21204986388E+04  0.23706046321E+04  0.00000000000E+00 0. -1.
          4    1    6    6  502    0  0.23263320087E+03 -0.35632172638E+03 -0.19300413921E+02  0.42597638998E+03  0.00000000000E+00 0. -1.
          1    1    5    5  503    0  0.59719919704E+01  0.35728484298E+02  0.38355406023E+02  0.52757240731E+02  0.00000000000E+00 0. -1.
         -2    1    5    5    0  503 -0.26086063183E+02  0.31402756078E+01  0.20911494321E+03  0.21075911249E+03  0.00000000000E+00 0.  1.
         -1    1    6    6    0  502  0.31358230128E+03 -0.63958631375E+03 -0.84949448676E+02  0.71737083942E+03  0.00000000000E+00 0.  1.
<mgrwt>
<rscale>  0 0.32789359E+04</rscale>
<asrwt>0</asrwt>
<pdfrwt beam="1">  1        1 0.45794087E+00 0.32789359E+04</pdfrwt>
<pdfrwt beam="2">  1       -1 0.13892159E+00 0.32789359E+04</pdfrwt>
<totfact> 0.22081439E-01</totfact>
</mgrwt>
</event>
<event>
12    1  0.1467288E-007  0.2290124E+04  0.7818608E-02  0.8481825E-01
         -2   -1    0    0    0  501 -0.00000000000E+00  0.00000000000E+00  0.12060286147E+04  0.12060286147E+04  0.00000000000E+00 0.  1.
          2   -1    0    0  501    0  0.00000000000E+00 -0.00000000000E+00 -0.10871774819E+04  0.10871774819E+04  0.00000000000E+00 0. -1.
         23    2    1    2    0    0  0.56497352786E+03  0.48538371916E+03 -0.56648466180E+03  0.94027342615E+03  0.91743129731E+02 0.  0.
        254    2    1    2    0    0 -0.56497352786E+03 -0.48538371916E+03  0.68533579467E+03  0.13529326705E+04  0.89774674456E+03 0.  0.
        -24    2    4    4    0    0 -0.95954935912E+02  0.26978125959E+02 -0.19228707427E+03  0.23077532445E+03  0.79672846309E+02 0.  0.
         24    2    4    4    0    0 -0.46901859195E+03 -0.51236184512E+03  0.87762286894E+03  0.11221573460E+04  0.80759576678E+02 0.  0.
         11    1    3    3    0    0  0.43087818498E+03  0.40399890469E+03 -0.41228076112E+03  0.72031003830E+03  0.00000000000E+00 0. -1.
        -11    1    3    3    0    0  0.13409534288E+03  0.81384814466E+02 -0.15420390068E+03  0.21996338785E+03  0.00000000000E+00 0.  1.
          2    1    6    6  502    0 -0.28631243598E+03 -0.30151356225E+03  0.58646327840E+03  0.71890501190E+03  0.00000000000E+00 0. -1.
          1    1    5    5  503    0 -0.10042228289E+03  0.30008190841E+02 -0.19729858015E+03  0.22340961516E+03  0.00000000000E+00 0. -1.
         -2    1    5    5    0  503  0.44673469746E+01 -0.30300648813E+01  0.50115058800E+01  0.73657092912E+01  0.00000000000E+00 0.  1.
         -1    1    6    6    0  502 -0.18270615597E+03 -0.21084828286E+03  0.29115959054E+03  0.40325233413E+03  0.00000000000E+00 0.  1.
<mgrwt>
<rscale>  0 0.22901241E+04</rscale>
<asrwt>0</asrwt>
<pdfrwt beam="1">  1        2 0.16725807E+00 0.22901241E+04</pdfrwt>
<pdfrwt beam="2">  1       -2 0.18554286E+00 0.22901241E+04</pdfrwt>
<totfact> 0.33442644E+00</totfact>
</mgrwt>
</event>
<event>
12    1  0.1467288E-007  0.1151934E+04  0.7818608E-02  0.9156001E-01
         -1   -1    0    0    0  501 -0.00000000000E+00  0.00000000000E+00  0.15987067915E+03  0.15987067915E+03  0.00000000000E+00 0.  1.
          1   -1    0    0  501    0  0.00000000000E+00 -0.00000000000E+00 -0.20750399366E+04  0.20750399366E+04  0.00000000000E+00 0. -1.
         23    2    1    2    0    0 -0.85355600260E+02  0.17056711667E+03 -0.26681658103E+03  0.34185638734E+03  0.96415672339E+02 0.  0.
        254    2    1    2    0    0  0.85355600260E+02 -0.17056711667E+03 -0.16483526764E+04  0.18930542284E+04  0.91115807960E+03 0.  0.
        -24    2    4    4    0    0 -0.33465108569E+03 -0.23061763967E+03 -0.12051591100E+04  0.12744040353E+04  0.80754689297E+02 0.  0.
         24    2    4    4    0    0  0.42000668595E+03  0.60050523007E+02 -0.44319356646E+03  0.61865019315E+03  0.79346345726E+02 0.  0.
         11    1    3    3    0    0 -0.68772822125E+02  0.57737826214E+02 -0.17000873232E+03  0.19226629113E+03  0.00000000000E+00 0. -1.
        -11    1    3    3    0    0 -0.16582778135E+02  0.11282929045E+03 -0.96807848709E+02  0.14959009622E+03  0.00000000000E+00 0.  1.
          4    1    6    6  502    0  0.20427910521E+03  0.35015535511E+02 -0.16034342239E+03  0.26204208375E+03  0.00000000000E+00 0. -1.
          1    1    5    5  503    0 -0.71812561481E+02 -0.85761502439E+02 -0.39132401313E+03  0.40699700556E+03  0.00000000000E+00 0. -1.
         -2    1    5    5    0  503 -0.26283852421E+03 -0.14485613723E+03 -0.81383509685E+03  0.86740702970E+03  0.00000000000E+00 0.  1.
         -3    1    6    6    0  502  0.21572758074E+03  0.25034987496E+02 -0.28285014407E+03  0.35660810940E+03  0.00000000000E+00 0.  1.
<mgrwt>
<rscale>  0 0.11519341E+04</rscale>
<asrwt>0</asrwt>
<pdfrwt beam="1">  1        1 0.31923688E+00 0.11519341E+04</pdfrwt>
<pdfrwt beam="2">  1       -1 0.24595492E-01 0.11519341E+04</pdfrwt>
<totfact> 0.38019043E+01</totfact>
</mgrwt>
</event>
<event>
12    1  0.1467288E-007  0.1956666E+04  0.7818608E-02  0.8627153E-01
          2   -1    0    0  501    0  0.00000000000E+00  0.00000000000E+00  0.25045681485E+04  0.25045681485E+04  0.00000000000E+00 0. -1.
         -2   -1    0    0    0  501 -0.00000000000E+00 -0.00000000000E+00 -0.38215584124E+03  0.38215584124E+03  0.00000000000E+00 0.  1.
         23    2    1    2    0    0  0.52435469832E+03 -0.22669532183E+03  0.15900459120E+04  0.16907084043E+04  0.62532290331E+02 0.  0.
        254    2    1    2    0    0 -0.52435469832E+03  0.22669532183E+03  0.53236639527E+03  0.11960155855E+04  0.90592531887E+03 0.  0.
        -24    2    4    4    0    0 -0.34372438459E+03  0.56106614050E+03  0.44655310310E+03  0.79835076153E+03  0.70799703165E+02 0.  0.
         24    2    4    4    0    0 -0.18063031373E+03 -0.33437081868E+03  0.85813292166E+02  0.39766482398E+03  0.79638159789E+02 0.  0.
         11    1    3    3    0    0  0.50023628535E+03 -0.20017685927E+03  0.14869511875E+04  0.15815596575E+04  0.00000000000E+00 0. -1.
        -11    1    3    3    0    0  0.24118412972E+02 -0.26518462554E+02  0.10309472453E+03  0.10914874679E+03  0.00000000000E+00 0.  1.
          2    1    6    6  502    0 -0.39235119153E+02 -0.54615935161E+02  0.46484026190E+02  0.81749982504E+02  0.00000000000E+00 0. -1.
          3    1    5    5  503    0 -0.14620487224E+02  0.50937252446E+02  0.52507684123E+02  0.74601737416E+02  0.00000000000E+00 0. -1.
         -4    1    5    5    0  503 -0.32910389737E+03  0.51012888806E+03  0.39404541898E+03  0.72374902412E+03  0.00000000000E+00 0.  1.
         -1    1    6    6    0  502 -0.14139519458E+03 -0.27975488351E+03  0.39329265975E+02  0.31591484147E+03  0.00000000000E+00 0.  1.
<mgrwt>
<rscale>  0 0.19566659E+04</rscale>
<asrwt>0</asrwt>
<pdfrwt beam="1">  1        2 0.38531817E+00 0.19566659E+04</pdfrwt>
<pdfrwt beam="2">  1       -2 0.58793208E-01 0.19566659E+04</pdfrwt>
<totfact> 0.87268973E+00</totfact>
</mgrwt>
</event>
<event>
12    1  0.1467288E-007  0.1216367E+04  0.7818608E-02  0.9098650E-01
          1   -1    0    0  501    0  0.00000000000E+00  0.00000000000E+00  0.76623168297E+03  0.76623168297E+03  0.00000000000E+00 0. -1.
         -1   -1    0    0    0  501 -0.00000000000E+00 -0.00000000000E+00 -0.48273506772E+03  0.48273506772E+03  0.00000000000E+00 0.  1.
         23    2    1    2    0    0 -0.70553069020E+02 -0.79951333110E+01  0.32246791787E+03  0.34172321422E+03  0.88020107809E+02 0.  0.
        254    2    1    2    0    0  0.70553069020E+02  0.79951333110E+01 -0.38971302625E+02  0.90724353647E+03  0.90362072483E+03 0.  0.
        -24    2    4    4    0    0  0.20641443624E+03 -0.82074707625E+02 -0.42211539445E+03  0.48348302185E+03  0.78938261106E+02 0.  0.
         24    2    4    4    0    0 -0.13586136722E+03  0.90069840936E+02  0.38314409183E+03  0.42376051462E+03  0.78757166674E+02 0.  0.
         11    1    3    3    0    0 -0.80871226540E+02 -0.25062653269E+02  0.19335837012E+03  0.21108233268E+03  0.00000000000E+00 0. -1.
        -11    1    3    3    0    0  0.10318157520E+02  0.17067519958E+02  0.12910954775E+03  0.13064088155E+03  0.00000000000E+00 0.  1.
          4    1    6    6  502    0 -0.38107941341E+02  0.31825031686E+02  0.21550241636E+03  0.22114777704E+03  0.00000000000E+00 0. -1.
          3    1    5    5  503    0  0.76816584700E+02 -0.40182482970E+02 -0.24611678500E+03  0.26093848217E+03  0.00000000000E+00 0. -1.
         -4    1    5    5    0  503  0.12959785154E+03 -0.41892224655E+02 -0.17599860945E+03  0.22254453968E+03  0.00000000000E+00 0.  1.
         -3    1    6    6    0  502 -0.97753425878E+02  0.58244809250E+02  0.16764167547E+03  0.20261273758E+03  0.00000000000E+00 0.  1.
<mgrwt>
<rscale>  0 0.12163666E+04</rscale>
<asrwt>0</asrwt>
<pdfrwt beam="1">  1        1 0.11788180E+00 0.12163666E+04</pdfrwt>
<pdfrwt beam="2">  1       -1 0.74266934E-01 0.12163666E+04</pdfrwt>
<totfact> 0.42743737E+01</totfact>
</mgrwt>
</event>
<event>
12    1  0.1467288E-007  0.1368491E+04  0.7818608E-02  0.8976948E-01
          1   -1    0    0  501    0  0.00000000000E+00  0.00000000000E+00  0.44245412265E+03  0.44245412265E+03  0.00000000000E+00 0. -1.
         -1   -1    0    0    0  501 -0.00000000000E+00 -0.00000000000E+00 -0.10581704000E+04  0.10581704000E+04  0.00000000000E+00 0.  1.
         23    2    1    2    0    0 -0.12362593528E+03  0.34679688108E+03 -0.52762375269E+02  0.38301341381E+03  0.91454679022E+02 0.  0.
        254    2    1    2    0    0  0.12362593528E+03 -0.34679688108E+03 -0.56295390204E+03  0.11176111088E+04  0.89251669232E+03 0.  0.
        -24    2    4    4    0    0  0.28609737541E+03  0.61084929649E+02 -0.59744750242E+03  0.67005788560E+03  0.80317962273E+02 0.  0.
         24    2    4    4    0    0 -0.16247144014E+03 -0.40788181073E+03  0.34493600382E+02  0.44755322319E+03  0.79683992973E+02 0.  0.
         11    1    3    3    0    0 -0.57106081200E+02  0.19125157126E+03  0.16359909888E+02  0.20026461163E+03  0.00000000000E+00 0. -1.
        -11    1    3    3    0    0 -0.66519854076E+02  0.15554530982E+03 -0.69122285157E+02  0.18274880218E+03  0.00000000000E+00 0.  1.
          4    1    6    6  502    0 -0.98716266890E+02 -0.23549505286E+03  0.59145573219E+02  0.26210879440E+03  0.00000000000E+00 0. -1.
          3    1    5    5  503    0  0.26041216626E+03  0.29401783160E+02 -0.50285755220E+03  0.56704909751E+03  0.00000000000E+00 0. -1.
         -4    1    5    5    0  503  0.25685209153E+02  0.31683146489E+02 -0.94589950223E+02  0.10300878809E+03  0.00000000000E+00 0.  1.
         -3    1    6    6    0  502 -0.63755173247E+02 -0.17238675787E+03 -0.24651972837E+02  0.18544442879E+03  0.00000000000E+00 0.  1.
<mgrwt>
<rscale>  0 0.13684909E+04</rscale>
<asrwt>0</asrwt>
<pdfrwt beam="1">  1        1 0.68069866E-01 0.13684909E+04</pdfrwt>
<pdfrwt beam="2">  1       -1 0.16279544E+00 0.13684909E+04</pdfrwt>
<totfact> 0.14254891E+01</totfact>
</mgrwt>
</event>
<event>
12    1  0.1467288E-007  0.1589421E+04  0.7818608E-02  0.8827073E-01
          2   -1    0    0  501    0  0.00000000000E+00  0.00000000000E+00  0.17572746587E+04  0.17572746587E+04  0.00000000000E+00 0. -1.
         -2   -1    0    0    0  501 -0.00000000000E+00 -0.00000000000E+00 -0.35940027609E+03  0.35940027609E+03  0.00000000000E+00 0.  1.
         23    2    1    2    0    0 -0.17516095627E+02  0.22924461317E+03  0.11296799842E+04  0.11567734130E+04  0.95330772009E+02 0.  0.
        254    2    1    2    0    0  0.17516095627E+02 -0.22924461317E+03  0.26819439835E+03  0.95990152171E+03  0.89253727642E+03 0.  0.
        -24    2    4    4    0    0  0.78574659033E+02 -0.51567109116E+03  0.36581949691E+03  0.64207399487E+03  0.79652114041E+02 0.  0.
         24    2    4    4    0    0 -0.61058563406E+02  0.28642647799E+03 -0.97625098561E+02  0.31782752684E+03  0.75600274411E+02 0.  0.
         11    1    3    3    0    0  0.21019510013E+02  0.19478886625E+03  0.93821599217E+03  0.95845384353E+03  0.00000000000E+00 0. -1.
        -11    1    3    3    0    0 -0.38535605640E+02  0.34455746918E+02  0.19146399206E+03  0.19831956951E+03  0.00000000000E+00 0.  1.
          4    1    6    6  502    0 -0.38354107825E+02  0.27071134231E+03 -0.97303260458E+02  0.29021301304E+03  0.00000000000E+00 0. -1.
          1    1    5    5  503    0  0.45146925775E+02 -0.45357369928E+03  0.30055665399E+03  0.54598685684E+03  0.00000000000E+00 0. -1.
         -2    1    5    5    0  503  0.33427733258E+02 -0.62097391883E+02  0.65262842922E+02  0.96087138035E+02  0.00000000000E+00 0.  1.
         -3    1    6    6    0  502 -0.22704455581E+02  0.15715135675E+02 -0.32183810266E+00  0.27614513798E+02  0.00000000000E+00 0.  1.
<mgrwt>
<rscale>  0 0.15894213E+04</rscale>
<asrwt>0</asrwt>
<pdfrwt beam="1">  1        2 0.27034994E+00 0.15894213E+04</pdfrwt>
<pdfrwt beam="2">  1       -2 0.55292351E-01 0.15894213E+04</pdfrwt>
<totfact> 0.26890649E+01</totfact>
</mgrwt>
</event>
<event>
12    1  0.1467288E-007  0.1326148E+04  0.7818608E-02  0.9009083E-01
         -1   -1    0    0    0  501 -0.00000000000E+00  0.00000000000E+00  0.35724197434E+03  0.35724197434E+03  0.00000000000E+00 0.  1.
          1   -1    0    0  501    0  0.00000000000E+00 -0.00000000000E+00 -0.12307257627E+04  0.12307257627E+04  0.00000000000E+00 0. -1.
         23    2    1    2    0    0  0.25254876334E+03 -0.10881678112E+03 -0.49563960061E+03  0.57399722246E+03  0.90510927418E+02 0.  0.
        254    2    1    2    0    0 -0.25254876334E+03  0.10881678112E+03 -0.37784418777E+03  0.10139705146E+04  0.89985999163E+03 0.  0.
        -24    2    4    4    0    0  0.14971817751E+03 -0.23741003646E+03  0.86306729580E+02  0.30448507504E+03  0.80518639231E+02 0.  0.
         24    2    4    4    0    0 -0.40226694085E+03  0.34622681757E+03 -0.46415091735E+03  0.70948543957E+03  0.79005151565E+02 0.  0.
         13    1    3    3    0    0  0.97655585709E+02 -0.67890151074E+02 -0.28907469911E+03  0.31258577655E+03  0.00000000000E+00 0. -1.
        -13    1    3    3    0    0  0.15489317763E+03 -0.40926630043E+02 -0.20656490150E+03  0.26141144591E+03  0.00000000000E+00 0.  1.
          2    1    6    6  502    0 -0.39751345561E+03  0.32998657632E+03 -0.46071511963E+03  0.69221854165E+03  0.00000000000E+00 0. -1.
          1    1    5    5  503    0  0.10844758340E+03 -0.19862718056E+03  0.36826877678E+02  0.22928116826E+03  0.00000000000E+00 0. -1.
         -4    1    5    5    0  503  0.41270594112E+02 -0.38782855900E+02  0.49479851902E+02  0.75203906776E+02  0.00000000000E+00 0.  1.
         -1    1    6    6    0  502 -0.47534852408E+01  0.16240241252E+02 -0.34357977196E+01  0.17266897921E+02  0.00000000000E+00 0.  1.
<mgrwt>
<rscale>  0 0.13261477E+04</rscale>
<asrwt>0</asrwt>
<pdfrwt beam="1">  1        1 0.18934243E+00 0.13261477E+04</pdfrwt>
<pdfrwt beam="2">  1       -1 0.54960303E-01 0.13261477E+04</pdfrwt>
<totfact> 0.33290624E+01</totfact>
</mgrwt>
</event>
<event>
12    1  0.1467288E-007  0.1615306E+04  0.7818608E-02  0.8811200E-01
         -1   -1    0    0    0  501 -0.00000000000E+00  0.00000000000E+00  0.32354778404E+03  0.32354778404E+03  0.00000000000E+00 0.  1.
          1   -1    0    0  501    0  0.00000000000E+00 -0.00000000000E+00 -0.20160968413E+04  0.20160968413E+04  0.00000000000E+00 0. -1.
         23    2    1    2    0    0 -0.53289800331E+02 -0.50396359969E+03 -0.97844519342E+03  0.11059118658E+04  0.94164461547E+02 0.  0.
        254    2    1    2    0    0  0.53289800331E+02  0.50396359969E+03 -0.71410386386E+03  0.12337327595E+04  0.86909900525E+03 0.  0.
        -24    2    4    4    0    0  0.36638278959E+02  0.56208504927E+03 -0.87350508140E+03  0.10425271627E+04  0.81054250614E+02 0.  0.
         24    2    4    4    0    0  0.16651521373E+02 -0.58121449577E+02  0.15940121754E+03  0.19120559688E+03  0.86576301959E+02 0.  0.
         11    1    3    3    0    0  0.46414826517E+01 -0.34577116662E+03 -0.69224585991E+03  0.77381107099E+03  0.00000000000E+00 0. -1.
        -11    1    3    3    0    0 -0.57931282983E+02 -0.15819243307E+03 -0.28619933352E+03  0.33210079484E+03  0.00000000000E+00 0.  1.
          2    1    6    6  502    0 -0.59780102382E+01 -0.98896545735E+01 -0.89556909510E+01  0.14620064104E+02  0.00000000000E+00 0. -1.
          3    1    5    5  503    0  0.13400757559E+02  0.12159316237E+02 -0.36853263770E+02  0.41055965766E+02  0.00000000000E+00 0. -1.
         -4    1    5    5    0  503  0.23237521400E+02  0.54992573303E+03 -0.83665181763E+03  0.10014711969E+04  0.00000000000E+00 0.  1.
         -1    1    6    6    0  502  0.22629531611E+02 -0.48231795003E+02  0.16835690849E+03  0.17658553277E+03  0.00000000000E+00 0.  1.
<mgrwt>
<rscale>  0 0.16153064E+04</rscale>
<asrwt>0</asrwt>
<pdfrwt beam="1">  1        1 0.31016874E+00 0.16153064E+04</pdfrwt>
<pdfrwt beam="2">  1       -1 0.49776583E-01 0.16153064E+04</pdfrwt>
<totfact> 0.11278763E+01</totfact>
</mgrwt>
</event>
<event>
12    1  0.1467288E-007  0.1187175E+04  0.7818608E-02  0.9124157E-01
          2   -1    0    0  501    0  0.00000000000E+00  0.00000000000E+00  0.43875432284E+03  0.43875432284E+03  0.00000000000E+00 0.  1.
         -2   -1    0    0    0  501 -0.00000000000E+00 -0.00000000000E+00 -0.80305950970E+03  0.80305950970E+03  0.00000000000E+00 0. -1.
         23    2    1    2    0    0 -0.15961257135E+03 -0.21962344513E+02 -0.28269421919E+03  0.33748680698E+03  0.89570116734E+02 0.  0.
        254    2    1    2    0    0  0.15961257135E+03  0.21962344513E+02 -0.81610967661E+02  0.90432702556E+03  0.88610862856E+03 0.  0.
        -24    2    4    4    0    0 -0.31141557465E+03 -0.11946264593E+03  0.12564224907E+03  0.36455077079E+03  0.76552634367E+02 0.  0.
         24    2    4    4    0    0  0.47102814600E+03  0.14142499045E+03 -0.20725321673E+03  0.53977625477E+03  0.80845328391E+02 0.  0.
         11    1    3    3    0    0 -0.13421289248E+03  0.19557456096E+02 -0.21099612495E+03  0.25082854570E+03  0.00000000000E+00 0. -1.
        -11    1    3    3    0    0 -0.25399678870E+02 -0.41519800609E+02 -0.71698094244E+02  0.86658261277E+02  0.00000000000E+00 0.  1.
          4    1    6    6  502    0  0.50770528685E+02  0.35405807896E+02 -0.46829249059E+02  0.77615696758E+02  0.00000000000E+00 0. -1.
          3    1    5    5  503    0 -0.64243052815E+02 -0.37675577156E+02 -0.21916499612E+01  0.74507867226E+02  0.00000000000E+00 0. -1.
         -4    1    5    5    0  503 -0.24717252183E+03 -0.81787068776E+02  0.12783389903E+03  0.29004290357E+03  0.00000000000E+00 0.  1.
         -3    1    6    6    0  502  0.42025761731E+03  0.10601918255E+03 -0.16042396767E+03  0.46216055801E+03  0.00000000000E+00 0.  1.
<mgrwt>
<rscale>  0 0.11871745E+04</rscale>
<asrwt>0</asrwt>
<pdfrwt beam="1">  1        2 0.67500665E-01 0.11871745E+04</pdfrwt>
<pdfrwt beam="2">  1       -2 0.12354762E+00 0.11871745E+04</pdfrwt>
<totfact> 0.34892224E+01</totfact>
</mgrwt>
</event>
<event>
12    1  0.1467288E-007  0.1492314E+04  0.7818608E-02  0.8889580E-01
         -2   -1    0    0    0  501 -0.00000000000E+00  0.00000000000E+00  0.32908746749E+03  0.32908746749E+03  0.00000000000E+00 0.  1.
          2   -1    0    0  501    0  0.00000000000E+00 -0.00000000000E+00 -0.16918012864E+04  0.16918012864E+04  0.00000000000E+00 0. -1.
         23    2    1    2    0    0 -0.29120489779E+03 -0.35483097761E+03 -0.33061921014E+03  0.57309141428E+03  0.91757244079E+02 0.  0.
        254    2    1    2    0    0  0.29120489779E+03  0.35483097761E+03 -0.10320946087E+04  0.14477973396E+04  0.90564481998E+03 0.  0.
        -24    2    4    4    0    0  0.55022357455E+03  0.31067338871E+03 -0.38620435901E+03  0.74544144506E+03  0.85236169934E+02 0.  0.
         24    2    4    4    0    0 -0.25901867676E+03  0.44157588899E+02 -0.64589024972E+03  0.70235589452E+03  0.84196320059E+02 0.  0.
         11    1    3    3    0    0 -0.32087232451E+02 -0.94599431009E+02 -0.86294797923E+02  0.13200543543E+03  0.00000000000E+00 0. -1.
        -11    1    3    3    0    0 -0.25911766534E+03 -0.26023154660E+03 -0.24432441221E+03  0.44108597885E+03  0.00000000000E+00 0.  1.
          4    1    6    6  502    0 -0.21504287032E+03  0.45133233303E+02 -0.59916230275E+03  0.63818172166E+03  0.00000000000E+00 0. -1.
          1    1    5    5  503    0  0.52612127216E+03  0.30687692201E+03 -0.35216459905E+03  0.70356019153E+03  0.00000000000E+00 0. -1.
         -2    1    5    5    0  503  0.24102302385E+02  0.37964667008E+01 -0.34039759957E+02  0.41881253534E+02  0.00000000000E+00 0.  1.
         -3    1    6    6    0  502 -0.43975806437E+02 -0.97564440454E+00 -0.46727946972E+02  0.64174172858E+02  0.00000000000E+00 0.  1.
<mgrwt>
<rscale>  0 0.14923144E+04</rscale>
<asrwt>0</asrwt>
<pdfrwt beam="1">  1        2 0.26027712E+00 0.14923144E+04</pdfrwt>
<pdfrwt beam="2">  1       -2 0.50628842E-01 0.14923144E+04</pdfrwt>
<totfact> 0.35337030E+01</totfact>
</mgrwt>
</event>
<event>
12    1  0.1467288E-007  0.1785447E+04  0.7818608E-02  0.8714077E-01
          1   -1    0    0  501    0  0.00000000000E+00  0.00000000000E+00  0.12351437391E+04  0.12351437391E+04  0.00000000000E+00 0. -1.
         -1   -1    0    0    0  501 -0.00000000000E+00 -0.00000000000E+00 -0.64523252379E+03  0.64523252379E+03  0.00000000000E+00 0.  1.
         23    2    1    2    0    0  0.37070679388E+03  0.51800638933E+03  0.38285818343E+03  0.74906319921E+03  0.93600968868E+02 0.  0.
        254    2    1    2    0    0 -0.37070679388E+03 -0.51800638933E+03  0.20705303189E+03  0.11313130637E+04  0.91172591476E+03 0.  0.
        -24    2    4    4    0    0 -0.43435543872E+02  0.20856612288E+03  0.23857355536E+03  0.32956788271E+03  0.79442897174E+02 0.  0.
         24    2    4    4    0    0 -0.32727125000E+03 -0.72657251222E+03 -0.31520523469E+02  0.80174518098E+03  0.82387530854E+02 0.  0.
         11    1    3    3    0    0  0.30403059222E+02  0.18444898409E+02  0.42290214677E+01  0.35811239995E+02  0.00000000000E+00 0.  1.
        -11    1    3    3    0    0  0.34030373465E+03  0.49956149092E+03  0.37862916196E+03  0.71325195921E+03  0.00000000000E+00 0. -1.
          4    1    6    6  502    0 -0.19965221885E+03 -0.42102443115E+03 -0.57996995701E+02  0.46955961456E+03  0.00000000000E+00 0. -1.
          3    1    5    5  503    0 -0.56453039906E+02  0.19213366217E+03  0.18739090395E+03  0.27425834670E+03  0.00000000000E+00 0. -1.
         -4    1    5    5    0  503  0.13017496034E+02  0.16432460713E+02  0.51182651404E+02  0.55309536003E+02  0.00000000000E+00 0.  1.
         -3    1    6    6    0  502 -0.12761903115E+03 -0.30554808106E+03  0.26476472233E+02  0.33218556642E+03  0.00000000000E+00 0.  1.
<mgrwt>
<rscale>  0 0.17854466E+04</rscale>
<asrwt>0</asrwt>
<pdfrwt beam="1">  1        1 0.19002211E+00 0.17854466E+04</pdfrwt>
<pdfrwt beam="2">  1       -1 0.99266542E-01 0.17854466E+04</pdfrwt>
<totfact> 0.92258673E+00</totfact>
</mgrwt>
</event>
<event>
12    1  0.1467288E-007  0.2265378E+04  0.7818608E-02  0.8491699E-01
          1   -1    0    0  501    0  0.00000000000E+00  0.00000000000E+00  0.30693334705E+04  0.30693334705E+04  0.00000000000E+00 0. -1.
         -1   -1    0    0    0  501 -0.00000000000E+00 -0.00000000000E+00 -0.41800096371E+03  0.41800096371E+03  0.00000000000E+00 0.  1.
         23    2    1    2    0    0  0.51424151285E+03 -0.78428498041E+03  0.85351956319E+03  0.12714153830E+04  0.91946545879E+02 0.  0.
        254    2    1    2    0    0 -0.51424151285E+03  0.78428498041E+03  0.17978129436E+04  0.22159190513E+04  0.89365462983E+03 0.  0.
        -24    2    4    4    0    0 -0.34928246866E+03  0.87778716786E+03  0.17700057391E+04  0.20079910220E+04  0.81234678372E+02 0.  0.
         24    2    4    4    0    0 -0.16495904419E+03 -0.93502187451E+02  0.27807204555E+02  0.20792802929E+03  0.80663990867E+02 0.  0.
         13    1    3    3    0    0  0.21571611977E+02 -0.14145790687E+02  0.40186120108E+02  0.47753136932E+02  0.00000000000E+00 0. -1.
        -13    1    3    3    0    0  0.49266990087E+03 -0.77013918972E+03  0.81333344308E+03  0.12236622460E+04  0.00000000000E+00 0.  1.
          2    1    6    6  502    0 -0.12445993780E+03 -0.77811708636E+02  0.54928814103E+02  0.15672304469E+03  0.00000000000E+00 0. -1.
          1    1    5    5  503    0 -0.20208153004E+03  0.60956115813E+03  0.12097653350E+04  0.13696473692E+04  0.00000000000E+00 0. -1.
         -2    1    5    5    0  503 -0.14720093862E+03  0.26822600973E+03  0.56024040411E+03  0.63834365276E+03  0.00000000000E+00 0.  1.
         -1    1    6    6    0  502 -0.40499106386E+02 -0.15690478816E+02 -0.27121609548E+02  0.51204984601E+02  0.00000000000E+00 0.  1.
<mgrwt>
<rscale>  0 0.22653780E+04</rscale>
<asrwt>0</asrwt>
<pdfrwt beam="1">  1        1 0.47220513E+00 0.22653780E+04</pdfrwt>
<pdfrwt beam="2">  1       -1 0.64307843E-01 0.22653780E+04</pdfrwt>
<totfact> 0.11829153E+00</totfact>
</mgrwt>
</event>
<event>
12    1  0.1467288E-007  0.1443749E+04  0.7818608E-02  0.8922746E-01
          2   -1    0    0  501    0  0.00000000000E+00  0.00000000000E+00  0.33964697000E+04  0.33964697000E+04  0.00000000000E+00 0. -1.
         -2   -1    0    0    0  501 -0.00000000000E+00 -0.00000000000E+00 -0.15342488106E+03  0.15342488106E+03  0.00000000000E+00 0.  1.
         23    2    1    2    0    0 -0.14819602718E+03  0.38138666737E+03  0.13622917726E+04  0.14238768598E+04  0.64564585245E+02 0.  0.
        254    2    1    2    0    0  0.14819602718E+03 -0.38138666737E+03  0.18807530463E+04  0.21260177212E+04  0.90294046161E+03 0.  0.
        -24    2    4    4    0    0  0.42261649554E+03  0.63217141503E+02  0.10973866243E+04  0.11803858204E+04  0.80325416155E+02 0.  0.
         24    2    4    4    0    0 -0.27442046837E+03 -0.44460380888E+03  0.78336642204E+03  0.94563190087E+03  0.87049413731E+02 0.  0.
         13    1    3    3    0    0 -0.14203703772E+03  0.36295042597E+03  0.13322809503E+04  0.13881210546E+04  0.00000000000E+00 0. -1.
        -13    1    3    3    0    0 -0.61589894526E+01  0.18436241408E+02  0.30010822343E+02  0.35755805207E+02  0.00000000000E+00 0.  1.
          2    1    6    6  502    0 -0.16205052954E+03 -0.21455105416E+03  0.46441069879E+03  0.53662820101E+03  0.00000000000E+00 0. -1.
          3    1    5    5  503    0  0.91038806453E+02  0.45376641945E+01  0.15716964400E+03  0.18168916223E+03  0.00000000000E+00 0. -1.
         -4    1    5    5    0  503  0.33157768909E+03  0.58679477309E+02  0.94021698029E+03  0.99869665814E+03  0.00000000000E+00 0.  1.
         -1    1    6    6    0  502 -0.11236993882E+03 -0.23005275472E+03  0.31895572324E+03  0.40900369985E+03  0.00000000000E+00 0.  1.
<mgrwt>
<rscale>  0 0.14437492E+04</rscale>
<asrwt>0</asrwt>
<pdfrwt beam="1">  1        2 0.52253375E+00 0.14437492E+04</pdfrwt>
<pdfrwt beam="2">  1       -2 0.23603830E-01 0.14437492E+04</pdfrwt>
<totfact> 0.15015107E+01</totfact>
</mgrwt>
</event>
<event>
12    1  0.1467288E-007  0.3574306E+04  0.7818608E-02  0.8096403E-01
          2   -1    0    0  501    0  0.00000000000E+00  0.00000000000E+00  0.23482200461E+04  0.23482200461E+04  0.00000000000E+00 0. -1.
         -2   -1    0    0    0  501 -0.00000000000E+00 -0.00000000000E+00 -0.13601430151E+04  0.13601430151E+04  0.00000000000E+00 0.  1.
         23    2    1    2    0    0 -0.14159547196E+04  0.88207142467E+03  0.34088556297E+03  0.17053060877E+04  0.94276824708E+02 0.  0.
        254    2    1    2    0    0  0.14159547196E+04 -0.88207142467E+03  0.64719146803E+03  0.20030569735E+04  0.90022368154E+03 0.  0.
        -24    2    4    4    0    0  0.13830444223E+04 -0.98876749022E+03  0.44597855378E+03  0.17594879815E+04  0.80175201130E+02 0.  0.
         24    2    4    4    0    0  0.32910297273E+02  0.10669606555E+03  0.20121291424E+03  0.24356899201E+03  0.79825302619E+02 0.  0.
         11    1    3    3    0    0 -0.11045373781E+04  0.68251386218E+03  0.30471603002E+03  0.13336715678E+04  0.00000000000E+00 0. -1.
        -11    1    3    3    0    0 -0.31141734147E+03  0.19955756249E+03  0.36169532957E+02  0.37163451996E+03  0.00000000000E+00 0.  1.
          2    1    6    6  502    0 -0.15010863472E+02  0.78005154836E+02  0.13787930467E+03  0.15912521126E+03  0.00000000000E+00 0. -1.
          3    1    5    5  503    0  0.89910118240E+03 -0.63938447636E+03  0.24979838377E+03  0.11311917067E+04  0.00000000000E+00 0. -1.
         -4    1    5    5    0  503  0.48394323993E+03 -0.34938301386E+03  0.19618017001E+03  0.62829627482E+03  0.00000000000E+00 0.  1.
         -1    1    6    6    0  502  0.47921160745E+02  0.28690910717E+02  0.63333609575E+02  0.84443780746E+02  0.00000000000E+00 0.  1.
<mgrwt>
<rscale>  0 0.35743056E+04</rscale>
<asrwt>0</asrwt>
<pdfrwt beam="1">  1        2 0.36126462E+00 0.35743056E+04</pdfrwt>
<pdfrwt beam="2">  1       -2 0.20925277E+00 0.35743056E+04</pdfrwt>
<totfact> 0.40247620E-01</totfact>
</mgrwt>
</event>
<event>
12    1  0.1467288E-007  0.1767048E+04  0.7818608E-02  0.8724022E-01
         -2   -1    0    0    0  501 -0.00000000000E+00  0.00000000000E+00  0.13067834721E+04  0.13067834721E+04  0.00000000000E+00 0.  1.
          2   -1    0    0  501    0  0.00000000000E+00 -0.00000000000E+00 -0.59735588619E+03  0.59735588619E+03  0.00000000000E+00 0. -1.
         23    2    1    2    0    0  0.41939205394E+02  0.67186036881E+02 -0.43486204339E+03  0.45159316372E+03  0.92512313977E+02 0.  0.
        254    2    1    2    0    0 -0.41939205394E+02 -0.67186036881E+02  0.11442896293E+04  0.14525461946E+04  0.89118955960E+03 0.  0.
        -24    2    4    4    0    0 -0.32541304524E+03 -0.12991317214E+03  0.11382370352E+03  0.37906157747E+03  0.89223100854E+02 0.  0.
         24    2    4    4    0    0  0.28347383984E+03  0.62727135258E+02  0.10304659258E+04  0.10734846171E+04  0.78848510315E+02 0.  0.
         13    1    3    3    0    0  0.50732674810E+02  0.31245050334E+02 -0.38455901486E+03  0.38914739287E+03  0.00000000000E+00 0. -1.
        -13    1    3    3    0    0 -0.87934694158E+01  0.35940986548E+02 -0.50303028525E+02  0.62445770851E+02  0.00000000000E+00 0.  1.
          4    1    6    6  502    0  0.26194055117E+03  0.47174436140E+02  0.98942663396E+03  0.10245991137E+04  0.00000000000E+00 0. -1.
          3    1    5    5  503    0 -0.27533688974E+03 -0.73902127763E+02  0.10317621573E+03  0.30317859230E+03  0.00000000000E+00 0. -1.
         -4    1    5    5    0  503 -0.50076155499E+02 -0.56011044377E+02  0.10647487788E+02  0.75882985168E+02  0.00000000000E+00 0.  1.
         -3    1    6    6    0  502  0.21533288680E+02  0.15552699118E+02  0.41039291830E+02  0.48885503425E+02  0.00000000000E+00 0.  1.
<mgrwt>
<rscale>  0 0.17670482E+04</rscale>
<asrwt>0</asrwt>
<pdfrwt beam="1">  1        2 0.91900906E-01 0.17670482E+04</pdfrwt>
<pdfrwt beam="2">  1       -2 0.20104361E+00 0.17670482E+04</pdfrwt>
<totfact> 0.61737038E+00</totfact>
</mgrwt>
</event>
<event>
12    1  0.1467288E-007  0.1659571E+04  0.7818608E-02  0.8784765E-01
          1   -1    0    0  501    0  0.00000000000E+00  0.00000000000E+00  0.16382639515E+04  0.16382639515E+04  0.00000000000E+00 0. -1.
         -1   -1    0    0    0  501 -0.00000000000E+00 -0.00000000000E+00 -0.42028863005E+03  0.42028863005E+03  0.00000000000E+00 0.  1.
         23    2    1    2    0    0  0.18943265755E+03 -0.53249704731E+03  0.69141293099E+03  0.89767668123E+03  0.91289351730E+02 0.  0.
        254    2    1    2    0    0 -0.18943265755E+03  0.53249704731E+03  0.52656239046E+03  0.11608759003E+04  0.86656048131E+03 0.  0.
        -24    2    4    4    0    0  0.28868863479E+03  0.35029111362E+03  0.43682850493E+03  0.63500044446E+03  0.79758570751E+02 0.  0.
         24    2    4    4    0    0 -0.47812129234E+03  0.18220593370E+03  0.89733885536E+02  0.52587545588E+03  0.81815966745E+02 0.  0.
         13    1    3    3    0    0  0.19332092786E+03 -0.45035841479E+03  0.58390326674E+03  0.76232454232E+03  0.00000000000E+00 0. -1.
        -13    1    3    3    0    0 -0.38882703114E+01 -0.82138632525E+02  0.10750966426E+03  0.13535213891E+03  0.00000000000E+00 0.  1.
          4    1    6    6  502    0 -0.32060351661E+03  0.80245010291E+02  0.60041274801E+02  0.33590300865E+03  0.00000000000E+00 0. -1.
          3    1    5    5  503    0  0.15538225715E+03  0.24042015255E+03  0.24433251031E+03  0.37635604311E+03  0.00000000000E+00 0. -1.
         -2    1    5    5    0  503  0.13330637764E+03  0.10987096106E+03  0.19249599462E+03  0.25864440135E+03  0.00000000000E+00 0.  1.
         -3    1    6    6    0  502 -0.15751777573E+03  0.10196092341E+03  0.29692610736E+02  0.18997244723E+03  0.00000000000E+00 0.  1.
<mgrwt>
<rscale>  0 0.16595707E+04</rscale>
<asrwt>0</asrwt>
<pdfrwt beam="1">  1        1 0.25204060E+00 0.16595707E+04</pdfrwt>
<pdfrwt beam="2">  1       -1 0.64659790E-01 0.16595707E+04</pdfrwt>
<totfact> 0.12163209E+01</totfact>
</mgrwt>
</event>
<event>
12    1  0.1467288E-007  0.2035432E+04  0.7818608E-02  0.8590232E-01
          1   -1    0    0  501    0  0.00000000000E+00  0.00000000000E+00  0.95688206226E+03  0.95688206226E+03  0.00000000000E+00 0. -1.
         -1   -1    0    0    0  501 -0.00000000000E+00 -0.00000000000E+00 -0.10824177686E+04  0.10824177686E+04  0.00000000000E+00 0.  1.
         23    2    1    2    0    0 -0.30902738483E+03  0.26375675301E+03  0.64524825527E+03  0.76785432317E+03  0.90495311195E+02 0.  0.
        254    2    1    2    0    0  0.30902738483E+03 -0.26375675301E+03 -0.77078396162E+03  0.12714455077E+04  0.92595907805E+03 0.  0.
        -24    2    4    4    0    0  0.46028972893E+02 -0.37906157254E+03 -0.87274443334E+03  0.95594633430E+03  0.79650524257E+02 0.  0.
         24    2    4    4    0    0  0.26299841194E+03  0.11530481952E+03  0.10196047172E+03  0.31549917340E+03  0.81733864065E+02 0.  0.
         11    1    3    3    0    0 -0.27682555431E+03  0.23794946688E+03  0.61998687639E+03  0.71946929275E+03  0.00000000000E+00 0. -1.
        -11    1    3    3    0    0 -0.32201830518E+02  0.25807286131E+02  0.25261378878E+02  0.48385030422E+02  0.00000000000E+00 0.  1.
          2    1    6    6  502    0  0.26508705794E+03  0.11501245299E+03  0.10847509190E+03  0.30865167777E+03  0.00000000000E+00 0. -1.
          1    1    5    5  503    0  0.61867022060E+02 -0.33739502813E+03 -0.73355918348E+03  0.80979751117E+03  0.00000000000E+00 0. -1.
         -2    1    5    5    0  503 -0.15838049167E+02 -0.41666544407E+02 -0.13918524986E+03  0.14614882313E+03  0.00000000000E+00 0.  1.
         -1    1    6    6    0  502 -0.20886460007E+01  0.29236653658E+00 -0.65146201783E+01  0.68474956280E+01  0.00000000000E+00 0.  1.
<mgrwt>
<rscale>  0 0.20354323E+04</rscale>
<asrwt>0</asrwt>
<pdfrwt beam="1">  1        1 0.14721263E+00 0.20354323E+04</pdfrwt>
<pdfrwt beam="2">  1       -1 0.16652581E+00 0.20354323E+04</pdfrwt>
<totfact> 0.39514927E+00</totfact>
</mgrwt>
</event>
<event>
12    1  0.1467288E-007  0.2331837E+04  0.7818608E-02  0.8465473E-01
          2   -1    0    0  501    0  0.00000000000E+00  0.00000000000E+00  0.96448015288E+03  0.96448015288E+03  0.00000000000E+00 0. -1.
         -2   -1    0    0    0  501 -0.00000000000E+00 -0.00000000000E+00 -0.14094289523E+04  0.14094289523E+04  0.00000000000E+00 0.  1.
         23    2    1    2    0    0 -0.31921425568E+03  0.86089948109E+03  0.17237849681E+03  0.93856168266E+03  0.90211021622E+02 0.  0.
        254    2    1    2    0    0  0.31921425568E+03 -0.86089948109E+03 -0.61732729628E+03  0.14353474226E+04  0.91437605785E+03 0.  0.
        -24    2    4    4    0    0 -0.30828802504E+03 -0.36047877794E+03 -0.30993704060E+03  0.57220607033E+03  0.79827075917E+02 0.  0.
         24    2    4    4    0    0  0.62750228072E+03 -0.50042070315E+03 -0.30739025567E+03  0.86314135224E+03  0.79650688741E+02 0.  0.
         11    1    3    3    0    0 -0.24781399258E+03  0.73850111389E+03  0.12369735280E+03  0.78873107282E+03  0.00000000000E+00 0. -1.
        -11    1    3    3    0    0 -0.71400263101E+02  0.12239836720E+03  0.48681144006E+02  0.14983060984E+03  0.00000000000E+00 0.  1.
          2    1    6    6  502    0  0.50742022008E+03 -0.40940177660E+03 -0.21561398520E+03  0.68671281118E+03  0.00000000000E+00 0. -1.
          3    1    5    5  503    0 -0.13767639220E+03 -0.13680688029E+03 -0.84407657658E+02  0.21164962588E+03  0.00000000000E+00 0. -1.
         -4    1    5    5    0  503 -0.17061163284E+03 -0.22367189765E+03 -0.22552938294E+03  0.36055644445E+03  0.00000000000E+00 0.  1.
         -1    1    6    6    0  502  0.12008206064E+03 -0.91018926550E+02 -0.91776270477E+02  0.17642854106E+03  0.00000000000E+00 0.  1.
<mgrwt>
<rscale>  0 0.23318373E+04</rscale>
<asrwt>0</asrwt>
<pdfrwt beam="1">  1        2 0.14838156E+00 0.23318373E+04</pdfrwt>
<pdfrwt beam="2">  1       -2 0.21683522E+00 0.23318373E+04</pdfrwt>
<totfact> 0.24858188E+00</totfact>
</mgrwt>
</event>
<event>
12    1  0.1467288E-007  0.1504392E+04  0.7818608E-02  0.8881538E-01
         -2   -1    0    0    0  501 -0.00000000000E+00  0.00000000000E+00  0.31954780261E+03  0.31954780261E+03  0.00000000000E+00 0.  1.
          2   -1    0    0  501    0  0.00000000000E+00 -0.00000000000E+00 -0.17706229606E+04  0.17706229606E+04  0.00000000000E+00 0. -1.
         23    2    1    2    0    0 -0.33289248001E+03  0.34405923572E+03 -0.61235911906E+03  0.78273367471E+03  0.92163734192E+02 0.  0.
        254    2    1    2    0    0  0.33289248001E+03 -0.34405923572E+03 -0.83871603896E+03  0.13074370885E+04  0.88133590959E+03 0.  0.
        -24    2    4    4    0    0  0.45774170514E+03  0.14543422510E+03 -0.34133058625E+03  0.59335893053E+03  0.69926167338E+02 0.  0.
         24    2    4    4    0    0 -0.12484922513E+03 -0.48949346082E+03 -0.49738545272E+03  0.71407815800E+03  0.85581247723E+02 0.  0.
         11    1    3    3    0    0 -0.17701449194E+02  0.39806553338E+02 -0.25783620534E+02  0.50623098286E+02  0.00000000000E+00 0.  1.
        -11    1    3    3    0    0 -0.31519103082E+03  0.30425268239E+03 -0.58657549853E+03  0.73211057643E+03  0.00000000000E+00 0. -1.
          2    1    6    6  502    0  0.32474872586E+01  0.21851003166E+01 -0.65169508963E+01  0.76020711568E+01  0.00000000000E+00 0. -1.
          3    1    5    5  503    0  0.56408785154E+02  0.10450970105E+02 -0.16516056914E+02  0.59698860580E+02  0.00000000000E+00 0. -1.
         -4    1    5    5    0  503  0.40133291999E+03  0.13498325499E+03 -0.32481452933E+03  0.53366006995E+03  0.00000000000E+00 0.  1.
         -1    1    6    6    0  502 -0.12809671239E+03 -0.49167856114E+03 -0.49086850182E+03  0.70647608685E+03  0.00000000000E+00 0.  1.
<mgrwt>
<rscale>  0 0.15043918E+04</rscale>
<asrwt>0</asrwt>
<pdfrwt beam="1">  1        2 0.27240354E+00 0.15043918E+04</pdfrwt>
<pdfrwt beam="2">  1       -2 0.49161199E-01 0.15043918E+04</pdfrwt>
<totfact> 0.33894230E+01</totfact>
</mgrwt>
</event>
<event>
12    1  0.1467288E-007  0.1147947E+04  0.7818608E-02  0.9159679E-01
          2   -1    0    0  501    0  0.00000000000E+00  0.00000000000E+00  0.42307884004E+03  0.42307884004E+03  0.00000000000E+00 0.  1.
         -2   -1    0    0    0  501 -0.00000000000E+00 -0.00000000000E+00 -0.77868626546E+03  0.77868626546E+03  0.00000000000E+00 0. -1.
         23    2    1    2    0    0  0.20602698024E+03  0.51929572210E+01 -0.12876472460E+03  0.25986913970E+03  0.92073514523E+02 0.  0.
        254    2    1    2    0    0 -0.20602698024E+03 -0.51929572210E+01 -0.22684270082E+03  0.94189596579E+03  0.89063815103E+03 0.  0.
        -24    2    4    4    0    0 -0.43899129449E+03 -0.17004106262E+03 -0.37736849028E+03  0.60975520433E+03  0.88131221123E+02 0.  0.
         24    2    4    4    0    0  0.23296431425E+03  0.16484810540E+03  0.15052578946E+03  0.33214076147E+03  0.78817527036E+02 0.  0.
         13    1    3    3    0    0  0.20090561025E+03  0.11724376657E+02 -0.14053989621E+03  0.24546280302E+03  0.00000000000E+00 0. -1.
        -13    1    3    3    0    0  0.51213699871E+01 -0.65314194361E+01  0.11775171605E+02  0.14406336686E+02  0.00000000000E+00 0.  1.
          2    1    6    6  502    0  0.11933799839E+03  0.58415788400E+02  0.32535627934E+02  0.13679374722E+03  0.00000000000E+00 0. -1.
          3    1    5    5  503    0 -0.27732712135E+03 -0.11820497237E+03 -0.18733907366E+03  0.35493474929E+03  0.00000000000E+00 0. -1.
         -4    1    5    5    0  503 -0.16166417313E+03 -0.51836090251E+02 -0.19002941662E+03  0.25482045504E+03  0.00000000000E+00 0.  1.
         -1    1    6    6    0  502  0.11362631586E+03  0.10643231700E+03  0.11799016153E+03  0.19534701425E+03  0.00000000000E+00 0.  1.
<mgrwt>
<rscale>  0 0.11479472E+04</rscale>
<asrwt>0</asrwt>
<pdfrwt beam="1">  1        2 0.65089053E-01 0.11479472E+04</pdfrwt>
<pdfrwt beam="2">  1       -2 0.11979789E+00 0.11479472E+04</pdfrwt>
<totfact> 0.39377611E+01</totfact>
</mgrwt>
</event>
<event>
12    1  0.1467288E-007  0.1327677E+04  0.7818608E-02  0.9007901E-01
          3   -1    0    0  501    0  0.00000000000E+00  0.00000000000E+00  0.87235424123E+03  0.87235424123E+03  0.00000000000E+00 0. -1.
         -3   -1    0    0    0  501 -0.00000000000E+00 -0.00000000000E+00 -0.50516346448E+03  0.50516346448E+03  0.00000000000E+00 0.  1.
         23    2    1    2    0    0 -0.51394657859E+02  0.21422685026E+03 -0.21006269717E+03  0.31742894221E+03  0.90001346566E+02 0.  0.
        254    2    1    2    0    0  0.51394657859E+02 -0.21422685026E+03  0.57725347392E+03  0.10600887635E+04  0.86141282734E+03 0.  0.
        -24    2    4    4    0    0 -0.32858999778E+03 -0.13220065489E+03  0.55376983819E+03  0.66218740483E+03  0.79891962246E+02 0.  0.
         24    2    4    4    0    0  0.37998465564E+03 -0.82026195366E+02  0.23483635732E+02  0.39790135866E+03  0.81592737593E+02 0.  0.
         11    1    3    3    0    0  0.16322813255E+02  0.61208450368E+02 -0.25457047310E+02  0.68271296214E+02  0.00000000000E+00 0. -1.
        -11    1    3    3    0    0 -0.67717471114E+02  0.15301839989E+03 -0.18460564986E+03  0.24915764600E+03  0.00000000000E+00 0.  1.
          2    1    6    6  502    0  0.24294823826E+03 -0.12388042061E+02  0.20959718413E+02  0.24416514873E+03  0.00000000000E+00 0. -1.
          3    1    5    5  503    0 -0.11115011150E+03 -0.17250431132E+02  0.22552491787E+03  0.25201867638E+03  0.00000000000E+00 0. -1.
         -4    1    5    5    0  503 -0.21743988628E+03 -0.11495022376E+03  0.32824492032E+03  0.41016872845E+03  0.00000000000E+00 0.  1.
         -3    1    6    6    0  502  0.13703641738E+03 -0.69638153305E+02  0.25239173188E+01  0.15373620993E+03  0.00000000000E+00 0.  1.
<mgrwt>
<rscale>  0 0.13276769E+04</rscale>
<asrwt>0</asrwt>
<pdfrwt beam="1">  1        3 0.13420834E+00 0.13276769E+04</pdfrwt>
<pdfrwt beam="2">  1       -3 0.77717456E-01 0.13276769E+04</pdfrwt>
<totfact> 0.17083693E+00</totfact>
</mgrwt>
</event>
<event>
12    1  0.1467288E-007  0.1712428E+04  0.7818608E-02  0.8754308E-01
         -2   -1    0    0    0  501 -0.00000000000E+00  0.00000000000E+00  0.13386125691E+04  0.13386125691E+04  0.00000000000E+00 0.  1.
          2   -1    0    0  501    0  0.00000000000E+00 -0.00000000000E+00 -0.54765848843E+03  0.54765848843E+03  0.00000000000E+00 0. -1.
         23    2    1    2    0    0  0.29213082374E+03 -0.49638712398E+03  0.44303834234E+02  0.58472915470E+03  0.90580128056E+02 0.  0.
        254    2    1    2    0    0 -0.29213082374E+03  0.49638712398E+03  0.74665024643E+03  0.13015419028E+04  0.89709761969E+03 0.  0.
        -24    2    4    4    0    0 -0.20003279414E+03  0.69180386439E+03  0.78439973534E+03  0.10680962594E+04  0.83312478669E+02 0.  0.
         24    2    4    4    0    0 -0.92098029599E+02 -0.19541674041E+03 -0.37749488903E+02  0.23344564338E+03  0.80013092762E+02 0.  0.
         13    1    3    3    0    0  0.28194746954E+03 -0.45332813754E+03  0.19959930382E+02  0.53422764313E+03  0.00000000000E+00 0. -1.
        -13    1    3    3    0    0  0.10183354197E+02 -0.43058986445E+02  0.24343903853E+02  0.50501511573E+02  0.00000000000E+00 0.  1.
          2    1    6    6  502    0 -0.98303936002E+02 -0.17587451787E+03 -0.52471686775E+02  0.20820371702E+03  0.00000000000E+00 0. -1.
          1    1    5    5  503    0 -0.16246800671E+03  0.61655434854E+03  0.72287824371E+03  0.96389214808E+03  0.00000000000E+00 0. -1.
         -2    1    5    5    0  503 -0.37564787424E+02  0.75249515860E+02  0.61521491630E+02  0.10420411136E+03  0.00000000000E+00 0.  1.
         -1    1    6    6    0  502  0.62059064036E+01 -0.19542222539E+02  0.14722197872E+02  0.25241926358E+02  0.00000000000E+00 0.  1.
<mgrwt>
<rscale>  0 0.17124281E+04</rscale>
<asrwt>0</asrwt>
<pdfrwt beam="1">  1        2 0.84255153E-01 0.17124281E+04</pdfrwt>
<pdfrwt beam="2">  1       -2 0.20594039E+00 0.17124281E+04</pdfrwt>
<totfact> 0.63924718E+00</totfact>
</mgrwt>
</event>
<event>
12    1  0.1467288E-007  0.2282457E+04  0.7818608E-02  0.8484870E-01
          2   -1    0    0  501    0  0.00000000000E+00  0.00000000000E+00  0.14271785399E+04  0.14271785399E+04  0.00000000000E+00 0. -1.
         -2   -1    0    0    0  501 -0.00000000000E+00 -0.00000000000E+00 -0.91257166403E+03  0.91257166403E+03  0.00000000000E+00 0.  1.
         23    2    1    2    0    0  0.62108170552E+03  0.72562940940E+03  0.12158106198E+03  0.96714916592E+03  0.91186785126E+02 0.  0.
        254    2    1    2    0    0 -0.62108170552E+03 -0.72562940940E+03  0.39302581393E+03  0.13726010380E+04  0.90403749619E+03 0.  0.
        -24    2    4    4    0    0 -0.16926858625E+03 -0.30025813572E+03 -0.28168528575E+03  0.45217857943E+03  0.79448506177E+02 0.  0.
         24    2    4    4    0    0 -0.45181311928E+03 -0.42537127368E+03  0.67471109968E+03  0.92042245861E+03  0.82865065427E+02 0.  0.
         13    1    3    3    0    0  0.15121450712E+03  0.19153395451E+03  0.70241610466E+02  0.25393890355E+03  0.00000000000E+00 0. -1.
        -13    1    3    3    0    0  0.46986719840E+03  0.53409545489E+03  0.51339451512E+02  0.71321026237E+03  0.00000000000E+00 0.  1.
          4    1    6    6  502    0 -0.35397157199E+03 -0.31312402475E+03  0.55795492554E+03  0.73120190617E+03  0.00000000000E+00 0. -1.
          3    1    5    5  503    0 -0.14341598238E+03 -0.19757468877E+03 -0.16531683040E+03  0.29484496953E+03  0.00000000000E+00 0. -1.
         -4    1    5    5    0  503 -0.25852603867E+02 -0.10268344695E+03 -0.11636845535E+03  0.15733360990E+03  0.00000000000E+00 0.  1.
         -3    1    6    6    0  502 -0.97841547291E+02 -0.11224724892E+03  0.11675617414E+03  0.18922055244E+03  0.00000000000E+00 0.  1.
<mgrwt>
<rscale>  0 0.22824572E+04</rscale>
<asrwt>0</asrwt>
<pdfrwt beam="1">  1        2 0.21956593E+00 0.22824572E+04</pdfrwt>
<pdfrwt beam="2">  1       -2 0.14039564E+00 0.22824572E+04</pdfrwt>
<totfact> 0.45202730E+00</totfact>
</mgrwt>
</event>
<event>
12    1  0.1467288E-007  0.1763879E+04  0.7818608E-02  0.8725747E-01
         -1   -1    0    0    0  501 -0.00000000000E+00  0.00000000000E+00  0.51632222572E+03  0.51632222572E+03  0.00000000000E+00 0.  1.
          1   -1    0    0  501    0  0.00000000000E+00 -0.00000000000E+00 -0.15064578245E+04  0.15064578245E+04  0.00000000000E+00 0. -1.
         23    2    1    2    0    0  0.40133909847E+03 -0.45341785934E+03 -0.99464066088E+02  0.62055681627E+03  0.92394992541E+02 0.  0.
        254    2    1    2    0    0 -0.40133909847E+03  0.45341785934E+03 -0.89067153266E+03  0.14022232339E+04  0.89792727520E+03 0.  0.
        -24    2    4    4    0    0 -0.28909748350E+03 -0.36015116278E+02 -0.83855085385E+03  0.89132331089E+03  0.80095358628E+02 0.  0.
         24    2    4    4    0    0 -0.11224161497E+03  0.48943297562E+03 -0.52120678812E+02  0.51089992304E+03  0.78481516592E+02 0.  0.
         13    1    3    3    0    0  0.34305036996E+03 -0.38345876996E+03 -0.11742415128E+03  0.52774294489E+03  0.00000000000E+00 0.  1.
        -13    1    3    3    0    0  0.58288728518E+02 -0.69959089385E+02  0.17960085194E+02  0.92813871377E+02  0.00000000000E+00 0. -1.
          4    1    6    6  502    0  0.64158731648E+00  0.11675416469E+03  0.73409678596E+01  0.11698647963E+03  0.00000000000E+00 0. -1.
          1    1    5    5  503    0 -0.11020982416E+03 -0.51113522121E+02 -0.37686978812E+03  0.39596670906E+03  0.00000000000E+00 0. -1.
         -2    1    5    5    0  503 -0.17888765933E+03  0.15098405843E+02 -0.46168106573E+03  0.49535660183E+03  0.00000000000E+00 0.  1.
         -3    1    6    6    0  502 -0.11288320229E+03  0.37267881093E+03 -0.59461646671E+02  0.39391344341E+03  0.00000000000E+00 0.  1.
<mgrwt>
<rscale>  0 0.17638794E+04</rscale>
<asrwt>0</asrwt>
<pdfrwt beam="1">  1        1 0.23176274E+00 0.17638794E+04</pdfrwt>
<pdfrwt beam="2">  1       -1 0.79434190E-01 0.17638794E+04</pdfrwt>
<totfact> 0.97046062E+00</totfact>
</mgrwt>
</event>
<event>
12    1  0.1467288E-007  0.1915888E+04  0.7818608E-02  0.8646988E-01
          1   -1    0    0  501    0  0.00000000000E+00  0.00000000000E+00  0.42945304349E+03  0.42945304349E+03  0.00000000000E+00 0. -1.
         -1   -1    0    0    0  501 -0.00000000000E+00 -0.00000000000E+00 -0.21368027673E+04  0.21368027673E+04  0.00000000000E+00 0.  1.
         23    2    1    2    0    0 -0.31920726669E+03 -0.90575563683E+02  0.22060385239E+03  0.40876369672E+03  0.91238633385E+02 0.  0.
        254    2    1    2    0    0  0.31920726669E+03  0.90575563683E+02 -0.19279535762E+04  0.21574921141E+04  0.90976371574E+03 0.  0.
        -24    2    4    4    0    0  0.31518033270E+03 -0.21327252564E+03 -0.17581897126E+04  0.18006494937E+04  0.79269926185E+02 0.  0.
         24    2    4    4    0    0  0.40269339871E+01  0.30384808932E+03 -0.16976386364E+03  0.35684262046E+03  0.78593948833E+02 0.  0.
         11    1    3    3    0    0 -0.26249648713E+03 -0.50971260338E+02  0.20725833574E+03  0.33831714835E+03  0.00000000000E+00 0. -1.
        -11    1    3    3    0    0 -0.56710779564E+02 -0.39604303345E+02  0.13345516645E+02  0.70446548366E+02  0.00000000000E+00 0.  1.
          4    1    6    6  502    0  0.24408859661E+02  0.23395107765E+03 -0.15731323282E+03  0.28297765350E+03  0.00000000000E+00 0. -1.
          1    1    5    5  503    0  0.29529904103E+03 -0.21661527614E+03 -0.16121314469E+04  0.16532064310E+04  0.00000000000E+00 0. -1.
         -2    1    5    5    0  503  0.19881291674E+02  0.33427505014E+01 -0.14605826571E+03  0.14744306264E+03  0.00000000000E+00 0.  1.
         -3    1    6    6    0  502 -0.20381925674E+02  0.69897011678E+02 -0.12450630828E+02  0.73864966958E+02  0.00000000000E+00 0.  1.
<mgrwt>
<rscale>  0 0.19158877E+04</rscale>
<asrwt>0</asrwt>
<pdfrwt beam="1">  1        1 0.66069699E-01 0.19158877E+04</pdfrwt>
<pdfrwt beam="2">  1       -1 0.32873889E+00 0.19158877E+04</pdfrwt>
<totfact> 0.10950910E+00</totfact>
</mgrwt>
</event>
<event>
12    1  0.1467288E-007  0.1358839E+04  0.7818608E-02  0.8984164E-01
          2   -1    0    0  501    0  0.00000000000E+00  0.00000000000E+00  0.22446203032E+04  0.22446203032E+04  0.00000000000E+00 0. -1.
         -2   -1    0    0    0  501 -0.00000000000E+00 -0.00000000000E+00 -0.20565223039E+03  0.20565223039E+03  0.00000000000E+00 0.  1.
         23    2    1    2    0    0  0.37642316202E+01 -0.34098439639E+03  0.83671533834E+03  0.90828306094E+03  0.92741756221E+02 0.  0.
        254    2    1    2    0    0 -0.37642316202E+01  0.34098439639E+03  0.12022527345E+04  0.15419894727E+04  0.90334675969E+03 0.  0.
        -24    2    4    4    0    0  0.49126980323E+02  0.63546713988E+03  0.92399966685E+03  0.11256083303E+04  0.83586977238E+02 0.  0.
         24    2    4    4    0    0 -0.52891211943E+02 -0.29448274350E+03  0.27825306763E+03  0.41638114240E+03  0.80193014562E+02 0.  0.
         13    1    3    3    0    0 -0.13556966677E+02 -0.58392956696E+02  0.77383225775E+02  0.97886119386E+02  0.00000000000E+00 0.  1.
        -13    1    3    3    0    0  0.17321198297E+02 -0.28259143969E+03  0.75933211257E+03  0.81039694155E+03  0.00000000000E+00 0. -1.
          2    1    6    6  502    0 -0.58086078149E+02 -0.17932149969E+03  0.21094233618E+03  0.28289019410E+03  0.00000000000E+00 0. -1.
          1    1    5    5  503    0  0.16319360030E+02  0.32334387176E+02  0.31947700612E+02  0.48295855725E+02  0.00000000000E+00 0. -1.
         -2    1    5    5    0  503  0.32807620293E+02  0.60313275271E+03  0.89205196623E+03  0.10773124745E+04  0.00000000000E+00 0.  1.
         -1    1    6    6    0  502  0.51948662060E+01 -0.11516124381E+03  0.67310731455E+02  0.13349094831E+03  0.00000000000E+00 0.  1.
<mgrwt>
<rscale>  0 0.13588395E+04</rscale>
<asrwt>0</asrwt>
<pdfrwt beam="1">  1        2 0.34532618E+00 0.13588395E+04</pdfrwt>
<pdfrwt beam="2">  1       -2 0.31638806E-01 0.13588395E+04</pdfrwt>
<totfact> 0.44238257E+01</totfact>
</mgrwt>
</event>
<event>
12    1  0.1467288E-007  0.2055825E+04  0.7818608E-02  0.8580957E-01
         -1   -1    0    0    0  501 -0.00000000000E+00  0.00000000000E+00  0.16622743894E+04  0.16622743894E+04  0.00000000000E+00 0.  1.
          1   -1    0    0  501    0  0.00000000000E+00 -0.00000000000E+00 -0.63563740340E+03  0.63563740340E+03  0.00000000000E+00 0. -1.
         23    2    1    2    0    0  0.75115597752E+03 -0.20598227384E+03  0.72137918363E+03  0.10653980344E+04  0.89560289360E+02 0.  0.
        254    2    1    2    0    0 -0.75115597752E+03  0.20598227384E+03  0.30525780234E+03  0.12325137584E+04  0.90512089743E+03 0.  0.
        -24    2    4    4    0    0 -0.30414492112E+03  0.40169120865E+03  0.48768095313E+03  0.70531939877E+03  0.76044605899E+02 0.  0.
         24    2    4    4    0    0 -0.44701105640E+03 -0.19570893481E+03 -0.18242315079E+03  0.52719435959E+03  0.80838203405E+02 0.  0.
         13    1    3    3    0    0  0.45581693399E+03 -0.12221457290E+03  0.49544838682E+03  0.68423284279E+03  0.00000000000E+00 0. -1.
        -13    1    3    3    0    0  0.29533904352E+03 -0.83767700934E+02  0.22593079681E+03  0.38116519161E+03  0.00000000000E+00 0.  1.
          4    1    6    6  502    0 -0.23452303358E+03 -0.11586885356E+03 -0.56513131045E+02  0.26761983948E+03  0.00000000000E+00 0. -1.
          1    1    5    5  503    0 -0.44873383216E+02  0.26302204040E+02  0.66330797279E+02  0.84292355088E+02  0.00000000000E+00 0. -1.
         -2    1    5    5    0  503 -0.25927153790E+03  0.37538900461E+03  0.42135015585E+03  0.62102704368E+03  0.00000000000E+00 0.  1.
         -3    1    6    6    0  502 -0.21248802282E+03 -0.79840081256E+02 -0.12591001974E+03  0.25957452011E+03  0.00000000000E+00 0.  1.
<mgrwt>
<rscale>  0 0.20558247E+04</rscale>
<asrwt>0</asrwt>
<pdfrwt beam="1">  1        1 0.97790371E-01 0.20558247E+04</pdfrwt>
<pdfrwt beam="2">  1       -1 0.25573452E+00 0.20558247E+04</pdfrwt>
<totfact> 0.18589406E+00</totfact>
</mgrwt>
</event>
<event>
12    1  0.1467288E-007  0.1517497E+04  0.7818608E-02  0.8872900E-01
          2   -1    0    0  501    0  0.00000000000E+00  0.00000000000E+00  0.12943384815E+04  0.12943384815E+04  0.00000000000E+00 0. -1.
         -2   -1    0    0    0  501 -0.00000000000E+00 -0.00000000000E+00 -0.44478256235E+03  0.44478256235E+03  0.00000000000E+00 0.  1.
         23    2    1    2    0    0 -0.39967311594E+03 -0.19780363361E+03  0.54915762883E+02  0.45832984652E+03  0.90474472224E+02 0.  0.
        254    2    1    2    0    0  0.39967311594E+03  0.19780363361E+03  0.79464015632E+03  0.12807911974E+04  0.90006012921E+03 0.  0.
        -24    2    4    4    0    0  0.27740012374E+03 -0.29855348446E+03  0.59653487819E+03  0.72682787209E+03  0.79623382366E+02 0.  0.
         24    2    4    4    0    0  0.12227299219E+03  0.49635711807E+03  0.19810527813E+03  0.55396332529E+03  0.79426640769E+02 0.  0.
         11    1    3    3    0    0 -0.69472590183E+02 -0.22886930188E+02  0.42198141274E+02  0.84444866553E+02  0.00000000000E+00 0. -1.
        -11    1    3    3    0    0 -0.33020052575E+03 -0.17491670342E+03  0.12717621609E+02  0.37388497996E+03  0.00000000000E+00 0.  1.
          4    1    6    6  502    0  0.79431645146E+02  0.26460363660E+03  0.67022156212E+02  0.28428232477E+03  0.00000000000E+00 0. -1.
          3    1    5    5  503    0  0.57730694733E+01 -0.16397155580E+02  0.60547541592E+02  0.62993649165E+02  0.00000000000E+00 0. -1.
         -4    1    5    5    0  503  0.27162705427E+03 -0.28215632888E+03  0.53598733660E+03  0.66383422293E+03  0.00000000000E+00 0.  1.
         -3    1    6    6    0  502  0.42841347048E+02  0.23175348147E+03  0.13108312192E+03  0.26968100052E+03  0.00000000000E+00 0.  1.
<mgrwt>
<rscale>  0 0.15174969E+04</rscale>
<asrwt>0</asrwt>
<pdfrwt beam="1">  1        2 0.19912900E+00 0.15174969E+04</pdfrwt>
<pdfrwt beam="2">  1       -2 0.68428087E-01 0.15174969E+04</pdfrwt>
<totfact> 0.31397510E+01</totfact>
</mgrwt>
</event>
<event>
12    1  0.1467288E-007  0.1028908E+04  0.7818608E-02  0.9277395E-01
          2   -1    0    0  501    0  0.00000000000E+00  0.00000000000E+00  0.33948591092E+04  0.33948591092E+04  0.00000000000E+00 0. -1.
         -2   -1    0    0    0  501 -0.00000000000E+00 -0.00000000000E+00 -0.77959966885E+02  0.77959966885E+02  0.00000000000E+00 0.  1.
         23    2    1    2    0    0 -0.21562951906E+02  0.78640109870E+02  0.49463295547E+03  0.50983039087E+03  0.92822621394E+02 0.  0.
        254    2    1    2    0    0  0.21562951906E+02 -0.78640109870E+02  0.28222661868E+04  0.29629886852E+04  0.89859128169E+03 0.  0.
        -24    2    4    4    0    0  0.25251476142E+03 -0.11398673586E+03  0.26404179690E+04  0.26561150376E+04  0.79895938461E+02 0.  0.
         24    2    4    4    0    0 -0.23095180952E+03  0.35346625991E+02  0.18184821781E+03  0.30687364763E+03  0.80712694179E+02 0.  0.
         13    1    3    3    0    0  0.32542854022E+02  0.72919878299E+01  0.15886178649E+03  0.16232460578E+03  0.00000000000E+00 0.  1.
        -13    1    3    3    0    0 -0.54105805928E+02  0.71348122040E+02  0.33577116898E+03  0.34750578509E+03  0.00000000000E+00 0. -1.
          4    1    6    6  502    0 -0.20955757138E+03  0.46923122447E+02  0.13380083726E+03  0.25301940477E+03  0.00000000000E+00 0. -1.
          1    1    5    5  503    0  0.25192047246E+03 -0.10065403720E+03  0.25809333409E+04  0.25951516468E+04  0.00000000000E+00 0. -1.
         -2    1    5    5    0  503  0.59428896148E+00 -0.13332698662E+02  0.59484628111E+02  0.60963390773E+02  0.00000000000E+00 0.  1.
         -3    1    6    6    0  502 -0.21394238142E+02 -0.11576496457E+02  0.48047380552E+02  0.53854242858E+02  0.00000000000E+00 0.  1.
<mgrwt>
<rscale>  0 0.10289084E+04</rscale>
<asrwt>0</asrwt>
<pdfrwt beam="1">  1        2 0.52228590E+00 0.10289084E+04</pdfrwt>
<pdfrwt beam="2">  1       -2 0.11993844E-01 0.10289084E+04</pdfrwt>
<totfact> 0.50594284E+01</totfact>
</mgrwt>
</event>
<event>
12    1  0.1467288E-007  0.1145922E+04  0.7818608E-02  0.9161554E-01
         -2   -1    0    0    0  501 -0.00000000000E+00  0.00000000000E+00  0.33630763112E+03  0.33630763112E+03  0.00000000000E+00 0.  1.
          2   -1    0    0  501    0  0.00000000000E+00 -0.00000000000E+00 -0.97614285780E+03  0.97614285780E+03  0.00000000000E+00 0. -1.
         23    2    1    2    0    0  0.13966032870E+03 -0.99696598107E+02 -0.25668736676E+03  0.32210074636E+03  0.91739127235E+02 0.  0.
        254    2    1    2    0    0 -0.13966032870E+03  0.99696598107E+02 -0.38314785992E+03  0.99034974256E+03  0.89696483261E+03 0.  0.
        -24    2    4    4    0    0 -0.35526884978E+03  0.21088144160E+03 -0.54444398661E+03  0.68814530789E+03  0.80235728844E+02 0.  0.
         24    2    4    4    0    0  0.21560852107E+03 -0.11118484349E+03  0.16129612669E+03  0.30220443466E+03  0.80386417141E+02 0.  0.
         13    1    3    3    0    0  0.40915156370E+02 -0.30465519895E+02 -0.15875254429E+03  0.16674701869E+03  0.00000000000E+00 0. -1.
        -13    1    3    3    0    0  0.98745172334E+02 -0.69231078212E+02 -0.97934822466E+02  0.15535372767E+03  0.00000000000E+00 0.  1.
          2    1    6    6  502    0  0.16491629647E+03 -0.82439641281E+02  0.77184606157E+02  0.19987781949E+03  0.00000000000E+00 0. -1.
          3    1    5    5  503    0 -0.22110326087E+03  0.16119502419E+03 -0.30991718358E+03  0.41342369123E+03  0.00000000000E+00 0. -1.
         -4    1    5    5    0  503 -0.13416558891E+03  0.49686417409E+02 -0.23452680303E+03  0.27472161666E+03  0.00000000000E+00 0.  1.
         -1    1    6    6    0  502  0.50692224600E+02 -0.28745202212E+02  0.84111520538E+02  0.10232661517E+03  0.00000000000E+00 0.  1.
<mgrwt>
<rscale>  0 0.11459220E+04</rscale>
<asrwt>0</asrwt>
<pdfrwt beam="1">  1        2 0.15017582E+00 0.11459220E+04</pdfrwt>
<pdfrwt beam="2">  1       -2 0.51739636E-01 0.11459220E+04</pdfrwt>
<totfact> 0.91162548E+01</totfact>
</mgrwt>
</event>
<event>
12    1  0.1467288E-007  0.1897646E+04  0.7818608E-02  0.8656029E-01
          2   -1    0    0  501    0  0.00000000000E+00  0.00000000000E+00  0.13802719331E+04  0.13802719331E+04  0.00000000000E+00 0. -1.
         -2   -1    0    0    0  501 -0.00000000000E+00 -0.00000000000E+00 -0.65223713809E+03  0.65223713809E+03  0.00000000000E+00 0.  1.
         23    2    1    2    0    0 -0.54611384825E+02 -0.56842783361E+03  0.77411147886E+03  0.96621248887E+03  0.90693916939E+02 0.  0.
        254    2    1    2    0    0  0.54611384825E+02  0.56842783361E+03 -0.46076683844E+02  0.10662965823E+04  0.89931792783E+03 0.  0.
        -24    2    4    4    0    0  0.36811713251E+03  0.58859183688E+03  0.10797705810E+03  0.70719199734E+03  0.80690162549E+02 0.  0.
         24    2    4    4    0    0 -0.31350574768E+03 -0.20164003269E+02 -0.15405374195E+03  0.35910458499E+03  0.80815262774E+02 0.  0.
         13    1    3    3    0    0 -0.31292392552E+02 -0.25318759645E+03  0.27226525094E+03  0.37311062662E+03  0.00000000000E+00 0. -1.
        -13    1    3    3    0    0 -0.23318992273E+02 -0.31524023716E+03  0.50184622792E+03  0.59310186225E+03  0.00000000000E+00 0.  1.
          2    1    6    6  502    0 -0.22247350327E+02  0.20378216738E+02 -0.17517332415E+02  0.34886576916E+02  0.00000000000E+00 0. -1.
          3    1    5    5  503    0  0.18783105957E+03  0.28381633003E+03  0.13089239509E+02  0.34059293052E+03  0.00000000000E+00 0. -1.
         -4    1    5    5    0  503  0.18028607293E+03  0.30477550685E+03  0.94887818595E+02  0.36659906681E+03  0.00000000000E+00 0.  1.
         -1    1    6    6    0  502 -0.29125839736E+03 -0.40542220007E+02 -0.13653640953E+03  0.32421800808E+03  0.00000000000E+00 0.  1.
<mgrwt>
<rscale>  0 0.18976455E+04</rscale>
<asrwt>0</asrwt>
<pdfrwt beam="1">  1        2 0.21234953E+00 0.18976455E+04</pdfrwt>
<pdfrwt beam="2">  1       -2 0.10034418E+00 0.18976455E+04</pdfrwt>
<totfact> 0.11400722E+01</totfact>
</mgrwt>
</event>
<event>
12    1  0.1467288E-007  0.1057859E+04  0.7818608E-02  0.9247267E-01
         -1   -1    0    0    0  501 -0.00000000000E+00  0.00000000000E+00  0.60291903652E+03  0.60291903652E+03  0.00000000000E+00 0.  1.
          1   -1    0    0  501    0  0.00000000000E+00 -0.00000000000E+00 -0.46402005363E+03  0.46402005363E+03  0.00000000000E+00 0. -1.
         23    2    1    2    0    0 -0.11672535071E+03 -0.77941205559E+01  0.14415520819E+02  0.14921317667E+03  0.91494311497E+02 0.  0.
        254    2    1    2    0    0  0.11672535071E+03  0.77941205559E+01  0.12448346207E+03  0.91772591348E+03  0.90168684371E+03 0.  0.
        -24    2    4    4    0    0 -0.31544708467E+03 -0.18971718316E+02 -0.18924211528E+03  0.37710595748E+03  0.80805542189E+02 0.  0.
         24    2    4    4    0    0  0.43217243539E+03  0.26765838872E+02  0.31372557735E+03  0.54061995599E+03  0.79729385383E+02 0.  0.
         11    1    3    3    0    0 -0.53484573822E+02 -0.47851842044E+02 -0.47991577967E+01  0.71926562128E+02  0.00000000000E+00 0. -1.
        -11    1    3    3    0    0 -0.63240776890E+02  0.40057721489E+02  0.19214678616E+02  0.77286614538E+02  0.00000000000E+00 0.  1.
          2    1    6    6  502    0  0.37866324055E+03  0.32438775325E+01  0.29229309534E+03  0.47836348739E+03  0.00000000000E+00 0. -1.
          1    1    5    5  503    0 -0.14781612821E+03  0.84383263829E+01 -0.46361381412E+02  0.15514570828E+03  0.00000000000E+00 0. -1.
         -4    1    5    5    0  503 -0.16763095646E+03 -0.27410044699E+02 -0.14288073387E+03  0.22196024920E+03  0.00000000000E+00 0.  1.
         -1    1    6    6    0  502  0.53509194839E+02  0.23521961340E+02  0.21432482007E+02  0.62256468600E+02  0.00000000000E+00 0.  1.
<mgrwt>
<rscale>  0 0.10578592E+04</rscale>
<asrwt>0</asrwt>
<pdfrwt beam="1">  1        1 0.71387700E-01 0.10578592E+04</pdfrwt>
<pdfrwt beam="2">  1       -1 0.92756775E-01 0.10578592E+04</pdfrwt>
<totfact> 0.55464625E+01</totfact>
</mgrwt>
</event>
<event>
12    1  0.1467288E-007  0.1714496E+04  0.7818608E-02  0.8753140E-01
         -2   -1    0    0    0  501 -0.00000000000E+00  0.00000000000E+00  0.17272175001E+04  0.17272175001E+04  0.00000000000E+00 0.  1.
          2   -1    0    0  501    0  0.00000000000E+00 -0.00000000000E+00 -0.42546706365E+03  0.42546706365E+03  0.00000000000E+00 0. -1.
         23    2    1    2    0    0  0.21047175462E+03  0.37513661972E+03 -0.87628924202E+02  0.44844526762E+03  0.91643258024E+02 0.  0.
        254    2    1    2    0    0 -0.21047175462E+03 -0.37513661972E+03  0.13893793607E+04  0.17042392962E+04  0.88827401614E+03 0.  0.
        -24    2    4    4    0    0  0.23493380191E+03 -0.29796131949E+03  0.21601049070E+03  0.44396689907E+03  0.80443994072E+02 0.  0.
         24    2    4    4    0    0 -0.44540555653E+03 -0.77175300231E+02  0.11733688700E+04  0.12602723971E+04  0.84556922114E+02 0.  0.
         11    1    3    3    0    0  0.20964151858E+03  0.36222227377E+03 -0.66639269270E+02  0.42378689708E+03  0.00000000000E+00 0. -1.
        -11    1    3    3    0    0  0.83023603578E+00  0.12914345952E+02 -0.20989654932E+02  0.24658370534E+02  0.00000000000E+00 0.  1.
          4    1    6    6  502    0 -0.13367923086E+03  0.13709195858E+02  0.37806766523E+03  0.40123962704E+03  0.00000000000E+00 0. -1.
          1    1    5    5  503    0  0.63711101614E+02 -0.62033180892E+02  0.89571661574E+02  0.12621530239E+03  0.00000000000E+00 0. -1.
         -2    1    5    5    0  503  0.17122270030E+03 -0.23592813860E+03  0.12643882913E+03  0.31775159668E+03  0.00000000000E+00 0.  1.
         -3    1    6    6    0  502 -0.31172632567E+03 -0.90884496089E+02  0.79530120475E+03  0.85903277005E+03  0.00000000000E+00 0.  1.
<mgrwt>
<rscale>  0 0.17144960E+04</rscale>
<asrwt>0</asrwt>
<pdfrwt beam="1">  1        2 0.65456472E-01 0.17144960E+04</pdfrwt>
<pdfrwt beam="2">  1       -2 0.26572577E+00 0.17144960E+04</pdfrwt>
<totfact> 0.36295769E+00</totfact>
</mgrwt>
</event>
<event>
12    1  0.1467288E-007  0.1412470E+04  0.7818608E-02  0.8944841E-01
          2   -1    0    0  501    0  0.00000000000E+00  0.00000000000E+00  0.22170552601E+04  0.22170552601E+04  0.00000000000E+00 0. -1.
         -2   -1    0    0    0  501 -0.00000000000E+00 -0.00000000000E+00 -0.22496853040E+03  0.22496853040E+03  0.00000000000E+00 0.  1.
         23    2    1    2    0    0 -0.11779965480E+03  0.31926399609E+03  0.21157010472E+03  0.41111702253E+03  0.91918654990E+02 0.  0.
        254    2    1    2    0    0  0.11779965480E+03 -0.31926399609E+03  0.17805166250E+04  0.20309067680E+04  0.91571643562E+03 0.  0.
        -24    2    4    4    0    0  0.28111261749E+03  0.24639151699E+03  0.72824025079E+03  0.82244749308E+03  0.79705286154E+02 0.  0.
         24    2    4    4    0    0 -0.16331296269E+03 -0.56565551308E+03  0.10522763742E+04  0.12084592749E+04  0.80317919037E+02 0.  0.
         13    1    3    3    0    0 -0.63344418007E+02  0.22642820213E+03  0.18774612452E+03  0.30088345465E+03  0.00000000000E+00 0. -1.
        -13    1    3    3    0    0 -0.54455236796E+02  0.92835793960E+02  0.23823980198E+02  0.11023356788E+03  0.00000000000E+00 0.  1.
          2    1    6    6  502    0 -0.24488012525E+02 -0.22490636576E+03  0.39445811198E+03  0.45473040169E+03  0.00000000000E+00 0. -1.
          3    1    5    5  503    0  0.25919977084E+03  0.24845777130E+03  0.69929162848E+03  0.78608178136E+03  0.00000000000E+00 0. -1.
         -4    1    5    5    0  503  0.21912846655E+02 -0.20662543020E+01  0.28948622310E+02  0.36365711722E+02  0.00000000000E+00 0.  1.
         -1    1    6    6    0  502 -0.13882495017E+03 -0.34074914732E+03  0.65781826223E+03  0.75372887321E+03  0.00000000000E+00 0.  1.
<mgrwt>
<rscale>  0 0.14124697E+04</rscale>
<asrwt>0</asrwt>
<pdfrwt beam="1">  1        2 0.34108541E+00 0.14124697E+04</pdfrwt>
<pdfrwt beam="2">  1       -2 0.34610545E-01 0.14124697E+04</pdfrwt>
<totfact> 0.38501931E+01</totfact>
</mgrwt>
</event>
<event>
12    1  0.1467288E-007  0.1687106E+04  0.7818608E-02  0.8768753E-01
         -2   -1    0    0    0  501 -0.00000000000E+00  0.00000000000E+00  0.66332099437E+03  0.66332099437E+03  0.00000000000E+00 0.  1.
          2   -1    0    0  501    0  0.00000000000E+00 -0.00000000000E+00 -0.10727558572E+04  0.10727558572E+04  0.00000000000E+00 0. -1.
         23    2    1    2    0    0 -0.10654529753E+03 -0.25108211490E+03  0.40053693258E+03  0.49290731641E+03  0.90186802590E+02 0.  0.
        254    2    1    2    0    0  0.10654529753E+03  0.25108211490E+03 -0.80997179537E+03  0.12431695351E+04  0.90278571927E+03 0.  0.
        -24    2    4    4    0    0  0.39818195405E+01 -0.23288366120E+03  0.47593406759E+02  0.25051555626E+03  0.79007955444E+02 0.  0.
         24    2    4    4    0    0  0.10256347799E+03  0.48396577610E+03 -0.85756520212E+03  0.99265397886E+03  0.72122856298E+02 0.  0.
         11    1    3    3    0    0 -0.96840766389E+01 -0.22108306408E+02  0.34088764349E+01  0.24375786985E+02  0.00000000000E+00 0. -1.
        -11    1    3    3    0    0 -0.96861220887E+02 -0.22897380849E+03  0.39712805614E+03  0.46853152942E+03  0.00000000000E+00 0.  1.
          4    1    6    6  502    0  0.82710396556E+02  0.33949203297E+03 -0.66370410821E+03  0.75006599270E+03  0.00000000000E+00 0. -1.
          3    1    5    5  503    0  0.25151163090E+02 -0.13955882762E+03  0.60078838430E+02  0.15400881208E+03  0.00000000000E+00 0. -1.
         -4    1    5    5    0  503 -0.21169343550E+02 -0.93324833582E+02 -0.12485431672E+02  0.96506744187E+02  0.00000000000E+00 0.  1.
         -3    1    6    6    0  502  0.19853081429E+02  0.14447374313E+03 -0.19386109391E+03  0.24258798616E+03  0.00000000000E+00 0.  1.
<mgrwt>
<rscale>  0 0.16871058E+04</rscale>
<asrwt>0</asrwt>
<pdfrwt beam="1">  1        2 0.16503936E+00 0.16871058E+04</pdfrwt>
<pdfrwt beam="2">  1       -2 0.10204938E+00 0.16871058E+04</pdfrwt>
<totfact> 0.16984050E+01</totfact>
</mgrwt>
</event>
<event>
12    1  0.1467288E-007  0.1243842E+04  0.7818608E-02  0.9075325E-01
          1   -1    0    0  501    0  0.00000000000E+00  0.00000000000E+00  0.15700454055E+04  0.15700454055E+04  0.00000000000E+00 0. -1.
         -1   -1    0    0    0  501 -0.00000000000E+00 -0.00000000000E+00 -0.24635304654E+03  0.24635304654E+03  0.00000000000E+00 0.  1.
         23    2    1    2    0    0  0.59602288778E+02 -0.16733957146E+03 -0.22604756856E+02  0.20910271022E+03  0.10797223433E+03 0.  0.
        254    2    1    2    0    0 -0.59602288778E+02  0.16733957146E+03  0.13462971158E+04  0.16072957418E+04  0.85984226030E+03 0.  0.
        -24    2    4    4    0    0  0.28410314384E+03  0.11579551673E+02  0.11241159314E+04  0.11622571413E+04  0.79726738781E+02 0.  0.
         24    2    4    4    0    0 -0.34370543262E+03  0.15576001979E+03  0.22218118441E+03  0.44503860052E+03  0.79374234331E+02 0.  0.
         11    1    3    3    0    0 -0.24432911967E+02 -0.85774416356E+02  0.29565351076E+01  0.89235412188E+02  0.00000000000E+00 0.  1.
        -11    1    3    3    0    0  0.84035200745E+02 -0.81565155104E+02 -0.25561291964E+02  0.11986729804E+03  0.00000000000E+00 0. -1.
          2    1    6    6  502    0 -0.45036734877E+02  0.44973438816E+02  0.16151327695E+02  0.65664168872E+02  0.00000000000E+00 0. -1.
          1    1    5    5  503    0 -0.16579411519E+01  0.10365843391E+01 -0.36276365725E+00  0.19886863570E+01  0.00000000000E+00 0. -1.
         -2    1    5    5    0  503  0.28576108499E+03  0.10542967334E+02  0.11244786951E+04  0.11602684550E+04  0.00000000000E+00 0.  1.
         -1    1    6    6    0  502 -0.29866869774E+03  0.11078658097E+03  0.20602985672E+03  0.37937443165E+03  0.00000000000E+00 0.  1.
<mgrwt>
<rscale>  0 0.12438416E+04</rscale>
<asrwt>0</asrwt>
<pdfrwt beam="1">  1        1 0.24154544E+00 0.12438416E+04</pdfrwt>
<pdfrwt beam="2">  1       -1 0.37900470E-01 0.12438416E+04</pdfrwt>
<totfact> 0.38795025E+01</totfact>
</mgrwt>
</event>
<event>
12    1  0.1467288E-007  0.2052858E+04  0.7818608E-02  0.8582299E-01
          1   -1    0    0  501    0  0.00000000000E+00  0.00000000000E+00  0.24753342588E+04  0.24753342588E+04  0.00000000000E+00 0. -1.
         -1   -1    0    0    0  501 -0.00000000000E+00 -0.00000000000E+00 -0.42562198361E+03  0.42562198361E+03  0.00000000000E+00 0.  1.
         23    2    1    2    0    0 -0.25113798361E+03  0.36714432297E+03 -0.15810924523E+03  0.48109642839E+03  0.92682249005E+02 0.  0.
        254    2    1    2    0    0  0.25113798361E+03 -0.36714432297E+03  0.22078215204E+04  0.24198598140E+04  0.88508779944E+03 0.  0.
        -24    2    4    4    0    0  0.57757262593E+02  0.23712637677E+03  0.11960775294E+04  0.12229684234E+04  0.74064083651E+02 0.  0.
         24    2    4    4    0    0  0.19338072102E+03 -0.60427069974E+03  0.10117439910E+04  0.11968913906E+04  0.79899409301E+02 0.  0.
         11    1    3    3    0    0 -0.23114342579E+03  0.31895536342E+03 -0.10726581452E+03  0.40824718260E+03  0.00000000000E+00 0.  1.
        -11    1    3    3    0    0 -0.19994557827E+02  0.48188959551E+02 -0.50843430715E+02  0.72849245790E+02  0.00000000000E+00 0. -1.
          4    1    6    6  502    0  0.13507725463E+02 -0.13966688299E+02  0.14856635063E+02  0.24459080821E+02  0.00000000000E+00 0. -1.
          3    1    5    5  503    0 -0.11850745463E+02  0.36817456171E+02  0.11624460633E+03  0.12251030058E+03  0.00000000000E+00 0. -1.
         -4    1    5    5    0  503  0.69608008056E+02  0.20030892060E+03  0.10798329230E+04  0.11004581228E+04  0.00000000000E+00 0.  1.
         -3    1    6    6    0  502  0.17987299556E+03 -0.59030401144E+03  0.99688735596E+03  0.11724323097E+04  0.00000000000E+00 0.  1.
<mgrwt>
<rscale>  0 0.20528582E+04</rscale>
<asrwt>0</asrwt>
<pdfrwt beam="1">  1        1 0.38082065E+00 0.20528582E+04</pdfrwt>
<pdfrwt beam="2">  1       -1 0.65480307E-01 0.20528582E+04</pdfrwt>
<totfact> 0.30775061E+00</totfact>
</mgrwt>
</event>
<event>
12    1  0.1467288E-007  0.2156084E+04  0.7818608E-02  0.8536933E-01
          2   -1    0    0  501    0  0.00000000000E+00  0.00000000000E+00  0.32329393473E+04  0.32329393473E+04  0.00000000000E+00 0. -1.
         -2   -1    0    0    0  501 -0.00000000000E+00 -0.00000000000E+00 -0.35947918752E+03  0.35947918752E+03  0.00000000000E+00 0.  1.
         23    2    1    2    0    0  0.51485898925E+02 -0.87204691190E+03  0.93742080019E+03  0.12845785462E+04  0.90926731339E+02 0.  0.
        254    2    1    2    0    0 -0.51485898925E+02  0.87204691190E+03  0.19360393596E+04  0.23078399886E+04  0.90264079053E+03 0.  0.
        -24    2    4    4    0    0 -0.29361116221E+03  0.77022342809E+03  0.18382603297E+04  0.20161769110E+04  0.79477374198E+02 0.  0.
         24    2    4    4    0    0  0.24212526329E+03  0.10182348381E+03  0.97779029835E+02  0.29166307753E+03  0.80709027632E+02 0.  0.
         13    1    3    3    0    0  0.38300768809E+02 -0.25004921949E+03  0.32197327639E+03  0.40946105037E+03  0.00000000000E+00 0.  1.
        -13    1    3    3    0    0  0.13185130117E+02 -0.62199769240E+03  0.61544752380E+03  0.87511749586E+03  0.00000000000E+00 0. -1.
          4    1    6    6  502    0  0.28841726278E+02  0.44332357526E+02  0.28942323906E+02  0.60289810180E+02  0.00000000000E+00 0. -1.
          1    1    5    5  503    0 -0.25837706214E+03  0.58872958702E+03  0.14498425649E+04  0.15860027415E+04  0.00000000000E+00 0. -1.
         -2    1    5    5    0  503 -0.35234100067E+02  0.18149384106E+03  0.38841776483E+03  0.43017416959E+03  0.00000000000E+00 0.  1.
         -1    1    6    6    0  502  0.21328353701E+03  0.57491126284E+02  0.68836705929E+02  0.23137326735E+03  0.00000000000E+00 0.  1.
<mgrwt>
<rscale>  0 0.21560839E+04</rscale>
<asrwt>0</asrwt>
<pdfrwt beam="1">  1        2 0.49737526E+00 0.21560839E+04</pdfrwt>
<pdfrwt beam="2">  1       -2 0.55304493E-01 0.21560839E+04</pdfrwt>
<totfact> 0.34873424E+00</totfact>
</mgrwt>
</event>
<event>
12    1  0.1467288E-007  0.1400620E+04  0.7818608E-02  0.8953370E-01
          1   -1    0    0  501    0  0.00000000000E+00  0.00000000000E+00  0.79438729826E+03  0.79438729826E+03  0.00000000000E+00 0. -1.
         -1   -1    0    0    0  501 -0.00000000000E+00 -0.00000000000E+00 -0.61737419231E+03  0.61737419231E+03  0.00000000000E+00 0.  1.
         23    2    1    2    0    0 -0.29392651076E+03  0.38173354295E+02 -0.20535842829E+03  0.37244834118E+03  0.93250651871E+02 0.  0.
        254    2    1    2    0    0  0.29392651076E+03 -0.38173354295E+02  0.38237153424E+03  0.10393131494E+04  0.91984446162E+03 0.  0.
        -24    2    4    4    0    0 -0.21001210371E+03 -0.19619551275E+03 -0.10514659007E+03  0.31591580761E+03  0.78417020926E+02 0.  0.
         24    2    4    4    0    0  0.50393861447E+03  0.15802215846E+03  0.48751812430E+03  0.72339734177E+03  0.81882005584E+02 0.  0.
         11    1    3    3    0    0 -0.22362738224E+03  0.46867977236E+02 -0.19592970619E+03  0.30098880900E+03  0.00000000000E+00 0.  1.
        -11    1    3    3    0    0 -0.70299128521E+02 -0.86946229413E+01 -0.94287220995E+01  0.71459532180E+02  0.00000000000E+00 0. -1.
          2    1    6    6  502    0  0.23664328402E+03  0.11522237603E+03  0.22409842736E+03  0.34568243368E+03  0.00000000000E+00 0. -1.
          1    1    5    5  503    0 -0.40791897065E+02 -0.28764437779E+02  0.10892137437E+02  0.51088260930E+02  0.00000000000E+00 0. -1.
         -2    1    5    5    0  503 -0.16922020664E+03 -0.16743107497E+03 -0.11603872750E+03  0.26482754668E+03  0.00000000000E+00 0.  1.
         -1    1    6    6    0  502  0.26729533045E+03  0.42799782430E+02  0.26341969694E+03  0.37771490809E+03  0.00000000000E+00 0.  1.
<mgrwt>
<rscale>  0 0.14006202E+04</rscale>
<asrwt>0</asrwt>
<pdfrwt beam="1">  1        1 0.12221343E+00 0.14006202E+04</pdfrwt>
<pdfrwt beam="2">  1       -1 0.94980645E-01 0.14006202E+04</pdfrwt>
<totfact> 0.23365325E+01</totfact>
</mgrwt>
</event>
<event>
12    1  0.1467288E-007  0.1547222E+04  0.7818608E-02  0.8853644E-01
         -1   -1    0    0    0  501 -0.00000000000E+00  0.00000000000E+00  0.89342205689E+03  0.89342205689E+03  0.00000000000E+00 0.  1.
          1   -1    0    0  501    0  0.00000000000E+00 -0.00000000000E+00 -0.66986690448E+03  0.66986690448E+03  0.00000000000E+00 0. -1.
         23    2    1    2    0    0 -0.54498542601E+02 -0.82392218736E+02 -0.42700102190E+03  0.44621172656E+03  0.83764332257E+02 0.  0.
        254    2    1    2    0    0  0.54498542601E+02  0.82392218736E+02  0.65055617432E+03  0.11170772348E+04  0.90270684262E+03 0.  0.
        -24    2    4    4    0    0  0.20834022011E+02  0.75663920940E+02  0.87213712751E+03  0.87928832617E+03  0.79785374332E+02 0.  0.
         24    2    4    4    0    0  0.33664520590E+02  0.67282977958E+01 -0.22158095319E+03  0.23778890863E+03  0.79163604706E+02 0.  0.
         13    1    3    3    0    0 -0.59587275733E+02 -0.34370827827E+02 -0.14984620191E+03  0.16488141636E+03  0.00000000000E+00 0.  1.
        -13    1    3    3    0    0  0.50887331323E+01 -0.48021390909E+02 -0.27715482000E+03  0.28133031020E+03  0.00000000000E+00 0. -1.
          2    1    6    6  502    0 -0.96684200903E+00  0.12684218815E+02 -0.19035538410E+03  0.19077996867E+03  0.00000000000E+00 0. -1.
          1    1    5    5  503    0  0.33346396484E+02  0.88083668161E+02  0.72054352015E+03  0.72667302082E+03  0.00000000000E+00 0. -1.
         -2    1    5    5    0  503 -0.12512374473E+02 -0.12419747221E+02  0.15159360736E+03  0.15261530536E+03  0.00000000000E+00 0.  1.
         -1    1    6    6    0  502  0.34631362599E+02 -0.59559210188E+01 -0.31225569097E+02  0.47008939959E+02  0.00000000000E+00 0.  1.
<mgrwt>
<rscale>  0 0.15472219E+04</rscale>
<asrwt>0</asrwt>
<pdfrwt beam="1">  1        1 0.10305645E+00 0.15472219E+04</pdfrwt>
<pdfrwt beam="2">  1       -1 0.13744955E+00 0.15472219E+04</pdfrwt>
<totfact> 0.12341700E+01</totfact>
</mgrwt>
</event>
<event>
12    1  0.1502439E-007  0.2548353E+04  0.7818608E-02  0.8385959E-01
         -1   -1    0    0    0  501 -0.00000000000E+00  0.00000000000E+00  0.60428678175E+03  0.60428678175E+03  0.00000000000E+00 0.  1.
          1   -1    0    0  501    0  0.00000000000E+00 -0.00000000000E+00 -0.26866808678E+04  0.26866808678E+04  0.00000000000E+00 0. -1.
         23    2    1    2    0    0 -0.77671399206E+03  0.83602108785E+02  0.10811611882E+03  0.79375269985E+03  0.89890574139E+02 0.  0.
        254    2    1    2    0    0  0.77671399206E+03 -0.83602108785E+02 -0.21905102048E+04  0.24972149497E+04  0.90965576418E+03 0.  0.
        -24    2    4    4    0    0  0.24734657567E+03  0.30719279818E+03 -0.14425367644E+04  0.14978291181E+04  0.83857060555E+02 0.  0.
         24    2    4    4    0    0  0.52936741639E+03 -0.39079490697E+03 -0.74797344042E+03  0.99938583157E+03  0.79732376835E+02 0.  0.
         11    1    3    3    0    0 -0.15316703418E+03  0.19407263193E+02 -0.14356416104E+02  0.15505769542E+03  0.00000000000E+00 0. -1.
        -11    1    3    3    0    0 -0.62354695787E+03  0.64194845592E+02  0.12247253493E+03  0.63869500443E+03  0.00000000000E+00 0.  1.
          4    1    6    6  502    0  0.27404796370E+02 -0.34578020456E+02 -0.77850026990E+02  0.89483456936E+02  0.00000000000E+00 0. -1.
          3    1    5    5  503    0  0.29044556268E+02  0.44142400110E+02 -0.10836446107E+03  0.12056116356E+03  0.00000000000E+00 0. -1.
         -4    1    5    5    0  503  0.21830201940E+03  0.26305039807E+03 -0.13341723033E+04  0.13772679545E+04  0.00000000000E+00 0.  1.
         -3    1    6    6    0  502  0.50196262002E+03 -0.35621688651E+03 -0.67012341343E+03  0.90990237463E+03  0.00000000000E+00 0.  1.
<mgrwt>
<rscale>  0 0.25483530E+04</rscale>
<asrwt>0</asrwt>
<pdfrwt beam="1">  1        1 0.41333551E+00 0.25483530E+04</pdfrwt>
<pdfrwt beam="2">  1       -1 0.92967198E-01 0.25483530E+04</pdfrwt>
<totfact> 0.99686189E-01</totfact>
</mgrwt>
</event>
<event>
12    1  0.1467288E-007  0.1830238E+04  0.7818608E-02  0.8690383E-01
          2   -1    0    0  501    0  0.00000000000E+00  0.00000000000E+00  0.10864352789E+04  0.10864352789E+04  0.00000000000E+00 0. -1.
         -2   -1    0    0    0  501 -0.00000000000E+00 -0.00000000000E+00 -0.77081701967E+03  0.77081701967E+03  0.00000000000E+00 0.  1.
         23    2    1    2    0    0 -0.15563890979E+03  0.15918565104E+03  0.78419576442E+03  0.81984390721E+03  0.87278253467E+02 0.  0.
        254    2    1    2    0    0  0.15563890979E+03 -0.15918565104E+03 -0.46857750522E+03  0.10374083913E+04  0.89838062661E+03 0.  0.
        -24    2    4    4    0    0  0.39749357410E+03 -0.25355163502E+03  0.19887550003E+02  0.47839898390E+03  0.78616156581E+02 0.  0.
         24    2    4    4    0    0 -0.24185466432E+03  0.94365983979E+02 -0.48846505522E+03  0.55900940743E+03  0.80590258975E+02 0.  0.
         13    1    3    3    0    0 -0.14816310463E+03  0.13849351142E+03  0.76224569099E+03  0.78876565069E+03  0.00000000000E+00 0. -1.
        -13    1    3    3    0    0 -0.74758051512E+01  0.20692139625E+02  0.21950073427E+02  0.31078256521E+02  0.00000000000E+00 0.  1.
          4    1    6    6  502    0 -0.32937092958E+02  0.13331602307E+02 -0.14212387623E+03  0.14649839558E+03  0.00000000000E+00 0. -1.
          1    1    5    5  503    0  0.34363511834E+02  0.12050860574E+01  0.31673364096E+00  0.34386094547E+02  0.00000000000E+00 0. -1.
         -2    1    5    5    0  503  0.36313006227E+03 -0.25475672108E+03  0.19570816363E+02  0.44401288935E+03  0.00000000000E+00 0.  1.
         -3    1    6    6    0  502 -0.20891757136E+03  0.81034381672E+02 -0.34634117899E+03  0.41251101186E+03  0.00000000000E+00 0.  1.
<mgrwt>
<rscale>  0 0.18302380E+04</rscale>
<asrwt>0</asrwt>
<pdfrwt beam="1">  1        2 0.16714389E+00 0.18302380E+04</pdfrwt>
<pdfrwt beam="2">  1       -2 0.11858723E+00 0.18302380E+04</pdfrwt>
<totfact> 0.11441031E+01</totfact>
</mgrwt>
</event>
<event>
12    1  0.1467288E-007  0.1491486E+04  0.7818608E-02  0.8890135E-01
         -2   -1    0    0    0  501 -0.00000000000E+00  0.00000000000E+00  0.14495146471E+03  0.14495146471E+03  0.00000000000E+00 0.  1.
          2   -1    0    0  501    0  0.00000000000E+00 -0.00000000000E+00 -0.38366810196E+04  0.38366810196E+04  0.00000000000E+00 0. -1.
         23    2    1    2    0    0 -0.31317004665E+03  0.31892964525E+03 -0.15538445957E+04  0.16193667671E+04  0.90133801866E+02 0.  0.
        254    2    1    2    0    0  0.31317004665E+03 -0.31892964525E+03 -0.21378849592E+04  0.23622657171E+04  0.89997534576E+03 0.  0.
        -24    2    4    4    0    0  0.17079185790E+03  0.25795334850E+03 -0.33815755615E+03  0.46534534758E+03  0.80535526318E+02 0.  0.
         24    2    4    4    0    0  0.14237818875E+03 -0.57688299375E+03 -0.17997274030E+04  0.18969203696E+04  0.78883624114E+02 0.  0.
         11    1    3    3    0    0 -0.13851524973E+03  0.11494239389E+03 -0.77140830808E+03  0.79212941247E+03  0.00000000000E+00 0.  1.
        -11    1    3    3    0    0 -0.17465479692E+03  0.20398725136E+03 -0.78243628760E+03  0.82723735466E+03  0.00000000000E+00 0. -1.
          4    1    6    6  502    0 -0.13868818926E+00 -0.11453524255E+03 -0.39079825982E+03  0.40723656626E+03  0.00000000000E+00 0. -1.
          3    1    5    5  503    0  0.11314084824E+02 -0.30511744592E+01 -0.41133637174E+01  0.12419256905E+02  0.00000000000E+00 0. -1.
         -4    1    5    5    0  503  0.15947777308E+03  0.26100452296E+03 -0.33404419243E+03  0.45292609067E+03  0.00000000000E+00 0.  1.
         -3    1    6    6    0  502  0.14251687694E+03 -0.46234775120E+03 -0.14089291432E+04  0.14896838033E+04  0.00000000000E+00 0.  1.
<mgrwt>
<rscale>  0 0.14914859E+04</rscale>
<asrwt>0</asrwt>
<pdfrwt beam="1">  1        2 0.59025868E+00 0.14914859E+04</pdfrwt>
<pdfrwt beam="2">  1       -2 0.22300223E-01 0.14914859E+04</pdfrwt>
<totfact> 0.80081240E+00</totfact>
</mgrwt>
</event>
<event>
12    1  0.1467288E-007  0.1990872E+04  0.7818608E-02  0.8610900E-01
         -1   -1    0    0    0  501 -0.00000000000E+00  0.00000000000E+00  0.58699095996E+03  0.58699095996E+03  0.00000000000E+00 0.  1.
          1   -1    0    0  501    0  0.00000000000E+00 -0.00000000000E+00 -0.16880893874E+04  0.16880893874E+04  0.00000000000E+00 0. -1.
         23    2    1    2    0    0 -0.74845746470E+03 -0.15106036685E+03 -0.99182771864E+02  0.77514416965E+03  0.89462006508E+02 0.  0.
        254    2    1    2    0    0  0.74845746470E+03  0.15106036685E+03 -0.10019156555E+04  0.14999361777E+04  0.81422708465E+03 0.  0.
        -24    2    4    4    0    0  0.85818839010E+03 -0.40535524474E+02 -0.66815550514E+03  0.10913076618E+04  0.79938676744E+02 0.  0.
         24    2    4    4    0    0 -0.10973092540E+03  0.19159589132E+03 -0.33376015041E+03  0.40862851587E+03  0.82653278318E+02 0.  0.
         13    1    3    3    0    0 -0.45085615012E+03 -0.97436107846E+02 -0.10343789861E+03  0.47272027890E+03  0.00000000000E+00 0. -1.
        -13    1    3    3    0    0 -0.29760131458E+03 -0.53624259002E+02  0.42551267429E+01  0.30242389075E+03  0.00000000000E+00 0.  1.
          4    1    6    6  502    0 -0.14786802820E+02  0.46877617461E+02 -0.26175902621E+02  0.55689661828E+02  0.00000000000E+00 0. -1.
          1    1    5    5  503    0  0.40683620194E+03  0.89903139082E+01 -0.35161964917E+03  0.53780377336E+03  0.00000000000E+00 0. -1.
         -2    1    5    5    0  503  0.45135218816E+03 -0.49525838382E+02 -0.31653585596E+03  0.55350388845E+03  0.00000000000E+00 0.  1.
         -3    1    6    6    0  502 -0.94944122578E+02  0.14471827386E+03 -0.30758424779E+03  0.35293885404E+03  0.00000000000E+00 0.  1.
<mgrwt>
<rscale>  0 0.19908724E+04</rscale>
<asrwt>0</asrwt>
<pdfrwt beam="1">  1        1 0.25970606E+00 0.19908724E+04</pdfrwt>
<pdfrwt beam="2">  1       -1 0.90306303E-01 0.19908724E+04</pdfrwt>
<totfact> 0.54044775E+00</totfact>
</mgrwt>
</event>
<event>
12    1  0.1467288E-007  0.1430807E+04  0.7818608E-02  0.8931816E-01
         -1   -1    0    0    0  501 -0.00000000000E+00  0.00000000000E+00  0.29637332689E+03  0.29637332689E+03  0.00000000000E+00 0.  1.
          1   -1    0    0  501    0  0.00000000000E+00 -0.00000000000E+00 -0.17268834385E+04  0.17268834385E+04  0.00000000000E+00 0. -1.
         23    2    1    2    0    0  0.64718257578E+02 -0.26777141985E+03  0.18734051893E+02  0.29090630151E+03  0.91572514475E+02 0.  0.
        254    2    1    2    0    0 -0.64718257578E+02  0.26777141985E+03 -0.14492441635E+04  0.17323504639E+04  0.90820674856E+03 0.  0.
        -24    2    4    4    0    0  0.35337236809E+03 -0.99017452176E+02 -0.45251173456E+03  0.58821164698E+03  0.80929508617E+02 0.  0.
         24    2    4    4    0    0 -0.41809062567E+03  0.36678887202E+03 -0.99673242892E+03  0.11441388169E+04  0.79020563990E+02 0.  0.
         11    1    3    3    0    0  0.85571115157E+02 -0.20927515200E+03  0.29052434575E+02  0.22795295337E+03  0.00000000000E+00 0.  1.
        -11    1    3    3    0    0 -0.20852857580E+02 -0.58496267848E+02 -0.10318382682E+02  0.62953348144E+02  0.00000000000E+00 0. -1.
          2    1    6    6  502    0 -0.26607394844E+03  0.24675323392E+03 -0.72103852070E+03  0.80720446779E+03  0.00000000000E+00 0. -1.
          1    1    5    5  503    0  0.11368465627E+01  0.48252247845E+01 -0.21079420072E+02  0.21654495259E+02  0.00000000000E+00 0. -1.
         -2    1    5    5    0  503  0.35223552153E+03 -0.10384267696E+03 -0.43143231449E+03  0.56655715172E+03  0.00000000000E+00 0.  1.
         -1    1    6    6    0  502 -0.15201667723E+03  0.12003563810E+03 -0.27569390822E+03  0.33693434909E+03  0.00000000000E+00 0.  1.
<mgrwt>
<rscale>  0 0.14308070E+04</rscale>
<asrwt>0</asrwt>
<pdfrwt beam="1">  1        1 0.26567438E+00 0.14308070E+04</pdfrwt>
<pdfrwt beam="2">  1       -1 0.45595895E-01 0.14308070E+04</pdfrwt>
<totfact> 0.21238822E+01</totfact>
</mgrwt>
</event>
<event>
12    1  0.1467288E-007  0.1521406E+04  0.7818608E-02  0.8870342E-01
         -2   -1    0    0    0  501 -0.00000000000E+00  0.00000000000E+00  0.39559338630E+03  0.39559338630E+03  0.00000000000E+00 0.  1.
          2   -1    0    0  501    0  0.00000000000E+00 -0.00000000000E+00 -0.14627867622E+04  0.14627867622E+04  0.00000000000E+00 0. -1.
         23    2    1    2    0    0 -0.60481064817E+02  0.28569493941E+03  0.97759586584E+02  0.32241845094E+03  0.95483837021E+02 0.  0.
        254    2    1    2    0    0  0.60481064817E+02 -0.28569493941E+03 -0.11649529625E+04  0.15359616976E+04  0.95748805423E+03 0.  0.
        -24    2    4    4    0    0 -0.29773449514E+03  0.12418399336E+03 -0.82299753824E+03  0.88759382413E+03  0.80189493652E+02 0.  0.
         24    2    4    4    0    0  0.35821555996E+03 -0.40987893276E+03 -0.34195542426E+03  0.64836787345E+03  0.84429024711E+02 0.  0.
         13    1    3    3    0    0 -0.48592401642E+02  0.28995085480E+03  0.97660053046E+02  0.30979058355E+03  0.00000000000E+00 0.  1.
        -13    1    3    3    0    0 -0.11888663175E+02 -0.42559153895E+01  0.99533538201E-01  0.12627867390E+02  0.00000000000E+00 0. -1.
          4    1    6    6  502    0  0.24816977076E+03 -0.30509302892E+03 -0.20357673086E+03  0.44284701282E+03  0.00000000000E+00 0. -1.
          3    1    5    5  503    0 -0.12093996876E+03  0.68666642930E+02 -0.45167448747E+03  0.47260070517E+03  0.00000000000E+00 0. -1.
         -4    1    5    5    0  503 -0.17679452638E+03  0.55517350428E+02 -0.37132305077E+03  0.41499311896E+03  0.00000000000E+00 0.  1.
         -3    1    6    6    0  502  0.11004578920E+03 -0.10478590384E+03 -0.13837869340E+03  0.20552086063E+03  0.00000000000E+00 0.  1.
<mgrwt>
<rscale>  0 0.15214056E+04</rscale>
<asrwt>0</asrwt>
<pdfrwt beam="1">  1        2 0.22504412E+00 0.15214056E+04</pdfrwt>
<pdfrwt beam="2">  1       -2 0.60860520E-01 0.15214056E+04</pdfrwt>
<totfact> 0.32297413E+01</totfact>
</mgrwt>
</event>
<event>
12    1  0.1467288E-007  0.1453364E+04  0.7818608E-02  0.8916071E-01
         -1   -1    0    0    0  501 -0.00000000000E+00  0.00000000000E+00  0.75011849719E+03  0.75011849719E+03  0.00000000000E+00 0.  1.
          1   -1    0    0  501    0  0.00000000000E+00 -0.00000000000E+00 -0.70397805127E+03  0.70397805127E+03  0.00000000000E+00 0. -1.
         23    2    1    2    0    0  0.14983511983E+02 -0.91564898250E+02  0.43815368207E+03  0.45703528863E+03  0.91071234311E+02 0.  0.
        254    2    1    2    0    0 -0.14983511983E+02  0.91564898250E+02 -0.39201323614E+03  0.99706125983E+03  0.91205709379E+03 0.  0.
        -24    2    4    4    0    0 -0.19096720852E+03  0.45765281028E+03 -0.20939601370E+03  0.54395224887E+03  0.78248252474E+02 0.  0.
         24    2    4    4    0    0  0.17598369653E+03 -0.36608791203E+03 -0.18261722244E+03  0.45310901096E+03  0.83475176562E+02 0.  0.
         11    1    3    3    0    0 -0.16166369233E+02 -0.92014192288E+02  0.37700809015E+03  0.38841094619E+03  0.00000000000E+00 0.  1.
        -11    1    3    3    0    0  0.31149881216E+02  0.44929403832E+00  0.61145591912E+02  0.68624342439E+02  0.00000000000E+00 0. -1.
          4    1    6    6  502    0  0.53180134770E+02 -0.20424148859E+03 -0.10376976097E+03  0.23518264325E+03  0.00000000000E+00 0. -1.
          3    1    5    5  503    0 -0.17078070768E+03  0.34754958796E+03 -0.18599525871E+03  0.42959399725E+03  0.00000000000E+00 0. -1.
         -4    1    5    5    0  503 -0.20186500831E+02  0.11010322232E+03 -0.23400754992E+02  0.11435825162E+03  0.00000000000E+00 0.  1.
         -3    1    6    6    0  502  0.12280356176E+03 -0.16184642344E+03 -0.78847461468E+02  0.21792636771E+03  0.00000000000E+00 0.  1.
<mgrwt>
<rscale>  0 0.14533643E+04</rscale>
<asrwt>0</asrwt>
<pdfrwt beam="1">  1        1 0.10830432E+00 0.14533643E+04</pdfrwt>
<pdfrwt beam="2">  1       -1 0.11540285E+00 0.14533643E+04</pdfrwt>
<totfact> 0.17857141E+01</totfact>
</mgrwt>
</event>
<event>
12    1  0.1467288E-007  0.1307966E+04  0.7818608E-02  0.9023272E-01
          2   -1    0    0  501    0  0.00000000000E+00  0.00000000000E+00  0.18981521384E+04  0.18981521384E+04  0.00000000000E+00 0. -1.
         -2   -1    0    0    0  501 -0.00000000000E+00 -0.00000000000E+00 -0.22532097224E+03  0.22532097224E+03  0.00000000000E+00 0.  1.
         23    2    1    2    0    0 -0.74072402228E+02 -0.58190263803E+02  0.96275491772E+03  0.97151153769E+03  0.89804279904E+02 0.  0.
        254    2    1    2    0    0  0.74072402228E+02  0.58190263803E+02  0.71007624842E+03  0.11519615729E+04  0.90218310746E+03 0.  0.
        -24    2    4    4    0    0  0.24249450266E+03 -0.89691286238E+02  0.83901882147E+03  0.88101332100E+03  0.73374234957E+02 0.  0.
         24    2    4    4    0    0 -0.16842210043E+03  0.14788155004E+03 -0.12894257304E+03  0.27094825194E+03  0.80943259953E+02 0.  0.
         13    1    3    3    0    0 -0.19180781575E+02 -0.58164514014E+02  0.28338682859E+03  0.28992948745E+03  0.00000000000E+00 0.  1.
        -13    1    3    3    0    0 -0.54891620653E+02 -0.25749788585E-01  0.67936808913E+03  0.68158205024E+03  0.00000000000E+00 0. -1.
          2    1    6    6  502    0 -0.15121391951E+03  0.15761442186E+03 -0.12044715873E+03  0.24943029784E+03  0.00000000000E+00 0. -1.
          1    1    5    5  503    0  0.12952444352E+03 -0.90960985908E+01  0.41998558196E+03  0.43959891894E+03  0.00000000000E+00 0. -1.
         -2    1    5    5    0  503  0.11297005914E+03 -0.80595187647E+02  0.41903323950E+03  0.44141440206E+03  0.00000000000E+00 0.  1.
         -1    1    6    6    0  502 -0.17208180923E+02 -0.97328718229E+01 -0.84954143128E+01  0.21517954107E+02  0.00000000000E+00 0.  1.
<mgrwt>
<rscale>  0 0.13079656E+04</rscale>
<asrwt>0</asrwt>
<pdfrwt beam="1">  1        2 0.29202339E+00 0.13079656E+04</pdfrwt>
<pdfrwt beam="2">  1       -2 0.34664766E-01 0.13079656E+04</pdfrwt>
<totfact> 0.58208785E+01</totfact>
</mgrwt>
</event>
<event>
12    1  0.1467288E-007  0.3636597E+04  0.7818608E-02  0.8082160E-01
         -1   -1    0    0    0  501 -0.00000000000E+00  0.00000000000E+00  0.26029445667E+04  0.26029445667E+04  0.00000000000E+00 0.  1.
          1   -1    0    0  501    0  0.00000000000E+00 -0.00000000000E+00 -0.12701801871E+04  0.12701801871E+04  0.00000000000E+00 0. -1.
         23    2    1    2    0    0 -0.11726299243E+04  0.15812171309E+03  0.19312847329E+04  0.22667136988E+04  0.89815685532E+02 0.  0.
        254    2    1    2    0    0  0.11726299243E+04 -0.15812171309E+03 -0.59852035325E+03  0.16064110550E+04  0.90678908725E+03 0.  0.
        -24    2    4    4    0    0  0.53707606416E+03  0.30616252485E+03 -0.51821801036E+03  0.81126333137E+03  0.86093531879E+02 0.  0.
         24    2    4    4    0    0  0.63555386014E+03 -0.46428423794E+03 -0.80302342885E+02  0.79514772361E+03  0.79516497292E+02 0.  0.
         13    1    3    3    0    0 -0.92268371902E+03  0.12551330537E+03  0.15870096567E+04  0.18400267622E+04  0.00000000000E+00 0.  1.
        -13    1    3    3    0    0 -0.24994620529E+03  0.32608407728E+02  0.34427507627E+03  0.42668693668E+03  0.00000000000E+00 0. -1.
          2    1    6    6  502    0  0.30509211629E+03 -0.22573093234E+03  0.11353944927E+01  0.37952199192E+03  0.00000000000E+00 0. -1.
          1    1    5    5  503    0  0.36624259113E+03  0.19501263206E+03 -0.39628264402E+03  0.57376257823E+03  0.00000000000E+00 0. -1.
         -2    1    5    5    0  503  0.17083347303E+03  0.11114989279E+03 -0.12193536634E+03  0.23750075314E+03  0.00000000000E+00 0.  1.
         -1    1    6    6    0  502  0.33046174385E+03 -0.23855330561E+03 -0.81437737378E+02  0.41562573168E+03  0.00000000000E+00 0.  1.
<mgrwt>
<rscale>  0 0.36365965E+04</rscale>
<asrwt>0</asrwt>
<pdfrwt beam="1">  1        1 0.19541234E+00 0.36365965E+04</pdfrwt>
<pdfrwt beam="2">  1       -1 0.40045301E+00 0.36365965E+04</pdfrwt>
<totfact> 0.54395402E-02</totfact>
</mgrwt>
</event>
<event>
12    1  0.1467288E-007  0.2328487E+04  0.7818608E-02  0.8466773E-01
          1   -1    0    0  501    0  0.00000000000E+00  0.00000000000E+00  0.14528105150E+04  0.14528105150E+04  0.00000000000E+00 0. -1.
         -1   -1    0    0    0  501 -0.00000000000E+00 -0.00000000000E+00 -0.93299331250E+03  0.93299331250E+03  0.00000000000E+00 0.  1.
         23    2    1    2    0    0 -0.30095864219E+02 -0.18903088082E+03 -0.76062883127E+03  0.78986746732E+03  0.93252142254E+02 0.  0.
        254    2    1    2    0    0  0.30095864219E+02  0.18903088082E+03  0.12804460337E+04  0.15959363601E+04  0.93318400402E+03 0.  0.
        -24    2    4    4    0    0  0.11286059159E+03 -0.31011586542E+03  0.18497465811E+03  0.38656426281E+03  0.79416257895E+02 0.  0.
         24    2    4    4    0    0 -0.82764727370E+02  0.49914674624E+03  0.10954713756E+04  0.12093720973E+04  0.80782799021E+02 0.  0.
         13    1    3    3    0    0  0.29144846927E+02 -0.69431102537E+02 -0.20378840162E+03  0.21725517885E+03  0.00000000000E+00 0. -1.
        -13    1    3    3    0    0 -0.59240711146E+02 -0.11959977828E+03 -0.55684042965E+03  0.57261228847E+03  0.00000000000E+00 0.  1.
          4    1    6    6  502    0 -0.88348466614E+02  0.29028106388E+03  0.65040970865E+03  0.71770560588E+03  0.00000000000E+00 0. -1.
          1    1    5    5  503    0  0.10416950293E+03 -0.30429681863E+03  0.19141352180E+03  0.37428194652E+03  0.00000000000E+00 0. -1.
         -2    1    5    5    0  503  0.86910886617E+01 -0.58190467904E+01 -0.64388636870E+01  0.12282316282E+02  0.00000000000E+00 0.  1.
         -3    1    6    6    0  502  0.55837392443E+01  0.20886568236E+03  0.44506166697E+03  0.49166649145E+03  0.00000000000E+00 0.  1.
<mgrwt>
<rscale>  0 0.23284866E+04</rscale>
<asrwt>0</asrwt>
<pdfrwt beam="1">  1        1 0.22350931E+00 0.23284866E+04</pdfrwt>
<pdfrwt beam="2">  1       -1 0.14353743E+00 0.23284866E+04</pdfrwt>
<totfact> 0.24970837E+00</totfact>
</mgrwt>
</event>
<event>
12    1  0.1467288E-007  0.3018179E+04  0.7818608E-02  0.8238559E-01
         -2   -1    0    0    0  501 -0.00000000000E+00  0.00000000000E+00  0.18796754792E+04  0.18796754792E+04  0.00000000000E+00 0.  1.
          2   -1    0    0  501    0  0.00000000000E+00 -0.00000000000E+00 -0.12115664552E+04  0.12115664552E+04  0.00000000000E+00 0. -1.
         23    2    1    2    0    0  0.85447203747E+02  0.67761499452E+03 -0.91535313296E+03  0.11456772817E+04  0.90784197229E+02 0.  0.
        254    2    1    2    0    0 -0.85447203747E+02 -0.67761499452E+03  0.15834621570E+04  0.19455646526E+04  0.90078083326E+03 0.  0.
        -24    2    4    4    0    0 -0.44497852764E+03 -0.24899935564E+03  0.47485009298E+03  0.70123142243E+03  0.78970423738E+02 0.  0.
         24    2    4    4    0    0  0.35953132390E+03 -0.42861563888E+03  0.11086120640E+04  0.12443332302E+04  0.79814413461E+02 0.  0.
         11    1    3    3    0    0  0.91777232224E+02  0.38534892780E+03 -0.54870551804E+03  0.67675298450E+03  0.00000000000E+00 0. -1.
        -11    1    3    3    0    0 -0.63300284770E+01  0.29226606672E+03 -0.36664761492E+03  0.46892429724E+03  0.00000000000E+00 0.  1.
          4    1    6    6  502    0  0.29798049763E+03 -0.39136267121E+03  0.99317433034E+03  0.11083105918E+04  0.00000000000E+00 0. -1.
          3    1    5    5  503    0 -0.35174202006E+03 -0.21725053521E+03  0.34638574615E+03  0.53935454838E+03  0.00000000000E+00 0. -1.
         -4    1    5    5    0  503 -0.93236507587E+02 -0.31748820438E+02  0.12846434683E+03  0.16187687405E+03  0.00000000000E+00 0.  1.
         -3    1    6    6    0  502  0.61550826268E+02 -0.37252967670E+02  0.11543773363E+03  0.13602263841E+03  0.00000000000E+00 0.  1.
<mgrwt>
<rscale>  0 0.30181794E+04</rscale>
<asrwt>0</asrwt>
<pdfrwt beam="1">  1        2 0.18639484E+00 0.30181794E+04</pdfrwt>
<pdfrwt beam="2">  1       -2 0.28918084E+00 0.30181794E+04</pdfrwt>
<totfact> 0.58974358E-01</totfact>
</mgrwt>
</event>
<event>
12    1  0.1467288E-007  0.1545293E+04  0.7818608E-02  0.8854880E-01
          1   -1    0    0  501    0  0.00000000000E+00  0.00000000000E+00  0.64765163707E+03  0.64765163707E+03  0.00000000000E+00 0. -1.
         -1   -1    0    0    0  501 -0.00000000000E+00 -0.00000000000E+00 -0.92176520269E+03  0.92176520269E+03  0.00000000000E+00 0.  1.
         23    2    1    2    0    0  0.14778777148E+03  0.42442372073E+03 -0.31161071053E+03  0.55421644451E+03  0.89877206988E+02 0.  0.
        254    2    1    2    0    0 -0.14778777148E+03 -0.42442372073E+03  0.37497144909E+02  0.10152003952E+04  0.90953234495E+03 0.  0.
        -24    2    4    4    0    0 -0.19615109296E+03  0.25342065356E+03  0.18499142440E+02  0.33042753517E+03  0.78376391881E+02 0.  0.
         24    2    4    4    0    0  0.48363321486E+02 -0.67784437429E+03  0.18998002469E+02  0.68477286008E+03  0.82103222722E+02 0.  0.
         13    1    3    3    0    0  0.63524313772E+02  0.18497978676E+03 -0.82494657640E+02  0.21226923585E+03  0.00000000000E+00 0. -1.
        -13    1    3    3    0    0  0.84263457703E+02  0.23944393397E+03 -0.22911605289E+03  0.34194720866E+03  0.00000000000E+00 0.  1.
          4    1    6    6  502    0  0.61765456414E+02 -0.61838369828E+03  0.32622610304E+02  0.62231632198E+03  0.00000000000E+00 0. -1.
          1    1    5    5  503    0 -0.18678043506E+03  0.25536281954E+03  0.27127704399E+02  0.31754214345E+03  0.00000000000E+00 0. -1.
         -2    1    5    5    0  503 -0.93706579026E+01 -0.19421659735E+01 -0.86285619590E+01  0.12885391716E+02  0.00000000000E+00 0.  1.
         -3    1    6    6    0  502 -0.13402134928E+02 -0.59460676011E+02 -0.13624607835E+02  0.62456538097E+02  0.00000000000E+00 0.  1.
<mgrwt>
<rscale>  0 0.15452932E+04</rscale>
<asrwt>0</asrwt>
<pdfrwt beam="1">  1        1 0.99638714E-01 0.15452932E+04</pdfrwt>
<pdfrwt beam="2">  1       -1 0.14181003E+00 0.15452932E+04</pdfrwt>
<totfact> 0.11961740E+01</totfact>
</mgrwt>
</event>
<event>
12    1  0.1467288E-007  0.1292487E+04  0.7818608E-02  0.9035545E-01
          1   -1    0    0  501    0  0.00000000000E+00  0.00000000000E+00  0.23792533536E+04  0.23792533536E+04  0.00000000000E+00 0.  1.
         -1   -1    0    0    0  501 -0.00000000000E+00 -0.00000000000E+00 -0.17553002878E+03  0.17553002878E+03  0.00000000000E+00 0. -1.
         23    2    1    2    0    0 -0.17786644687E+03  0.40851280190E+02  0.13801906241E+03  0.24664421255E+03  0.92080432126E+02 0.  0.
        254    2    1    2    0    0  0.17786644687E+03 -0.40851280190E+02  0.20657042624E+04  0.23081391698E+04  0.10134431545E+04 0.  0.
        -24    2    4    4    0    0 -0.14048726626E+03  0.33684248974E+03  0.15303514156E+04  0.15753011729E+04  0.79992469852E+02 0.  0.
         24    2    4    4    0    0  0.31835371313E+03 -0.37769376993E+03  0.53535284682E+03  0.73283799693E+03  0.80294387306E+02 0.  0.
         11    1    3    3    0    0 -0.18293089478E+03  0.52843363291E+02  0.12260554691E+03  0.22646910042E+03  0.00000000000E+00 0. -1.
        -11    1    3    3    0    0  0.50644479092E+01 -0.11992083101E+02  0.15413515492E+02  0.20175112133E+02  0.00000000000E+00 0.  1.
          2    1    6    6  502    0  0.24218360422E+03 -0.33070427596E+03  0.42046391886E+03  0.58720364726E+03  0.00000000000E+00 0. -1.
          1    1    5    5  503    0 -0.35467696049E+02  0.16052646145E+03  0.79683117421E+03  0.81361331262E+03  0.00000000000E+00 0. -1.
         -2    1    5    5    0  503 -0.10501957021E+03  0.17631602829E+03  0.73352024136E+03  0.76168786025E+03  0.00000000000E+00 0.  1.
         -1    1    6    6    0  502  0.76170108910E+02 -0.46989493968E+02  0.11488892796E+03  0.14563434967E+03  0.00000000000E+00 0.  1.
<mgrwt>
<rscale>  0 0.12924866E+04</rscale>
<asrwt>0</asrwt>
<pdfrwt beam="1">  1        1 0.36603895E+00 0.12924866E+04</pdfrwt>
<pdfrwt beam="2">  1       -1 0.27004622E-01 0.12924866E+04</pdfrwt>
<totfact> 0.19864811E+01</totfact>
</mgrwt>
</event>
<event>
12    1  0.1467288E-007  0.6640415E+04  0.7818608E-02  0.7615701E-01
          3   -1    0    0  501    0  0.00000000000E+00  0.00000000000E+00  0.27690462366E+04  0.27690462366E+04  0.00000000000E+00 0. -1.
         -3   -1    0    0    0  501 -0.00000000000E+00 -0.00000000000E+00 -0.39810744284E+04  0.39810744284E+04  0.00000000000E+00 0.  1.
         23    2    1    2    0    0 -0.15931079789E+04  0.58914744515E+03 -0.34209224149E+04  0.38205252184E+04  0.92817193561E+02 0.  0.
        254    2    1    2    0    0  0.15931079789E+04 -0.58914744515E+03  0.22088942230E+04  0.29295954465E+04  0.90455958739E+03 0.  0.
        -24    2    4    4    0    0  0.66952847322E+03 -0.71482532055E+03  0.12471394935E+04  0.15877534412E+04  0.79752482134E+02 0.  0.
         24    2    4    4    0    0  0.92357950569E+03  0.12567787540E+03  0.96175472954E+03  0.13418420053E+04  0.82302951377E+02 0.  0.
         11    1    3    3    0    0 -0.37964804187E+02  0.14963422086E+02 -0.54701135352E+02  0.68245472862E+02  0.00000000000E+00 0. -1.
        -11    1    3    3    0    0 -0.15551431747E+04  0.57418402306E+03 -0.33662212795E+04  0.37522797455E+04  0.00000000000E+00 0.  1.
          4    1    6    6  502    0  0.17794777562E+03 -0.64455490279E+01  0.16783275453E+03  0.24469325582E+03  0.00000000000E+00 0. -1.
          1    1    5    5  503    0  0.28508489682E+03 -0.25355048503E+03  0.45655966813E+03  0.59498569514E+03  0.00000000000E+00 0. -1.
         -2    1    5    5    0  503  0.38444357640E+03 -0.46127483552E+03  0.79057982537E+03  0.99276774606E+03  0.00000000000E+00 0.  1.
         -3    1    6    6    0  502  0.74563173007E+03  0.13212342443E+03  0.79392197501E+03  0.10971487495E+04  0.00000000000E+00 0.  1.
<mgrwt>
<rscale>  0 0.66404154E+04</rscale>
<asrwt>0</asrwt>
<pdfrwt beam="1">  1        3 0.42600711E+00 0.66404154E+04</pdfrwt>
<pdfrwt beam="2">  1       -3 0.61247299E+00 0.66404154E+04</pdfrwt>
<totfact> 0.10332416E-05</totfact>
</mgrwt>
</event>
<event>
12    1  0.1467288E-007  0.1842082E+04  0.7818608E-02  0.8684235E-01
          1   -1    0    0  501    0  0.00000000000E+00  0.00000000000E+00  0.10246884538E+04  0.10246884538E+04  0.00000000000E+00 0. -1.
         -1   -1    0    0    0  501 -0.00000000000E+00 -0.00000000000E+00 -0.82787760178E+03  0.82787760178E+03  0.00000000000E+00 0.  1.
         23    2    1    2    0    0 -0.19727666116E+03 -0.40846318955E+03 -0.45194042378E+03  0.64681284088E+03  0.91413599811E+02 0.  0.
        254    2    1    2    0    0  0.19727666116E+03  0.40846318955E+03  0.64875127583E+03  0.12057532147E+04  0.90950664577E+03 0.  0.
        -24    2    4    4    0    0  0.10115156291E+03  0.22309810107E+03 -0.20129614480E+03  0.32676884358E+03  0.79078049055E+02 0.  0.
         24    2    4    4    0    0  0.96125098250E+02  0.18536508848E+03  0.85004742063E+03  0.87898437115E+03  0.80203845749E+02 0.  0.
         11    1    3    3    0    0 -0.86969970675E+02 -0.27872622591E+03 -0.29918937076E+03  0.41805067203E+03  0.00000000000E+00 0. -1.
        -11    1    3    3    0    0 -0.11030669048E+03 -0.12973696365E+03 -0.15275105302E+03  0.22876216886E+03  0.00000000000E+00 0.  1.
          2    1    6    6  502    0 -0.81066403124E+01  0.25195937621E+02  0.51664851308E+02  0.58050062450E+02  0.00000000000E+00 0. -1.
          1    1    5    5  503    0 -0.65142997090E+01  0.53059646387E+02 -0.24175249558E+02  0.58670306515E+02  0.00000000000E+00 0. -1.
         -2    1    5    5    0  503  0.10766586262E+03  0.17003845469E+03 -0.17712089524E+03  0.26809853706E+03  0.00000000000E+00 0.  1.
         -1    1    6    6    0  502  0.10423173856E+03  0.16016915086E+03  0.79838256932E+03  0.82093430870E+03  0.00000000000E+00 0.  1.
<mgrwt>
<rscale>  0 0.18420821E+04</rscale>
<asrwt>0</asrwt>
<pdfrwt beam="1">  1        1 0.15764438E+00 0.18420821E+04</pdfrwt>
<pdfrwt beam="2">  1       -1 0.12736578E+00 0.18420821E+04</pdfrwt>
<totfact> 0.72688350E+00</totfact>
</mgrwt>
</event>
<event>
12    1  0.1467288E-007  0.1982952E+04  0.7818608E-02  0.8614633E-01
          2   -1    0    0  501    0  0.00000000000E+00  0.00000000000E+00  0.21850072995E+04  0.21850072995E+04  0.00000000000E+00 0.  1.
         -2   -1    0    0    0  501 -0.00000000000E+00 -0.00000000000E+00 -0.44989553153E+03  0.44989553153E+03  0.00000000000E+00 0. -1.
         23    2    1    2    0    0 -0.22156426505E+03 -0.10709553676E+03  0.16825031446E+04  0.17028266680E+04  0.90783545957E+02 0.  0.
        254    2    1    2    0    0  0.22156426505E+03  0.10709553676E+03  0.52608623387E+02  0.93207616301E+03  0.89746204870E+03 0.  0.
        -24    2    4    4    0    0 -0.12676599849E+03 -0.31002031363E+03  0.14378233148E+03  0.37520145162E+03  0.88997512406E+02 0.  0.
         24    2    4    4    0    0  0.34833026353E+03  0.41711585039E+03 -0.91173708090E+02  0.55687471140E+03  0.80481016422E+02 0.  0.
         11    1    3    3    0    0 -0.19540099954E+03 -0.93578778566E+02  0.11982390372E+04  0.12176679879E+04  0.00000000000E+00 0.  1.
        -11    1    3    3    0    0 -0.26163265509E+02 -0.13516758198E+02  0.48426410741E+03  0.48515868016E+03  0.00000000000E+00 0. -1.
          2    1    6    6  502    0  0.83458326805E+02  0.15643054653E+03 -0.39679139875E+02  0.18168721017E+03  0.00000000000E+00 0. -1.
          1    1    5    5  503    0 -0.92744432498E+01 -0.84563624012E+02  0.70857901818E+02  0.11071523858E+03  0.00000000000E+00 0. -1.
         -2    1    5    5    0  503 -0.11749155524E+03 -0.22545668962E+03  0.72924429658E+02  0.26448621304E+03  0.00000000000E+00 0.  1.
         -1    1    6    6    0  502  0.26487193673E+03  0.26068530387E+03 -0.51494568214E+02  0.37518750122E+03  0.00000000000E+00 0.  1.
<mgrwt>
<rscale>  0 0.19829524E+04</rscale>
<asrwt>0</asrwt>
<pdfrwt beam="1">  1        2 0.33615496E+00 0.19829524E+04</pdfrwt>
<pdfrwt beam="2">  1       -2 0.69214698E-01 0.19829524E+04</pdfrwt>
<totfact> 0.93330284E+00</totfact>
</mgrwt>
</event>
<event>
12    1  0.1467288E-007  0.1352454E+04  0.7818608E-02  0.8988973E-01
          2   -1    0    0  501    0  0.00000000000E+00  0.00000000000E+00  0.65950262679E+03  0.65950262679E+03  0.00000000000E+00 0. -1.
         -2   -1    0    0    0  501 -0.00000000000E+00 -0.00000000000E+00 -0.69337514200E+03  0.69337514200E+03  0.00000000000E+00 0.  1.
         23    2    1    2    0    0 -0.31006798177E+03  0.25449498203E+02  0.19494687779E+03  0.37880748448E+03  0.93279123418E+02 0.  0.
        254    2    1    2    0    0  0.31006798177E+03 -0.25449498203E+02 -0.22881939300E+03  0.97407028430E+03  0.89423977426E+03 0.  0.
        -24    2    4    4    0    0 -0.15363985652E+03  0.12643524867E+03  0.21912253358E+03  0.30689144782E+03  0.81096229286E+02 0.  0.
         24    2    4    4    0    0  0.46370783829E+03 -0.15188474687E+03 -0.44794192658E+03  0.66717883649E+03  0.79885509632E+02 0.  0.
         11    1    3    3    0    0 -0.41207369393E+02  0.33220212710E+01 -0.68613620095E+01  0.41906579510E+02  0.00000000000E+00 0.  1.
        -11    1    3    3    0    0 -0.26886061237E+03  0.22127476932E+02  0.20180823980E+03  0.33690090497E+03  0.00000000000E+00 0. -1.
          4    1    6    6  502    0  0.45488603035E+03 -0.15973919254E+03 -0.44148347153E+03  0.65371673214E+03  0.00000000000E+00 0. -1.
          3    1    5    5  503    0 -0.92095421232E+02  0.11590095118E+03  0.12400571045E+03  0.19311140132E+03  0.00000000000E+00 0. -1.
         -2    1    5    5    0  503 -0.61544435290E+02  0.10534297489E+02  0.95116823130E+02  0.11378004650E+03  0.00000000000E+00 0.  1.
         -3    1    6    6    0  502  0.88218079374E+01  0.78544456641E+01 -0.64584550460E+01  0.13462104351E+02  0.00000000000E+00 0.  1.
<mgrwt>
<rscale>  0 0.13524537E+04</rscale>
<asrwt>0</asrwt>
<pdfrwt beam="1">  1        2 0.10146194E+00 0.13524537E+04</pdfrwt>
<pdfrwt beam="2">  1       -2 0.10667310E+00 0.13524537E+04</pdfrwt>
<totfact> 0.30521514E+01</totfact>
</mgrwt>
</event>
<event>
12    1  0.1467288E-007  0.1041893E+04  0.7818608E-02  0.9263754E-01
         -1   -1    0    0    0  501 -0.00000000000E+00  0.00000000000E+00  0.32971159069E+03  0.32971159069E+03  0.00000000000E+00 0.  1.
          1   -1    0    0  501    0  0.00000000000E+00 -0.00000000000E+00 -0.82309956336E+03  0.82309956336E+03  0.00000000000E+00 0. -1.
         23    2    1    2    0    0 -0.78319856915E+02 -0.41978888717E+02 -0.16827710732E+02  0.12858369311E+03  0.91402227540E+02 0.  0.
        254    2    1    2    0    0  0.78319856915E+02  0.41978888717E+02 -0.47656026193E+03  0.10242274609E+04  0.90223942577E+03 0.  0.
        -24    2    4    4    0    0  0.45853247146E+03 -0.94407283444E+02 -0.36150842459E+03  0.59695058078E+03  0.80603301981E+02 0.  0.
         24    2    4    4    0    0 -0.38021261455E+03  0.13638617216E+03 -0.11505183734E+03  0.42727688017E+03  0.78522524372E+02 0.  0.
         11    1    3    3    0    0  0.14494007467E+02 -0.10108233498E+02 -0.24436097400E+02  0.30155853379E+02  0.00000000000E+00 0. -1.
        -11    1    3    3    0    0 -0.92813864382E+02 -0.31870655219E+02  0.76083866678E+01  0.98427839727E+02  0.00000000000E+00 0.  1.
          4    1    6    6  502    0 -0.34018619220E+01 -0.36581237777E+01 -0.10930507790E+02  0.12017925556E+02  0.00000000000E+00 0. -1.
          1    1    5    5  503    0  0.79339097098E+02 -0.12823566934E+02 -0.10377736287E+03  0.13125881777E+03  0.00000000000E+00 0. -1.
         -2    1    5    5    0  503  0.37919337436E+03 -0.81583716510E+02 -0.25773106171E+03  0.46569176301E+03  0.00000000000E+00 0.  1.
         -3    1    6    6    0  502 -0.37681075262E+03  0.14004429594E+03 -0.10412132955E+03  0.41525895461E+03  0.00000000000E+00 0.  1.
<mgrwt>
<rscale>  0 0.10418934E+04</rscale>
<asrwt>0</asrwt>
<pdfrwt beam="1">  1        1 0.12663070E+00 0.10418934E+04</pdfrwt>
<pdfrwt beam="2">  1       -1 0.50724861E-01 0.10418934E+04</pdfrwt>
<totfact> 0.82435037E+01</totfact>
</mgrwt>
</event>
<event>
12    1  0.1467288E-007  0.2260542E+04  0.7818608E-02  0.8493643E-01
         -1   -1    0    0    0  501 -0.00000000000E+00  0.00000000000E+00  0.10504648756E+04  0.10504648756E+04  0.00000000000E+00 0.  1.
          1   -1    0    0  501    0  0.00000000000E+00 -0.00000000000E+00 -0.12161406899E+04  0.12161406899E+04  0.00000000000E+00 0. -1.
         23    2    1    2    0    0 -0.27429758734E+03  0.56925436518E+03  0.64000278092E+03  0.90388402453E+03  0.90072590147E+02 0.  0.
        254    2    1    2    0    0  0.27429758734E+03 -0.56925436518E+03 -0.80567859517E+03  0.13627215410E+04  0.89922316515E+03 0.  0.
        -24    2    4    4    0    0 -0.19423511412E+03 -0.54408727666E+02 -0.59135106190E+03  0.62995173340E+03  0.80346243187E+02 0.  0.
         24    2    4    4    0    0  0.46853270146E+03 -0.51484563752E+03 -0.21432753327E+03  0.73276980755E+03  0.80164683818E+02 0.  0.
         11    1    3    3    0    0 -0.26383419383E+02  0.13832367518E+03  0.15310767216E+03  0.20801798770E+03  0.00000000000E+00 0. -1.
        -11    1    3    3    0    0 -0.24791416796E+03  0.43093069000E+03  0.48689510877E+03  0.69586603682E+03  0.00000000000E+00 0.  1.
          4    1    6    6  502    0  0.34244500036E+03 -0.38683753747E+03 -0.12238005991E+03  0.53093195207E+03  0.00000000000E+00 0. -1.
          1    1    5    5  503    0 -0.90885932341E+02 -0.21386448171E+02 -0.39223600462E+03  0.40319563016E+03  0.00000000000E+00 0. -1.
         -4    1    5    5    0  503 -0.10334918178E+03 -0.33022279495E+02 -0.19911505728E+03  0.22675610324E+03  0.00000000000E+00 0.  1.
         -3    1    6    6    0  502  0.12608770110E+03 -0.12800810005E+03 -0.91947473364E+02  0.20183785548E+03  0.00000000000E+00 0.  1.
<mgrwt>
<rscale>  0 0.22605425E+04</rscale>
<asrwt>0</asrwt>
<pdfrwt beam="1">  1        1 0.18709857E+00 0.22605425E+04</pdfrwt>
<pdfrwt beam="2">  1       -1 0.16160998E+00 0.22605425E+04</pdfrwt>
<totfact> 0.26803271E+00</totfact>
</mgrwt>
</event>
<event>
12    1  0.1467288E-007  0.2413838E+04  0.7818608E-02  0.8434341E-01
         -2   -1    0    0    0  501 -0.00000000000E+00  0.00000000000E+00  0.19557043088E+04  0.19557043088E+04  0.00000000000E+00 0.  1.
          2   -1    0    0  501    0  0.00000000000E+00 -0.00000000000E+00 -0.74482298173E+03  0.74482298173E+03  0.00000000000E+00 0. -1.
         23    2    1    2    0    0  0.44746136360E+03 -0.35316399774E+03  0.14836105107E+04  0.15920911992E+04  0.93315367587E+02 0.  0.
        254    2    1    2    0    0 -0.44746136360E+03  0.35316399774E+03 -0.27272918359E+03  0.11084360914E+04  0.91066068319E+03 0.  0.
        -24    2    4    4    0    0 -0.34022590276E+03  0.30226196207E+03 -0.59640586426E+03  0.75440083658E+03  0.79402195675E+02 0.  0.
         24    2    4    4    0    0 -0.10723546084E+03  0.50902035664E+02  0.32367668067E+03  0.35403525482E+03  0.80522709518E+02 0.  0.
         13    1    3    3    0    0  0.31975058022E+03 -0.27400061269E+03  0.11892505953E+04  0.12615996781E+04  0.00000000000E+00 0.  1.
        -13    1    3    3    0    0  0.12771078338E+03 -0.79163385044E+02  0.29435991537E+03  0.33049152107E+03  0.00000000000E+00 0. -1.
          4    1    6    6  502    0 -0.42114230753E+02 -0.12080901320E+02  0.53944103977E+02  0.69494769317E+02  0.00000000000E+00 0. -1.
          3    1    5    5  503    0 -0.14919000232E+02 -0.12523269158E+01 -0.88142595444E+01  0.17373429769E+02  0.00000000000E+00 0. -1.
         -4    1    5    5    0  503 -0.32530690253E+03  0.30351428899E+03 -0.58759160471E+03  0.73702740681E+03  0.00000000000E+00 0.  1.
         -3    1    6    6    0  502 -0.65121230083E+02  0.62982936984E+02  0.26973257669E+03  0.28454048550E+03  0.00000000000E+00 0.  1.
<mgrwt>
<rscale>  0 0.24138380E+04</rscale>
<asrwt>0</asrwt>
<pdfrwt beam="1">  1        2 0.11458815E+00 0.24138380E+04</pdfrwt>
<pdfrwt beam="2">  1       -2 0.30087758E+00 0.24138380E+04</pdfrwt>
<totfact> 0.10672413E+00</totfact>
</mgrwt>
</event>
<event>
12    1  0.1467288E-007  0.1694815E+04  0.7818608E-02  0.8764327E-01
          1   -1    0    0  501    0  0.00000000000E+00  0.00000000000E+00  0.11905322869E+04  0.11905322869E+04  0.00000000000E+00 0. -1.
         -1   -1    0    0    0  501 -0.00000000000E+00 -0.00000000000E+00 -0.60317502274E+03  0.60317502274E+03  0.00000000000E+00 0.  1.
         23    2    1    2    0    0  0.65004792533E+02  0.13765694241E+03 -0.40696669375E+03  0.44393656016E+03  0.91009465306E+02 0.  0.
        254    2    1    2    0    0 -0.65004792533E+02 -0.13765694241E+03  0.99432395793E+03  0.13497707495E+04  0.90001438104E+03 0.  0.
        -24    2    4    4    0    0  0.12590513781E+02  0.33799528782E+03  0.69152406675E+03  0.77398998783E+03  0.80346939815E+02 0.  0.
         24    2    4    4    0    0 -0.77595306314E+02 -0.47565223022E+03  0.30279989118E+03  0.57578076168E+03  0.87003653649E+02 0.  0.
         13    1    3    3    0    0  0.57456739041E+02  0.12972348409E+03 -0.25692683017E+03  0.29349762392E+03  0.00000000000E+00 0. -1.
        -13    1    3    3    0    0  0.75480534923E+01  0.79334583186E+01 -0.15003986358E+03  0.15043893624E+03  0.00000000000E+00 0.  1.
          2    1    6    6  502    0 -0.32691957889E+02 -0.21356785223E+03  0.85415314886E+02  0.23232685518E+03  0.00000000000E+00 0. -1.
          3    1    5    5  503    0 -0.22352470125E+02  0.38076633698E+02  0.11492503691E+03  0.12311469069E+03  0.00000000000E+00 0. -1.
         -4    1    5    5    0  503  0.34942983906E+02  0.29991865412E+03  0.57659902984E+03  0.65087529714E+03  0.00000000000E+00 0.  1.
         -1    1    6    6    0  502 -0.44903348425E+02 -0.26208437799E+03  0.21738457629E+03  0.34345390651E+03  0.00000000000E+00 0.  1.
<mgrwt>
<rscale>  0 0.16948148E+04</rscale>
<asrwt>0</asrwt>
<pdfrwt beam="1">  1        1 0.18315881E+00 0.16948148E+04</pdfrwt>
<pdfrwt beam="2">  1       -1 0.92796157E-01 0.16948148E+04</pdfrwt>
<totfact> 0.11667393E+01</totfact>
</mgrwt>
</event>
<event>
12    1  0.1467288E-007  0.1158273E+04  0.7818608E-02  0.9150185E-01
         -1   -1    0    0    0  501 -0.00000000000E+00  0.00000000000E+00  0.53455730420E+03  0.53455730420E+03  0.00000000000E+00 0.  1.
          1   -1    0    0  501    0  0.00000000000E+00 -0.00000000000E+00 -0.62743311426E+03  0.62743311426E+03  0.00000000000E+00 0. -1.
         23    2    1    2    0    0  0.60547552186E+02  0.51597029424E+02  0.16619795628E+03  0.20576967802E+03  0.91603166988E+02 0.  0.
        254    2    1    2    0    0 -0.60547552186E+02 -0.51597029424E+02 -0.25907376633E+03  0.95622074043E+03  0.91701179301E+03 0.  0.
        -24    2    4    4    0    0  0.23846865396E+03  0.21610684125E+03 -0.40350485191E+03  0.52223131708E+03  0.79623597406E+02 0.  0.
         24    2    4    4    0    0 -0.29901620615E+03 -0.26770387067E+03  0.14443108558E+03  0.43398942335E+03  0.80065143409E+02 0.  0.
         13    1    3    3    0    0  0.76218565089E+02  0.30126760316E+02  0.76125593614E+02  0.11185703981E+03  0.00000000000E+00 0. -1.
        -13    1    3    3    0    0 -0.15671012904E+02  0.21470269108E+02  0.90072362664E+02  0.93912638217E+02  0.00000000000E+00 0.  1.
          2    1    6    6  502    0 -0.87241291275E+02 -0.10889589344E+03  0.82638114763E+02  0.16216786526E+03  0.00000000000E+00 0. -1.
          3    1    5    5  503    0  0.74552149543E+01  0.36400188330E+02 -0.63819932149E+02  0.73848071607E+02  0.00000000000E+00 0. -1.
         -4    1    5    5    0  503  0.23101343901E+03  0.17970665292E+03 -0.33968491976E+03  0.44838324547E+03  0.00000000000E+00 0.  1.
         -1    1    6    6    0  502 -0.21177491487E+03 -0.15880797724E+03  0.61792970814E+02  0.27182155810E+03  0.00000000000E+00 0.  1.
<mgrwt>
<rscale>  0 0.11582728E+04</rscale>
<asrwt>0</asrwt>
<pdfrwt beam="1">  1        1 0.96528171E-01 0.11582728E+04</pdfrwt>
<pdfrwt beam="2">  1       -1 0.82239586E-01 0.11582728E+04</pdfrwt>
<totfact> 0.46855645E+01</totfact>
</mgrwt>
</event>
<event>
12    1  0.1467288E-007  0.1962285E+04  0.7818608E-02  0.8624459E-01
          2   -1    0    0  501    0  0.00000000000E+00  0.00000000000E+00  0.10222917998E+04  0.10222917998E+04  0.00000000000E+00 0.  1.
         -2   -1    0    0    0  501 -0.00000000000E+00 -0.00000000000E+00 -0.94164978921E+03  0.94164978921E+03  0.00000000000E+00 0. -1.
         23    2    1    2    0    0  0.54590722042E+03  0.32503052427E+03  0.47229314198E+03  0.79689926064E+03  0.91258340071E+02 0.  0.
        254    2    1    2    0    0 -0.54590722042E+03 -0.32503052427E+03 -0.39165113141E+03  0.11670423284E+04  0.89718317663E+03 0.  0.
        -24    2    4    4    0    0  0.28878509837E+02 -0.48326676124E+03 -0.10773751582E+03  0.50238986076E+03  0.80046667834E+02 0.  0.
         24    2    4    4    0    0 -0.57478573026E+03  0.15823623697E+03 -0.28391361559E+03  0.66465246759E+03  0.75753674267E+02 0.  0.
         13    1    3    3    0    0  0.42760262504E+03  0.23464276198E+03  0.40291050296E+03  0.63264374183E+03  0.00000000000E+00 0.  1.
        -13    1    3    3    0    0  0.11830459539E+03  0.90387762291E+02  0.69382639026E+02  0.16425551881E+03  0.00000000000E+00 0. -1.
          4    1    6    6  502    0 -0.52253438588E+03  0.12358215279E+03 -0.24024432115E+03  0.58824490372E+03  0.00000000000E+00 0. -1.
          3    1    5    5  503    0  0.51918696298E+01 -0.42814577653E+03 -0.77239206961E+02  0.43508810207E+03  0.00000000000E+00 0. -1.
         -4    1    5    5    0  503  0.23686640208E+02 -0.55120984713E+02 -0.30498308863E+02  0.67301758696E+02  0.00000000000E+00 0.  1.
         -3    1    6    6    0  502 -0.52251344383E+02  0.34654084182E+02 -0.43669294438E+02  0.76407563873E+02  0.00000000000E+00 0.  1.
<mgrwt>
<rscale>  0 0.19622853E+04</rscale>
<asrwt>0</asrwt>
<pdfrwt beam="1">  1        2 0.15727566E+00 0.19622853E+04</pdfrwt>
<pdfrwt beam="2">  1       -2 0.14486920E+00 0.19622853E+04</pdfrwt>
<totfact> 0.74600690E+00</totfact>
</mgrwt>
</event>
<event>
12    1  0.1467288E-007  0.2398797E+04  0.7818608E-02  0.8439954E-01
         -1   -1    0    0    0  501 -0.00000000000E+00  0.00000000000E+00  0.63026112804E+03  0.63026112804E+03  0.00000000000E+00 0.  1.
          1   -1    0    0  501    0  0.00000000000E+00 -0.00000000000E+00 -0.22824772802E+04  0.22824772802E+04  0.00000000000E+00 0. -1.
         23    2    1    2    0    0 -0.25221724547E+03  0.44820782927E+02 -0.19213035667E+04  0.19404873163E+04  0.91984715809E+02 0.  0.
        254    2    1    2    0    0  0.25221724547E+03 -0.44820782927E+02  0.26908741446E+03  0.97225109198E+03  0.89846630862E+03 0.  0.
        -24    2    4    4    0    0  0.49520044179E+03  0.15802477166E+02  0.43261163147E+03  0.66240261001E+03  0.78429574997E+02 0.  0.
         24    2    4    4    0    0 -0.24298319632E+03 -0.60623260092E+02 -0.16352421700E+03  0.30984848197E+03  0.80931445520E+02 0.  0.
         13    1    3    3    0    0  0.32536183900E+01 -0.10591841239E+00 -0.21905910670E+01  0.39237661195E+01  0.00000000000E+00 0.  1.
        -13    1    3    3    0    0 -0.25547086386E+03  0.44926701339E+02 -0.19191129756E+04  0.19365635502E+04  0.00000000000E+00 0. -1.
          2    1    6    6  502    0 -0.12052722924E+03  0.61446903207E+01 -0.99352609087E+02  0.15631862058E+03  0.00000000000E+00 0. -1.
          1    1    5    5  503    0  0.10287214123E+03 -0.28050979843E+02  0.84042249631E+02  0.13576683923E+03  0.00000000000E+00 0. -1.
         -2    1    5    5    0  503  0.39232830056E+03  0.43853457009E+02  0.34856938184E+03  0.52663577078E+03  0.00000000000E+00 0.  1.
         -1    1    6    6    0  502 -0.12245596708E+03 -0.66767950413E+02 -0.64171607915E+02  0.15352986139E+03  0.00000000000E+00 0.  1.
<mgrwt>
<rscale>  0 0.23987970E+04</rscale>
<asrwt>0</asrwt>
<pdfrwt beam="1">  1        1 0.35115035E+00 0.23987970E+04</pdfrwt>
<pdfrwt beam="2">  1       -1 0.96963250E-01 0.23987970E+04</pdfrwt>
<totfact> 0.17528009E+00</totfact>
</mgrwt>
</event>
<event>
12    1  0.1467288E-007  0.1856816E+04  0.7818608E-02  0.8676655E-01
          2   -1    0    0  501    0  0.00000000000E+00  0.00000000000E+00  0.79116825233E+03  0.79116825233E+03  0.00000000000E+00 0. -1.
         -2   -1    0    0    0  501 -0.00000000000E+00 -0.00000000000E+00 -0.10894540160E+04  0.10894540160E+04  0.00000000000E+00 0.  1.
         23    2    1    2    0    0  0.70112349740E+02  0.50253749521E+03  0.38187570036E+03  0.64155296551E+03  0.91112465408E+02 0.  0.
        254    2    1    2    0    0 -0.70112349740E+02 -0.50253749521E+03 -0.68016146405E+03  0.12390693028E+04  0.90289171243E+03 0.  0.
        -24    2    4    4    0    0  0.10328791994E+03  0.23181547925E+03 -0.10213433212E+03  0.28519085590E+03  0.80595233531E+02 0.  0.
         24    2    4    4    0    0 -0.17340026968E+03 -0.73435297445E+03 -0.57802713193E+03  0.95387844694E+03  0.80167210668E+02 0.  0.
         11    1    3    3    0    0  0.17775967180E+02  0.39276768792E+03  0.27674458811E+03  0.48080142339E+03  0.00000000000E+00 0.  1.
        -11    1    3    3    0    0  0.52336382560E+02  0.10976980728E+03  0.10513111225E+03  0.16075154212E+03  0.00000000000E+00 0. -1.
          4    1    6    6  502    0 -0.10800209596E+03 -0.34483690514E+03 -0.23782343959E+03  0.43259326427E+03  0.00000000000E+00 0. -1.
          3    1    5    5  503    0  0.10971093085E+03  0.16081927492E+03 -0.68594588226E+02  0.20640868457E+03  0.00000000000E+00 0. -1.
         -4    1    5    5    0  503 -0.64230109156E+01  0.70996204330E+02 -0.33539743894E+02  0.78782171327E+02  0.00000000000E+00 0.  1.
         -3    1    6    6    0  502 -0.65398173720E+02 -0.38951606932E+03 -0.34020369234E+03  0.52128518266E+03  0.00000000000E+00 0.  1.
<mgrwt>
<rscale>  0 0.18568160E+04</rscale>
<asrwt>0</asrwt>
<pdfrwt beam="1">  1        2 0.12171819E+00 0.18568160E+04</pdfrwt>
<pdfrwt beam="2">  1       -2 0.16760831E+00 0.18568160E+04</pdfrwt>
<totfact> 0.72798872E+00</totfact>
</mgrwt>
</event>
<event>
12    1  0.1467288E-007  0.2428108E+04  0.7818608E-02  0.8429055E-01
         -2   -1    0    0    0  501 -0.00000000000E+00  0.00000000000E+00  0.15657135398E+04  0.15657135398E+04  0.00000000000E+00 0. -1.
          2   -1    0    0  501    0  0.00000000000E+00 -0.00000000000E+00 -0.94137750414E+03  0.94137750414E+03  0.00000000000E+00 0.  1.
         23    2    1    2    0    0 -0.37793804053E+03 -0.22423931554E+03 -0.70584444492E+03  0.83892743139E+03  0.11163521667E+03 0.  0.
        254    2    1    2    0    0  0.37793804053E+03  0.22423931554E+03  0.13301804806E+04  0.16681636125E+04  0.90568719448E+03 0.  0.
        -24    2    4    4    0    0  0.45525940717E+03  0.34694705833E+03  0.35270486616E+03  0.67673759589E+03  0.77069202529E+02 0.  0.
         24    2    4    4    0    0 -0.77321366642E+02 -0.12270774279E+03  0.97747561440E+03  0.99142601666E+03  0.80194674865E+02 0.  0.
         13    1    3    3    0    0 -0.63167260296E+02  0.64483710814E+00 -0.13872200352E+03  0.15242805795E+03  0.00000000000E+00 0. -1.
        -13    1    3    3    0    0 -0.31477078023E+03 -0.22488415264E+03 -0.56712244139E+03  0.68649937344E+03  0.00000000000E+00 0.  1.
          4    1    6    6  502    0  0.30180817569E+01 -0.68897593513E+02  0.42147516251E+03  0.42707996888E+03  0.00000000000E+00 0. -1.
          1    1    5    5  503    0  0.25835855416E+03  0.21778573323E+03  0.16746032066E+03  0.37712428602E+03  0.00000000000E+00 0. -1.
         -2    1    5    5    0  503  0.19690085302E+03  0.12916132509E+03  0.18524454549E+03  0.29961330987E+03  0.00000000000E+00 0.  1.
         -3    1    6    6    0  502 -0.80339448399E+02 -0.53810149277E+02  0.55600045190E+03  0.56434604778E+03  0.00000000000E+00 0.  1.
<mgrwt>
<rscale>  0 0.24281083E+04</rscale>
<asrwt>0</asrwt>
<pdfrwt beam="1">  1        2 0.14482731E+00 0.24281083E+04</pdfrwt>
<pdfrwt beam="2">  1       -2 0.24087901E+00 0.24281083E+04</pdfrwt>
<totfact> 0.18050652E+00</totfact>
</mgrwt>
</event>
<event>
12    1  0.1467288E-007  0.1001855E+04  0.7818608E-02  0.9306513E-01
         -1   -1    0    0    0  501 -0.00000000000E+00  0.00000000000E+00  0.17182671036E+04  0.17182671036E+04  0.00000000000E+00 0.  1.
          1   -1    0    0  501    0  0.00000000000E+00 -0.00000000000E+00 -0.14603572359E+03  0.14603572359E+03  0.00000000000E+00 0. -1.
         23    2    1    2    0    0 -0.23542976843E+02  0.13643198184E+02  0.11553155310E+03  0.15371901937E+03  0.97681055177E+02 0.  0.
        254    2    1    2    0    0  0.23542976843E+02 -0.13643198184E+02  0.14566998270E+04  0.17105838079E+04  0.89631588696E+03 0.  0.
        -24    2    4    4    0    0  0.22112859360E+03  0.25645155934E+03  0.18614591820E+03  0.39423225451E+03  0.78124966840E+02 0.  0.
         24    2    4    4    0    0 -0.19758561675E+03 -0.27009475752E+03  0.12705539088E+04  0.13163515533E+04  0.80516600313E+02 0.  0.
         11    1    3    3    0    0  0.13902206318E+02  0.10353410314E+02 -0.11790703622E+02  0.20963900819E+02  0.00000000000E+00 0. -1.
        -11    1    3    3    0    0 -0.37445183161E+02  0.32897878701E+01  0.12732225672E+03  0.13275511855E+03  0.00000000000E+00 0.  1.
          2    1    6    6  502    0 -0.91132220004E+01 -0.17794845106E+02  0.18389646090E+03  0.18498004125E+03  0.00000000000E+00 0. -1.
          1    1    5    5  503    0  0.15581453344E+02  0.17163923494E+02 -0.71642431041E+01  0.24263312578E+02  0.00000000000E+00 0. -1.
         -2    1    5    5    0  503  0.20554714025E+03  0.23928763584E+03  0.19331016130E+03  0.36996894193E+03  0.00000000000E+00 0.  1.
         -1    1    6    6    0  502 -0.18847239475E+03 -0.25229991242E+03  0.10866574479E+04  0.11313715121E+04  0.00000000000E+00 0.  1.
<mgrwt>
<rscale>  0 0.10018550E+04</rscale>
<asrwt>0</asrwt>
<pdfrwt beam="1">  1        1 0.22467036E-01 0.10018550E+04</pdfrwt>
<pdfrwt beam="2">  1       -1 0.26434877E+00 0.10018550E+04</pdfrwt>
<totfact> 0.12774842E+01</totfact>
</mgrwt>
</event>
<event>
12    1  0.1467288E-007  0.1555811E+04  0.7818608E-02  0.8848165E-01
         -2   -1    0    0    0  501 -0.00000000000E+00  0.00000000000E+00  0.93633795439E+03  0.93633795439E+03  0.00000000000E+00 0.  1.
          2   -1    0    0  501    0  0.00000000000E+00 -0.00000000000E+00 -0.64628024147E+03  0.64628024147E+03  0.00000000000E+00 0. -1.
         23    2    1    2    0    0  0.36220707298E+03 -0.28442044165E+03 -0.13058550700E+03  0.48595965609E+03  0.83757157113E+02 0.  0.
        254    2    1    2    0    0 -0.36220707298E+03  0.28442044165E+03  0.42064321991E+03  0.10966585398E+04  0.90201456920E+03 0.  0.
        -24    2    4    4    0    0 -0.55621350848E+03  0.44056199269E+03  0.16784470565E+03  0.73351412688E+03  0.80017452514E+02 0.  0.
         24    2    4    4    0    0  0.19400643550E+03 -0.15614155104E+03  0.25279851426E+03  0.36314441289E+03  0.77123892667E+02 0.  0.
         11    1    3    3    0    0  0.20629703315E+02 -0.66711805999E+00  0.57742925133E+01  0.21432968983E+02  0.00000000000E+00 0.  1.
        -11    1    3    3    0    0  0.34157736966E+03 -0.28375332359E+03 -0.13635979951E+03  0.46452668711E+03  0.00000000000E+00 0. -1.
          2    1    6    6  502    0  0.78548501405E+02 -0.26644162583E+02  0.52539291164E+02  0.98184294003E+02  0.00000000000E+00 0. -1.
          1    1    5    5  503    0 -0.16989269830E+03  0.90883570544E+02  0.35843597271E+02  0.19597988621E+03  0.00000000000E+00 0. -1.
         -2    1    5    5    0  503 -0.38632081017E+03  0.34967842214E+03  0.13200110838E+03  0.53753424068E+03  0.00000000000E+00 0.  1.
         -1    1    6    6    0  502  0.11545793410E+03 -0.12949738845E+03  0.20025922310E+03  0.26496011888E+03  0.00000000000E+00 0.  1.
<mgrwt>
<rscale>  0 0.15558107E+04</rscale>
<asrwt>0</asrwt>
<pdfrwt beam="1">  1        2 0.99427729E-01 0.15558107E+04</pdfrwt>
<pdfrwt beam="2">  1       -2 0.14405199E+00 0.15558107E+04</pdfrwt>
<totfact> 0.14516305E+01</totfact>
</mgrwt>
</event>
<event>
12    1  0.1467288E-007  0.1829946E+04  0.7818608E-02  0.8690535E-01
         -1   -1    0    0    0  501 -0.00000000000E+00  0.00000000000E+00  0.15810724971E+04  0.15810724971E+04  0.00000000000E+00 0.  1.
          1   -1    0    0  501    0  0.00000000000E+00 -0.00000000000E+00 -0.52949866499E+03  0.52949866499E+03  0.00000000000E+00 0. -1.
         23    2    1    2    0    0  0.26740422829E+03  0.30978122404E+02 -0.33196139135E+03  0.43688357960E+03  0.90577212417E+02 0.  0.
        254    2    1    2    0    0 -0.26740422829E+03 -0.30978122404E+02  0.13835352234E+04  0.16736875824E+04  0.90254957971E+03 0.  0.
        -24    2    4    4    0    0 -0.49843755328E+03  0.86514384850E+02  0.12875919928E+04  0.13856116602E+04  0.78114016801E+02 0.  0.
         24    2    4    4    0    0  0.23103332500E+03 -0.11749250725E+03  0.95943230645E+02  0.28807592228E+03  0.81251135211E+02 0.  0.
         11    1    3    3    0    0  0.21635366037E+03  0.66384728853E+01 -0.20602044952E+03  0.29882670781E+03  0.00000000000E+00 0.  1.
        -11    1    3    3    0    0  0.51050567924E+02  0.24339649519E+02 -0.12594094182E+03  0.13805687180E+03  0.00000000000E+00 0. -1.
          2    1    6    6  502    0  0.19171382818E+03 -0.11447092062E+03  0.52449420128E+02  0.22936591999E+03  0.00000000000E+00 0. -1.
          1    1    5    5  503    0 -0.88354777058E+02  0.40427479278E+02  0.29743994325E+03  0.31290808164E+03  0.00000000000E+00 0. -1.
         -2    1    5    5    0  503 -0.41008277623E+03  0.46086905572E+02  0.99015204952E+03  0.10727035785E+04  0.00000000000E+00 0.  1.
         -1    1    6    6    0  502  0.39319496813E+02 -0.30215866377E+01  0.43493810516E+02  0.58710002288E+02  0.00000000000E+00 0.  1.
<mgrwt>
<rscale>  0 0.18299462E+04</rscale>
<asrwt>0</asrwt>
<pdfrwt beam="1">  1        1 0.81461334E-01 0.18299462E+04</pdfrwt>
<pdfrwt beam="2">  1       -1 0.24324192E+00 0.18299462E+04</pdfrwt>
<totfact> 0.29733107E+00</totfact>
</mgrwt>
</event>
<event>
12    1  0.1467288E-007  0.1877292E+04  0.7818608E-02  0.8666243E-01
          2   -1    0    0  501    0  0.00000000000E+00  0.00000000000E+00  0.17231411661E+04  0.17231411661E+04  0.00000000000E+00 0. -1.
         -2   -1    0    0    0  501 -0.00000000000E+00 -0.00000000000E+00 -0.51130812010E+03  0.51130812010E+03  0.00000000000E+00 0.  1.
         23    2    1    2    0    0 -0.30851850108E+03  0.51613396447E+03  0.54916996914E+02  0.61097097783E+03  0.93229418173E+02 0.  0.
        254    2    1    2    0    0  0.30851850108E+03 -0.51613396447E+03  0.11569160491E+04  0.16234783084E+04  0.96728958349E+03 0.  0.
        -24    2    4    4    0    0 -0.90227440270E+02 -0.65036378616E+03  0.91930844275E+03  0.11325773668E+04  0.80557020550E+02 0.  0.
         24    2    4    4    0    0  0.39874594135E+03  0.13422982169E+03  0.23760760636E+03  0.49090094158E+03  0.86662500972E+02 0.  0.
         11    1    3    3    0    0 -0.24187847048E+03  0.34473623748E+03  0.80870431736E+01  0.42120501918E+03  0.00000000000E+00 0.  1.
        -11    1    3    3    0    0 -0.66640030594E+02  0.17139772698E+03  0.46829953740E+02  0.18976595864E+03  0.00000000000E+00 0. -1.
          2    1    6    6  502    0  0.77411778799E+01 -0.57058766112E+01  0.19677453566E+02  0.21901713214E+02  0.00000000000E+00 0. -1.
          3    1    5    5  503    0  0.75950718307E+01 -0.17149814083E+03  0.21110964737E+03  0.27209663841E+03  0.00000000000E+00 0. -1.
         -4    1    5    5    0  503 -0.97822512101E+02 -0.47886564533E+03  0.70819879538E+03  0.86048072839E+03  0.00000000000E+00 0.  1.
         -1    1    6    6    0  502  0.39100476347E+03  0.13993569830E+03  0.21793015279E+03  0.46899922837E+03  0.00000000000E+00 0.  1.
<mgrwt>
<rscale>  0 0.18772917E+04</rscale>
<asrwt>0</asrwt>
<pdfrwt beam="1">  1        2 0.26509864E+00 0.18772917E+04</pdfrwt>
<pdfrwt beam="2">  1       -2 0.78662788E-01 0.18772917E+04</pdfrwt>
<totfact> 0.12823221E+01</totfact>
</mgrwt>
</event>
<event>
12    1  0.1467288E-007  0.1608449E+04  0.7818608E-02  0.8815374E-01
         -2   -1    0    0    0  501 -0.00000000000E+00  0.00000000000E+00  0.41885477737E+03  0.41885477737E+03  0.00000000000E+00 0.  1.
          2   -1    0    0  501    0  0.00000000000E+00 -0.00000000000E+00 -0.15441551931E+04  0.15441551931E+04  0.00000000000E+00 0. -1.
         23    2    1    2    0    0  0.38801117053E+03 -0.27336366301E+03 -0.21668478615E+03  0.52975711399E+03  0.91705739006E+02 0.  0.
        254    2    1    2    0    0 -0.38801117053E+03  0.27336366301E+03 -0.90861562958E+03  0.14332528565E+04  0.10016741125E+04 0.  0.
        -24    2    4    4    0    0  0.80905234472E+02  0.35772649123E+03  0.31444011957E+02  0.37639205046E+03  0.78538845593E+02 0.  0.
         24    2    4    4    0    0 -0.46891640500E+03 -0.84362828222E+02 -0.94005964154E+03  0.10568608060E+04  0.79012353357E+02 0.  0.
         13    1    3    3    0    0  0.55514739396E+02 -0.51961238480E+02 -0.72511559877E+02  0.10507037123E+03  0.00000000000E+00 0. -1.
        -13    1    3    3    0    0  0.33249643113E+03 -0.22140242453E+03 -0.14417322627E+03  0.42468674276E+03  0.00000000000E+00 0.  1.
          4    1    6    6  502    0 -0.36558345348E+02 -0.29745623789E+02 -0.95105950571E+02  0.10614356591E+03  0.00000000000E+00 0. -1.
          3    1    5    5  503    0  0.71145918824E+02  0.14283557103E+03  0.21884862995E+02  0.16106734413E+03  0.00000000000E+00 0. -1.
         -4    1    5    5    0  503  0.97593156478E+01  0.21489092020E+03  0.95591489616E+01  0.21532470633E+03  0.00000000000E+00 0.  1.
         -3    1    6    6    0  502 -0.43235805965E+03 -0.54617204433E+02 -0.84495369097E+03  0.95071724011E+03  0.00000000000E+00 0.  1.
<mgrwt>
<rscale>  0 0.16084487E+04</rscale>
<asrwt>0</asrwt>
<pdfrwt beam="1">  1        2 0.23756233E+00 0.16084487E+04</pdfrwt>
<pdfrwt beam="2">  1       -2 0.64439197E-01 0.16084487E+04</pdfrwt>
<totfact> 0.25546400E+01</totfact>
</mgrwt>
</event>
<event>
12    1  0.1467288E-007  0.2106136E+04  0.7818608E-02  0.8558545E-01
         -2   -1    0    0    0  501 -0.00000000000E+00  0.00000000000E+00  0.55270794046E+03  0.55270794046E+03  0.00000000000E+00 0.  1.
          2   -1    0    0  501    0  0.00000000000E+00 -0.00000000000E+00 -0.20063990879E+04  0.20063990879E+04  0.00000000000E+00 0. -1.
         23    2    1    2    0    0  0.28677034780E+03 -0.37678095990E+02  0.38578622042E+03  0.49073589927E+03  0.91289888104E+02 0.  0.
        254    2    1    2    0    0 -0.28677034780E+03  0.37678095990E+02 -0.18394773678E+04  0.20683711291E+04  0.90045836632E+03 0.  0.
        -24    2    4    4    0    0  0.24290446558E+03  0.25847108140E+03 -0.79102558217E+03  0.87047762029E+03  0.78739675178E+02 0.  0.
         24    2    4    4    0    0 -0.52967481338E+03 -0.22079298541E+03 -0.10484517857E+04  0.11978935088E+04  0.79954744575E+02 0.  0.
         13    1    3    3    0    0  0.15091894116E+03  0.12794137847E+01  0.13318445862E+03  0.20128652146E+03  0.00000000000E+00 0.  1.
        -13    1    3    3    0    0  0.13585140664E+03 -0.38957509775E+02  0.25260176179E+03  0.28944937781E+03  0.00000000000E+00 0. -1.
          2    1    6    6  502    0 -0.42441163469E+03 -0.14162367000E+03 -0.82491152505E+03  0.93843567906E+03  0.00000000000E+00 0. -1.
          3    1    5    5  503    0  0.23008182432E+03  0.23906420448E+03 -0.67495689514E+03  0.75210115679E+03  0.00000000000E+00 0. -1.
         -4    1    5    5    0  503  0.12822641262E+02  0.19406876921E+02 -0.11606868703E+03  0.11837646349E+03  0.00000000000E+00 0.  1.
         -1    1    6    6    0  502 -0.10526317870E+03 -0.79169315405E+02 -0.22354026061E+03  0.25945782972E+03  0.00000000000E+00 0.  1.
<mgrwt>
<rscale>  0 0.21061365E+04</rscale>
<asrwt>0</asrwt>
<pdfrwt beam="1">  1        2 0.30867677E+00 0.21061365E+04</pdfrwt>
<pdfrwt beam="2">  1       -2 0.85031994E-01 0.21061365E+04</pdfrwt>
<totfact> 0.73474481E+00</totfact>
</mgrwt>
</event>
<event>
12    1  0.1467288E-007  0.1708862E+04  0.7818608E-02  0.8756326E-01
          2   -1    0    0  501    0  0.00000000000E+00  0.00000000000E+00  0.11879720873E+04  0.11879720873E+04  0.00000000000E+00 0. -1.
         -2   -1    0    0    0  501 -0.00000000000E+00 -0.00000000000E+00 -0.61453666994E+03  0.61453666994E+03  0.00000000000E+00 0.  1.
         23    2    1    2    0    0 -0.53357693593E+03 -0.27319858905E+03  0.31258682989E+03  0.68484264645E+03  0.10934856451E+03 0.  0.
        254    2    1    2    0    0  0.53357693593E+03  0.27319858905E+03  0.26084858750E+03  0.11176661108E+04  0.90652839671E+03 0.  0.
        -24    2    4    4    0    0  0.24060936904E+03 -0.30922381478E+03 -0.29140421075E+02  0.40066341622E+03  0.78547901717E+02 0.  0.
         24    2    4    4    0    0  0.29296756690E+03  0.58242240383E+03  0.28998900857E+03  0.71700269459E+03  0.70380304213E+02 0.  0.
         13    1    3    3    0    0 -0.40068185115E+02 -0.65638776120E+00  0.46661862458E+02  0.61507883327E+02  0.00000000000E+00 0. -1.
        -13    1    3    3    0    0 -0.49350875082E+03 -0.27254220129E+03  0.26592496743E+03  0.62333476313E+03  0.00000000000E+00 0.  1.
          2    1    6    6  502    0  0.64722147455E+02  0.82209455206E+02  0.30262759450E+02  0.10891825148E+03  0.00000000000E+00 0. -1.
          1    1    5    5  503    0  0.13637271355E+03 -0.11965570105E+03  0.58321595150E+01  0.18151864334E+03  0.00000000000E+00 0. -1.
         -2    1    5    5    0  503  0.10423665549E+03 -0.18956811372E+03 -0.34972580590E+02  0.21914477288E+03  0.00000000000E+00 0.  1.
         -1    1    6    6    0  502  0.22824541944E+03  0.50021294862E+03  0.25972624912E+03  0.60808444311E+03  0.00000000000E+00 0.  1.
<mgrwt>
<rscale>  0 0.17088621E+04</rscale>
<asrwt>0</asrwt>
<pdfrwt beam="1">  1        2 0.18276494E+00 0.17088621E+04</pdfrwt>
<pdfrwt beam="2">  1       -2 0.94544103E-01 0.17088621E+04</pdfrwt>
<totfact> 0.17263117E+01</totfact>
</mgrwt>
</event>
<event>
12    1  0.1467288E-007  0.1165339E+04  0.7818608E-02  0.9143748E-01
         -2   -1    0    0    0  501 -0.00000000000E+00  0.00000000000E+00  0.10124181272E+03  0.10124181272E+03  0.00000000000E+00 0.  1.
          2   -1    0    0  501    0  0.00000000000E+00 -0.00000000000E+00 -0.33533935823E+04  0.33533935823E+04  0.00000000000E+00 0. -1.
         23    2    1    2    0    0  0.15024155905E+03  0.76098998297E+02 -0.11663914741E+04  0.11820383148E+04  0.91552843731E+02 0.  0.
        254    2    1    2    0    0 -0.15024155905E+03 -0.76098998297E+02 -0.20857602954E+04  0.22725970802E+04  0.88653138424E+03 0.  0.
        -24    2    4    4    0    0  0.11446345902E+03 -0.15245666877E+03 -0.19402864836E+04  0.19510517478E+04  0.74473921525E+02 0.  0.
         24    2    4    4    0    0 -0.26470501807E+03  0.76357670477E+02 -0.14547381187E+03  0.32154533239E+03  0.79558345922E+02 0.  0.
         11    1    3    3    0    0  0.75384142936E+02  0.45885535971E+02 -0.88223450270E+03  0.88663745081E+03  0.00000000000E+00 0. -1.
        -11    1    3    3    0    0  0.74857416118E+02  0.30213462325E+02 -0.28415697140E+03  0.29540086399E+03  0.00000000000E+00 0.  1.
          4    1    6    6  502    0 -0.19753507352E+03  0.88474254359E+02 -0.12651689750E+03  0.25070764709E+03  0.00000000000E+00 0. -1.
          3    1    5    5  503    0  0.11883613937E+03 -0.15719488415E+03 -0.19063742228E+04  0.19165320078E+04  0.00000000000E+00 0. -1.
         -4    1    5    5    0  503 -0.43726803569E+01  0.47382153761E+01 -0.33912260749E+02  0.34519739969E+02  0.00000000000E+00 0.  1.
         -3    1    6    6    0  502 -0.67169944548E+02 -0.12116583882E+02 -0.18956914371E+02  0.70837685296E+02  0.00000000000E+00 0.  1.
<mgrwt>
<rscale>  0 0.11653388E+04</rscale>
<asrwt>0</asrwt>
<pdfrwt beam="1">  1        2 0.51590677E+00 0.11653388E+04</pdfrwt>
<pdfrwt beam="2">  1       -2 0.15575661E-01 0.11653388E+04</pdfrwt>
<totfact> 0.34215896E+01</totfact>
</mgrwt>
</event>
<event>
12    1  0.1467288E-007  0.1986903E+04  0.7818608E-02  0.8612769E-01
          2   -1    0    0  501    0  0.00000000000E+00  0.00000000000E+00  0.11992697655E+04  0.11992697655E+04  0.00000000000E+00 0. -1.
         -2   -1    0    0    0  501 -0.00000000000E+00 -0.00000000000E+00 -0.82295531526E+03  0.82295531526E+03  0.00000000000E+00 0.  1.
         23    2    1    2    0    0 -0.66816891026E+03  0.30348223968E+03 -0.13549330376E+03  0.75221692134E+03  0.94449451809E+02 0.  0.
        254    2    1    2    0    0  0.66816891026E+03 -0.30348223968E+03  0.51180775401E+03  0.12700081594E+04  0.90134476508E+03 0.  0.
        -24    2    4    4    0    0  0.66916557441E+03 -0.54824165153E+03  0.52285231445E+03  0.10141687709E+04  0.82536529345E+02 0.  0.
         24    2    4    4    0    0 -0.99666415372E+00  0.24475941185E+03 -0.11044560444E+02  0.25583938854E+03  0.73645416607E+02 0.  0.
         11    1    3    3    0    0 -0.56588370275E+03  0.21944458255E+03 -0.12267987153E+03  0.61921776519E+03  0.00000000000E+00 0.  1.
        -11    1    3    3    0    0 -0.10228520751E+03  0.84037657126E+02 -0.12813432233E+02  0.13299915615E+03  0.00000000000E+00 0. -1.
          4    1    6    6  502    0  0.50434546338E+01  0.38681408247E+02 -0.29414767039E+02  0.48856077397E+02  0.00000000000E+00 0. -1.
          1    1    5    5  503    0  0.36880014529E+03 -0.32053324843E+03  0.33968477330E+03  0.59509734979E+03  0.00000000000E+00 0. -1.
         -2    1    5    5    0  503  0.30036542912E+03 -0.22770840310E+03  0.18316754115E+03  0.41907142110E+03  0.00000000000E+00 0.  1.
         -3    1    6    6    0  502 -0.60401187875E+01  0.20607800360E+03  0.18370206595E+02  0.20698331115E+03  0.00000000000E+00 0.  1.
<mgrwt>
<rscale>  0 0.19869025E+04</rscale>
<asrwt>0</asrwt>
<pdfrwt beam="1">  1        2 0.18450304E+00 0.19869025E+04</pdfrwt>
<pdfrwt beam="2">  1       -2 0.12660851E+00 0.19869025E+04</pdfrwt>
<totfact> 0.81885218E+00</totfact>
</mgrwt>
</event>
<event>
12    1  0.1467288E-007  0.1353888E+04  0.7818608E-02  0.8987890E-01
          2   -1    0    0  501    0  0.00000000000E+00  0.00000000000E+00  0.21007858176E+04  0.21007858176E+04  0.00000000000E+00 0. -1.
         -2   -1    0    0    0  501 -0.00000000000E+00 -0.00000000000E+00 -0.21813422000E+03  0.21813422000E+03  0.00000000000E+00 0.  1.
         23    2    1    2    0    0 -0.33300752419E+03 -0.23194033996E+02  0.24382560759E+03  0.42312566297E+03  0.90290782314E+02 0.  0.
        254    2    1    2    0    0  0.33300752419E+03  0.23194033996E+02  0.16388259900E+04  0.18957943746E+04  0.89266662921E+03 0.  0.
        -24    2    4    4    0    0 -0.55087461798E+02  0.16533725566E+03  0.13950473234E+04  0.14082946543E+04  0.82254254274E+02 0.  0.
         24    2    4    4    0    0  0.38809498599E+03 -0.14214322166E+03  0.24377866660E+03  0.48749972028E+03  0.86055362215E+02 0.  0.
         13    1    3    3    0    0 -0.27170293406E+03  0.52288581887E+01  0.15963668576E+03  0.31517248734E+03  0.00000000000E+00 0. -1.
        -13    1    3    3    0    0 -0.61304590130E+02 -0.28422892185E+02  0.84188921827E+02  0.10795317563E+03  0.00000000000E+00 0.  1.
          4    1    6    6  502    0  0.86232401335E+02 -0.17967682060E+02  0.92536491437E+02  0.12775706198E+03  0.00000000000E+00 0. -1.
          1    1    5    5  503    0 -0.62303669629E+01 -0.63901266838E+01  0.22856988007E+02  0.24537585298E+02  0.00000000000E+00 0. -1.
         -2    1    5    5    0  503 -0.48857094835E+02  0.17172738234E+03  0.13721903354E+04  0.13837570690E+04  0.00000000000E+00 0.  1.
         -3    1    6    6    0  502  0.30186258465E+03 -0.12417553960E+03  0.15124217517E+03  0.35974265830E+03  0.00000000000E+00 0.  1.
<mgrwt>
<rscale>  0 0.13538881E+04</rscale>
<asrwt>0</asrwt>
<pdfrwt beam="1">  1        2 0.32319780E+00 0.13538881E+04</pdfrwt>
<pdfrwt beam="2">  1       -2 0.33559112E-01 0.13538881E+04</pdfrwt>
<totfact> 0.47639155E+01</totfact>
</mgrwt>
</event>
<event>
12    1  0.1467288E-007  0.2451137E+04  0.7818608E-02  0.8420603E-01
          2   -1    0    0  501    0  0.00000000000E+00  0.00000000000E+00  0.15717298775E+04  0.15717298775E+04  0.00000000000E+00 0.  1.
         -2   -1    0    0    0  501 -0.00000000000E+00 -0.00000000000E+00 -0.95564633823E+03  0.95564633823E+03  0.00000000000E+00 0. -1.
         23    2    1    2    0    0 -0.51382221100E+03  0.52161000086E+03 -0.51970976796E+03  0.90270505331E+03  0.93208974052E+02 0.  0.
        254    2    1    2    0    0  0.51382221100E+03 -0.52161000086E+03  0.11357933073E+04  0.16246711625E+04  0.90190891548E+03 0.  0.
        -24    2    4    4    0    0  0.54043896449E+02  0.14329845702E+03  0.66280258657E+03  0.68480685022E+03  0.78727141558E+02 0.  0.
         24    2    4    4    0    0  0.45977831455E+03 -0.66490845788E+03  0.47299072070E+03  0.93986431225E+03  0.78264600419E+02 0.  0.
         13    1    3    3    0    0 -0.51117210566E+03  0.52548760808E+03 -0.51413484809E+03  0.89541542866E+03  0.00000000000E+00 0. -1.
        -13    1    3    3    0    0 -0.26501053333E+01 -0.38776072197E+01 -0.55749198659E+01  0.72896246501E+01  0.00000000000E+00 0.  1.
          2    1    6    6  502    0  0.39598927601E+02 -0.89587322948E+02  0.78423591725E+02  0.12547598670E+03  0.00000000000E+00 0. -1.
          3    1    5    5  503    0  0.44918597385E+01  0.97609213336E+02  0.29163188516E+03  0.30756607709E+03  0.00000000000E+00 0. -1.
         -4    1    5    5    0  503  0.49552036710E+02  0.45689243686E+02  0.37117070141E+03  0.37724077314E+03  0.00000000000E+00 0.  1.
         -1    1    6    6    0  502  0.42017938695E+03 -0.57532113494E+03  0.39456712897E+03  0.81438832554E+03  0.00000000000E+00 0.  1.
<mgrwt>
<rscale>  0 0.24511368E+04</rscale>
<asrwt>0</asrwt>
<pdfrwt beam="1">  1        2 0.24180460E+00 0.24511368E+04</pdfrwt>
<pdfrwt beam="2">  1       -2 0.14702251E+00 0.24511368E+04</pdfrwt>
<totfact> 0.32728673E+00</totfact>
</mgrwt>
</event>
<event>
12    1  0.1467288E-007  0.1458511E+04  0.7818608E-02  0.8912521E-01
         -1   -1    0    0    0  501 -0.00000000000E+00  0.00000000000E+00  0.16172443909E+03  0.16172443909E+03  0.00000000000E+00 0.  1.
          1   -1    0    0  501    0  0.00000000000E+00 -0.00000000000E+00 -0.32883932887E+04  0.32883932887E+04  0.00000000000E+00 0. -1.
         23    2    1    2    0    0  0.27355965039E+03  0.77752518103E+02 -0.15804392279E+03  0.33805819850E+03  0.91788494090E+02 0.  0.
        254    2    1    2    0    0 -0.27355965039E+03 -0.77752518103E+02 -0.29686249268E+04  0.31120595293E+04  0.88955057264E+03 0.  0.
        -24    2    4    4    0    0  0.29800309262E+03 -0.12250880456E+03 -0.77250957941E+03  0.84095139016E+03  0.81326133109E+02 0.  0.
         24    2    4    4    0    0 -0.57156274302E+03  0.44756286456E+02 -0.21961153474E+04  0.22711081391E+04  0.79513936374E+02 0.  0.
         11    1    3    3    0    0  0.10634062339E+03 -0.10480594480E+02 -0.80136196737E+02  0.13356639200E+03  0.00000000000E+00 0. -1.
        -11    1    3    3    0    0  0.16721902700E+03  0.88233112584E+02 -0.77907726058E+02  0.20449180650E+03  0.00000000000E+00 0.  1.
          2    1    6    6  502    0 -0.15586807782E+03 -0.22064905020E+02 -0.63325728189E+03  0.65253084431E+03  0.00000000000E+00 0. -1.
          1    1    5    5  503    0  0.52619883625E+02  0.64277641043E+01 -0.92480313990E+02  0.10659632630E+03  0.00000000000E+00 0. -1.
         -2    1    5    5    0  503  0.24538320900E+03 -0.12893656866E+03 -0.68002926542E+03  0.73435506387E+03  0.00000000000E+00 0.  1.
         -1    1    6    6    0  502 -0.41569466520E+03  0.66821191476E+02 -0.15628580655E+04  0.16185772948E+04  0.00000000000E+00 0.  1.
<mgrwt>
<rscale>  0 0.14585110E+04</rscale>
<asrwt>0</asrwt>
<pdfrwt beam="1">  1        1 0.50590662E+00 0.14585110E+04</pdfrwt>
<pdfrwt beam="2">  1       -1 0.24880685E-01 0.14585110E+04</pdfrwt>
<totfact> 0.50462607E+00</totfact>
</mgrwt>
</event>
<event>
12    1  0.1467288E-007  0.1915356E+04  0.7818608E-02  0.8647250E-01
         -1   -1    0    0    0  501 -0.00000000000E+00  0.00000000000E+00  0.37579424814E+03  0.37579424814E+03  0.00000000000E+00 0.  1.
          1   -1    0    0  501    0  0.00000000000E+00 -0.00000000000E+00 -0.24405557659E+04  0.24405557659E+04  0.00000000000E+00 0. -1.
         23    2    1    2    0    0 -0.56210473644E+03  0.25948865611E+03 -0.21673658723E+03  0.66224883892E+03  0.91119037685E+02 0.  0.
        254    2    1    2    0    0  0.56210473644E+03 -0.25948865611E+03 -0.18480249305E+04  0.21541011751E+04  0.91742009536E+03 0.  0.
        -24    2    4    4    0    0  0.61733697449E+03 -0.46869255466E+03 -0.17250077895E+04  0.18927148549E+04  0.77071377281E+02 0.  0.
         24    2    4    4    0    0 -0.55232238051E+02  0.20920389855E+03 -0.12301714100E+03  0.26138632020E+03  0.79829318670E+02 0.  0.
         13    1    3    3    0    0 -0.14233279415E+03  0.88962143860E+02 -0.95954062714E+02  0.19333926006E+03  0.00000000000E+00 0. -1.
        -13    1    3    3    0    0 -0.41977194229E+03  0.17052651225E+03 -0.12078252451E+03  0.46890957886E+03  0.00000000000E+00 0.  1.
          2    1    6    6  502    0 -0.45716292459E+02  0.38848618820E+02 -0.30718025903E+02  0.67400235132E+02  0.00000000000E+00 0. -1.
          1    1    5    5  503    0  0.29573326518E+03 -0.18240916482E+03 -0.72560309822E+03  0.80450675801E+03  0.00000000000E+00 0. -1.
         -4    1    5    5    0  503  0.32160370931E+03 -0.28628338984E+03 -0.99940469129E+03  0.10882080969E+04  0.00000000000E+00 0.  1.
         -1    1    6    6    0  502 -0.95159455917E+01  0.17035527973E+03 -0.92299115101E+02  0.19398608507E+03  0.00000000000E+00 0.  1.
<mgrwt>
<rscale>  0 0.19153557E+04</rscale>
<asrwt>0</asrwt>
<pdfrwt beam="1">  1        1 0.37547010E+00 0.19153557E+04</pdfrwt>
<pdfrwt beam="2">  1       -1 0.57814502E-01 0.19153557E+04</pdfrwt>
<totfact> 0.42204014E+00</totfact>
</mgrwt>
</event>
<event>
12    1  0.1467288E-007  0.1262337E+04  0.7818608E-02  0.9059977E-01
         -1   -1    0    0    0  501 -0.00000000000E+00  0.00000000000E+00  0.48071178582E+03  0.48071178582E+03  0.00000000000E+00 0.  1.
          1   -1    0    0  501    0  0.00000000000E+00 -0.00000000000E+00 -0.82871641036E+03  0.82871641036E+03  0.00000000000E+00 0. -1.
         23    2    1    2    0    0  0.41975865278E+02 -0.29879287942E+03 -0.46328736597E+02  0.31859474258E+03  0.91198136540E+02 0.  0.
        254    2    1    2    0    0 -0.41975865278E+02  0.29879287942E+03 -0.30167588795E+03  0.99083345359E+03  0.89426138982E+03 0.  0.
        -24    2    4    4    0    0  0.34889586558E+03 -0.10262035072E+03 -0.17182710329E+03  0.41002154329E+03  0.79585495760E+02 0.  0.
         24    2    4    4    0    0 -0.39087173086E+03  0.40141323014E+03 -0.12984878466E+03  0.58081191031E+03  0.81046140929E+02 0.  0.
         13    1    3    3    0    0 -0.15177985261E+02 -0.23835204218E+02  0.13719120065E+02  0.31411820260E+02  0.00000000000E+00 0. -1.
        -13    1    3    3    0    0  0.57153850539E+02 -0.27495767520E+03 -0.60047856662E+02  0.28718292232E+03  0.00000000000E+00 0.  1.
          4    1    6    6  502    0 -0.22914246039E+03  0.23313399874E+03 -0.11651096620E+03  0.34703390867E+03  0.00000000000E+00 0. -1.
          3    1    5    5  503    0  0.14909810249E+01  0.39089168966E+01  0.44861479611E+01  0.61341812208E+01  0.00000000000E+00 0. -1.
         -4    1    5    5    0  503  0.34740488455E+03 -0.10652926762E+03 -0.17631325125E+03  0.40388736207E+03  0.00000000000E+00 0.  1.
         -1    1    6    6    0  502 -0.16172927047E+03  0.16827923140E+03 -0.13337818455E+02  0.23377800163E+03  0.00000000000E+00 0.  1.
<mgrwt>
<rscale>  0 0.12623371E+04</rscale>
<asrwt>0</asrwt>
<pdfrwt beam="1">  1        1 0.12749483E+00 0.12623371E+04</pdfrwt>
<pdfrwt beam="2">  1       -1 0.73955660E-01 0.12623371E+04</pdfrwt>
<totfact> 0.37889559E+01</totfact>
</mgrwt>
</event>
<event>
12    1  0.1467288E-007  0.4520339E+04  0.7818608E-02  0.7907086E-01
          1   -1    0    0  501    0  0.00000000000E+00  0.00000000000E+00  0.26176037485E+04  0.26176037485E+04  0.00000000000E+00 0. -1.
         -1   -1    0    0    0  501 -0.00000000000E+00 -0.00000000000E+00 -0.19515427837E+04  0.19515427837E+04  0.00000000000E+00 0.  1.
         23    2    1    2    0    0  0.57219490914E+03 -0.19577598357E+04  0.10531932797E+04  0.22974997607E+04  0.95176037360E+02 0.  0.
        254    2    1    2    0    0 -0.57219490914E+03  0.19577598357E+04 -0.38713231491E+03  0.22716467715E+04  0.92210467798E+03 0.  0.
        -24    2    4    4    0    0 -0.64641565800E+03  0.13048647653E+04  0.81291313091E+02  0.14606591995E+04  0.79948488400E+02 0.  0.
         24    2    4    4    0    0  0.74220748860E+02  0.65289507034E+03 -0.46842362800E+03  0.81098757204E+03  0.80619193044E+02 0.  0.
         13    1    3    3    0    0  0.21639998342E+03 -0.62631718731E+03  0.37705935011E+03  0.76241453648E+03  0.00000000000E+00 0.  1.
        -13    1    3    3    0    0  0.35579492572E+03 -0.13314426483E+04  0.67613392960E+03  0.15350852243E+04  0.00000000000E+00 0. -1.
          4    1    6    6  502    0  0.42601655528E+02  0.56215074786E+03 -0.37590536957E+03  0.67759369185E+03  0.00000000000E+00 0. -1.
          3    1    5    5  503    0 -0.64772636871E+03  0.12929036704E+04  0.77991866866E+02  0.14481823369E+04  0.00000000000E+00 0. -1.
         -4    1    5    5    0  503  0.13107107187E+01  0.11961094932E+02  0.32994462244E+01  0.12476862584E+02  0.00000000000E+00 0.  1.
         -3    1    6    6    0  502  0.31619093332E+02  0.90744322486E+02 -0.92518258432E+02  0.13339388018E+03  0.00000000000E+00 0.  1.
<mgrwt>
<rscale>  0 0.45203388E+04</rscale>
<asrwt>0</asrwt>
<pdfrwt beam="1">  1        1 0.40270827E+00 0.45203388E+04</pdfrwt>
<pdfrwt beam="2">  1       -1 0.30023735E+00 0.45203388E+04</pdfrwt>
<totfact> 0.27689646E-02</totfact>
</mgrwt>
</event>
<event>
12    1  0.1467288E-007  0.1710723E+04  0.7818608E-02  0.8755272E-01
          2   -1    0    0  501    0  0.00000000000E+00  0.00000000000E+00  0.26220281343E+04  0.26220281343E+04  0.00000000000E+00 0. -1.
         -2   -1    0    0    0  501 -0.00000000000E+00 -0.00000000000E+00 -0.27903726666E+03  0.27903726666E+03  0.00000000000E+00 0.  1.
         23    2    1    2    0    0 -0.13471182133E+03 -0.34145468009E+03  0.13131884742E+02  0.37850232164E+03  0.91394681049E+02 0.  0.
        254    2    1    2    0    0  0.13471182133E+03  0.34145468009E+03  0.23298589829E+04  0.25225630793E+04  0.89461893319E+03 0.  0.
        -24    2    4    4    0    0 -0.14855501714E+03  0.44683336743E+03  0.20439360165E+04  0.20989799241E+04  0.79458358246E+02 0.  0.
         24    2    4    4    0    0  0.28326683847E+03 -0.10537868734E+03  0.28592296634E+03  0.42358315521E+03  0.79536011809E+02 0.  0.
         11    1    3    3    0    0 -0.52090479921E+02 -0.24570782597E+03  0.19110090522E+02  0.25189471889E+03  0.00000000000E+00 0.  1.
        -11    1    3    3    0    0 -0.82621341407E+02 -0.95746854120E+02 -0.59782057804E+01  0.12660760275E+03  0.00000000000E+00 0. -1.
          4    1    6    6  502    0  0.80587100288E+02 -0.36801487291E+02  0.13603409367E+03  0.16233885808E+03  0.00000000000E+00 0. -1.
          1    1    5    5  503    0 -0.17012442207E+02  0.73013865504E+01  0.67554424655E+02  0.70045226289E+02  0.00000000000E+00 0. -1.
         -2    1    5    5    0  503 -0.13154257494E+03  0.43953198088E+03  0.19763815919E+04  0.20289346978E+04  0.00000000000E+00 0.  1.
         -3    1    6    6    0  502  0.20267973818E+03 -0.68577200051E+02  0.14988887267E+03  0.26124429714E+03  0.00000000000E+00 0.  1.
<mgrwt>
<rscale>  0 0.17107233E+04</rscale>
<asrwt>0</asrwt>
<pdfrwt beam="1">  1        2 0.40338893E+00 0.17107233E+04</pdfrwt>
<pdfrwt beam="2">  1       -2 0.42928812E-01 0.17107233E+04</pdfrwt>
<totfact> 0.14479063E+01</totfact>
</mgrwt>
</event>
<event>
12    1  0.1467288E-007  0.2095763E+04  0.7818608E-02  0.8563112E-01
          1   -1    0    0  501    0  0.00000000000E+00  0.00000000000E+00  0.10482877131E+04  0.10482877131E+04  0.00000000000E+00 0. -1.
         -1   -1    0    0    0  501 -0.00000000000E+00 -0.00000000000E+00 -0.10474757846E+04  0.10474757846E+04  0.00000000000E+00 0.  1.
         23    2    1    2    0    0 -0.52388489193E+01 -0.59952790485E+03  0.60911536885E+03  0.86017781916E+03  0.97073136190E+02 0.  0.
        254    2    1    2    0    0  0.52388489193E+01  0.59952790485E+03 -0.60830344037E+03  0.12355856786E+04  0.89284810540E+03 0.  0.
        -24    2    4    4    0    0 -0.15721037533E+03  0.68082581005E+02  0.18443133811E+03  0.26430092857E+03  0.80558813417E+02 0.  0.
         24    2    4    4    0    0  0.16244922425E+03  0.53144532384E+03 -0.79273477848E+03  0.97128475002E+03  0.78369342941E+02 0.  0.
         13    1    3    3    0    0 -0.29976279346E+02 -0.83762160205E+02  0.65964297466E+02  0.11075181870E+03  0.00000000000E+00 0.  1.
        -13    1    3    3    0    0  0.24737430426E+02 -0.51576574464E+03  0.54315107139E+03  0.74942600046E+03  0.00000000000E+00 0. -1.
          4    1    6    6  502    0  0.84656609770E+02  0.30918039244E+03 -0.52091702492E+03  0.61164843129E+03  0.00000000000E+00 0. -1.
          1    1    5    5  503    0 -0.11901953037E+03  0.73013424772E+02  0.17638254804E+03  0.22496091230E+03  0.00000000000E+00 0. -1.
         -2    1    5    5    0  503 -0.38190844956E+02 -0.49308437673E+01  0.80487900622E+01  0.39340016271E+02  0.00000000000E+00 0.  1.
         -3    1    6    6    0  502  0.77792614476E+02  0.22226493140E+03 -0.27181775356E+03  0.35963631873E+03  0.00000000000E+00 0.  1.
<mgrwt>
<rscale>  0 0.20957633E+04</rscale>
<asrwt>0</asrwt>
<pdfrwt beam="1">  1        1 0.16127503E+00 0.20957633E+04</pdfrwt>
<pdfrwt beam="2">  1       -1 0.16115012E+00 0.20957633E+04</pdfrwt>
<totfact> 0.36583097E+00</totfact>
</mgrwt>
</event>
<event>
12    1  0.1467288E-007  0.1652914E+04  0.7818608E-02  0.8788684E-01
          1   -1    0    0  501    0  0.00000000000E+00  0.00000000000E+00  0.66711903679E+03  0.66711903679E+03  0.00000000000E+00 0. -1.
         -1   -1    0    0    0  501 -0.00000000000E+00 -0.00000000000E+00 -0.10238523206E+04  0.10238523206E+04  0.00000000000E+00 0.  1.
         23    2    1    2    0    0  0.62219854930E+02 -0.56982403049E+03 -0.21974338380E+03  0.62116339558E+03  0.94794900752E+02 0.  0.
        254    2    1    2    0    0 -0.62219854930E+02  0.56982403049E+03 -0.13698990001E+03  0.10698079618E+04  0.89283375070E+03 0.  0.
        -24    2    4    4    0    0  0.15534564377E+03  0.30530530095E+02  0.29243468364E+03  0.34244466243E+03  0.81767477160E+02 0.  0.
         24    2    4    4    0    0 -0.21756549870E+03  0.53929350040E+03 -0.42942458366E+03  0.72736329939E+03  0.80496400309E+02 0.  0.
         13    1    3    3    0    0  0.69999674484E+02 -0.22555844606E+03 -0.10173137653E+03  0.25714945069E+03  0.00000000000E+00 0. -1.
        -13    1    3    3    0    0 -0.77798195534E+01 -0.34426558443E+03 -0.11801200726E+03  0.36401394489E+03  0.00000000000E+00 0.  1.
          4    1    6    6  502    0 -0.16991786629E+02  0.49050417902E+02 -0.12810178474E+02  0.53467419816E+02  0.00000000000E+00 0. -1.
          3    1    5    5  503    0 -0.17068049340E+01  0.82207677736E+01  0.62732408623E+02  0.63291779067E+02  0.00000000000E+00 0. -1.
         -4    1    5    5    0  503  0.15705244870E+03  0.22309762322E+02  0.22970227502E+03  0.27915288336E+03  0.00000000000E+00 0.  1.
         -1    1    6    6    0  502 -0.20057371207E+03  0.49024308249E+03 -0.41661440518E+03  0.67389587958E+03  0.00000000000E+00 0.  1.
<mgrwt>
<rscale>  0 0.16529142E+04</rscale>
<asrwt>0</asrwt>
<pdfrwt beam="1">  1        1 0.10263370E+00 0.16529142E+04</pdfrwt>
<pdfrwt beam="2">  1       -1 0.15751574E+00 0.16529142E+04</pdfrwt>
<totfact> 0.85440867E+00</totfact>
</mgrwt>
</event>
<event>
12    1  0.1467288E-007  0.2025387E+04  0.7818608E-02  0.8594842E-01
          2   -1    0    0  501    0  0.00000000000E+00  0.00000000000E+00  0.79519608808E+03  0.79519608808E+03  0.00000000000E+00 0. -1.
         -2   -1    0    0    0  501 -0.00000000000E+00 -0.00000000000E+00 -0.12896801032E+04  0.12896801032E+04  0.00000000000E+00 0.  1.
         23    2    1    2    0    0 -0.78803850634E+03  0.41726699359E+02 -0.98150388470E+02  0.80049963863E+03  0.91762561967E+02 0.  0.
        254    2    1    2    0    0  0.78803850634E+03 -0.41726699359E+02 -0.39633362669E+03  0.12843765527E+04  0.93262906909E+03 0.  0.
        -24    2    4    4    0    0  0.43412402280E+03  0.21580559991E+03  0.20795754279E+03  0.53369114959E+03  0.80896102658E+02 0.  0.
         24    2    4    4    0    0  0.35391448354E+03 -0.25753229927E+03 -0.60429116947E+03  0.75068540308E+03  0.82355388878E+02 0.  0.
         13    1    3    3    0    0 -0.20239802330E+03 -0.18173375151E+02  0.26869712024E+01  0.20323004505E+03  0.00000000000E+00 0. -1.
        -13    1    3    3    0    0 -0.58564048304E+03  0.59900074511E+02 -0.10083735967E+03  0.59726959358E+03  0.00000000000E+00 0.  1.
          2    1    6    6  502    0  0.25718199692E+03 -0.19870361337E+03 -0.38454509325E+03  0.50348846487E+03  0.00000000000E+00 0. -1.
          1    1    5    5  503    0  0.21152681888E+03  0.12382121111E+03  0.64876901523E+02  0.25354348695E+03  0.00000000000E+00 0. -1.
         -2    1    5    5    0  503  0.22259720392E+03  0.91984388800E+02  0.14308064126E+03  0.28014766264E+03  0.00000000000E+00 0.  1.
         -1    1    6    6    0  502  0.96732486617E+02 -0.58828685898E+02 -0.21974607622E+03  0.24719693822E+03  0.00000000000E+00 0.  1.
<mgrwt>
<rscale>  0 0.20253874E+04</rscale>
<asrwt>0</asrwt>
<pdfrwt beam="1">  1        2 0.12233786E+00 0.20253874E+04</pdfrwt>
<pdfrwt beam="2">  1       -2 0.19841232E+00 0.20253874E+04</pdfrwt>
<totfact> 0.43838493E+00</totfact>
</mgrwt>
</event>
<event>
12    1  0.1467288E-007  0.2152414E+04  0.7818608E-02  0.8538500E-01
         -1   -1    0    0    0  501 -0.00000000000E+00  0.00000000000E+00  0.30016702618E+04  0.30016702618E+04  0.00000000000E+00 0.  1.
          1   -1    0    0  501    0  0.00000000000E+00 -0.00000000000E+00 -0.38585904983E+03  0.38585904983E+03  0.00000000000E+00 0. -1.
         23    2    1    2    0    0  0.40091081118E+03  0.54002155766E+03  0.17587339949E+03  0.70125637451E+03  0.92066763161E+02 0.  0.
        254    2    1    2    0    0 -0.40091081118E+03 -0.54002155766E+03  0.24399378124E+04  0.26862729371E+04  0.90022941670E+03 0.  0.
        -24    2    4    4    0    0 -0.72083026468E+02 -0.67984081134E+03  0.11043178218E+04  0.13013632196E+04  0.81540702515E+02 0.  0.
         24    2    4    4    0    0 -0.32882778472E+03  0.13981925368E+03  0.13356199906E+04  0.13849097175E+04  0.80106370905E+02 0.  0.
         11    1    3    3    0    0  0.36254116166E+03  0.49278440754E+03  0.13100602686E+03  0.62564778053E+03  0.00000000000E+00 0. -1.
        -11    1    3    3    0    0  0.38369649525E+02  0.47237150120E+02  0.44867372634E+02  0.75608593977E+02  0.00000000000E+00 0.  1.
          4    1    6    6  502    0 -0.13688386299E+03  0.10156919796E+03  0.61454112108E+03  0.63774154907E+03  0.00000000000E+00 0. -1.
          3    1    5    5  503    0 -0.71736524303E+02 -0.66546686730E+03  0.10501054040E+04  0.12452765315E+04  0.00000000000E+00 0. -1.
         -4    1    5    5    0  503 -0.34650216513E+00 -0.14373944040E+02  0.54212417874E+02  0.56086688106E+02  0.00000000000E+00 0.  1.
         -3    1    6    6    0  502 -0.19194392173E+03  0.38250055727E+02  0.72107886953E+03  0.74716816844E+03  0.00000000000E+00 0.  1.
<mgrwt>
<rscale>  0 0.21524141E+04</rscale>
<asrwt>0</asrwt>
<pdfrwt beam="1">  1        1 0.59362933E-01 0.21524141E+04</pdfrwt>
<pdfrwt beam="2">  1       -1 0.46179541E+00 0.21524141E+04</pdfrwt>
<totfact> 0.15459985E-01</totfact>
</mgrwt>
</event>
<event>
12    1  0.1467288E-007  0.2314651E+04  0.7818608E-02  0.8472167E-01
          2   -1    0    0  501    0  0.00000000000E+00  0.00000000000E+00  0.16344863839E+04  0.16344863839E+04  0.00000000000E+00 0. -1.
         -2   -1    0    0    0  501 -0.00000000000E+00 -0.00000000000E+00 -0.81946403154E+03  0.81946403154E+03  0.00000000000E+00 0.  1.
         23    2    1    2    0    0  0.43122835284E+03  0.82594530102E+03  0.37108816091E+02  0.93702042050E+03  0.92123133075E+02 0.  0.
        254    2    1    2    0    0 -0.43122835284E+03 -0.82594530102E+03  0.77791353623E+03  0.15169299949E+04  0.90982614110E+03 0.  0.
        -24    2    4    4    0    0 -0.36951397894E+03 -0.59287168331E+03  0.97065661130E+03  0.11985744964E+04  0.79806972100E+02 0.  0.
         24    2    4    4    0    0 -0.61714373892E+02 -0.23307361770E+03 -0.19274307507E+03  0.31835549853E+03  0.77899648522E+02 0.  0.
         13    1    3    3    0    0  0.95293408904E+02  0.27437939235E+03  0.91581300695E+01  0.29060068147E+03  0.00000000000E+00 0. -1.
        -13    1    3    3    0    0  0.33593494393E+03  0.55156590867E+03  0.27950686022E+02  0.64641973903E+03  0.00000000000E+00 0.  1.
          2    1    6    6  502    0 -0.59037395508E+02 -0.19498848096E+03 -0.12064440104E+03  0.23677202808E+03  0.00000000000E+00 0. -1.
          1    1    5    5  503    0 -0.33669755057E+03 -0.52423923031E+03  0.82052316574E+03  0.10302670900E+04  0.00000000000E+00 0. -1.
         -2    1    5    5    0  503 -0.32816428379E+02 -0.68632453006E+02  0.15013344557E+03  0.16830740642E+03  0.00000000000E+00 0.  1.
         -1    1    6    6    0  502 -0.26769783833E+01 -0.38085136740E+02 -0.72098674030E+02  0.81583470449E+02  0.00000000000E+00 0.  1.
<mgrwt>
<rscale>  0 0.23146514E+04</rscale>
<asrwt>0</asrwt>
<pdfrwt beam="1">  1        2 0.25145944E+00 0.23146514E+04</pdfrwt>
<pdfrwt beam="2">  1       -2 0.12607139E+00 0.23146514E+04</pdfrwt>
<totfact> 0.45339842E+00</totfact>
</mgrwt>
</event>
<event>
12    1  0.1467288E-007  0.1181766E+04  0.7818608E-02  0.9128968E-01
         -2   -1    0    0    0  501 -0.00000000000E+00  0.00000000000E+00  0.19511732987E+03  0.19511732987E+03  0.00000000000E+00 0.  1.
          2   -1    0    0  501    0  0.00000000000E+00 -0.00000000000E+00 -0.17894002472E+04  0.17894002472E+04  0.00000000000E+00 0. -1.
         23    2    1    2    0    0  0.14634031627E+03 -0.18517514777E+03 -0.33447131688E+03  0.41750483559E+03  0.82060358340E+02 0.  0.
        254    2    1    2    0    0 -0.14634031627E+03  0.18517514777E+03 -0.12598116004E+04  0.15670127414E+04  0.90149783128E+03 0.  0.
        -24    2    4    4    0    0  0.26840777156E+03 -0.38398826267E+02 -0.78367399809E+02  0.29282934230E+03  0.78040839760E+02 0.  0.
         24    2    4    4    0    0 -0.41474808782E+03  0.22357397403E+03 -0.11814442006E+04  0.12741833991E+04  0.75707577507E+02 0.  0.
         11    1    3    3    0    0 -0.10669132896E+02 -0.11663524295E+02 -0.23586779803E+02  0.28393738345E+02  0.00000000000E+00 0. -1.
        -11    1    3    3    0    0  0.15700944916E+03 -0.17351162347E+03 -0.31088453708E+03  0.38911109725E+03  0.00000000000E+00 0.  1.
          2    1    6    6  502    0 -0.39842600209E+03  0.20230385599E+03 -0.11436441931E+04  0.12278404496E+04  0.00000000000E+00 0. -1.
          3    1    5    5  503    0  0.49327655415E+02 -0.39295230420E+02 -0.17616646353E+02  0.65480370732E+02  0.00000000000E+00 0. -1.
         -4    1    5    5    0  503  0.21908011614E+03  0.89640415323E+00 -0.60750753456E+02  0.22734897157E+03  0.00000000000E+00 0.  1.
         -1    1    6    6    0  502 -0.16322085736E+02  0.21270118044E+02 -0.37800007533E+02  0.46342949559E+02  0.00000000000E+00 0.  1.
<mgrwt>
<rscale>  0 0.11817665E+04</rscale>
<asrwt>0</asrwt>
<pdfrwt beam="1">  1        2 0.27529237E+00 0.11817665E+04</pdfrwt>
<pdfrwt beam="2">  1       -2 0.30018049E-01 0.11817665E+04</pdfrwt>
<totfact> 0.88525892E+01</totfact>
</mgrwt>
</event>
<event>
12    1  0.1467288E-007  0.1429122E+04  0.7818608E-02  0.8933004E-01
          1   -1    0    0  501    0  0.00000000000E+00  0.00000000000E+00  0.86483744214E+03  0.86483744214E+03  0.00000000000E+00 0. -1.
         -1   -1    0    0    0  501 -0.00000000000E+00 -0.00000000000E+00 -0.59039718251E+03  0.59039718251E+03  0.00000000000E+00 0.  1.
         23    2    1    2    0    0 -0.87289762339E+02  0.39018529883E+03 -0.27920522803E+02  0.41074786964E+03  0.89834218343E+02 0.  0.
        254    2    1    2    0    0  0.87289762339E+02 -0.39018529883E+03  0.30236078243E+03  0.10444867550E+04  0.91633316463E+03 0.  0.
        -24    2    4    4    0    0  0.18268620660E+03 -0.65253633400E+03  0.31930286041E+03  0.75370925562E+03  0.83339114952E+02 0.  0.
         24    2    4    4    0    0 -0.95396444256E+02  0.26235103516E+03 -0.16942077979E+02  0.29077749938E+03  0.79598824815E+02 0.  0.
         11    1    3    3    0    0 -0.91037802549E+02  0.30591660455E+03 -0.51168659928E+02  0.32325080385E+03  0.00000000000E+00 0. -1.
        -11    1    3    3    0    0  0.37480402103E+01  0.84268694286E+02  0.23248137125E+02  0.87497065790E+02  0.00000000000E+00 0.  1.
          2    1    6    6  502    0 -0.75641780052E+02  0.23424764366E+03 -0.40025206975E+02  0.24939056646E+03  0.00000000000E+00 0. -1.
          1    1    5    5  503    0  0.14210416194E+03 -0.52155968456E+03  0.29017334320E+03  0.61352967858E+03  0.00000000000E+00 0. -1.
         -2    1    5    5    0  503  0.40582044652E+02 -0.13097664944E+03  0.29129517207E+02  0.14017957704E+03  0.00000000000E+00 0.  1.
         -3    1    6    6    0  502 -0.19754664204E+02  0.28103391509E+02  0.23083128996E+02  0.41386932918E+02  0.00000000000E+00 0.  1.
<mgrwt>
<rscale>  0 0.14291222E+04</rscale>
<asrwt>0</asrwt>
<pdfrwt beam="1">  1        1 0.13305191E+00 0.14291222E+04</pdfrwt>
<pdfrwt beam="2">  1       -1 0.90830335E-01 0.14291222E+04</pdfrwt>
<totfact> 0.22416359E+01</totfact>
</mgrwt>
</event>
<event>
12    1  0.1467288E-007  0.1319984E+04  0.7818608E-02  0.9013866E-01
          2   -1    0    0  501    0  0.00000000000E+00  0.00000000000E+00  0.23996081609E+04  0.23996081609E+04  0.00000000000E+00 0. -1.
         -2   -1    0    0    0  501 -0.00000000000E+00 -0.00000000000E+00 -0.18152529259E+03  0.18152529259E+03  0.00000000000E+00 0.  1.
         23    2    1    2    0    0 -0.63247567455E+00 -0.34393855952E+03  0.57045852654E+03  0.67255666601E+03  0.92819210000E+02 0.  0.
        254    2    1    2    0    0  0.63247567455E+00  0.34393855952E+03  0.16476243418E+04  0.19085767875E+04  0.89983623472E+03 0.  0.
        -24    2    4    4    0    0 -0.23459599109E+03 -0.15546236290E+03  0.10543579898E+04  0.10942353385E+04  0.80475960127E+02 0.  0.
         24    2    4    4    0    0  0.23522846677E+03  0.49940092242E+03  0.59326635199E+03  0.81434144894E+03  0.80332547338E+02 0.  0.
         13    1    3    3    0    0  0.10407817166E+02 -0.32400569833E+03  0.47958129863E+03  0.57886633794E+03  0.00000000000E+00 0. -1.
        -13    1    3    3    0    0 -0.11040292841E+02 -0.19932861191E+02  0.90877227903E+02  0.93690328063E+02  0.00000000000E+00 0.  1.
          2    1    6    6  502    0  0.13103708994E+03  0.18610176367E+03  0.24822154484E+03  0.33677666295E+03  0.00000000000E+00 0. -1.
          1    1    5    5  503    0 -0.44628700771E+02  0.71978964344E+00  0.21535942230E+03  0.21993617211E+03  0.00000000000E+00 0. -1.
         -2    1    5    5    0  503 -0.18996729032E+03 -0.15618215255E+03  0.83899856747E+03  0.87429916641E+03  0.00000000000E+00 0.  1.
         -1    1    6    6    0  502  0.10419137682E+03  0.31329915875E+03  0.34504480715E+03  0.47756478599E+03  0.00000000000E+00 0.  1.
<mgrwt>
<rscale>  0 0.13199842E+04</rscale>
<asrwt>0</asrwt>
<pdfrwt beam="1">  1        2 0.36917046E+00 0.13199842E+04</pdfrwt>
<pdfrwt beam="2">  1       -2 0.27926970E-01 0.13199842E+04</pdfrwt>
<totfact> 0.45767623E+01</totfact>
</mgrwt>
</event>
<event>
12    1  0.1467288E-007  0.1467837E+04  0.7818608E-02  0.8906127E-01
          2   -1    0    0  501    0  0.00000000000E+00  0.00000000000E+00  0.11251995545E+04  0.11251995545E+04  0.00000000000E+00 0. -1.
         -2   -1    0    0    0  501 -0.00000000000E+00 -0.00000000000E+00 -0.47870287059E+03  0.47870287059E+03  0.00000000000E+00 0.  1.
         23    2    1    2    0    0  0.24306189203E+03 -0.10584520305E+02 -0.22079053493E+03  0.34105005327E+03  0.91518102557E+02 0.  0.
        254    2    1    2    0    0 -0.24306189203E+03  0.10584520305E+02  0.86728721880E+03  0.12628523718E+04  0.88510896369E+03 0.  0.
        -24    2    4    4    0    0  0.25453208099E+03  0.11638860410E+03  0.63452828048E+03  0.69767841025E+03  0.76132371407E+02 0.  0.
         24    2    4    4    0    0 -0.49759397302E+03 -0.10580408380E+03  0.23275893832E+03  0.56517396154E+03  0.80315735026E+02 0.  0.
         11    1    3    3    0    0  0.22641432974E+03  0.31457244652E+01 -0.16198624792E+03  0.27841136616E+03  0.00000000000E+00 0.  1.
        -11    1    3    3    0    0  0.16647562286E+02 -0.13730244770E+02 -0.58804287012E+02  0.62638687107E+02  0.00000000000E+00 0. -1.
          4    1    6    6  502    0 -0.48629379749E+03 -0.91721998228E+02  0.21406124736E+03  0.53918160212E+03  0.00000000000E+00 0. -1.
          3    1    5    5  503    0  0.19395169125E+03  0.12066101609E+03  0.47774335832E+03  0.52954230781E+03  0.00000000000E+00 0. -1.
         -4    1    5    5    0  503  0.60580389749E+02 -0.42724119888E+01  0.15678492216E+03  0.16813610244E+03  0.00000000000E+00 0.  1.
         -3    1    6    6    0  502 -0.11300175530E+02 -0.14082085571E+02  0.18697690955E+02  0.25992359418E+02  0.00000000000E+00 0.  1.
<mgrwt>
<rscale>  0 0.14678369E+04</rscale>
<asrwt>0</asrwt>
<pdfrwt beam="1">  1        2 0.17310762E+00 0.14678369E+04</pdfrwt>
<pdfrwt beam="2">  1       -2 0.73646596E-01 0.14678369E+04</pdfrwt>
<totfact> 0.33854600E+01</totfact>
</mgrwt>
</event>
<event>
12    1  0.1467288E-007  0.1460196E+04  0.7818608E-02  0.8911362E-01
          2   -1    0    0  501    0  0.00000000000E+00  0.00000000000E+00  0.35380086258E+04  0.35380086258E+04  0.00000000000E+00 0. -1.
         -2   -1    0    0    0  501 -0.00000000000E+00 -0.00000000000E+00 -0.15066197039E+03  0.15066197039E+03  0.00000000000E+00 0.  1.
         23    2    1    2    0    0 -0.14978160224E+03 -0.41552888958E+03  0.12711309151E+04  0.13490675076E+04  0.95449203076E+02 0.  0.
        254    2    1    2    0    0  0.14978160224E+03  0.41552888958E+03  0.21162157403E+04  0.23396030885E+04  0.89458077668E+03 0.  0.
        -24    2    4    4    0    0 -0.36838632291E+03  0.21243857532E+03  0.10010987736E+04  0.10906897241E+04  0.81035106044E+02 0.  0.
         24    2    4    4    0    0  0.51816792515E+03  0.20309031426E+03  0.11151169667E+04  0.12489133645E+04  0.80963376003E+02 0.  0.
         11    1    3    3    0    0  0.11903509235E+02 -0.21909841240E+02  0.49131328252E+02  0.55096479843E+02  0.00000000000E+00 0.  1.
        -11    1    3    3    0    0 -0.16168511148E+03 -0.39361904834E+03  0.12219995868E+04  0.12939710278E+04  0.00000000000E+00 0. -1.
          4    1    6    6  502    0  0.50911094144E+03  0.20952130560E+03  0.10824553485E+04  0.12144145543E+04  0.00000000000E+00 0. -1.
          3    1    5    5  503    0 -0.31336696317E+03  0.15345988831E+03  0.75544507861E+03  0.83213343745E+03  0.00000000000E+00 0. -1.
         -4    1    5    5    0  503 -0.55019359741E+02  0.58978687009E+02  0.24565369502E+03  0.25855628661E+03  0.00000000000E+00 0.  1.
         -1    1    6    6    0  502  0.90569837072E+01 -0.64309913418E+01  0.32661618115E+02  0.34498810145E+02  0.00000000000E+00 0.  1.
<mgrwt>
<rscale>  0 0.14601964E+04</rscale>
<asrwt>0</asrwt>
<pdfrwt beam="1">  1        2 0.54430896E+00 0.14601964E+04</pdfrwt>
<pdfrwt beam="2">  1       -2 0.23178767E-01 0.14601964E+04</pdfrwt>
<totfact> 0.12378604E+01</totfact>
</mgrwt>
</event>
<event>
12    1  0.1467288E-007  0.2631892E+04  0.7818608E-02  0.8357448E-01
          1   -1    0    0  501    0  0.00000000000E+00  0.00000000000E+00  0.94196309734E+03  0.94196309734E+03  0.00000000000E+00 0. -1.
         -1   -1    0    0    0  501 -0.00000000000E+00 -0.00000000000E+00 -0.18384092850E+04  0.18384092850E+04  0.00000000000E+00 0.  1.
         23    2    1    2    0    0  0.64669745593E+03  0.95578559455E+03 -0.25672081067E+03  0.11853061574E+04  0.85448288188E+02 0.  0.
        254    2    1    2    0    0 -0.64669745593E+03 -0.95578559455E+03 -0.63972537702E+03  0.15950662249E+04  0.89623880841E+03 0.  0.
        -24    2    4    4    0    0 -0.24695644653E+03 -0.86022116366E+01 -0.48712864020E+03  0.55244059820E+03  0.82672957596E+02 0.  0.
         24    2    4    4    0    0 -0.39974100941E+03 -0.94718338291E+03 -0.15259673682E+03  0.10426256267E+04  0.82663159783E+02 0.  0.
         11    1    3    3    0    0  0.17423150783E+03  0.21412308509E+03 -0.33731706667E+02  0.27810635003E+03  0.00000000000E+00 0.  1.
        -11    1    3    3    0    0  0.47246594810E+03  0.74166250946E+03 -0.22298910401E+03  0.90719980740E+03  0.00000000000E+00 0. -1.
          2    1    6    6  502    0 -0.39607296894E+03 -0.94819467957E+03 -0.15210194231E+03  0.10387886926E+04  0.00000000000E+00 0. -1.
          1    1    5    5  503    0 -0.93009154358E+02  0.10088284453E+02 -0.10838159489E+03  0.14317488044E+03  0.00000000000E+00 0. -1.
         -2    1    5    5    0  503 -0.15394729217E+03 -0.18690496090E+02 -0.37874704530E+03  0.40926571776E+03  0.00000000000E+00 0.  1.
         -1    1    6    6    0  502 -0.36680404635E+01  0.10112966537E+01 -0.49479450877E+00  0.38369341107E+01  0.00000000000E+00 0.  1.
<mgrwt>
<rscale>  0 0.26318919E+04</rscale>
<asrwt>0</asrwt>
<pdfrwt beam="1">  1        1 0.14491740E+00 0.26318919E+04</pdfrwt>
<pdfrwt beam="2">  1       -1 0.28283219E+00 0.26318919E+04</pdfrwt>
<totfact> 0.63041088E-01</totfact>
</mgrwt>
</event>
<event>
12    1  0.1467288E-007  0.1754163E+04  0.7818608E-02  0.8731062E-01
         -1   -1    0    0    0  501 -0.00000000000E+00  0.00000000000E+00  0.53958169164E+03  0.53958169164E+03  0.00000000000E+00 0.  1.
          1   -1    0    0  501    0  0.00000000000E+00 -0.00000000000E+00 -0.14256819625E+04  0.14256819625E+04  0.00000000000E+00 0. -1.
         23    2    1    2    0    0 -0.43223742007E+03 -0.16910463792E+03 -0.83178298081E+03  0.95661319512E+03  0.88432528118E+02 0.  0.
        254    2    1    2    0    0  0.43223742007E+03  0.16910463792E+03 -0.54317289996E+02  0.10086504590E+04  0.89386789545E+03 0.  0.
        -24    2    4    4    0    0 -0.26742920075E+03  0.42837137079E+01 -0.59082562803E+02  0.28519832477E+03  0.79439332882E+02 0.  0.
         24    2    4    4    0    0  0.69966662082E+03  0.16482092421E+03  0.47652728065E+01  0.72345213420E+03  0.81614737091E+02 0.  0.
         11    1    3    3    0    0 -0.23759665102E+03 -0.12465171089E+03 -0.41039695306E+03  0.49032221720E+03  0.00000000000E+00 0.  1.
        -11    1    3    3    0    0 -0.19464076905E+03 -0.44452927031E+02 -0.42138602776E+03  0.46629097792E+03  0.00000000000E+00 0. -1.
          2    1    6    6  502    0  0.39792223650E+03  0.65621019021E+02  0.32542725714E+02  0.40460753012E+03  0.00000000000E+00 0. -1.
          3    1    5    5  503    0 -0.27204517757E+03  0.70799314998E+01 -0.61931948911E+02  0.27909545027E+03  0.00000000000E+00 0. -1.
         -4    1    5    5    0  503  0.46159768190E+01 -0.27962177919E+01  0.28493861078E+01  0.61028744969E+01  0.00000000000E+00 0.  1.
         -1    1    6    6    0  502  0.30174438432E+03  0.99199905189E+02 -0.27777452908E+02  0.31884460408E+03  0.00000000000E+00 0.  1.
<mgrwt>
<rscale>  0 0.17541629E+04</rscale>
<asrwt>0</asrwt>
<pdfrwt beam="1">  1        1 0.21933568E+00 0.17541629E+04</pdfrwt>
<pdfrwt beam="2">  1       -1 0.83012571E-01 0.17541629E+04</pdfrwt>
<totfact> 0.10060997E+01</totfact>
</mgrwt>
</event>
<event>
12    1  0.1467288E-007  0.2636810E+04  0.7818608E-02  0.8355804E-01
         -2   -1    0    0    0  501 -0.00000000000E+00  0.00000000000E+00  0.10980843549E+04  0.10980843549E+04  0.00000000000E+00 0.  1.
          2   -1    0    0  501    0  0.00000000000E+00 -0.00000000000E+00 -0.15829310510E+04  0.15829310510E+04  0.00000000000E+00 0. -1.
         23    2    1    2    0    0 -0.72581160669E+03 -0.16277001559E+03 -0.11178696069E+04  0.13457976658E+04  0.90787295077E+02 0.  0.
        254    2    1    2    0    0  0.72581160669E+03  0.16277001559E+03  0.63302291073E+03  0.13352177401E+04  0.91038005331E+03 0.  0.
        -24    2    4    4    0    0  0.63370996744E+03  0.90487758134E+02  0.85546694423E+03  0.10713500502E+04  0.78682146696E+02 0.  0.
         24    2    4    4    0    0  0.92101639256E+02  0.72282257452E+02 -0.22244403350E+03  0.26386768985E+03  0.80233241292E+02 0.  0.
         13    1    3    3    0    0 -0.46474036884E+03 -0.59824326304E+02 -0.71207567479E+03  0.85241675668E+03  0.00000000000E+00 0. -1.
        -13    1    3    3    0    0 -0.26107123786E+03 -0.10294568928E+03 -0.40579393207E+03  0.49338090912E+03  0.00000000000E+00 0.  1.
          2    1    6    6  502    0  0.30807015986E+01  0.13702639675E+02 -0.10235226455E+03  0.10331136973E+03  0.00000000000E+00 0. -1.
          3    1    5    5  503    0  0.36846663084E+03  0.47368172986E+02  0.43145686531E+03  0.56935615257E+03  0.00000000000E+00 0. -1.
         -4    1    5    5    0  503  0.26524333660E+03  0.43119585148E+02  0.42401007892E+03  0.50199389763E+03  0.00000000000E+00 0.  1.
         -1    1    6    6    0  502  0.89020937658E+02  0.58579617777E+02 -0.12009176895E+03  0.16055632012E+03  0.00000000000E+00 0.  1.
<mgrwt>
<rscale>  0 0.26368101E+04</rscale>
<asrwt>0</asrwt>
<pdfrwt beam="1">  1        2 0.24352785E+00 0.26368101E+04</pdfrwt>
<pdfrwt beam="2">  1       -2 0.16893606E+00 0.26368101E+04</pdfrwt>
<totfact> 0.21808934E+00</totfact>
</mgrwt>
</event>
<event>
12    1  0.1467288E-007  0.2270470E+04  0.7818608E-02  0.8489656E-01
          2   -1    0    0  501    0  0.00000000000E+00  0.00000000000E+00  0.29748393386E+04  0.29748393386E+04  0.00000000000E+00 0. -1.
         -2   -1    0    0    0  501 -0.00000000000E+00 -0.00000000000E+00 -0.43321948095E+03  0.43321948095E+03  0.00000000000E+00 0.  1.
         23    2    1    2    0    0  0.70333688596E+03 -0.63504020195E+03  0.88351373232E+03  0.12987647829E+04  0.90744768156E+02 0.  0.
        254    2    1    2    0    0 -0.70333688596E+03  0.63504020195E+03  0.16581061253E+04  0.21092940366E+04  0.89545886381E+03 0.  0.
        -24    2    4    4    0    0  0.22371359443E+02  0.80826892371E+02  0.93381418538E+03  0.94092676602E+03  0.79377464926E+02 0.  0.
         24    2    4    4    0    0 -0.72570824541E+03  0.55421330958E+03  0.72429193995E+03  0.11683672706E+04  0.81721568485E+02 0.  0.
         11    1    3    3    0    0  0.75714916265E+02 -0.70857823184E+02  0.60966857216E+02  0.12029354650E+03  0.00000000000E+00 0.  1.
        -11    1    3    3    0    0  0.62762196970E+03 -0.56418237877E+03  0.82254687510E+03  0.11784712364E+04  0.00000000000E+00 0. -1.
          2    1    6    6  502    0 -0.83964642223E+02  0.52455495466E+02  0.50140440490E+02  0.11097614122E+03  0.00000000000E+00 0. -1.
          1    1    5    5  503    0 -0.27269159830E+02  0.13488755917E+02  0.18959423799E+03  0.19201960497E+03  0.00000000000E+00 0. -1.
         -2    1    5    5    0  503  0.49640519273E+02  0.67338136454E+02  0.74421994739E+03  0.74890716105E+03  0.00000000000E+00 0.  1.
         -1    1    6    6    0  502 -0.64174360318E+03  0.50175781411E+03  0.67415149946E+03  0.10573911294E+04  0.00000000000E+00 0.  1.
<mgrwt>
<rscale>  0 0.22704699E+04</rscale>
<asrwt>0</asrwt>
<pdfrwt beam="1">  1        2 0.45766758E+00 0.22704699E+04</pdfrwt>
<pdfrwt beam="2">  1       -2 0.66649153E-01 0.22704699E+04</pdfrwt>
<totfact> 0.33964232E+00</totfact>
</mgrwt>
</event>
<event>
12    1  0.1467288E-007  0.1179089E+04  0.7818608E-02  0.9131359E-01
         -2   -1    0    0    0  501 -0.00000000000E+00  0.00000000000E+00  0.44067511830E+03  0.44067511830E+03  0.00000000000E+00 0.  1.
          2   -1    0    0  501    0  0.00000000000E+00 -0.00000000000E+00 -0.78870524092E+03  0.78870524092E+03  0.00000000000E+00 0. -1.
         23    2    1    2    0    0 -0.17202498587E+03  0.16397242776E+03 -0.84984110863E+02  0.26895890353E+03  0.92935675904E+02 0.  0.
        254    2    1    2    0    0  0.17202498587E+03 -0.16397242776E+03 -0.26304601176E+03  0.96042145569E+03  0.89260103934E+03 0.  0.
        -24    2    4    4    0    0  0.27314455632E+03  0.23172776146E+03 -0.37952930999E+03  0.52793538359E+03  0.79797042770E+02 0.  0.
         24    2    4    4    0    0 -0.10111957045E+03 -0.39570018922E+03  0.11648329823E+03  0.43248607210E+03  0.81682534955E+02 0.  0.
         11    1    3    3    0    0  0.10263070815E+02  0.19630979758E+02 -0.12354050556E+02  0.25363922290E+02  0.00000000000E+00 0. -1.
        -11    1    3    3    0    0 -0.18228805668E+03  0.14434144801E+03 -0.72630060307E+02  0.24359498124E+03  0.00000000000E+00 0.  1.
          2    1    6    6  502    0 -0.15323138169E+02 -0.21775175429E+03  0.73312614329E+02  0.23027237020E+03  0.00000000000E+00 0. -1.
          3    1    5    5  503    0  0.25045268889E+03  0.23566365155E+03 -0.35348895313E+03  0.49317172062E+03  0.00000000000E+00 0. -1.
         -4    1    5    5    0  503  0.22691867425E+02 -0.39358900919E+01 -0.26040356856E+02  0.34763662972E+02  0.00000000000E+00 0.  1.
         -1    1    6    6    0  502 -0.85796432276E+02 -0.17794843493E+03  0.43170683903E+02  0.20221370190E+03  0.00000000000E+00 0.  1.
<mgrwt>
<rscale>  0 0.11790891E+04</rscale>
<asrwt>0</asrwt>
<pdfrwt beam="1">  1        2 0.12133927E+00 0.11790891E+04</pdfrwt>
<pdfrwt beam="2">  1       -2 0.67796172E-01 0.11790891E+04</pdfrwt>
<totfact> 0.69161465E+01</totfact>
</mgrwt>
</event>
<event>
12    1  0.1467288E-007  0.1592555E+04  0.7818608E-02  0.8825135E-01
         -1   -1    0    0    0  501 -0.00000000000E+00  0.00000000000E+00  0.33890334517E+03  0.33890334517E+03  0.00000000000E+00 0.  1.
          1   -1    0    0  501    0  0.00000000000E+00 -0.00000000000E+00 -0.18709102345E+04  0.18709102345E+04  0.00000000000E+00 0. -1.
         23    2    1    2    0    0 -0.30229588189E+02 -0.69804462050E+02 -0.12349021313E+04  0.12403705753E+04  0.88030673170E+02 0.  0.
        254    2    1    2    0    0  0.30229588189E+02  0.69804462050E+02 -0.29710475803E+03  0.96944300430E+03  0.91965320117E+03 0.  0.
        -24    2    4    4    0    0 -0.54343314848E+02  0.24592907875E+02 -0.61777531049E+03  0.62562216151E+03  0.78732126447E+02 0.  0.
         24    2    4    4    0    0  0.84572903037E+02  0.45211554176E+02  0.32067055246E+03  0.34382084279E+03  0.78654358827E+02 0.  0.
         11    1    3    3    0    0  0.11837609139E+02  0.16408483586E+02 -0.24270698326E+03  0.24354885967E+03  0.00000000000E+00 0.  1.
        -11    1    3    3    0    0 -0.42067197329E+02 -0.86212945636E+02 -0.99219514800E+03  0.99682171566E+03  0.00000000000E+00 0. -1.
          4    1    6    6  502    0  0.28846843760E+02  0.52630203475E+02  0.10498746113E+03  0.12093157448E+03  0.00000000000E+00 0. -1.
          1    1    5    5  503    0 -0.48108075455E+02 -0.21131382278E+02 -0.34177161737E+03  0.34578716095E+03  0.00000000000E+00 0. -1.
         -2    1    5    5    0  503 -0.62352393934E+01  0.45724290152E+02 -0.27600369312E+03  0.27983500056E+03  0.00000000000E+00 0.  1.
         -3    1    6    6    0  502  0.55726059277E+02 -0.74186492992E+01  0.21568309133E+03  0.22288926831E+03  0.00000000000E+00 0.  1.
<mgrwt>
<rscale>  0 0.15925548E+04</rscale>
<asrwt>0</asrwt>
<pdfrwt beam="1">  1        1 0.28783234E+00 0.15925548E+04</pdfrwt>
<pdfrwt beam="2">  1       -1 0.52138977E-01 0.15925548E+04</pdfrwt>
<totfact> 0.12971471E+01</totfact>
</mgrwt>
</event>
<event>
12    1  0.1467288E-007  0.2413124E+04  0.7818608E-02  0.8434606E-01
          2   -1    0    0  501    0  0.00000000000E+00  0.00000000000E+00  0.37593210405E+04  0.37593210405E+04  0.00000000000E+00 0.  1.
         -2   -1    0    0    0  501 -0.00000000000E+00 -0.00000000000E+00 -0.38724873254E+03  0.38724873254E+03  0.00000000000E+00 0. -1.
         23    2    1    2    0    0 -0.12884390527E+03  0.99593284121E+02  0.32201573247E+04  0.32256285694E+04  0.93524852037E+02 0.  0.
        254    2    1    2    0    0  0.12884390527E+03 -0.99593284121E+02  0.15191498324E+03  0.92094120359E+03  0.89360783578E+03 0.  0.
        -24    2    4    4    0    0  0.32274097484E+03 -0.22530251356E+03  0.40428882742E+03  0.56997574567E+03  0.80622175753E+02 0.  0.
         24    2    4    4    0    0 -0.19389706957E+03  0.12570922944E+03 -0.25237384419E+03  0.35096545792E+03  0.78008406398E+02 0.  0.
         13    1    3    3    0    0 -0.95659128401E+02  0.10753159151E+03  0.20864926485E+04  0.20914505216E+04  0.00000000000E+00 0.  1.
        -13    1    3    3    0    0 -0.33184776874E+02 -0.79383073912E+01  0.11336646762E+04  0.11341780478E+04  0.00000000000E+00 0. -1.
          2    1    6    6  502    0  0.37815101797E+01 -0.54305744247E+01 -0.81034284192E+01  0.10462146528E+02  0.00000000000E+00 0. -1.
          1    1    5    5  503    0  0.72761836416E+02 -0.87184530059E+02  0.86793741285E+02  0.14292858583E+03  0.00000000000E+00 0. -1.
         -2    1    5    5    0  503  0.24997913842E+03 -0.13811798350E+03  0.31749508614E+03  0.42704715985E+03  0.00000000000E+00 0.  1.
         -1    1    6    6    0  502 -0.19767857975E+03  0.13113980386E+03 -0.24427041577E+03  0.34050331139E+03  0.00000000000E+00 0.  1.
<mgrwt>
<rscale>  0 0.24131244E+04</rscale>
<asrwt>0</asrwt>
<pdfrwt beam="1">  1        2 0.57835706E+00 0.24131244E+04</pdfrwt>
<pdfrwt beam="2">  1       -2 0.59576731E-01 0.24131244E+04</pdfrwt>
<totfact> 0.12487950E+00</totfact>
</mgrwt>
</event>
<event>
12    1  0.1467288E-007  0.1680374E+04  0.7818608E-02  0.8772637E-01
          2   -1    0    0  501    0  0.00000000000E+00  0.00000000000E+00  0.99078126313E+03  0.99078126313E+03  0.00000000000E+00 0. -1.
         -2   -1    0    0    0  501 -0.00000000000E+00 -0.00000000000E+00 -0.71248263319E+03  0.71248263319E+03  0.00000000000E+00 0.  1.
         23    2    1    2    0    0 -0.13526707706E+03  0.22326592168E+03 -0.43655290605E+03  0.51668670404E+03  0.90784670661E+02 0.  0.
        254    2    1    2    0    0  0.13526707706E+03 -0.22326592168E+03  0.71485153599E+03  0.11865771923E+04  0.91038885145E+03 0.  0.
        -24    2    4    4    0    0 -0.90347353596E+02 -0.19576524831E+03  0.87017846729E+03  0.89999829010E+03  0.79370526635E+02 0.  0.
         24    2    4    4    0    0  0.22561443066E+03 -0.27500673373E+02 -0.15532693130E+03  0.28657890219E+03  0.79642031833E+02 0.  0.
         11    1    3    3    0    0 -0.10876945117E+03  0.17238130935E+03 -0.39920485957E+03  0.44823055365E+03  0.00000000000E+00 0.  1.
        -11    1    3    3    0    0 -0.26497625894E+02  0.50884612331E+02 -0.37348046481E+02  0.68456150388E+02  0.00000000000E+00 0. -1.
          2    1    6    6  502    0  0.17879985703E+03  0.17754515706E+01 -0.14543200209E+03  0.23048429086E+03  0.00000000000E+00 0. -1.
          1    1    5    5  503    0 -0.28967051663E+02 -0.14810753187E+03  0.61527860253E+03  0.63351613224E+03  0.00000000000E+00 0. -1.
         -2    1    5    5    0  503 -0.61380301933E+02 -0.47657716431E+02  0.25489986477E+03  0.26648215786E+03  0.00000000000E+00 0.  1.
         -1    1    6    6    0  502  0.46814573634E+02 -0.29276124944E+02 -0.98949292129E+01  0.56094611332E+02  0.00000000000E+00 0.  1.
<mgrwt>
<rscale>  0 0.16803743E+04</rscale>
<asrwt>0</asrwt>
<pdfrwt beam="1">  1        2 0.15242789E+00 0.16803743E+04</pdfrwt>
<pdfrwt beam="2">  1       -2 0.10961271E+00 0.16803743E+04</pdfrwt>
<totfact> 0.16128407E+01</totfact>
</mgrwt>
</event>
<event>
12    1  0.1467288E-007  0.1658057E+04  0.7818608E-02  0.8785654E-01
          1   -1    0    0  501    0  0.00000000000E+00  0.00000000000E+00  0.14415338171E+04  0.14415338171E+04  0.00000000000E+00 0. -1.
         -1   -1    0    0    0  501 -0.00000000000E+00 -0.00000000000E+00 -0.47677561305E+03  0.47677561305E+03  0.00000000000E+00 0.  1.
         23    2    1    2    0    0 -0.40871732380E+03  0.26448623755E+03  0.57438580895E+02  0.49848524610E+03  0.90473915460E+02 0.  0.
        254    2    1    2    0    0  0.40871732380E+03 -0.26448623755E+03  0.90731962317E+03  0.14198241841E+04  0.97758324168E+03 0.  0.
        -24    2    4    4    0    0  0.55933560336E+03  0.62621475349E+02  0.88238495347E+03  0.10496570129E+04  0.79992951074E+02 0.  0.
         24    2    4    4    0    0 -0.15061827956E+03 -0.32710771290E+03  0.24934669704E+02  0.37016717118E+03  0.81955322507E+02 0.  0.
         11    1    3    3    0    0  0.26336253861E+01  0.84547965940E+00 -0.52105893260E+01  0.58992422948E+01  0.00000000000E+00 0. -1.
        -11    1    3    3    0    0 -0.41135094919E+03  0.26364075789E+03  0.62649170221E+02  0.49258600381E+03  0.00000000000E+00 0.  1.
          4    1    6    6  502    0 -0.66977485875E+02 -0.12639439957E+03  0.49441276514E+02  0.15134717599E+03  0.00000000000E+00 0. -1.
          3    1    5    5  503    0  0.30079432330E+03  0.62643241614E+02  0.42794066078E+03  0.52681553678E+03  0.00000000000E+00 0. -1.
         -4    1    5    5    0  503  0.25854128006E+03 -0.21766264940E-01  0.45444429269E+03  0.52284147610E+03  0.00000000000E+00 0.  1.
         -3    1    6    6    0  502 -0.83640793687E+02 -0.20071331333E+03 -0.24506606809E+02  0.21881999519E+03  0.00000000000E+00 0.  1.
<mgrwt>
<rscale>  0 0.16580569E+04</rscale>
<asrwt>0</asrwt>
<pdfrwt beam="1">  1        1 0.22177443E+00 0.16580569E+04</pdfrwt>
<pdfrwt beam="2">  1       -1 0.73350095E-01 0.16580569E+04</pdfrwt>
<totfact> 0.12849760E+01</totfact>
</mgrwt>
</event>
<event>
12    1  0.1467288E-007  0.1740646E+04  0.7818608E-02  0.8738516E-01
          2   -1    0    0  501    0  0.00000000000E+00  0.00000000000E+00  0.28464060977E+04  0.28464060977E+04  0.00000000000E+00 0. -1.
         -2   -1    0    0    0  501 -0.00000000000E+00 -0.00000000000E+00 -0.26611165091E+03  0.26611165091E+03  0.00000000000E+00 0.  1.
         23    2    1    2    0    0  0.28891746673E+03  0.13020386225E+03 -0.33442366402E+02  0.33168845765E+03  0.92046144628E+02 0.  0.
        254    2    1    2    0    0 -0.28891746673E+03 -0.13020386225E+03  0.26137368132E+04  0.27808292910E+04  0.89496651809E+03 0.  0.
        -24    2    4    4    0    0 -0.30225052510E+03 -0.46857618666E+03  0.12128240437E+04  0.13373331309E+04  0.81232500766E+02 0.  0.
         24    2    4    4    0    0  0.13333058370E+02  0.33837232441E+03  0.14009127695E+04  0.14434961601E+04  0.80317969678E+02 0.  0.
         13    1    3    3    0    0  0.32790389609E+01  0.22344001122E+02 -0.12095778028E+02  0.25618632452E+02  0.00000000000E+00 0. -1.
        -13    1    3    3    0    0  0.28563842777E+03  0.10785986113E+03 -0.21346588375E+02  0.30606982520E+03  0.00000000000E+00 0.  1.
          4    1    6    6  502    0 -0.30634278817E+02  0.75467159038E+02  0.32053873825E+03  0.33072471007E+03  0.00000000000E+00 0. -1.
          1    1    5    5  503    0 -0.17059893542E+03 -0.22613608346E+03  0.69711338725E+03  0.75246833800E+03  0.00000000000E+00 0. -1.
         -2    1    5    5    0  503 -0.13165158968E+03 -0.24244010319E+03  0.51571065649E+03  0.58486479285E+03  0.00000000000E+00 0.  1.
         -3    1    6    6    0  502  0.43967337187E+02  0.26290516537E+03  0.10803740312E+04  0.11127714501E+04  0.00000000000E+00 0.  1.
<mgrwt>
<rscale>  0 0.17406457E+04</rscale>
<asrwt>0</asrwt>
<pdfrwt beam="1">  1        2 0.43790861E+00 0.17406457E+04</pdfrwt>
<pdfrwt beam="2">  1       -2 0.40940256E-01 0.17406457E+04</pdfrwt>
<totfact> 0.11652635E+01</totfact>
</mgrwt>
</event>
<event>
12    1  0.1467288E-007  0.1208173E+04  0.7818608E-02  0.9105733E-01
          1   -1    0    0  501    0  0.00000000000E+00  0.00000000000E+00  0.67504370109E+03  0.67504370109E+03  0.00000000000E+00 0. -1.
         -1   -1    0    0    0  501 -0.00000000000E+00 -0.00000000000E+00 -0.54058760389E+03  0.54058760389E+03  0.00000000000E+00 0.  1.
         23    2    1    2    0    0 -0.25858774571E+03 -0.14189162376E+02  0.36852928266E+02  0.27589382400E+03  0.87694408242E+02 0.  0.
        254    2    1    2    0    0  0.25858774571E+03  0.14189162376E+02  0.97603168938E+02  0.93973748098E+03  0.89805968622E+03 0.  0.
        -24    2    4    4    0    0  0.52671853812E+03  0.19167669612E+03 -0.66016115818E+02  0.57005496344E+03  0.80200745360E+02 0.  0.
         24    2    4    4    0    0 -0.26813079241E+03 -0.17748753374E+03  0.16361928476E+03  0.36968251754E+03  0.80609844065E+02 0.  0.
         13    1    3    3    0    0 -0.21649443884E+03 -0.39082808555E+02  0.10272440222E+02  0.22023358281E+03  0.00000000000E+00 0.  1.
        -13    1    3    3    0    0 -0.42093306877E+02  0.24893646179E+02  0.26580488044E+02  0.55660241183E+02  0.00000000000E+00 0. -1.
          4    1    6    6  502    0 -0.66052967604E+02 -0.17287251791E+02  0.86451916107E+01  0.68822837357E+02  0.00000000000E+00 0. -1.
          3    1    5    5  503    0  0.44816248445E+02  0.13940829846E+01  0.11219787083E+02  0.46220376613E+02  0.00000000000E+00 0. -1.
         -4    1    5    5    0  503  0.48190228968E+03  0.19028261313E+03 -0.77235902901E+02  0.52383458683E+03  0.00000000000E+00 0.  1.
         -3    1    6    6    0  502 -0.20207782481E+03 -0.16020028195E+03  0.15497409314E+03  0.30085968019E+03  0.00000000000E+00 0.  1.
<mgrwt>
<rscale>  0 0.12081726E+04</rscale>
<asrwt>0</asrwt>
<pdfrwt beam="1">  1        1 0.10385288E+00 0.12081726E+04</pdfrwt>
<pdfrwt beam="2">  1       -1 0.83167324E-01 0.12081726E+04</pdfrwt>
<totfact> 0.40883538E+01</totfact>
</mgrwt>
</event>
<event>
12    1  0.1467288E-007  0.1336083E+04  0.7818608E-02  0.9001431E-01
          3   -1    0    0  501    0  0.00000000000E+00  0.00000000000E+00  0.15218572265E+03  0.15218572265E+03  0.00000000000E+00 0. -1.
         -3   -1    0    0    0  501 -0.00000000000E+00 -0.00000000000E+00 -0.29324650163E+04  0.29324650163E+04  0.00000000000E+00 0.  1.
         23    2    1    2    0    0 -0.27584846245E+03  0.17196597660E+03 -0.10951704790E+04  0.11472647389E+04  0.10560933526E+03 0.  0.
        254    2    1    2    0    0  0.27584846245E+03 -0.17196597660E+03 -0.16851088147E+04  0.19373860001E+04  0.89900396257E+03 0.  0.
        -24    2    4    4    0    0 -0.29028860173E+03 -0.43009637799E+02 -0.94861072356E+03  0.99622936330E+03  0.80581252219E+02 0.  0.
         24    2    4    4    0    0  0.56613706418E+03 -0.12895633880E+03 -0.73649809111E+03  0.94115663679E+03  0.78774767595E+02 0.  0.
         13    1    3    3    0    0 -0.98283155893E+02  0.25157538379E+02 -0.21982736391E+03  0.24210855085E+03  0.00000000000E+00 0. -1.
        -13    1    3    3    0    0 -0.17756530655E+03  0.14680843822E+03 -0.87534311510E+03  0.90515618805E+03  0.00000000000E+00 0.  1.
          4    1    6    6  502    0  0.33569296729E+03 -0.43835063161E+02 -0.39054095036E+03  0.51684960574E+03  0.00000000000E+00 0. -1.
          3    1    5    5  503    0  0.48446354460E+01  0.44042406613E+00 -0.30070504996E+02  0.30461446726E+02  0.00000000000E+00 0. -1.
         -4    1    5    5    0  503 -0.29513323718E+03 -0.43450061865E+02 -0.91854021857E+03  0.96576791658E+03  0.00000000000E+00 0.  1.
         -3    1    6    6    0  502  0.23044409688E+03 -0.85121275637E+02 -0.34595714076E+03  0.42430703105E+03  0.00000000000E+00 0.  1.
<mgrwt>
<rscale>  0 0.13360828E+04</rscale>
<asrwt>0</asrwt>
<pdfrwt beam="1">  1        3 0.23413187E-01 0.13360828E+04</pdfrwt>
<pdfrwt beam="2">  1       -3 0.45114848E+00 0.13360828E+04</pdfrwt>
<totfact> 0.24958835E-01</totfact>
</mgrwt>
</event>
<event>
12    1  0.1605510E-007  0.2998148E+04  0.7818608E-02  0.8244260E-01
          2   -1    0    0  501    0  0.00000000000E+00  0.00000000000E+00  0.30372794822E+04  0.30372794822E+04  0.00000000000E+00 0. -1.
         -2   -1    0    0    0  501 -0.00000000000E+00 -0.00000000000E+00 -0.73988025507E+03  0.73988025507E+03  0.00000000000E+00 0.  1.
         23    2    1    2    0    0  0.48304974474E+03 -0.58479634133E+03  0.24713540106E+04  0.25866580980E+04  0.88801201757E+02 0.  0.
        254    2    1    2    0    0 -0.48304974474E+03  0.58479634133E+03 -0.17395478345E+03  0.11905016393E+04  0.90094953787E+03 0.  0.
        -24    2    4    4    0    0 -0.64056615570E+03  0.25725872756E+03 -0.35206600359E+03  0.77907930926E+03  0.80666266149E+02 0.  0.
         24    2    4    4    0    0  0.15751641096E+03  0.32753761377E+03  0.17811122013E+03  0.41142233005E+03  0.73840495514E+02 0.  0.
         11    1    3    3    0    0  0.45877626281E+03 -0.53880945806E+03  0.22230901440E+04  0.23330068752E+04  0.00000000000E+00 0. -1.
        -11    1    3    3    0    0  0.24273481932E+02 -0.45986883271E+02  0.24826386657E+03  0.25365122275E+03  0.00000000000E+00 0.  1.
          2    1    6    6  502    0  0.14252551614E+03  0.29102582855E+03  0.12990725441E+03  0.34912096812E+03  0.00000000000E+00 0. -1.
          3    1    5    5  503    0 -0.61949010272E+03  0.26085935607E+03 -0.33173844796E+03  0.74957720675E+03  0.00000000000E+00 0. -1.
         -4    1    5    5    0  503 -0.21076052981E+02 -0.36006285072E+01 -0.20327555624E+02  0.29502102511E+02  0.00000000000E+00 0.  1.
         -1    1    6    6    0  502  0.14990894814E+02  0.36511785217E+02  0.48203965725E+02  0.62301361932E+02  0.00000000000E+00 0.  1.
<mgrwt>
<rscale>  0 0.29981482E+04</rscale>
<asrwt>0</asrwt>
<pdfrwt beam="1">  1        2 0.46727376E+00 0.29981482E+04</pdfrwt>
<pdfrwt beam="2">  1       -2 0.11382773E+00 0.29981482E+04</pdfrwt>
<totfact> 0.85329761E-01</totfact>
</mgrwt>
</event>
<event>
12    1  0.1467288E-007  0.3158158E+04  0.7818608E-02  0.8199956E-01
         -1   -1    0    0    0  501 -0.00000000000E+00  0.00000000000E+00  0.52859343582E+03  0.52859343582E+03  0.00000000000E+00 0.  1.
          1   -1    0    0  501    0  0.00000000000E+00 -0.00000000000E+00 -0.47172179146E+04  0.47172179146E+04  0.00000000000E+00 0. -1.
         23    2    1    2    0    0  0.14199009715E+03  0.20390501796E+03  0.44556380441E+03  0.51829719888E+03  0.91468237836E+02 0.  0.
        254    2    1    2    0    0 -0.14199009715E+03 -0.20390501796E+03 -0.46341882832E+04  0.47275141516E+04  0.90108299559E+03 0.  0.
        -24    2    4    4    0    0 -0.47087786317E+03 -0.29505029480E+03 -0.33318174083E+04  0.33788122022E+04  0.81141958258E+02 0.  0.
         24    2    4    4    0    0  0.32888776602E+03  0.91145276846E+02 -0.13023708750E+04  0.13487019494E+04  0.79702121159E+02 0.  0.
         13    1    3    3    0    0  0.12928765549E+03  0.11277436362E+03  0.31291914230E+03  0.35686376191E+03  0.00000000000E+00 0.  1.
        -13    1    3    3    0    0  0.12702441660E+02  0.91130654339E+02  0.13264466211E+03  0.16143343697E+03  0.00000000000E+00 0. -1.
          2    1    6    6  502    0  0.22133868978E+03  0.63507358223E+02 -0.10109132528E+04  0.10368074097E+04  0.00000000000E+00 0. -1.
          1    1    5    5  503    0 -0.43555045861E+03 -0.29317707549E+03 -0.30621776473E+04  0.31068615906E+04  0.00000000000E+00 0. -1.
         -2    1    5    5    0  503 -0.35327404566E+02 -0.18732193138E+01 -0.26963976092E+03  0.27195061156E+03  0.00000000000E+00 0.  1.
         -1    1    6    6    0  502  0.10754907624E+03  0.27637918623E+02 -0.29145762220E+03  0.31189453969E+03  0.00000000000E+00 0.  1.
<mgrwt>
<rscale>  0 0.31581580E+04</rscale>
<asrwt>0</asrwt>
<pdfrwt beam="1">  1        1 0.72572586E+00 0.31581580E+04</pdfrwt>
<pdfrwt beam="2">  1       -1 0.81322064E-01 0.31581580E+04</pdfrwt>
<totfact> 0.23783840E-02</totfact>
</mgrwt>
</event>
<event>
12    1  0.1467288E-007  0.1702932E+04  0.7818608E-02  0.8759694E-01
         -2   -1    0    0    0  501 -0.00000000000E+00  0.00000000000E+00  0.18829405811E+04  0.18829405811E+04  0.00000000000E+00 0.  1.
          2   -1    0    0  501    0  0.00000000000E+00 -0.00000000000E+00 -0.38503295943E+03  0.38503295943E+03  0.00000000000E+00 0. -1.
         23    2    1    2    0    0  0.58676746955E+03  0.15493433144E+03  0.58474453198E+03  0.84770256490E+03  0.91502789396E+02 0.  0.
        254    2    1    2    0    0 -0.58676746955E+03 -0.15493433144E+03  0.91316308969E+03  0.14202709756E+04  0.90277467036E+03 0.  0.
        -24    2    4    4    0    0  0.45367332478E+02  0.28972810535E+03  0.33182932086E+03  0.44996461167E+03  0.79730067624E+02 0.  0.
         24    2    4    4    0    0 -0.63213480203E+03 -0.44466243679E+03  0.58133376883E+03  0.97030636396E+03  0.78907531484E+02 0.  0.
         11    1    3    3    0    0  0.16524955213E+03  0.59479282652E+02  0.11798612212E+03  0.21157959391E+03  0.00000000000E+00 0.  1.
        -11    1    3    3    0    0  0.42151791742E+03  0.95455048785E+02  0.46675840986E+03  0.63612297099E+03  0.00000000000E+00 0. -1.
          2    1    6    6  502    0 -0.19866229267E+03 -0.10778957800E+03  0.20079355794E+03  0.30232987376E+03  0.00000000000E+00 0. -1.
          1    1    5    5  503    0 -0.55918386841E+01  0.33816625820E+02  0.10122978343E+02  0.35739439451E+02  0.00000000000E+00 0. -1.
         -2    1    5    5    0  503  0.50959171162E+02  0.25591147953E+03  0.32170634252E+03  0.41422517222E+03  0.00000000000E+00 0.  1.
         -1    1    6    6    0  502 -0.43347250936E+03 -0.33687285879E+03  0.38054021089E+03  0.66797649020E+03  0.00000000000E+00 0.  1.
<mgrwt>
<rscale>  0 0.17029318E+04</rscale>
<asrwt>0</asrwt>
<pdfrwt beam="1">  1        2 0.59235841E-01 0.17029318E+04</pdfrwt>
<pdfrwt beam="2">  1       -2 0.28968316E+00 0.17029318E+04</pdfrwt>
<totfact> 0.29076160E+00</totfact>
</mgrwt>
</event>
<event>
12    1  0.1467288E-007  0.1867881E+04  0.7818608E-02  0.8671011E-01
         -1   -1    0    0    0  501 -0.00000000000E+00  0.00000000000E+00  0.64378733836E+03  0.64378733836E+03  0.00000000000E+00 0.  1.
          1   -1    0    0  501    0  0.00000000000E+00 -0.00000000000E+00 -0.13548644354E+04  0.13548644354E+04  0.00000000000E+00 0. -1.
         23    2    1    2    0    0  0.35483116567E+03 -0.22635161698E+03  0.34372959482E+03  0.55118938075E+03  0.92301075101E+02 0.  0.
        254    2    1    2    0    0 -0.35483116567E+03  0.22635161698E+03 -0.10548066919E+04  0.14474623930E+04  0.89743524075E+03 0.  0.
        -24    2    4    4    0    0 -0.60894369991E+02  0.54318518521E+03 -0.59525082298E+03  0.81145332562E+03  0.73312261485E+02 0.  0.
         24    2    4    4    0    0 -0.29393679568E+03 -0.31683356823E+03 -0.45955586888E+03  0.63600906738E+03  0.80830609065E+02 0.  0.
         13    1    3    3    0    0  0.14201943206E+03 -0.62540749857E+02  0.79171917784E+02  0.17420980753E+03  0.00000000000E+00 0. -1.
        -13    1    3    3    0    0  0.21281173361E+03 -0.16381086712E+03  0.26455767703E+03  0.37697957322E+03  0.00000000000E+00 0.  1.
          4    1    6    6  502    0 -0.25209932233E+03 -0.25326474816E+03 -0.41567523491E+03  0.54816329857E+03  0.00000000000E+00 0. -1.
          3    1    5    5  503    0  0.55759409389E+01  0.11624492530E+03 -0.93409534362E+02  0.14922906850E+03  0.00000000000E+00 0. -1.
         -4    1    5    5    0  503 -0.66470310930E+02  0.42694025991E+03 -0.50184128862E+03  0.66222425713E+03  0.00000000000E+00 0.  1.
         -3    1    6    6    0  502 -0.41837473343E+02 -0.63568820070E+02 -0.43880633969E+02  0.87845768813E+02  0.00000000000E+00 0.  1.
<mgrwt>
<rscale>  0 0.18678807E+04</rscale>
<asrwt>0</asrwt>
<pdfrwt beam="1">  1        1 0.20844068E+00 0.18678807E+04</pdfrwt>
<pdfrwt beam="2">  1       -1 0.99044205E-01 0.18678807E+04</pdfrwt>
<totfact> 0.75570618E+00</totfact>
</mgrwt>
</event>
<event>
12    1  0.1467288E-007  0.1842516E+04  0.7818608E-02  0.8684011E-01
          1   -1    0    0  501    0  0.00000000000E+00  0.00000000000E+00  0.37132161125E+04  0.37132161125E+04  0.00000000000E+00 0. -1.
         -1   -1    0    0    0  501 -0.00000000000E+00 -0.00000000000E+00 -0.22856639694E+03  0.22856639694E+03  0.00000000000E+00 0.  1.
         23    2    1    2    0    0  0.23951058014E+02 -0.92960837323E+02 -0.14687182918E+03  0.19883291024E+03  0.93529789549E+02 0.  0.
        254    2    1    2    0    0 -0.23951058014E+02  0.92960837323E+02  0.36315215447E+04  0.37429495992E+04  0.90139203552E+03 0.  0.
        -24    2    4    4    0    0 -0.30487335194E+03 -0.12865535371E+03  0.60414712303E+03  0.69346542766E+03  0.80003702017E+02 0.  0.
         24    2    4    4    0    0  0.28092229393E+03  0.22161619103E+03  0.30273744217E+04  0.30494841715E+04  0.79540881306E+02 0.  0.
         11    1    3    3    0    0 -0.20551887786E+02 -0.21871035307E+02 -0.36079410388E+00  0.30014204126E+02  0.00000000000E+00 0. -1.
        -11    1    3    3    0    0  0.44502945799E+02 -0.71089802016E+02 -0.14651103508E+03  0.16881870612E+03  0.00000000000E+00 0.  1.
          2    1    6    6  502    0  0.12615576471E+02  0.22347742798E+02  0.41910351942E+03  0.41988847849E+03  0.00000000000E+00 0. -1.
          1    1    5    5  503    0 -0.16350407690E+03 -0.55452913242E+02  0.23636206727E+03  0.29270400679E+03  0.00000000000E+00 0. -1.
         -2    1    5    5    0  503 -0.14136927505E+03 -0.73202440468E+02  0.36778505576E+03  0.40076142087E+03  0.00000000000E+00 0.  1.
         -1    1    6    6    0  502  0.26830671746E+03  0.19926844824E+03  0.26082709023E+04  0.26295956930E+04  0.00000000000E+00 0.  1.
<mgrwt>
<rscale>  0 0.18425161E+04</rscale>
<asrwt>0</asrwt>
<pdfrwt beam="1">  1        1 0.57126397E+00 0.18425161E+04</pdfrwt>
<pdfrwt beam="2">  1       -1 0.35164064E-01 0.18425161E+04</pdfrwt>
<totfact> 0.12269372E+00</totfact>
</mgrwt>
</event>
<event>
12    1  0.1467288E-007  0.3672193E+04  0.7818608E-02  0.8074152E-01
         -2   -1    0    0    0  501 -0.00000000000E+00  0.00000000000E+00  0.12320596941E+04  0.12320596941E+04  0.00000000000E+00 0. -1.
          2   -1    0    0  501    0  0.00000000000E+00 -0.00000000000E+00 -0.27362714151E+04  0.27362714151E+04  0.00000000000E+00 0.  1.
         23    2    1    2    0    0  0.71930216530E+03  0.98587711285E+03  0.60506537078E+03  0.13651868953E+04  0.91004776782E+02 0.  0.
        254    2    1    2    0    0 -0.71930216530E+03 -0.98587711285E+03 -0.21092770918E+04  0.26031442140E+04  0.91540191272E+03 0.  0.
        -24    2    4    4    0    0 -0.84240038399E+03 -0.75391761303E+03 -0.20175574740E+04  0.23139397741E+04  0.75821785021E+02 0.  0.
         24    2    4    4    0    0  0.12309821870E+03 -0.23195949983E+03 -0.91719617856E+02  0.28920443986E+03  0.79172840865E+02 0.  0.
         11    1    3    3    0    0  0.41411833506E+03  0.51529852953E+03  0.36437658894E+03  0.75484890444E+03  0.00000000000E+00 0. -1.
        -11    1    3    3    0    0  0.30518383024E+03  0.47057858333E+03  0.24068878184E+03  0.61033799081E+03  0.00000000000E+00 0.  1.
          4    1    6    6  502    0  0.48335894193E+02 -0.13844549037E+03 -0.84537434695E+02  0.16926337565E+03  0.00000000000E+00 0. -1.
          3    1    5    5  503    0 -0.63186138731E+03 -0.52694911067E+03 -0.15017219262E+04  0.17123355167E+04  0.00000000000E+00 0. -1.
         -4    1    5    5    0  503 -0.21053899669E+03 -0.22696850236E+03 -0.51583554777E+03  0.60160425741E+03  0.00000000000E+00 0.  1.
         -3    1    6    6    0  502  0.74762324503E+02 -0.93514009453E+02 -0.71821831613E+01  0.11994106421E+03  0.00000000000E+00 0.  1.
<mgrwt>
<rscale>  0 0.36721927E+04</rscale>
<asrwt>0</asrwt>
<pdfrwt beam="1">  1        2 0.42096483E+00 0.36721927E+04</pdfrwt>
<pdfrwt beam="2">  1       -2 0.18954765E+00 0.36721927E+04</pdfrwt>
<totfact> 0.31939201E-01</totfact>
</mgrwt>
</event>
<event>
12    1  0.1467288E-007  0.2039222E+04  0.7818608E-02  0.8588500E-01
         -1   -1    0    0    0  501 -0.00000000000E+00  0.00000000000E+00  0.75548130623E+03  0.75548130623E+03  0.00000000000E+00 0.  1.
          1   -1    0    0  501    0  0.00000000000E+00 -0.00000000000E+00 -0.13760848792E+04  0.13760848792E+04  0.00000000000E+00 0. -1.
         23    2    1    2    0    0  0.70002913514E+03  0.25614427959E+03 -0.59598228163E+03  0.95871733162E+03  0.91067886329E+02 0.  0.
        254    2    1    2    0    0 -0.70002913514E+03 -0.25614427959E+03 -0.24621291334E+02  0.11728488538E+04  0.90516161203E+03 0.  0.
        -24    2    4    4    0    0  0.88925446650E+02  0.21283319281E+03  0.48264180158E+02  0.24872252728E+03  0.79547227890E+02 0.  0.
         24    2    4    4    0    0 -0.78895458179E+03 -0.46897747241E+03 -0.72885471492E+02  0.92412632653E+03  0.79422752956E+02 0.  0.
         11    1    3    3    0    0  0.36998345570E+03  0.10825764417E+03 -0.35555124575E+03  0.52442746245E+03  0.00000000000E+00 0. -1.
        -11    1    3    3    0    0  0.33004567944E+03  0.14788663542E+03 -0.24043103587E+03  0.43428986917E+03  0.00000000000E+00 0.  1.
          4    1    6    6  502    0 -0.74440692443E+03 -0.46111265033E+03 -0.63695127344E+02  0.87796561133E+03  0.00000000000E+00 0. -1.
          1    1    5    5  503    0  0.57117705593E+02  0.20092031007E+03  0.32949472089E+02  0.21146411280E+03  0.00000000000E+00 0. -1.
         -4    1    5    5    0  503  0.31807741057E+02  0.11912882744E+02  0.15314708068E+02  0.37258414481E+02  0.00000000000E+00 0.  1.
         -3    1    6    6    0  502 -0.44547657360E+02 -0.78648220795E+01 -0.91903441479E+01  0.46160715205E+02  0.00000000000E+00 0.  1.
<mgrwt>
<rscale>  0 0.20392218E+04</rscale>
<asrwt>0</asrwt>
<pdfrwt beam="1">  1        1 0.21170536E+00 0.20392218E+04</pdfrwt>
<pdfrwt beam="2">  1       -1 0.11622789E+00 0.20392218E+04</pdfrwt>
<totfact> 0.49405919E+00</totfact>
</mgrwt>
</event>
<event>
12    1  0.1467288E-007  0.3881786E+04  0.7818608E-02  0.8028828E-01
          1   -1    0    0  501    0  0.00000000000E+00  0.00000000000E+00  0.45833055018E+04  0.45833055018E+04  0.00000000000E+00 0. -1.
         -1   -1    0    0    0  501 -0.00000000000E+00 -0.00000000000E+00 -0.82191027048E+03  0.82191027048E+03  0.00000000000E+00 0.  1.
         23    2    1    2    0    0  0.15744453419E+04 -0.75794283121E+03  0.25414656298E+04  0.30855535172E+04  0.90760619023E+02 0.  0.
        254    2    1    2    0    0 -0.15744453419E+04  0.75794283121E+03  0.12199296015E+04  0.23196622551E+04  0.91610549326E+03 0.  0.
        -24    2    4    4    0    0 -0.99377121533E+03  0.95149866388E+01  0.80828725233E+03  0.12836747551E+04  0.82588323582E+02 0.  0.
         24    2    4    4    0    0 -0.58067412661E+03  0.74842784457E+03  0.41164234916E+03  0.10359875000E+04  0.80585337458E+02 0.  0.
         13    1    3    3    0    0  0.60557245578E+03 -0.29231303180E+03  0.10566674198E+04  0.12524819136E+04  0.00000000000E+00 0.  1.
        -13    1    3    3    0    0  0.96887288616E+03 -0.46562979940E+03  0.14847982100E+04  0.18330716036E+04  0.00000000000E+00 0. -1.
          4    1    6    6  502    0 -0.81755336121E+02  0.10419286707E+03  0.89177384777E+02  0.15966431814E+03  0.00000000000E+00 0. -1.
          1    1    5    5  503    0 -0.45958433236E+03  0.34419031502E+02  0.33795570192E+03  0.57150370492E+03  0.00000000000E+00 0. -1.
         -2    1    5    5    0  503 -0.53418688297E+03 -0.24904044863E+02  0.47033155042E+03  0.71217105018E+03  0.00000000000E+00 0.  1.
         -1    1    6    6    0  502 -0.49891879049E+03  0.64423497750E+03  0.32246496438E+03  0.87632318182E+03  0.00000000000E+00 0.  1.
<mgrwt>
<rscale>  0 0.38817861E+04</rscale>
<asrwt>0</asrwt>
<pdfrwt beam="1">  1        1 0.70512391E+00 0.38817861E+04</pdfrwt>
<pdfrwt beam="2">  1       -1 0.12644774E+00 0.38817861E+04</pdfrwt>
<totfact> 0.11262614E-02</totfact>
</mgrwt>
</event>
<event>
12    1  0.1467288E-007  0.1368804E+04  0.7818608E-02  0.8976714E-01
          1   -1    0    0  501    0  0.00000000000E+00  0.00000000000E+00  0.17811844247E+04  0.17811844247E+04  0.00000000000E+00 0. -1.
         -1   -1    0    0    0  501 -0.00000000000E+00 -0.00000000000E+00 -0.26297469893E+03  0.26297469893E+03  0.00000000000E+00 0.  1.
         23    2    1    2    0    0  0.17724893312E+03 -0.59928850973E+02  0.91919336791E+03  0.94136786309E+03  0.79046534262E+02 0.  0.
        254    2    1    2    0    0 -0.17724893312E+03  0.59928850973E+02  0.59901635786E+03  0.11027912605E+04  0.90681823749E+03 0.  0.
        -24    2    4    4    0    0  0.82539771399E+02 -0.34977742412E+03  0.58903078964E+02  0.37260354011E+03  0.78783025467E+02 0.  0.
         24    2    4    4    0    0 -0.25978870452E+03  0.40970627509E+03  0.54011327890E+03  0.73018772043E+03  0.78117540785E+02 0.  0.
         11    1    3    3    0    0  0.99685386852E+02 -0.68988213049E+02  0.64391091688E+03  0.65522348765E+03  0.00000000000E+00 0. -1.
        -11    1    3    3    0    0  0.77563546266E+02  0.90593620768E+01  0.27528245102E+03  0.28614437543E+03  0.00000000000E+00 0.  1.
          4    1    6    6  502    0 -0.22388775077E+03  0.39119743345E+03  0.50189444311E+03  0.67458075047E+03  0.00000000000E+00 0. -1.
          1    1    5    5  503    0  0.25314924279E+02 -0.26138395301E+03  0.40724918934E+02  0.26574599772E+03  0.00000000000E+00 0. -1.
         -2    1    5    5    0  503  0.57224847120E+02 -0.88393471112E+02  0.18178160031E+02  0.10685754239E+03  0.00000000000E+00 0.  1.
         -3    1    6    6    0  502 -0.35900953747E+02  0.18508841646E+02  0.38218835790E+02  0.55606969960E+02  0.00000000000E+00 0.  1.
<mgrwt>
<rscale>  0 0.13688045E+04</rscale>
<asrwt>0</asrwt>
<pdfrwt beam="1">  1        1 0.27402837E+00 0.13688045E+04</pdfrwt>
<pdfrwt beam="2">  1       -1 0.40457647E-01 0.13688045E+04</pdfrwt>
<totfact> 0.24471662E+01</totfact>
</mgrwt>
</event>
<event>
12    1  0.1467288E-007  0.1220446E+04  0.7818608E-02  0.9095146E-01
          2   -1    0    0  501    0  0.00000000000E+00  0.00000000000E+00  0.54407368069E+03  0.54407368069E+03  0.00000000000E+00 0. -1.
         -2   -1    0    0    0  501 -0.00000000000E+00 -0.00000000000E+00 -0.68441442444E+03  0.68441442444E+03  0.00000000000E+00 0.  1.
         23    2    1    2    0    0 -0.42431384497E+02  0.48708504423E+02  0.22205813280E+03  0.24819390037E+03  0.90096931368E+02 0.  0.
        254    2    1    2    0    0  0.42431384497E+02 -0.48708504423E+02 -0.36239887655E+03  0.98029420476E+03  0.90855425890E+03 0.  0.
        -24    2    4    4    0    0  0.19621129535E+03  0.27318024104E+03  0.12798550437E+03  0.36842203286E+03  0.78918872611E+02 0.  0.
         24    2    4    4    0    0 -0.15377991086E+03 -0.32188874546E+03 -0.49038438092E+03  0.61187217189E+03  0.81548073275E+02 0.  0.
         11    1    3    3    0    0 -0.34372592424E+02  0.71381035952E+02  0.20160603651E+03  0.21661422243E+03  0.00000000000E+00 0. -1.
        -11    1    3    3    0    0 -0.80587920734E+01 -0.22672531529E+02  0.20452096295E+02  0.31579677935E+02  0.00000000000E+00 0.  1.
          4    1    6    6  502    0 -0.75362903522E+01 -0.11603324512E+02 -0.59680647284E+02  0.61263467681E+02  0.00000000000E+00 0. -1.
          1    1    5    5  503    0  0.45776039303E+02  0.98790351796E+02  0.74660273834E+02  0.13201945262E+03  0.00000000000E+00 0. -1.
         -2    1    5    5    0  503  0.15043525605E+03  0.17438988924E+03  0.53325230531E+02  0.23640258024E+03  0.00000000000E+00 0.  1.
         -3    1    6    6    0  502 -0.14624362050E+03 -0.31028542095E+03 -0.43070373363E+03  0.55060870421E+03  0.00000000000E+00 0.  1.
<mgrwt>
<rscale>  0 0.12204456E+04</rscale>
<asrwt>0</asrwt>
<pdfrwt beam="1">  1        2 0.83703643E-01 0.12204456E+04</pdfrwt>
<pdfrwt beam="2">  1       -2 0.10529453E+00 0.12204456E+04</pdfrwt>
<totfact> 0.40127256E+01</totfact>
</mgrwt>
</event>
<event>
12    1  0.1467288E-007  0.1851034E+04  0.7818608E-02  0.8679621E-01
          2   -1    0    0  501    0  0.00000000000E+00  0.00000000000E+00  0.48371512501E+04  0.48371512501E+04  0.00000000000E+00 0. -1.
         -2   -1    0    0    0  501 -0.00000000000E+00 -0.00000000000E+00 -0.17708389503E+03  0.17708389503E+03  0.00000000000E+00 0.  1.
         23    2    1    2    0    0 -0.22283393883E+03  0.61832301334E+03  0.11184178770E+04  0.13005250493E+04  0.92350111330E+02 0.  0.
        254    2    1    2    0    0  0.22283393883E+03 -0.61832301334E+03  0.35416494781E+04  0.37137100958E+04  0.90353933919E+03 0.  0.
        -24    2    4    4    0    0  0.59799510023E+02 -0.24317518059E+02 -0.14250114698E+02  0.10394116540E+03  0.80208335057E+02 0.  0.
         24    2    4    4    0    0  0.16303442880E+03 -0.59400549529E+03  0.35558995927E+04  0.36097689304E+04  0.81160729813E+02 0.  0.
         13    1    3    3    0    0 -0.18452654421E+03  0.58028009648E+03  0.10437676796E+04  0.12083981152E+04  0.00000000000E+00 0.  1.
        -13    1    3    3    0    0 -0.38307394617E+02  0.38042916865E+02  0.74650197412E+02  0.92126934062E+02  0.00000000000E+00 0. -1.
          2    1    6    6  502    0  0.71251004218E+02 -0.15672602863E+03  0.85496450209E+03  0.87212616833E+03  0.00000000000E+00 0. -1.
          1    1    5    5  503    0 -0.53021247377E+00 -0.36801091456E+02 -0.20308691273E+02  0.42036227219E+02  0.00000000000E+00 0. -1.
         -2    1    5    5    0  503  0.60329722497E+02  0.12483573397E+02  0.60585765748E+01  0.61904938183E+02  0.00000000000E+00 0.  1.
         -1    1    6    6    0  502  0.91783424585E+02 -0.43727946665E+03  0.27009350907E+04  0.27376427621E+04  0.00000000000E+00 0.  1.
<mgrwt>
<rscale>  0 0.18510339E+04</rscale>
<asrwt>0</asrwt>
<pdfrwt beam="1">  1        2 0.74417702E+00 0.18510339E+04</pdfrwt>
<pdfrwt beam="2">  1       -2 0.27243680E-01 0.18510339E+04</pdfrwt>
<totfact> 0.63967237E-01</totfact>
</mgrwt>
</event>
<event>
12    1  0.1467288E-007  0.2003549E+04  0.7818608E-02  0.8604963E-01
          2   -1    0    0  501    0  0.00000000000E+00  0.00000000000E+00  0.13248225687E+04  0.13248225687E+04  0.00000000000E+00 0. -1.
         -2   -1    0    0    0  501 -0.00000000000E+00 -0.00000000000E+00 -0.75749908419E+03  0.75749908419E+03  0.00000000000E+00 0.  1.
         23    2    1    2    0    0 -0.45324003582E+03  0.54884289054E+03 -0.14619796479E+03  0.73006079787E+03  0.70426380720E+02 0.  0.
        254    2    1    2    0    0  0.45324003582E+03 -0.54884289054E+03  0.71352144933E+03  0.13522608550E+04  0.90157723622E+03 0.  0.
        -24    2    4    4    0    0  0.67695583287E+03 -0.17308174188E+03  0.41855915028E+03  0.81852186051E+03  0.80992498600E+02 0.  0.
         24    2    4    4    0    0 -0.22371579704E+03 -0.37576114866E+03  0.29496229905E+03  0.53373899453E+03  0.81420867954E+02 0.  0.
         13    1    3    3    0    0  0.24581137940E+01  0.60651187051E+01 -0.83097095654E+00  0.65968553919E+01  0.00000000000E+00 0. -1.
        -13    1    3    3    0    0 -0.45569814962E+03  0.54277777184E+03 -0.14536699383E+03  0.72346394248E+03  0.00000000000E+00 0.  1.
          2    1    6    6  502    0 -0.15775461486E+03 -0.25793164938E+03  0.24707692948E+03  0.39046416396E+03  0.00000000000E+00 0. -1.
          1    1    5    5  503    0  0.60035682027E+03 -0.12580814516E+03  0.36450749203E+03  0.71352765383E+03  0.00000000000E+00 0. -1.
         -2    1    5    5    0  503  0.76599012596E+02 -0.47273596717E+02  0.54051658252E+02  0.10499420668E+03  0.00000000000E+00 0.  1.
         -3    1    6    6    0  502 -0.65961182182E+02 -0.11782949928E+03  0.47885369569E+02  0.14327483057E+03  0.00000000000E+00 0.  1.
<mgrwt>
<rscale>  0 0.20035487E+04</rscale>
<asrwt>0</asrwt>
<pdfrwt beam="1">  1        2 0.20381886E+00 0.20035487E+04</pdfrwt>
<pdfrwt beam="2">  1       -2 0.11653832E+00 0.20035487E+04</pdfrwt>
<totfact> 0.84785627E+00</totfact>
</mgrwt>
</event>
<event>
12    1  0.1467288E-007  0.1877555E+04  0.7818608E-02  0.8666110E-01
         -1   -1    0    0    0  501 -0.00000000000E+00  0.00000000000E+00  0.39751063269E+03  0.39751063269E+03  0.00000000000E+00 0.  1.
          1   -1    0    0  501    0  0.00000000000E+00 -0.00000000000E+00 -0.22170562194E+04  0.22170562194E+04  0.00000000000E+00 0. -1.
         23    2    1    2    0    0  0.54722529989E+03  0.20670832137E+03 -0.12900279667E+04  0.14202439720E+04  0.10361914065E+03 0.  0.
        254    2    1    2    0    0 -0.54722529989E+03 -0.20670832137E+03 -0.52951762004E+03  0.11943228801E+04  0.89656810838E+03 0.  0.
        -24    2    4    4    0    0 -0.11255943964E+03  0.29498300563E+03 -0.39674485534E+03  0.51313416828E+03  0.78839034448E+02 0.  0.
         24    2    4    4    0    0 -0.43466586025E+03 -0.50169132700E+03 -0.13277276470E+03  0.68118871179E+03  0.75900305431E+02 0.  0.
         11    1    3    3    0    0  0.28914768512E+03  0.70941347764E+02 -0.74109720617E+03  0.79866396415E+03  0.00000000000E+00 0. -1.
        -11    1    3    3    0    0  0.25807761477E+03  0.13576697360E+03 -0.54893076051E+03  0.62158000789E+03  0.00000000000E+00 0.  1.
          2    1    6    6  502    0 -0.32633792428E+01 -0.24944256792E+02 -0.56483194276E+01  0.25783116633E+02  0.00000000000E+00 0. -1.
          3    1    5    5  503    0 -0.44377833809E+02  0.60693173887E+02 -0.54726344497E+02  0.92994764756E+02  0.00000000000E+00 0. -1.
         -4    1    5    5    0  503 -0.68181605827E+02  0.23428983175E+03 -0.34201851084E+03  0.42013940352E+03  0.00000000000E+00 0.  1.
         -1    1    6    6    0  502 -0.43140248101E+03 -0.47674707021E+03 -0.12712444527E+03  0.65540559515E+03  0.00000000000E+00 0.  1.
<mgrwt>
<rscale>  0 0.18775552E+04</rscale>
<asrwt>0</asrwt>
<pdfrwt beam="1">  1        1 0.34108557E+00 0.18775552E+04</pdfrwt>
<pdfrwt beam="2">  1       -1 0.61155482E-01 0.18775552E+04</pdfrwt>
<totfact> 0.53928649E+00</totfact>
</mgrwt>
</event>
<event>
12    1  0.1467288E-007  0.1664287E+04  0.7818608E-02  0.8781999E-01
         -1   -1    0    0    0  501 -0.00000000000E+00  0.00000000000E+00  0.43640479559E+03  0.43640479559E+03  0.00000000000E+00 0. -1.
          1   -1    0    0  501    0  0.00000000000E+00 -0.00000000000E+00 -0.15867439636E+04  0.15867439636E+04  0.00000000000E+00 0.  1.
         23    2    1    2    0    0 -0.29384079670E+03  0.42989489148E+03 -0.54682552629E+03  0.76021358161E+03  0.88059649825E+02 0.  0.
        254    2    1    2    0    0  0.29384079670E+03 -0.42989489148E+03 -0.60351364168E+03  0.12629351775E+04  0.97960426471E+03 0.  0.
        -24    2    4    4    0    0  0.35748339653E+03  0.78719233981E+02 -0.64134092124E+03  0.74275341936E+03  0.79833377202E+02 0.  0.
         24    2    4    4    0    0 -0.63642599829E+02 -0.50861412546E+03  0.37827279563E+02  0.52018175818E+03  0.80121466103E+02 0.  0.
         11    1    3    3    0    0 -0.18479827689E+03  0.25023082329E+03 -0.26495100577E+03  0.40861339127E+03  0.00000000000E+00 0. -1.
        -11    1    3    3    0    0 -0.10904251981E+03  0.17966406819E+03 -0.28187452052E+03  0.35160019034E+03  0.00000000000E+00 0.  1.
          2    1    6    6  502    0 -0.65123158262E+02 -0.31701061522E+03 -0.57416200667E+01  0.32368151338E+03  0.00000000000E+00 0. -1.
          1    1    5    5  503    0  0.14295695903E+03  0.53918744504E+02 -0.20269355920E+03  0.25382789856E+03  0.00000000000E+00 0. -1.
         -2    1    5    5    0  503  0.21452643750E+03  0.24800489476E+02 -0.43864736204E+03  0.48892552080E+03  0.00000000000E+00 0.  1.
         -1    1    6    6    0  502  0.14805584333E+01 -0.19160351024E+03  0.43568899630E+02  0.19650024480E+03  0.00000000000E+00 0.  1.
<mgrwt>
<rscale>  0 0.16642868E+04</rscale>
<asrwt>0</asrwt>
<pdfrwt beam="1">  1        1 0.24411446E+00 0.16642868E+04</pdfrwt>
<pdfrwt beam="2">  1       -1 0.67139198E-01 0.16642868E+04</pdfrwt>
<totfact> 0.12221686E+01</totfact>
</mgrwt>
</event>
<event>
12    1  0.1467288E-007  0.1374276E+04  0.7818608E-02  0.8972652E-01
         -1   -1    0    0    0  501 -0.00000000000E+00  0.00000000000E+00  0.21705239903E+03  0.21705239903E+03  0.00000000000E+00 0.  1.
          1   -1    0    0  501    0  0.00000000000E+00 -0.00000000000E+00 -0.21753215242E+04  0.21753215242E+04  0.00000000000E+00 0. -1.
         23    2    1    2    0    0  0.35951094924E+03  0.11642833593E+03 -0.63271504327E+03  0.74251928177E+03  0.90569739960E+02 0.  0.
        254    2    1    2    0    0 -0.35951094924E+03 -0.11642833593E+03 -0.13255540819E+04  0.16498546414E+04  0.90671000535E+03 0.  0.
        -24    2    4    4    0    0 -0.41934128625E+03  0.31921918548E+03 -0.66404830829E+03  0.85142719834E+03  0.78867709533E+02 0.  0.
         24    2    4    4    0    0  0.59830337010E+02 -0.43564752141E+03 -0.66150577357E+03  0.79842744306E+03  0.80796418393E+02 0.  0.
         13    1    3    3    0    0  0.13179033117E+03  0.97463408901E+01 -0.27681337129E+03  0.30673983288E+03  0.00000000000E+00 0. -1.
        -13    1    3    3    0    0  0.22772061807E+03  0.10668199504E+03 -0.35590167197E+03  0.43577944889E+03  0.00000000000E+00 0.  1.
          4    1    6    6  502    0  0.12442029083E+02 -0.28378641143E+03 -0.47326377740E+03  0.55196751209E+03  0.00000000000E+00 0. -1.
          1    1    5    5  503    0 -0.27782790714E+03  0.18969766094E+03 -0.47524952626E+03  0.58226768823E+03  0.00000000000E+00 0. -1.
         -2    1    5    5    0  503 -0.14151337911E+03  0.12952152454E+03 -0.18879878203E+03  0.26915951011E+03  0.00000000000E+00 0.  1.
         -3    1    6    6    0  502  0.47388307926E+02 -0.15186110999E+03 -0.18824199617E+03  0.24645993098E+03  0.00000000000E+00 0.  1.
<mgrwt>
<rscale>  0 0.13742762E+04</rscale>
<asrwt>0</asrwt>
<pdfrwt beam="1">  1        1 0.33466486E+00 0.13742762E+04</pdfrwt>
<pdfrwt beam="2">  1       -1 0.33392676E-01 0.13742762E+04</pdfrwt>
<totfact> 0.18708962E+01</totfact>
</mgrwt>
</event>
<event>
12    1  0.1467288E-007  0.1406492E+04  0.7818608E-02  0.8949133E-01
         -2   -1    0    0    0  501 -0.00000000000E+00  0.00000000000E+00  0.12115459223E+04  0.12115459223E+04  0.00000000000E+00 0.  1.
          2   -1    0    0  501    0  0.00000000000E+00 -0.00000000000E+00 -0.40820136203E+03  0.40820136203E+03  0.00000000000E+00 0. -1.
         23    2    1    2    0    0 -0.10330494407E+03  0.19715964771E+03  0.63235458888E+03  0.67650974382E+03  0.90825487887E+02 0.  0.
        254    2    1    2    0    0  0.10330494407E+03 -0.19715964771E+03  0.17098997143E+03  0.94323754054E+03  0.90050855043E+03 0.  0.
        -24    2    4    4    0    0  0.17330337525E+02  0.28332351052E+03  0.31144349518E+03  0.42885543122E+03  0.79670433583E+02 0.  0.
         24    2    4    4    0    0  0.85974606542E+02 -0.48048315823E+03 -0.14045352375E+03  0.51438210932E+03  0.81277695206E+02 0.  0.
         13    1    3    3    0    0 -0.77568465771E+02  0.52961906739E+02  0.24615520879E+03  0.26346578006E+03  0.00000000000E+00 0. -1.
        -13    1    3    3    0    0 -0.25736478296E+02  0.14419774098E+03  0.38619938009E+03  0.41304396376E+03  0.00000000000E+00 0.  1.
          2    1    6    6  502    0  0.55575410252E+02 -0.28028392499E+03 -0.12315386665E+03  0.31115041331E+03  0.00000000000E+00 0. -1.
          1    1    5    5  503    0  0.36819618221E+01  0.10647261185E+03  0.17578565155E+03  0.20554943251E+03  0.00000000000E+00 0. -1.
         -2    1    5    5    0  503  0.13648375703E+02  0.17685089867E+03  0.13565784363E+03  0.22330599871E+03  0.00000000000E+00 0.  1.
         -1    1    6    6    0  502  0.30399196291E+02 -0.20019923325E+03 -0.17299657097E+02  0.20323169601E+03  0.00000000000E+00 0.  1.
<mgrwt>
<rscale>  0 0.14064917E+04</rscale>
<asrwt>0</asrwt>
<pdfrwt beam="1">  1        2 0.62800210E-01 0.14064917E+04</pdfrwt>
<pdfrwt beam="2">  1       -2 0.18639168E+00 0.14064917E+04</pdfrwt>
<totfact> 0.12380516E+01</totfact>
</mgrwt>
</event>
<event>
12    1  0.1467288E-007  0.2153134E+04  0.7818608E-02  0.8538192E-01
         -2   -1    0    0    0  501 -0.00000000000E+00  0.00000000000E+00  0.45950015518E+03  0.45950015518E+03  0.00000000000E+00 0.  1.
          2   -1    0    0  501    0  0.00000000000E+00 -0.00000000000E+00 -0.25222990190E+04  0.25222990190E+04  0.00000000000E+00 0. -1.
         23    2    1    2    0    0  0.38338134454E+03  0.43192684349E+03  0.69568098142E+02  0.58745822685E+03  0.82008502911E+02 0.  0.
        254    2    1    2    0    0 -0.38338134454E+03 -0.43192684349E+03 -0.21323669619E+04  0.23943409473E+04  0.92322134838E+03 0.  0.
        -24    2    4    4    0    0 -0.36384295989E+03 -0.66694578858E+03 -0.19231256230E+04  0.20693614144E+04  0.81523722053E+02 0.  0.
         24    2    4    4    0    0 -0.19538384652E+02  0.23501894509E+03 -0.20924133894E+03  0.32497953289E+03  0.78829600112E+02 0.  0.
         11    1    3    3    0    0 -0.12977232869E+01 -0.21302565262E+01  0.26261316034E+01  0.36219671168E+01  0.00000000000E+00 0. -1.
        -11    1    3    3    0    0  0.38467906783E+03  0.43405710002E+03  0.66941966538E+02  0.58383625974E+03  0.00000000000E+00 0.  1.
          4    1    6    6  502    0 -0.26096573863E+02  0.21937854603E+02 -0.41553891779E+02  0.53749665617E+02  0.00000000000E+00 0. -1.
          3    1    5    5  503    0 -0.16447345118E+03 -0.28732595975E+03 -0.94720814171E+03  0.10033997145E+04  0.00000000000E+00 0. -1.
         -4    1    5    5    0  503 -0.19936950871E+03 -0.37961982883E+03 -0.97591748126E+03  0.10659616999E+04  0.00000000000E+00 0.  1.
         -3    1    6    6    0  502  0.65581892109E+01  0.21308109048E+03 -0.16768744716E+03  0.27122986728E+03  0.00000000000E+00 0.  1.
<mgrwt>
<rscale>  0 0.21531343E+04</rscale>
<asrwt>0</asrwt>
<pdfrwt beam="1">  1        2 0.38804600E+00 0.21531343E+04</pdfrwt>
<pdfrwt beam="2">  1       -2 0.70692331E-01 0.21531343E+04</pdfrwt>
<totfact> 0.56415923E+00</totfact>
</mgrwt>
</event>
<event>
12    1  0.1467288E-007  0.2243352E+04  0.7818608E-02  0.8500598E-01
          2   -1    0    0  501    0  0.00000000000E+00  0.00000000000E+00  0.14652728747E+04  0.14652728747E+04  0.00000000000E+00 0.  1.
         -2   -1    0    0    0  501 -0.00000000000E+00 -0.00000000000E+00 -0.85865020079E+03  0.85865020079E+03  0.00000000000E+00 0. -1.
         23    2    1    2    0    0  0.24668912445E+03 -0.46462564853E+03 -0.55023509801E+03  0.76689672755E+03  0.92948427870E+02 0.  0.
        254    2    1    2    0    0 -0.24668912445E+03  0.46462564853E+03  0.11568577719E+04  0.15570263479E+04  0.89959914757E+03 0.  0.
        -24    2    4    4    0    0  0.49371057553E+01  0.38164845856E+03  0.24796088082E+02  0.39153060168E+03  0.83674638551E+02 0.  0.
         24    2    4    4    0    0 -0.25162623021E+03  0.82977189974E+02  0.11320616838E+04  0.11654957462E+04  0.81336982587E+02 0.  0.
         11    1    3    3    0    0  0.19763656315E+03 -0.37024050297E+03 -0.48803890154E+03  0.64367710115E+03  0.00000000000E+00 0. -1.
        -11    1    3    3    0    0  0.49052561306E+02 -0.94385145569E+02 -0.62196196475E+02  0.12321962640E+03  0.00000000000E+00 0.  1.
          2    1    6    6  502    0 -0.29498602188E+02  0.35900338956E+02  0.13071141839E+03  0.13872446347E+03  0.00000000000E+00 0. -1.
          1    1    5    5  503    0 -0.15015512636E+02  0.37541078182E+02 -0.17887106305E+02  0.44212517942E+02  0.00000000000E+00 0. -1.
         -2    1    5    5    0  503  0.19952618391E+02  0.34410738038E+03  0.42683194387E+02  0.34731808374E+03  0.00000000000E+00 0.  1.
         -1    1    6    6    0  502 -0.22212762802E+03  0.47076851018E+02  0.10013502654E+04  0.10267712827E+04  0.00000000000E+00 0.  1.
<mgrwt>
<rscale>  0 0.22433518E+04</rscale>
<asrwt>0</asrwt>
<pdfrwt beam="1">  1        2 0.22542660E+00 0.22433518E+04</pdfrwt>
<pdfrwt beam="2">  1       -2 0.13210003E+00 0.22433518E+04</pdfrwt>
<totfact> 0.50453039E+00</totfact>
</mgrwt>
</event>
<event>
12    1  0.1467288E-007  0.1840662E+04  0.7818608E-02  0.8684970E-01
         -2   -1    0    0    0  501 -0.00000000000E+00  0.00000000000E+00  0.53574583753E+03  0.53574583753E+03  0.00000000000E+00 0.  1.
          2   -1    0    0  501    0  0.00000000000E+00 -0.00000000000E+00 -0.15809901259E+04  0.15809901259E+04  0.00000000000E+00 0. -1.
         23    2    1    2    0    0  0.47780588023E+02  0.84446439127E+02 -0.11961294026E+04  0.12034785334E+04  0.90668886073E+02 0.  0.
        254    2    1    2    0    0 -0.47780588023E+02 -0.84446439127E+02  0.15088511421E+03  0.91325743005E+03  0.89546559408E+03 0.  0.
        -24    2    4    4    0    0 -0.28326127656E+02 -0.36774905302E+03  0.38353828365E+03  0.53772676237E+03  0.77503034995E+02 0.  0.
         24    2    4    4    0    0 -0.19454460368E+02  0.28330261389E+03 -0.23265316945E+03  0.37553066768E+03  0.79100809432E+02 0.  0.
         11    1    3    3    0    0  0.37064323716E+02  0.73934995552E+02 -0.47183628217E+03  0.47902987885E+03  0.00000000000E+00 0. -1.
        -11    1    3    3    0    0  0.10716264307E+02  0.10511443575E+02 -0.72429312040E+03  0.72444865452E+03  0.00000000000E+00 0.  1.
          4    1    6    6  502    0 -0.56521751060E+01  0.27675219826E+03 -0.20690618894E+03  0.34559209677E+03  0.00000000000E+00 0. -1.
          3    1    5    5  503    0 -0.35004589512E+02 -0.19401450054E+03  0.25066125454E+03  0.31890125782E+03  0.00000000000E+00 0. -1.
         -4    1    5    5    0  503  0.66784618561E+01 -0.17373455247E+03  0.13287702911E+03  0.21882550455E+03  0.00000000000E+00 0.  1.
         -3    1    6    6    0  502 -0.13802285262E+02  0.65504156276E+01 -0.25746980506E+02  0.29938570917E+02  0.00000000000E+00 0.  1.
<mgrwt>
<rscale>  0 0.18406617E+04</rscale>
<asrwt>0</asrwt>
<pdfrwt beam="1">  1        2 0.24322925E+00 0.18406617E+04</pdfrwt>
<pdfrwt beam="2">  1       -2 0.82422438E-01 0.18406617E+04</pdfrwt>
<totfact> 0.13897095E+01</totfact>
</mgrwt>
</event>
<event>
12    1  0.1467288E-007  0.1705800E+04  0.7818608E-02  0.8758063E-01
         -2   -1    0    0    0  501 -0.00000000000E+00  0.00000000000E+00  0.37137625438E+03  0.37137625438E+03  0.00000000000E+00 0.  1.
          2   -1    0    0  501    0  0.00000000000E+00 -0.00000000000E+00 -0.19587646325E+04  0.19587646325E+04  0.00000000000E+00 0. -1.
         23    2    1    2    0    0 -0.73372655751E+02 -0.55217622911E+03 -0.89935473548E+03  0.10618019379E+04  0.91116851341E+02 0.  0.
        254    2    1    2    0    0  0.73372655751E+02  0.55217622911E+03 -0.68803364264E+03  0.12683389489E+04  0.90830130540E+03 0.  0.
        -24    2    4    4    0    0  0.41437003641E+03  0.57613619172E+03 -0.47051888693E+03  0.85519005613E+03  0.79539742589E+02 0.  0.
         24    2    4    4    0    0 -0.34099738066E+03 -0.23959962618E+02 -0.21751475571E+03  0.41314889281E+03  0.80783941809E+02 0.  0.
         11    1    3    3    0    0 -0.29645947084E+00 -0.13412454741E+02 -0.34920304732E+01  0.13862759726E+02  0.00000000000E+00 0.  1.
        -11    1    3    3    0    0 -0.73076196280E+02 -0.53876377436E+03 -0.89586270500E+03  0.10479391782E+04  0.00000000000E+00 0. -1.
          2    1    6    6  502    0 -0.11724941965E+03  0.25814047903E+02 -0.95962832880E+02  0.15369663878E+03  0.00000000000E+00 0. -1.
          1    1    5    5  503    0  0.75850794895E+02  0.77576655581E+02 -0.10139792387E+03  0.14850259103E+03  0.00000000000E+00 0. -1.
         -2    1    5    5    0  503  0.33851924152E+03  0.49855953614E+03 -0.36912096306E+03  0.70668746510E+03  0.00000000000E+00 0.  1.
         -1    1    6    6    0  502 -0.22374796101E+03 -0.49774010521E+02 -0.12155192283E+03  0.25945225403E+03  0.00000000000E+00 0.  1.
<mgrwt>
<rscale>  0 0.17058003E+04</rscale>
<asrwt>0</asrwt>
<pdfrwt beam="1">  1        2 0.30134840E+00 0.17058003E+04</pdfrwt>
<pdfrwt beam="2">  1       -2 0.57134809E-01 0.17058003E+04</pdfrwt>
<totfact> 0.19235572E+01</totfact>
</mgrwt>
</event>
<event>
12    1  0.1467288E-007  0.1938557E+04  0.7818608E-02  0.8635898E-01
          2   -1    0    0  501    0  0.00000000000E+00  0.00000000000E+00  0.40038844612E+03  0.40038844612E+03  0.00000000000E+00 0. -1.
         -2   -1    0    0    0  501 -0.00000000000E+00 -0.00000000000E+00 -0.23464745004E+04  0.23464745004E+04  0.00000000000E+00 0.  1.
         23    2    1    2    0    0  0.63288571438E+03 -0.16013105732E+03 -0.13414072695E+04  0.14947132133E+04  0.92778470333E+02 0.  0.
        254    2    1    2    0    0 -0.63288571438E+03  0.16013105732E+03 -0.60467878484E+03  0.12521497332E+04  0.88094054202E+03 0.  0.
        -24    2    4    4    0    0 -0.83365870792E+02 -0.23535698017E+03 -0.49718829207E+03  0.56190141305E+03  0.78703390594E+02 0.  0.
         24    2    4    4    0    0 -0.54951984358E+03  0.39548803748E+03 -0.10749049277E+03  0.69024832017E+03  0.80657864907E+02 0.  0.
         13    1    3    3    0    0  0.62595759828E+03 -0.16875378923E+03 -0.13204278775E+04  0.14709964432E+04  0.00000000000E+00 0. -1.
        -13    1    3    3    0    0  0.69281160934E+01  0.86227319153E+01 -0.20979391983E+02  0.23716770148E+02  0.00000000000E+00 0.  1.
          2    1    6    6  502    0 -0.63447916300E+02  0.43544051822E+02 -0.38919007305E+02  0.86234631451E+02  0.00000000000E+00 0. -1.
          3    1    5    5  503    0 -0.57538064294E+02 -0.15996258473E+03 -0.25111821669E+03  0.30324745029E+03  0.00000000000E+00 0. -1.
         -4    1    5    5    0  503 -0.25827806497E+02 -0.75394395434E+02 -0.24607007538E+03  0.25865396276E+03  0.00000000000E+00 0.  1.
         -1    1    6    6    0  502 -0.48607192729E+03  0.35194398566E+03 -0.68571485468E+02  0.60401368872E+03  0.00000000000E+00 0.  1.
<mgrwt>
<rscale>  0 0.19385575E+04</rscale>
<asrwt>0</asrwt>
<pdfrwt beam="1">  1        2 0.61598222E-01 0.19385575E+04</pdfrwt>
<pdfrwt beam="2">  1       -2 0.36099608E+00 0.19385575E+04</pdfrwt>
<totfact> 0.98582918E-01</totfact>
</mgrwt>
</event>
<event>
12    1  0.1467288E-007  0.2324638E+04  0.7818608E-02  0.8468269E-01
          2   -1    0    0  501    0  0.00000000000E+00  0.00000000000E+00  0.78292565337E+03  0.78292565337E+03  0.00000000000E+00 0. -1.
         -2   -1    0    0    0  501 -0.00000000000E+00 -0.00000000000E+00 -0.17255607700E+04  0.17255607700E+04  0.00000000000E+00 0.  1.
         23    2    1    2    0    0  0.53300058408E+03  0.50022469039E+03 -0.10152230970E+04  0.12543168436E+04  0.91205503569E+02 0.  0.
        254    2    1    2    0    0 -0.53300058408E+03 -0.50022469039E+03  0.72587980342E+02  0.12541695798E+04  0.10165421568E+04 0.  0.
        -24    2    4    4    0    0 -0.44191802556E+03 -0.66131230409E+03 -0.28078578619E+03  0.84727264185E+03  0.80029788524E+02 0.  0.
         24    2    4    4    0    0 -0.91082558527E+02  0.16108761370E+03  0.35337376653E+03  0.40689693797E+03  0.80292263007E+02 0.  0.
         11    1    3    3    0    0 -0.10852921072E+01  0.12437344693E+02 -0.10498344145E+02  0.16311978168E+02  0.00000000000E+00 0. -1.
        -11    1    3    3    0    0  0.53408587619E+03  0.48778734570E+03 -0.10047247528E+04  0.12380048654E+04  0.00000000000E+00 0.  1.
          4    1    6    6  502    0 -0.80706311519E+02  0.15249958800E+03  0.25674644747E+03  0.30933537035E+03  0.00000000000E+00 0. -1.
          3    1    5    5  503    0 -0.27342383221E+03 -0.47188146708E+03 -0.17772678389E+03  0.57360223213E+03  0.00000000000E+00 0. -1.
         -4    1    5    5    0  503 -0.16849419334E+03 -0.18943083701E+03 -0.10305900230E+03  0.27367040972E+03  0.00000000000E+00 0.  1.
         -3    1    6    6    0  502 -0.10376247008E+02  0.85880256980E+01  0.96627319058E+02  0.97561567616E+02  0.00000000000E+00 0.  1.
<mgrwt>
<rscale>  0 0.23246383E+04</rscale>
<asrwt>0</asrwt>
<pdfrwt beam="1">  1        2 0.12045010E+00 0.23246383E+04</pdfrwt>
<pdfrwt beam="2">  1       -2 0.26547088E+00 0.23246383E+04</pdfrwt>
<totfact> 0.16566575E+00</totfact>
</mgrwt>
</event>
<event>
12    1  0.1467288E-007  0.2417285E+04  0.7818608E-02  0.8433061E-01
          4   -1    0    0  501    0  0.00000000000E+00  0.00000000000E+00  0.70863261844E+03  0.70863261844E+03  0.00000000000E+00 0. -1.
         -4   -1    0    0    0  501 -0.00000000000E+00 -0.00000000000E+00 -0.20614582203E+04  0.20614582203E+04  0.00000000000E+00 0.  1.
         23    2    1    2    0    0 -0.85319097897E+03 -0.42637956737E+03 -0.11224422793E+03  0.96453163445E+03  0.89376311633E+02 0.  0.
        254    2    1    2    0    0  0.85319097897E+03  0.42637956737E+03 -0.12405813739E+04  0.18055592043E+04  0.90070389848E+03 0.  0.
        -24    2    4    4    0    0  0.54693499333E+03 -0.19993776694E+03 -0.73307346345E+03  0.93949623422E+03  0.78380314666E+02 0.  0.
         24    2    4    4    0    0  0.30625598564E+03  0.62631733431E+03 -0.50750791047E+03  0.86606297005E+03  0.80216313221E+02 0.  0.
         13    1    3    3    0    0 -0.16902048440E+03 -0.10505049952E+03  0.79422227316E+01  0.19916478227E+03  0.00000000000E+00 0. -1.
        -13    1    3    3    0    0 -0.68417049457E+03 -0.32132906785E+03 -0.12018645066E+03  0.76536685218E+03  0.00000000000E+00 0.  1.
          4    1    6    6  502    0  0.71239697873E+02  0.13915476133E+03 -0.15685982978E+03  0.22145913473E+03  0.00000000000E+00 0. -1.
          3    1    5    5  503    0  0.32859988961E+03 -0.78900015656E+02 -0.42359840267E+03  0.54188440341E+03  0.00000000000E+00 0. -1.
         -4    1    5    5    0  503  0.21833510372E+03 -0.12103775128E+03 -0.30947506078E+03  0.39761183081E+03  0.00000000000E+00 0.  1.
         -3    1    6    6    0  502  0.23501628777E+03  0.48716257297E+03 -0.35064808069E+03  0.64460383532E+03  0.00000000000E+00 0.  1.
<mgrwt>
<rscale>  0 0.24172849E+04</rscale>
<asrwt>0</asrwt>
<pdfrwt beam="1">  1        4 0.10902040E+00 0.24172849E+04</pdfrwt>
<pdfrwt beam="2">  1       -4 0.31714741E+00 0.24172849E+04</pdfrwt>
<totfact> 0.28967811E-02</totfact>
</mgrwt>
</event>
<event>
12    1  0.1467288E-007  0.2319795E+04  0.7818608E-02  0.8470157E-01
         -1   -1    0    0    0  501 -0.00000000000E+00  0.00000000000E+00  0.98282754561E+03  0.98282754561E+03  0.00000000000E+00 0.  1.
          1   -1    0    0  501    0  0.00000000000E+00 -0.00000000000E+00 -0.13688694356E+04  0.13688694356E+04  0.00000000000E+00 0. -1.
         23    2    1    2    0    0 -0.86470293889E+03 -0.36204738199E+03  0.93261314210E+02  0.94687152257E+03  0.95281310750E+02 0.  0.
        254    2    1    2    0    0  0.86470293889E+03  0.36204738199E+03 -0.47930320424E+03  0.14048254587E+04  0.93006103477E+03 0.  0.
        -24    2    4    4    0    0  0.33142867448E+03  0.61597934802E+03 -0.38146368929E+03  0.80069475790E+03  0.79511166648E+02 0.  0.
         24    2    4    4    0    0  0.53327426441E+03 -0.25393196603E+03 -0.97839514944E+02  0.60413070077E+03  0.80860673209E+02 0.  0.
         13    1    3    3    0    0 -0.83702029481E+03 -0.34635164648E+03  0.72223896898E+02  0.90872368089E+03  0.00000000000E+00 0.  1.
        -13    1    3    3    0    0 -0.27682644089E+02 -0.15695735515E+02  0.21037417312E+02  0.38147841673E+02  0.00000000000E+00 0. -1.
          4    1    6    6  502    0  0.42217510699E+03 -0.16565284519E+03 -0.61615894002E+02  0.45767805767E+03  0.00000000000E+00 0. -1.
          1    1    5    5  503    0  0.21627669366E+03  0.41350186452E+03 -0.29585191548E+03  0.55252851155E+03  0.00000000000E+00 0. -1.
         -2    1    5    5    0  503  0.11515198082E+03  0.20247748350E+03 -0.85611773813E+02  0.24816624635E+03  0.00000000000E+00 0.  1.
         -1    1    6    6    0  502  0.11109915743E+03 -0.88279120840E+02 -0.36223620942E+02  0.14645264310E+03  0.00000000000E+00 0.  1.
<mgrwt>
<rscale>  0 0.23197953E+04</rscale>
<asrwt>0</asrwt>
<pdfrwt beam="1">  1        1 0.21059530E+00 0.23197953E+04</pdfrwt>
<pdfrwt beam="2">  1       -1 0.15120424E+00 0.23197953E+04</pdfrwt>
<totfact> 0.24898730E+00</totfact>
</mgrwt>
</event>
<event>
12    1  0.2203272E-007  0.2131552E+04  0.7818608E-02  0.8547470E-01
          1   -1    0    0  501    0  0.00000000000E+00  0.00000000000E+00  0.14459645358E+04  0.14459645358E+04  0.00000000000E+00 0. -1.
         -1   -1    0    0    0  501 -0.00000000000E+00 -0.00000000000E+00 -0.78555092738E+03  0.78555092738E+03  0.00000000000E+00 0.  1.
         23    2    1    2    0    0  0.66924646043E+02  0.70783803007E+03 -0.25795019908E+03  0.76218938556E+03  0.94237833135E+02 0.  0.
        254    2    1    2    0    0 -0.66924646043E+02 -0.70783803007E+03  0.91836380752E+03  0.14693260776E+04  0.90000747462E+03 0.  0.
        -24    2    4    4    0    0 -0.25198749696E+03 -0.12193025287E+03 -0.73245589036E+02  0.29996149273E+03  0.79039835631E+02 0.  0.
         24    2    4    4    0    0  0.18506285092E+03 -0.58590777720E+03  0.99160939656E+03  0.11693645849E+04  0.81167449827E+02 0.  0.
         13    1    3    3    0    0  0.74346968658E+02  0.68844469906E+03 -0.26318163466E+03  0.74077536962E+03  0.00000000000E+00 0.  1.
        -13    1    3    3    0    0 -0.74223226154E+01  0.19393331012E+02  0.52314355729E+01  0.21414015945E+02  0.00000000000E+00 0. -1.
          2    1    6    6  502    0  0.26699175837E+02 -0.26668228471E+02  0.47218374253E+02  0.60445142628E+02  0.00000000000E+00 0. -1.
          1    1    5    5  503    0 -0.27883425381E+02 -0.23590580070E+02  0.15444808744E+02  0.39655302245E+02  0.00000000000E+00 0. -1.
         -2    1    5    5    0  503 -0.22410407158E+03 -0.98339672803E+02 -0.88690397780E+02  0.26030619048E+03  0.00000000000E+00 0.  1.
         -1    1    6    6    0  502  0.15836367508E+03 -0.55923954873E+03  0.94439102230E+03  0.11089194423E+04  0.00000000000E+00 0.  1.
<mgrwt>
<rscale>  0 0.21315523E+04</rscale>
<asrwt>0</asrwt>
<pdfrwt beam="1">  1        1 0.22245608E+00 0.21315523E+04</pdfrwt>
<pdfrwt beam="2">  1       -1 0.12085399E+00 0.21315523E+04</pdfrwt>
<totfact> 0.39805484E+00</totfact>
</mgrwt>
</event>
<event>
12    1  0.1467288E-007  0.2965947E+04  0.7818608E-02  0.8253522E-01
          2   -1    0    0  501    0  0.00000000000E+00  0.00000000000E+00  0.13392953470E+04  0.13392953470E+04  0.00000000000E+00 0. -1.
         -2   -1    0    0    0  501 -0.00000000000E+00 -0.00000000000E+00 -0.16420648311E+04  0.16420648311E+04  0.00000000000E+00 0.  1.
         23    2    1    2    0    0  0.80496826364E+03  0.17830298579E+03  0.92950485490E+03  0.12458536967E+04  0.91685866627E+02 0.  0.
        254    2    1    2    0    0 -0.80496826364E+03 -0.17830298579E+03 -0.12322743390E+04  0.17355064814E+04  0.90206254790E+03 0.  0.
        -24    2    4    4    0    0 -0.43953352059E+02  0.14357590329E+03 -0.76308939406E+03  0.78200768640E+03  0.81759776803E+02 0.  0.
         24    2    4    4    0    0 -0.76101491158E+03 -0.32187888908E+03 -0.46918494490E+03  0.95349879500E+03  0.79219471524E+02 0.  0.
         13    1    3    3    0    0  0.12309331559E+03  0.91192276934E+01  0.10031207154E+03  0.15905230697E+03  0.00000000000E+00 0.  1.
        -13    1    3    3    0    0  0.68187494805E+03  0.16918375810E+03  0.82919278336E+03  0.10868013897E+04  0.00000000000E+00 0. -1.
          4    1    6    6  502    0 -0.18026476124E+03 -0.90913785174E+02 -0.79550845455E+02  0.21700008638E+03  0.00000000000E+00 0. -1.
          3    1    5    5  503    0 -0.16787518021E+02  0.34992436593E+02 -0.70906479402E+02  0.80833286468E+02  0.00000000000E+00 0. -1.
         -4    1    5    5    0  503 -0.27165834039E+02  0.10858346670E+03 -0.69218291466E+03  0.70117439993E+03  0.00000000000E+00 0.  1.
         -3    1    6    6    0  502 -0.58075015034E+03 -0.23096510391E+03 -0.38963409944E+03  0.73649870862E+03  0.00000000000E+00 0.  1.
<mgrwt>
<rscale>  0 0.29659466E+04</rscale>
<asrwt>0</asrwt>
<pdfrwt beam="1">  1        2 0.20604544E+00 0.29659466E+04</pdfrwt>
<pdfrwt beam="2">  1       -2 0.25262536E+00 0.29659466E+04</pdfrwt>
<totfact> 0.83360563E-01</totfact>
</mgrwt>
</event>
<event>
12    1  0.1467288E-007  0.1501934E+04  0.7818608E-02  0.8883168E-01
         -1   -1    0    0    0  501 -0.00000000000E+00  0.00000000000E+00  0.46385152610E+03  0.46385152610E+03  0.00000000000E+00 0.  1.
          1   -1    0    0  501    0  0.00000000000E+00 -0.00000000000E+00 -0.12158012811E+04  0.12158012811E+04  0.00000000000E+00 0. -1.
         23    2    1    2    0    0 -0.44690659273E+03 -0.86286417526E+01 -0.72558666638E+02  0.46238223361E+03  0.93448455121E+02 0.  0.
        254    2    1    2    0    0  0.44690659273E+03  0.86286417526E+01 -0.67939108837E+03  0.12172705736E+04  0.90574579343E+03 0.  0.
        -24    2    4    4    0    0  0.24373331997E+03  0.13610827473E+03 -0.85937318310E+03  0.90708301337E+03  0.79661355815E+02 0.  0.
         24    2    4    4    0    0  0.20317327276E+03 -0.12747963297E+03  0.17998209472E+03  0.31018756023E+03  0.79324224018E+02 0.  0.
         11    1    3    3    0    0 -0.33552925218E+03  0.94058872686E+01 -0.91654798868E+02  0.34794963995E+03  0.00000000000E+00 0. -1.
        -11    1    3    3    0    0 -0.11137734055E+03 -0.18034529021E+02  0.19096132229E+02  0.11443259366E+03  0.00000000000E+00 0.  1.
          2    1    6    6  502    0  0.93057278896E+02 -0.83893991204E+02  0.51532794745E+02  0.13547504512E+03  0.00000000000E+00 0. -1.
          1    1    5    5  503    0  0.97911174560E+02  0.12197874652E+02 -0.31148258825E+03  0.32673657437E+03  0.00000000000E+00 0. -1.
         -2    1    5    5    0  503  0.14582214541E+03  0.12391040007E+03 -0.54789059484E+03  0.58034643900E+03  0.00000000000E+00 0.  1.
         -1    1    6    6    0  502  0.11011599386E+03 -0.43585641768E+02  0.12844929998E+03  0.17471251511E+03  0.00000000000E+00 0.  1.
<mgrwt>
<rscale>  0 0.15019338E+04</rscale>
<asrwt>0</asrwt>
<pdfrwt beam="1">  1        1 0.18704635E+00 0.15019338E+04</pdfrwt>
<pdfrwt beam="2">  1       -1 0.71361772E-01 0.15019338E+04</pdfrwt>
<totfact> 0.19956350E+01</totfact>
</mgrwt>
</event>
<event>
12    1  0.1467288E-007  0.1223728E+04  0.7818608E-02  0.9092338E-01
         -2   -1    0    0    0  501 -0.00000000000E+00  0.00000000000E+00  0.29447664037E+03  0.29447664037E+03  0.00000000000E+00 0. -1.
          2   -1    0    0  501    0  0.00000000000E+00 -0.00000000000E+00 -0.12713310411E+04  0.12713310411E+04  0.00000000000E+00 0.  1.
         23    2    1    2    0    0  0.24638694754E+03  0.55834397090E+02 -0.21539744901E+03  0.34370927289E+03  0.88971879876E+02 0.  0.
        254    2    1    2    0    0 -0.24638694754E+03 -0.55834397090E+02 -0.76145695170E+03  0.12220984086E+04  0.92189143780E+03 0.  0.
        -24    2    4    4    0    0 -0.17448105420E+03  0.87825792647E+02  0.17179811580E+03  0.27170497678E+03  0.78434645946E+02 0.  0.
         24    2    4    4    0    0 -0.71905893344E+02 -0.14366018974E+03 -0.93325506751E+03  0.95039343178E+03  0.80460838546E+02 0.  0.
         11    1    3    3    0    0  0.15485165827E+03  0.18827371500E+02 -0.77699125705E+02  0.17427179956E+03  0.00000000000E+00 0. -1.
        -11    1    3    3    0    0  0.91535289272E+02  0.37007025590E+02 -0.13769832331E+03  0.16943747333E+03  0.00000000000E+00 0.  1.
          2    1    6    6  502    0 -0.68119314567E+02 -0.14222733724E+03 -0.93311026418E+03  0.94634223281E+03  0.00000000000E+00 0. -1.
          3    1    5    5  503    0 -0.74247311555E+02  0.46746881255E+02  0.12727736232E+03  0.15458803686E+03  0.00000000000E+00 0. -1.
         -2    1    5    5    0  503 -0.10023374264E+03  0.41078911392E+02  0.44520753478E+02  0.11711693992E+03  0.00000000000E+00 0.  1.
         -1    1    6    6    0  502 -0.37865787775E+01 -0.14328525011E+01 -0.14480332245E+00  0.40511989744E+01  0.00000000000E+00 0.  1.
<mgrwt>
<rscale>  0 0.12237276E+04</rscale>
<asrwt>0</asrwt>
<pdfrwt beam="1">  1        2 0.19558939E+00 0.12237276E+04</pdfrwt>
<pdfrwt beam="2">  1       -2 0.45304098E-01 0.12237276E+04</pdfrwt>
<totfact> 0.78184611E+01</totfact>
</mgrwt>
</event>
<event>
12    1  0.1467288E-007  0.2431509E+04  0.7818608E-02  0.8427800E-01
         -3   -1    0    0    0  501 -0.00000000000E+00  0.00000000000E+00  0.57198390952E+03  0.57198390952E+03  0.00000000000E+00 0.  1.
          3   -1    0    0  501    0  0.00000000000E+00 -0.00000000000E+00 -0.25840928057E+04  0.25840928057E+04  0.00000000000E+00 0. -1.
         23    2    1    2    0    0  0.77277777795E+03  0.49007123626E+03 -0.23235071709E+03  0.94843379530E+03  0.90468213302E+02 0.  0.
        254    2    1    2    0    0 -0.77277777795E+03 -0.49007123626E+03 -0.17797581791E+04  0.22076429199E+04  0.93209054019E+03 0.  0.
        -24    2    4    4    0    0 -0.51966475311E+03 -0.62757516884E+03 -0.17169145682E+04  0.19021851652E+04  0.81306333650E+02 0.  0.
         24    2    4    4    0    0 -0.25311302484E+03  0.13750393259E+03 -0.62843610882E+02  0.30545775475E+03  0.79884827614E+02 0.  0.
         13    1    3    3    0    0  0.21090788586E+03  0.97110272246E+02 -0.33978324159E+02  0.23466373347E+03  0.00000000000E+00 0. -1.
        -13    1    3    3    0    0  0.56186989209E+03  0.39296096401E+03 -0.19837239293E+03  0.71377006182E+03  0.00000000000E+00 0.  1.
          2    1    6    6  502    0 -0.23524591292E+03  0.13626119052E+03 -0.37514249427E+02  0.27443591328E+03  0.00000000000E+00 0. -1.
          3    1    5    5  503    0 -0.27934308262E+03 -0.30002168786E+03 -0.78574922693E+03  0.88625471430E+03  0.00000000000E+00 0. -1.
         -4    1    5    5    0  503 -0.24032167049E+03 -0.32755348098E+03 -0.93116534127E+03  0.10159304509E+04  0.00000000000E+00 0.  1.
         -1    1    6    6    0  502 -0.17867111923E+02  0.12427420703E+01 -0.25329361454E+02  0.31021841467E+02  0.00000000000E+00 0.  1.
<mgrwt>
<rscale>  0 0.24315094E+04</rscale>
<asrwt>0</asrwt>
<pdfrwt beam="1">  1        3 0.39755274E+00 0.24315094E+04</pdfrwt>
<pdfrwt beam="2">  1       -3 0.87997523E-01 0.24315094E+04</pdfrwt>
<totfact> 0.31472424E-02</totfact>
</mgrwt>
</event>
<event>
12    1  0.2397109E-007  0.1836216E+04  0.7818608E-02  0.8687274E-01
         -1   -1    0    0    0  501 -0.00000000000E+00  0.00000000000E+00  0.49083579804E+03  0.49083579804E+03  0.00000000000E+00 0.  1.
          1   -1    0    0  501    0  0.00000000000E+00 -0.00000000000E+00 -0.17173207399E+04  0.17173207399E+04  0.00000000000E+00 0. -1.
         23    2    1    2    0    0 -0.13181866545E+03 -0.90829555495E+02 -0.12765700540E+04  0.12897715099E+04  0.90847543833E+02 0.  0.
        254    2    1    2    0    0  0.13181866545E+03  0.90829555495E+02  0.50085112090E+02  0.91838502810E+03  0.90293763499E+03 0.  0.
        -24    2    4    4    0    0  0.64257753462E+02  0.29044576924E+02  0.46972558951E+03  0.48164813482E+03  0.79813219479E+02 0.  0.
         24    2    4    4    0    0  0.67560911983E+02  0.61784978571E+02 -0.41964047742E+03  0.43673689328E+03  0.79114621024E+02 0.  0.
         13    1    3    3    0    0 -0.90335172052E+02 -0.74420604556E+02 -0.11423862091E+04  0.11483662832E+04  0.00000000000E+00 0. -1.
        -13    1    3    3    0    0 -0.41483493393E+02 -0.16408950939E+02 -0.13418384488E+03  0.14140522664E+03  0.00000000000E+00 0.  1.
          2    1    6    6  502    0  0.22188277452E+02  0.50337426216E+01 -0.19238174947E+02  0.29795395557E+02  0.00000000000E+00 0. -1.
          3    1    5    5  503    0 -0.69341773355E+01 -0.15922124186E+02  0.37899291878E+02  0.41688765618E+02  0.00000000000E+00 0. -1.
         -4    1    5    5    0  503  0.71191930797E+02  0.44966701110E+02  0.43182629763E+03  0.43995936920E+03  0.00000000000E+00 0.  1.
         -1    1    6    6    0  502  0.45372634531E+02  0.56751235949E+02 -0.40040230247E+03  0.40694149773E+03  0.00000000000E+00 0.  1.
<mgrwt>
<rscale>  0 0.18362162E+04</rscale>
<asrwt>0</asrwt>
<pdfrwt beam="1">  1        1 0.26420319E+00 0.18362162E+04</pdfrwt>
<pdfrwt beam="2">  1       -1 0.75513201E-01 0.18362162E+04</pdfrwt>
<totfact> 0.76891682E+00</totfact>
</mgrwt>
</event>
<event>
12    1  0.1467288E-007  0.1729376E+04  0.7818608E-02  0.8744785E-01
          2   -1    0    0  501    0  0.00000000000E+00  0.00000000000E+00  0.11653492347E+04  0.11653492347E+04  0.00000000000E+00 0. -1.
         -2   -1    0    0    0  501 -0.00000000000E+00 -0.00000000000E+00 -0.64159748874E+03  0.64159748874E+03  0.00000000000E+00 0.  1.
         23    2    1    2    0    0 -0.97849481294E+02  0.58728000199E+03 -0.12141646483E+02  0.60233081303E+03  0.90458095391E+02 0.  0.
        254    2    1    2    0    0  0.97849481294E+02 -0.58728000199E+03  0.53589339247E+03  0.12046159104E+04  0.89969185939E+03 0.  0.
        -24    2    4    4    0    0  0.29190756839E+03  0.63242715491E+02 -0.38276448474E+02  0.31176697192E+03  0.80770593215E+02 0.  0.
         24    2    4    4    0    0 -0.19405808709E+03 -0.65052271748E+03  0.57416984094E+03  0.89284893851E+03  0.81669294312E+02 0.  0.
         13    1    3    3    0    0 -0.67859663823E+02  0.36960539082E+03 -0.50877474183E+02  0.37921180926E+03  0.00000000000E+00 0.  1.
        -13    1    3    3    0    0 -0.29989817471E+02  0.21767461116E+03  0.38735827700E+02  0.22311900377E+03  0.00000000000E+00 0. -1.
          2    1    6    6  502    0 -0.79256895361E+02 -0.19221623941E+03  0.13576694512E+03  0.24831713905E+03  0.00000000000E+00 0. -1.
          1    1    5    5  503    0  0.10099572086E+03  0.48731782601E+02 -0.43380573207E+02  0.12023641877E+03  0.00000000000E+00 0. -1.
         -2    1    5    5    0  503  0.19091184753E+03  0.14510932890E+02  0.51041247329E+01  0.19153055315E+03  0.00000000000E+00 0.  1.
         -1    1    6    6    0  502 -0.11480119173E+03 -0.45830647807E+03  0.43840289582E+03  0.64453179946E+03  0.00000000000E+00 0.  1.
<mgrwt>
<rscale>  0 0.17293758E+04</rscale>
<asrwt>0</asrwt>
<pdfrwt beam="1">  1        2 0.17928450E+00 0.17293758E+04</pdfrwt>
<pdfrwt beam="2">  1       -2 0.98707306E-01 0.17293758E+04</pdfrwt>
<totfact> 0.16073231E+01</totfact>
</mgrwt>
</event>
<event>
12    1  0.1467288E-007  0.1750160E+04  0.7818608E-02  0.8733263E-01
         -2   -1    0    0    0  501 -0.00000000000E+00  0.00000000000E+00  0.72464630750E+03  0.72464630750E+03  0.00000000000E+00 0.  1.
          2   -1    0    0  501    0  0.00000000000E+00 -0.00000000000E+00 -0.10567425391E+04  0.10567425391E+04  0.00000000000E+00 0. -1.
         23    2    1    2    0    0 -0.46613659096E+03  0.42757982932E+03 -0.63715124551E+02  0.64227690178E+03  0.91390205127E+02 0.  0.
        254    2    1    2    0    0  0.46613659096E+03 -0.42757982932E+03 -0.26838110706E+03  0.11391119448E+04  0.90853716068E+03 0.  0.
        -24    2    4    4    0    0  0.50073599244E+03  0.30009887714E+02  0.13195715473E+03  0.52514146957E+03  0.81998444427E+02 0.  0.
         24    2    4    4    0    0 -0.34599401483E+02 -0.45758971703E+03 -0.40033826179E+03  0.61397047525E+03  0.78125238651E+02 0.  0.
         11    1    3    3    0    0 -0.29953343900E+03  0.30441152755E+03 -0.56463975002E+01  0.42710483607E+03  0.00000000000E+00 0.  1.
        -11    1    3    3    0    0 -0.16660315196E+03  0.12316830177E+03 -0.58068727051E+02  0.21517206571E+03  0.00000000000E+00 0. -1.
          2    1    6    6  502    0 -0.19804561570E+02 -0.34198611438E+03 -0.25169642869E+03  0.42508565643E+03  0.00000000000E+00 0. -1.
          3    1    5    5  503    0  0.27710236479E+03  0.38771367232E+02  0.37827718371E+02  0.28234708387E+03  0.00000000000E+00 0. -1.
         -4    1    5    5    0  503  0.22363362765E+03 -0.87614795177E+01  0.94129436362E+02  0.24279438570E+03  0.00000000000E+00 0.  1.
         -1    1    6    6    0  502 -0.14794839913E+02 -0.11560360265E+03 -0.14864183310E+03  0.18888481882E+03  0.00000000000E+00 0.  1.
<mgrwt>
<rscale>  0 0.17501595E+04</rscale>
<asrwt>0</asrwt>
<pdfrwt beam="1">  1        2 0.16257577E+00 0.17501595E+04</pdfrwt>
<pdfrwt beam="2">  1       -2 0.11148405E+00 0.17501595E+04</pdfrwt>
<totfact> 0.13975423E+01</totfact>
</mgrwt>
</event>
<event>
12    1  0.1467288E-007  0.1738749E+04  0.7818608E-02  0.8739568E-01
          1   -1    0    0  501    0  0.00000000000E+00  0.00000000000E+00  0.90030525410E+03  0.90030525410E+03  0.00000000000E+00 0. -1.
         -1   -1    0    0    0  501 -0.00000000000E+00 -0.00000000000E+00 -0.83950596584E+03  0.83950596584E+03  0.00000000000E+00 0.  1.
         23    2    1    2    0    0 -0.29525437562E+03 -0.16852412938E+03  0.55407882388E+03  0.65614996997E+03  0.89184704507E+02 0.  0.
        254    2    1    2    0    0  0.29525437562E+03  0.16852412938E+03 -0.49327953562E+03  0.10836612500E+04  0.90300690801E+03 0.  0.
        -24    2    4    4    0    0 -0.11285849274E+03  0.13892674748E+03 -0.61749726833E+03  0.64830253785E+03  0.83400381535E+02 0.  0.
         24    2    4    4    0    0  0.40811286836E+03  0.29597381891E+02  0.12421773271E+03  0.43535871212E+03  0.81700947114E+02 0.  0.
         13    1    3    3    0    0 -0.14434720630E+03 -0.11034660977E+03  0.22274989341E+03  0.28745435336E+03  0.00000000000E+00 0.  1.
        -13    1    3    3    0    0 -0.15090716932E+03 -0.58177519609E+02  0.33132893048E+03  0.36869561662E+03  0.00000000000E+00 0. -1.
          2    1    6    6  502    0  0.15324489470E+03  0.49882298577E+02  0.38448494549E+02  0.16568200927E+03  0.00000000000E+00 0. -1.
          1    1    5    5  503    0 -0.79646899220E+01  0.20305164624E+01 -0.14638078786E+03  0.14661137178E+03  0.00000000000E+00 0. -1.
         -2    1    5    5    0  503 -0.10489380282E+03  0.13689623102E+03 -0.47111648047E+03  0.50169116606E+03  0.00000000000E+00 0.  1.
         -1    1    6    6    0  502  0.25486797366E+03 -0.20284916685E+02  0.85769238159E+02  0.26967670285E+03  0.00000000000E+00 0.  1.
<mgrwt>
<rscale>  0 0.17387486E+04</rscale>
<asrwt>0</asrwt>
<pdfrwt beam="1">  1        1 0.13850850E+00 0.17387486E+04</pdfrwt>
<pdfrwt beam="2">  1       -1 0.12915476E+00 0.17387486E+04</pdfrwt>
<totfact> 0.88951353E+00</totfact>
</mgrwt>
</event>
<event>
12    1  0.1467288E-007  0.1323655E+04  0.7818608E-02  0.9011014E-01
          2   -1    0    0  501    0  0.00000000000E+00  0.00000000000E+00  0.19826110604E+04  0.19826110604E+04  0.00000000000E+00 0. -1.
         -2   -1    0    0    0  501 -0.00000000000E+00 -0.00000000000E+00 -0.22092859074E+03  0.22092859074E+03  0.00000000000E+00 0.  1.
         23    2    1    2    0    0 -0.34925097965E+03 -0.39527839608E+02  0.42639041702E+03  0.56019023649E+03  0.92008784574E+02 0.  0.
        254    2    1    2    0    0  0.34925097965E+03  0.39527839608E+02  0.13352920526E+04  0.16433494146E+04  0.89109692843E+03 0.  0.
        -24    2    4    4    0    0  0.32254352917E+03 -0.12344064335E+03  0.66096933841E+02  0.36083431102E+03  0.80997991976E+02 0.  0.
         24    2    4    4    0    0  0.26707450482E+02  0.16296848296E+03  0.12691951188E+04  0.12825151036E+04  0.81955641057E+02 0.  0.
         13    1    3    3    0    0 -0.31905105080E+03 -0.77924773352E+01  0.36635728244E+03  0.48587236402E+03  0.00000000000E+00 0.  1.
        -13    1    3    3    0    0 -0.30199928857E+02 -0.31735362273E+02  0.60033134579E+02  0.74317872474E+02  0.00000000000E+00 0. -1.
          2    1    6    6  502    0  0.53488739249E+02  0.12590608372E+03  0.10234782734E+04  0.10325798581E+04  0.00000000000E+00 0. -1.
          1    1    5    5  503    0  0.29993912443E+03 -0.12696487483E+03  0.78188156701E+02  0.33495812522E+03  0.00000000000E+00 0. -1.
         -2    1    5    5    0  503  0.22604404740E+02  0.35242314755E+01 -0.12091222859E+02  0.25876185797E+02  0.00000000000E+00 0.  1.
         -1    1    6    6    0  502 -0.26781288766E+02  0.37062399244E+02  0.24571684536E+03  0.24993524553E+03  0.00000000000E+00 0.  1.
<mgrwt>
<rscale>  0 0.13236547E+04</rscale>
<asrwt>0</asrwt>
<pdfrwt beam="1">  1        2 0.30501707E+00 0.13236547E+04</pdfrwt>
<pdfrwt beam="2">  1       -2 0.33989015E-01 0.13236547E+04</pdfrwt>
<totfact> 0.54206089E+01</totfact>
</mgrwt>
</event>
<event>
12    1  0.1467288E-007  0.1195889E+04  0.7818608E-02  0.9116462E-01
         -1   -1    0    0    0  501 -0.00000000000E+00  0.00000000000E+00  0.34190988229E+03  0.34190988229E+03  0.00000000000E+00 0.  1.
          1   -1    0    0  501    0  0.00000000000E+00 -0.00000000000E+00 -0.10457078857E+04  0.10457078857E+04  0.00000000000E+00 0. -1.
         23    2    1    2    0    0  0.77557676270E+02  0.82516073548E+02  0.89802306530E+02  0.17485035120E+03  0.98407802110E+02 0.  0.
        254    2    1    2    0    0 -0.77557676270E+02 -0.82516073548E+02 -0.79360030991E+03  0.12127674168E+04  0.91004354826E+03 0.  0.
        -24    2    4    4    0    0 -0.16378744889E+02 -0.48053404271E+03 -0.54500158536E+03  0.73194115288E+03  0.86774960364E+02 0.  0.
         24    2    4    4    0    0 -0.61178931381E+02  0.39801796917E+03 -0.24859872455E+03  0.48082626388E+03  0.85037666743E+02 0.  0.
         13    1    3    3    0    0  0.91595762750E+02  0.50977263290E+02  0.93061948458E+02  0.14017486000E+03  0.00000000000E+00 0.  1.
        -13    1    3    3    0    0 -0.14038086480E+02  0.31538810258E+02 -0.32596419275E+01  0.34675491201E+02  0.00000000000E+00 0. -1.
          4    1    6    6  502    0 -0.50633759378E+01  0.16013500752E+03 -0.56247579364E+02  0.16980179208E+03  0.00000000000E+00 0. -1.
          1    1    5    5  503    0 -0.46181986843E+01 -0.37212459671E+03 -0.47043185227E+03  0.59983678685E+03  0.00000000000E+00 0. -1.
         -2    1    5    5    0  503 -0.11760546205E+02 -0.10840944601E+03 -0.74569733090E+02  0.13210436603E+03  0.00000000000E+00 0.  1.
         -3    1    6    6    0  502 -0.56115555443E+02  0.23788296164E+03 -0.19235114518E+03  0.31102447180E+03  0.00000000000E+00 0.  1.
<mgrwt>
<rscale>  0 0.11958894E+04</rscale>
<asrwt>0</asrwt>
<pdfrwt beam="1">  1        1 0.16087813E+00 0.11958894E+04</pdfrwt>
<pdfrwt beam="2">  1       -1 0.52601521E-01 0.11958894E+04</pdfrwt>
<totfact> 0.50269709E+01</totfact>
</mgrwt>
</event>
<event>
12    1  0.1467288E-007  0.1488148E+04  0.7818608E-02  0.8892373E-01
          2   -1    0    0  501    0  0.00000000000E+00  0.00000000000E+00  0.10421768524E+04  0.10421768524E+04  0.00000000000E+00 0. -1.
         -2   -1    0    0    0  501 -0.00000000000E+00 -0.00000000000E+00 -0.53123975912E+03  0.53123975912E+03  0.00000000000E+00 0.  1.
         23    2    1    2    0    0 -0.31278412526E+03 -0.25595925881E+03 -0.52908295963E+02  0.41796880468E+03  0.92463953629E+02 0.  0.
        254    2    1    2    0    0  0.31278412526E+03  0.25595925881E+03  0.56384538927E+03  0.11554478069E+04  0.92400701306E+03 0.  0.
        -24    2    4    4    0    0 -0.22555566017E+02 -0.29126799984E+03  0.37552012891E+03  0.48182890364E+03  0.76144099401E+02 0.  0.
         24    2    4    4    0    0  0.33533969127E+03  0.54722725865E+03  0.18832526036E+03  0.67361890323E+03  0.79910211740E+02 0.  0.
         11    1    3    3    0    0 -0.26087659343E+02 -0.70929685011E+01 -0.25781544632E+02  0.37357251180E+02  0.00000000000E+00 0.  1.
        -11    1    3    3    0    0 -0.28669646591E+03 -0.24886629031E+03 -0.27126751331E+02  0.38061155350E+03  0.00000000000E+00 0. -1.
          4    1    6    6  502    0  0.12302651892E+03  0.15614937036E+03  0.28652342001E+02  0.20084597811E+03  0.00000000000E+00 0. -1.
          1    1    5    5  503    0 -0.14201350299E+02 -0.11578387343E+03  0.21121301923E+03  0.24128514913E+03  0.00000000000E+00 0. -1.
         -4    1    5    5    0  503 -0.83542157181E+01 -0.17548412641E+03  0.16430710968E+03  0.24054375451E+03  0.00000000000E+00 0.  1.
         -3    1    6    6    0  502  0.21231317236E+03  0.39107788828E+03  0.15967291836E+03  0.47277292511E+03  0.00000000000E+00 0.  1.
<mgrwt>
<rscale>  0 0.14881475E+04</rscale>
<asrwt>0</asrwt>
<pdfrwt beam="1">  1        2 0.16033490E+00 0.14881475E+04</pdfrwt>
<pdfrwt beam="2">  1       -2 0.81729194E-01 0.14881475E+04</pdfrwt>
<totfact> 0.30164684E+01</totfact>
</mgrwt>
</event>
<event>
12    1  0.1467288E-007  0.1597227E+04  0.7818608E-02  0.8822253E-01
         -3   -1    0    0    0  501 -0.00000000000E+00  0.00000000000E+00  0.12840617921E+04  0.12840617921E+04  0.00000000000E+00 0.  1.
          3   -1    0    0  501    0  0.00000000000E+00 -0.00000000000E+00 -0.49669213335E+03  0.49669213335E+03  0.00000000000E+00 0. -1.
         23    2    1    2    0    0  0.43564715321E+03 -0.13430432479E+02 -0.10122631079E+03  0.45663430382E+03  0.91100509393E+02 0.  0.
        254    2    1    2    0    0 -0.43564715321E+03  0.13430432479E+02  0.88859596949E+03  0.13241196216E+04  0.87961420898E+03 0.  0.
        -24    2    4    4    0    0 -0.40334016037E+03 -0.58870189038E+02  0.10487125209E+04  0.11279455757E+04  0.79462482059E+02 0.  0.
         24    2    4    4    0    0 -0.32306992842E+02  0.72300621517E+02 -0.16011655140E+03  0.19617404591E+03  0.81091458241E+02 0.  0.
         13    1    3    3    0    0  0.10297626660E+03 -0.60704146998E+01  0.14847414640E+02  0.10421807491E+03  0.00000000000E+00 0.  1.
        -13    1    3    3    0    0  0.33267088661E+03 -0.73600177796E+01 -0.11607372543E+03  0.35241622891E+03  0.00000000000E+00 0. -1.
          4    1    6    6  502    0 -0.34291464112E+01 -0.13458453240E+02 -0.20514549325E+01  0.14039140860E+02  0.00000000000E+00 0. -1.
          1    1    5    5  503    0 -0.90738941131E+01 -0.30879301940E+01  0.49086338796E+01  0.10768730372E+02  0.00000000000E+00 0. -1.
         -2    1    5    5    0  503 -0.39426626626E+03 -0.55782258844E+02  0.10438038870E+04  0.11171768453E+04  0.00000000000E+00 0.  1.
         -3    1    6    6    0  502 -0.28877846431E+02  0.85759074758E+02 -0.15806509647E+03  0.18213490506E+03  0.00000000000E+00 0.  1.
<mgrwt>
<rscale>  0 0.15972268E+04</rscale>
<asrwt>0</asrwt>
<pdfrwt beam="1">  1        3 0.76414175E-01 0.15972268E+04</pdfrwt>
<pdfrwt beam="2">  1       -3 0.19754797E+00 0.15972268E+04</pdfrwt>
<totfact> 0.61404503E-01</totfact>
</mgrwt>
</event>
<event>
12    1  0.1467288E-007  0.2344872E+04  0.7818608E-02  0.8460436E-01
          1   -1    0    0  501    0  0.00000000000E+00  0.00000000000E+00  0.18741575501E+04  0.18741575501E+04  0.00000000000E+00 0. -1.
         -1   -1    0    0    0  501 -0.00000000000E+00 -0.00000000000E+00 -0.73345314781E+03  0.73345314781E+03  0.00000000000E+00 0.  1.
         23    2    1    2    0    0 -0.27659105415E+03 -0.45106794264E+03 -0.45026098949E+03  0.70065539602E+03  0.90653875831E+02 0.  0.
        254    2    1    2    0    0  0.27659105415E+03  0.45106794264E+03  0.15909653918E+04  0.19069553019E+04  0.90848376180E+03 0.  0.
        -24    2    4    4    0    0  0.52296084028E+02  0.47708471122E+03  0.15952488911E+04  0.16678395589E+04  0.80777890334E+02 0.  0.
         24    2    4    4    0    0  0.22429497012E+03 -0.26016768580E+02 -0.42834993051E+01  0.23911574301E+03  0.78567705343E+02 0.  0.
         11    1    3    3    0    0 -0.96575100151E+02 -0.12417331028E+03 -0.18480004964E+03  0.24268666898E+03  0.00000000000E+00 0.  1.
        -11    1    3    3    0    0 -0.18001595399E+03 -0.32689463235E+03 -0.26546093985E+03  0.45796872703E+03  0.00000000000E+00 0. -1.
          2    1    6    6  502    0  0.72904879785E+01  0.34111567211E+00  0.17961251801E+02  0.19387473820E+02  0.00000000000E+00 0. -1.
          3    1    5    5  503    0 -0.16388794030E+02  0.68926515587E+02  0.29052954837E+03  0.29904326710E+03  0.00000000000E+00 0. -1.
         -4    1    5    5    0  503  0.68684878058E+02  0.40815819563E+03  0.13047193427E+04  0.13687962918E+04  0.00000000000E+00 0.  1.
         -1    1    6    6    0  502  0.21700448214E+03 -0.26357884252E+02 -0.22244751106E+02  0.21972826919E+03  0.00000000000E+00 0.  1.
<mgrwt>
<rscale>  0 0.23448725E+04</rscale>
<asrwt>0</asrwt>
<pdfrwt beam="1">  1        1 0.28833193E+00 0.23448725E+04</pdfrwt>
<pdfrwt beam="2">  1       -1 0.11283895E+00 0.23448725E+04</pdfrwt>
<totfact> 0.23459552E+00</totfact>
</mgrwt>
</event>
<event>
12    1  0.1467288E-007  0.1852115E+04  0.7818608E-02  0.8679066E-01
          2   -1    0    0  501    0  0.00000000000E+00  0.00000000000E+00  0.12262473062E+04  0.12262473062E+04  0.00000000000E+00 0. -1.
         -2   -1    0    0    0  501 -0.00000000000E+00 -0.00000000000E+00 -0.69935516565E+03  0.69935516565E+03  0.00000000000E+00 0.  1.
         23    2    1    2    0    0 -0.79315210014E+02  0.40890703579E+03  0.78104328504E+03  0.89039306387E+03  0.96308507526E+02 0.  0.
        254    2    1    2    0    0  0.79315210014E+02 -0.40890703579E+03 -0.25415114451E+03  0.10352094080E+04  0.91300046419E+03 0.  0.
        -24    2    4    4    0    0  0.38442947859E+03 -0.52462308343E+02 -0.37230355469E+03  0.54343092071E+03  0.78542414938E+02 0.  0.
         24    2    4    4    0    0 -0.30511426857E+03 -0.35644472745E+03  0.11815241018E+03  0.49177848725E+03  0.87968902902E+02 0.  0.
         11    1    3    3    0    0 -0.68799114343E+02  0.22267264855E+03  0.34740487666E+03  0.41833787167E+03  0.00000000000E+00 0.  1.
        -11    1    3    3    0    0 -0.10516095671E+02  0.18623438724E+03  0.43363840838E+03  0.47205519220E+03  0.00000000000E+00 0. -1.
          4    1    6    6  502    0 -0.72196046514E+02 -0.12461402200E+03  0.46176479305E+01  0.14409110411E+03  0.00000000000E+00 0. -1.
          1    1    5    5  503    0  0.12287977587E+03  0.16493923251E+02 -0.96337379145E+02  0.15701076219E+03  0.00000000000E+00 0. -1.
         -2    1    5    5    0  503  0.26154970272E+03 -0.68956231594E+02 -0.27596617555E+03  0.38642015852E+03  0.00000000000E+00 0.  1.
         -3    1    6    6    0  502 -0.23291822206E+03 -0.23183070545E+03  0.11353476225E+03  0.34768738314E+03  0.00000000000E+00 0.  1.
<mgrwt>
<rscale>  0 0.18521149E+04</rscale>
<asrwt>0</asrwt>
<pdfrwt beam="1">  1        2 0.18865343E+00 0.18521149E+04</pdfrwt>
<pdfrwt beam="2">  1       -2 0.10759310E+00 0.18521149E+04</pdfrwt>
<totfact> 0.11907982E+01</totfact>
</mgrwt>
</event>
<event>
12    1  0.1467288E-007  0.1668279E+04  0.7818608E-02  0.8779666E-01
          2   -1    0    0  501    0  0.00000000000E+00  0.00000000000E+00  0.25234688240E+04  0.25234688240E+04  0.00000000000E+00 0. -1.
         -2   -1    0    0    0  501 -0.00000000000E+00 -0.00000000000E+00 -0.27572711552E+03  0.27572711552E+03  0.00000000000E+00 0.  1.
         23    2    1    2    0    0  0.13898562905E+03 -0.14847801926E+03 -0.12389756812E+03  0.25568006821E+03  0.93053547012E+02 0.  0.
        254    2    1    2    0    0 -0.13898562905E+03  0.14847801926E+03  0.23716392766E+04  0.25435158713E+04  0.89634669742E+03 0.  0.
        -24    2    4    4    0    0 -0.48981653246E+03  0.21198198667E+03  0.16215862947E+04  0.17091145728E+04  0.81694023904E+02 0.  0.
         24    2    4    4    0    0  0.35083090341E+03 -0.63503967419E+02  0.75005298184E+03  0.83440129848E+03  0.80814445956E+02 0.  0.
         13    1    3    3    0    0 -0.86111433276E+01 -0.17559921553E+02 -0.33214124533E+02  0.38544528832E+02  0.00000000000E+00 0. -1.
        -13    1    3    3    0    0  0.14759677237E+03 -0.13091809770E+03 -0.90683443586E+02  0.21713553938E+03  0.00000000000E+00 0.  1.
          2    1    6    6  502    0  0.31134429078E+03 -0.46243122021E+02  0.59074978656E+03  0.66937209687E+03  0.00000000000E+00 0. -1.
          1    1    5    5  503    0 -0.39964710792E+03  0.14295616923E+03  0.12168958235E+04  0.12887939023E+04  0.00000000000E+00 0. -1.
         -2    1    5    5    0  503 -0.90169424535E+02  0.69025817440E+02  0.40469047119E+03  0.42032067052E+03  0.00000000000E+00 0.  1.
         -1    1    6    6    0  502  0.39486612626E+02 -0.17260845398E+02  0.15930319528E+03  0.16502920162E+03  0.00000000000E+00 0.  1.
<mgrwt>
<rscale>  0 0.16682791E+04</rscale>
<asrwt>0</asrwt>
<pdfrwt beam="1">  1        2 0.38822596E+00 0.16682791E+04</pdfrwt>
<pdfrwt beam="2">  1       -2 0.42419558E-01 0.16682791E+04</pdfrwt>
<totfact> 0.16984348E+01</totfact>
</mgrwt>
</event>
<event>
12    1  0.1467288E-007  0.1183093E+04  0.7818608E-02  0.9127785E-01
          1   -1    0    0  501    0  0.00000000000E+00  0.00000000000E+00  0.32025403080E+03  0.32025403080E+03  0.00000000000E+00 0. -1.
         -1   -1    0    0    0  501 -0.00000000000E+00 -0.00000000000E+00 -0.10926551832E+04  0.10926551832E+04  0.00000000000E+00 0.  1.
         23    2    1    2    0    0 -0.23628710701E+03  0.38540078321E+02 -0.11612459342E+03  0.28158388091E+03  0.92128313881E+02 0.  0.
        254    2    1    2    0    0  0.23628710701E+03 -0.38540078321E+02 -0.65627655894E+03  0.11313253331E+04  0.88987704365E+03 0.  0.
        -24    2    4    4    0    0  0.47129854184E+03 -0.29640244639E+03 -0.37311825378E+03  0.67490849424E+03  0.79419887467E+02 0.  0.
         24    2    4    4    0    0 -0.23501143483E+03  0.25786236807E+03 -0.28315830516E+03  0.45641683881E+03  0.80089509950E+02 0.  0.
         13    1    3    3    0    0 -0.37263467380E+02  0.37932095639E+02 -0.46787525922E+02  0.70827130837E+02  0.00000000000E+00 0.  1.
        -13    1    3    3    0    0 -0.19902363963E+03  0.60798268250E+00 -0.69337067496E+02  0.21075675008E+03  0.00000000000E+00 0. -1.
          4    1    6    6  502    0 -0.17478639123E+03  0.19092560129E+03 -0.16163379359E+03  0.30516938086E+03  0.00000000000E+00 0. -1.
          1    1    5    5  503    0  0.33443366776E+03 -0.21362000835E+03 -0.22126573844E+03  0.45435439154E+03  0.00000000000E+00 0. -1.
         -2    1    5    5    0  503  0.13686487407E+03 -0.82782438041E+02 -0.15185251534E+03  0.22055410270E+03  0.00000000000E+00 0.  1.
         -3    1    6    6    0  502 -0.60225043597E+02  0.66936766786E+02 -0.12152451157E+03  0.15124745795E+03  0.00000000000E+00 0.  1.
<mgrwt>
<rscale>  0 0.11830929E+04</rscale>
<asrwt>0</asrwt>
<pdfrwt beam="1">  1        1 0.49269850E-01 0.11830929E+04</pdfrwt>
<pdfrwt beam="2">  1       -1 0.16810080E+00 0.11830929E+04</pdfrwt>
<totfact> 0.20269100E+01</totfact>
</mgrwt>
</event>
<event>
12    1  0.1467288E-007  0.3242381E+04  0.7818608E-02  0.8177713E-01
          1   -1    0    0  501    0  0.00000000000E+00  0.00000000000E+00  0.22950542391E+04  0.22950542391E+04  0.00000000000E+00 0. -1.
         -1   -1    0    0    0  501 -0.00000000000E+00 -0.00000000000E+00 -0.11451833191E+04  0.11451833191E+04  0.00000000000E+00 0.  1.
         23    2    1    2    0    0  0.10265602416E+04 -0.98860473078E+03  0.77586953611E+02  0.14302849118E+04  0.92357729993E+02 0.  0.
        254    2    1    2    0    0 -0.10265602416E+04  0.98860473078E+03  0.10722839664E+04  0.20099526463E+04  0.92679635988E+03 0.  0.
        -24    2    4    4    0    0  0.30600108635E+02  0.51894973465E+03  0.21947299925E+03  0.57055592585E+03  0.84382897484E+02 0.  0.
         24    2    4    4    0    0 -0.10571603502E+04  0.46965499613E+03  0.85281096711E+03  0.14393967205E+04  0.80078410598E+02 0.  0.
         11    1    3    3    0    0  0.72204182939E+03 -0.67763999501E+03  0.94491526173E+02  0.99472057119E+03  0.00000000000E+00 0.  1.
        -11    1    3    3    0    0  0.30451841221E+03 -0.31096473576E+03 -0.16904572562E+02  0.43556434064E+03  0.00000000000E+00 0. -1.
          2    1    6    6  502    0 -0.53889250837E+03  0.24741018027E+03  0.48591840407E+03  0.76663787298E+03  0.00000000000E+00 0. -1.
          3    1    5    5  503    0 -0.19744896827E+02  0.12086079787E+03  0.26463908048E+02  0.12528979145E+03  0.00000000000E+00 0. -1.
         -4    1    5    5    0  503  0.50345005463E+02  0.39808893677E+03  0.19300909120E+03  0.44526613440E+03  0.00000000000E+00 0.  1.
         -1    1    6    6    0  502 -0.51826784187E+03  0.22224481586E+03  0.36689256304E+03  0.67275884751E+03  0.00000000000E+00 0.  1.
<mgrwt>
<rscale>  0 0.32423805E+04</rscale>
<asrwt>0</asrwt>
<pdfrwt beam="1">  1        1 0.35308527E+00 0.32423805E+04</pdfrwt>
<pdfrwt beam="2">  1       -1 0.17618205E+00 0.32423805E+04</pdfrwt>
<totfact> 0.34671691E-01</totfact>
</mgrwt>
</event>
<event>
12    1  0.1467288E-007  0.1287862E+04  0.7818608E-02  0.9039246E-01
          2   -1    0    0  501    0  0.00000000000E+00  0.00000000000E+00  0.60207896937E+03  0.60207896937E+03  0.00000000000E+00 0. -1.
         -2   -1    0    0    0  501 -0.00000000000E+00 -0.00000000000E+00 -0.68869237268E+03  0.68869237268E+03  0.00000000000E+00 0.  1.
         23    2    1    2    0    0 -0.10124477051E+03 -0.27767998489E+03  0.96956461410E+02  0.32219944033E+03  0.83995514029E+02 0.  0.
        254    2    1    2    0    0  0.10124477051E+03  0.27767998489E+03 -0.18356986471E+03  0.96857190172E+03  0.90392309186E+03 0.  0.
        -24    2    4    4    0    0  0.17572672507E+03  0.50784427730E+03 -0.36693619353E+03  0.65561883313E+03  0.80051185696E+02 0.  0.
         24    2    4    4    0    0 -0.74481954563E+02 -0.23016429241E+03  0.18336632882E+03  0.31295306859E+03  0.76113399195E+02 0.  0.
         13    1    3    3    0    0 -0.22647511229E+02 -0.10366315605E+03 -0.40514996690E+01  0.10618556557E+03  0.00000000000E+00 0.  1.
        -13    1    3    3    0    0 -0.78597259282E+02 -0.17401682884E+03  0.10100796108E+03  0.21601387476E+03  0.00000000000E+00 0. -1.
          4    1    6    6  502    0  0.15668759432E+02 -0.25120164590E+02  0.22446378053E+02  0.37153365647E+02  0.00000000000E+00 0. -1.
          1    1    5    5  503    0  0.15609827817E+02  0.75731069539E+01 -0.18068743826E+02  0.25049913709E+02  0.00000000000E+00 0. -1.
         -2    1    5    5    0  503  0.16011689726E+03  0.50027117035E+03 -0.34886744971E+03  0.63056891942E+03  0.00000000000E+00 0.  1.
         -1    1    6    6    0  502 -0.90150713995E+02 -0.20504412782E+03  0.16091995077E+03  0.27579970294E+03  0.00000000000E+00 0.  1.
<mgrwt>
<rscale>  0 0.12878621E+04</rscale>
<asrwt>0</asrwt>
<pdfrwt beam="1">  1        2 0.92627534E-01 0.12878621E+04</pdfrwt>
<pdfrwt beam="2">  1       -2 0.10595267E+00 0.12878621E+04</pdfrwt>
<totfact> 0.34853622E+01</totfact>
</mgrwt>
</event>
<event>
12    1  0.1588694E-007  0.1618340E+04  0.7818608E-02  0.8809360E-01
          1   -1    0    0  501    0  0.00000000000E+00  0.00000000000E+00  0.16603510322E+04  0.16603510322E+04  0.00000000000E+00 0. -1.
         -1   -1    0    0    0  501 -0.00000000000E+00 -0.00000000000E+00 -0.39434806895E+03  0.39434806895E+03  0.00000000000E+00 0.  1.
         23    2    1    2    0    0  0.56525690919E+02  0.71625094235E+02 -0.25696797947E+03  0.28608083290E+03  0.86512384202E+02 0.  0.
        254    2    1    2    0    0 -0.56525690919E+02 -0.71625094235E+02  0.15229709427E+04  0.17686182683E+04  0.89456401591E+03 0.  0.
        -24    2    4    4    0    0  0.42644126301E+01 -0.45726104540E+03  0.10630636288E+04  0.11601240573E+04  0.81717198155E+02 0.  0.
         24    2    4    4    0    0 -0.60790103549E+02  0.38563595116E+03  0.45990731392E+03  0.60849421100E+03  0.79623764718E+02 0.  0.
         11    1    3    3    0    0  0.11872120708E+01 -0.11279153755E+02 -0.99465776683E+00  0.11384995652E+02  0.00000000000E+00 0. -1.
        -11    1    3    3    0    0  0.55338478848E+02  0.82904247990E+02 -0.25597332171E+03  0.27469583725E+03  0.00000000000E+00 0.  1.
          4    1    6    6  502    0 -0.27953381512E+02  0.34085319866E+03  0.38065673113E+03  0.51172438043E+03  0.00000000000E+00 0. -1.
          3    1    5    5  503    0  0.54711128781E+01 -0.45440707963E+03  0.10165026299E+04  0.11134600683E+04  0.00000000000E+00 0. -1.
         -2    1    5    5    0  503 -0.12067002480E+01 -0.28539657620E+01  0.46560998918E+02  0.46663988967E+02  0.00000000000E+00 0.  1.
         -3    1    6    6    0  502 -0.32836722037E+02  0.44782752502E+02  0.79250582794E+02  0.96769830572E+02  0.00000000000E+00 0.  1.
<mgrwt>
<rscale>  0 0.16183402E+04</rscale>
<asrwt>0</asrwt>
<pdfrwt beam="1">  1        1 0.25543862E+00 0.16183402E+04</pdfrwt>
<pdfrwt beam="2">  1       -1 0.60668935E-01 0.16183402E+04</pdfrwt>
<totfact> 0.13390961E+01</totfact>
</mgrwt>
</event>
<event>
12    1  0.1467288E-007  0.1408723E+04  0.7818608E-02  0.8947528E-01
          2   -1    0    0  501    0  0.00000000000E+00  0.00000000000E+00  0.91893863577E+03  0.91893863577E+03  0.00000000000E+00 0. -1.
         -2   -1    0    0    0  501 -0.00000000000E+00 -0.00000000000E+00 -0.53988956568E+03  0.53988956568E+03  0.00000000000E+00 0.  1.
         23    2    1    2    0    0 -0.11212249407E+03 -0.31123170189E+03  0.35586301077E+03  0.49438191174E+03  0.91314655359E+02 0.  0.
        254    2    1    2    0    0  0.11212249407E+03  0.31123170189E+03  0.23186059324E+02  0.96444628972E+03  0.90563923638E+03 0.  0.
        -24    2    4    4    0    0 -0.21217494920E+03 -0.23331315190E+03  0.30299401200E+01  0.32535325700E+03  0.79952019300E+02 0.  0.
         24    2    4    4    0    0  0.32429744326E+03  0.54454485379E+03  0.20156119204E+02  0.63909303271E+03  0.79597147122E+02 0.  0.
         11    1    3    3    0    0 -0.49875925536E+02 -0.89922645094E+02  0.17031450189E+03  0.19894903770E+03  0.00000000000E+00 0. -1.
        -11    1    3    3    0    0 -0.62246568531E+02 -0.22130905679E+03  0.18554850888E+03  0.29543287403E+03  0.00000000000E+00 0.  1.
          2    1    6    6  502    0  0.19201607835E+01  0.28880631900E+02  0.10756237176E+02  0.30878383289E+02  0.00000000000E+00 0. -1.
          1    1    5    5  503    0 -0.37102433692E+02 -0.13467693525E+02  0.19113344866E+02  0.43855322445E+02  0.00000000000E+00 0. -1.
         -2    1    5    5    0  503 -0.17507251550E+03 -0.21984545837E+03 -0.16083404746E+02  0.28149793456E+03  0.00000000000E+00 0.  1.
         -1    1    6    6    0  502  0.32237728248E+03  0.51566422189E+03  0.93998820278E+01  0.60821464943E+03  0.00000000000E+00 0.  1.
<mgrwt>
<rscale>  0 0.14087234E+04</rscale>
<asrwt>0</asrwt>
<pdfrwt beam="1">  1        2 0.14137517E+00 0.14087234E+04</pdfrwt>
<pdfrwt beam="2">  1       -2 0.83059933E-01 0.14087234E+04</pdfrwt>
<totfact> 0.35179010E+01</totfact>
</mgrwt>
</event>
<event>
12    1  0.1467288E-007  0.2215540E+04  0.7818608E-02  0.8511988E-01
         -1   -1    0    0    0  501 -0.00000000000E+00  0.00000000000E+00  0.54748162624E+03  0.54748162624E+03  0.00000000000E+00 0.  1.
          1   -1    0    0  501    0  0.00000000000E+00 -0.00000000000E+00 -0.22414523616E+04  0.22414523616E+04  0.00000000000E+00 0. -1.
         23    2    1    2    0    0  0.54867426194E+03  0.67995658020E+03 -0.33309982546E+03  0.93915479488E+03  0.87589030980E+02 0.  0.
        254    2    1    2    0    0 -0.54867426194E+03 -0.67995658020E+03 -0.13608709099E+04  0.18497791930E+04  0.89795825776E+03 0.  0.
        -24    2    4    4    0    0 -0.44022126934E+03  0.10064453484E+03 -0.55070008609E+03  0.71663920157E+03  0.79856571659E+02 0.  0.
         24    2    4    4    0    0 -0.10845299260E+03 -0.78060111504E+03 -0.81017082384E+03  0.11331399914E+04  0.80804232369E+02 0.  0.
         11    1    3    3    0    0  0.12641747391E+03  0.10267525870E+03 -0.60319658426E+02  0.17367224203E+03  0.00000000000E+00 0.  1.
        -11    1    3    3    0    0  0.42225678803E+03  0.57728132150E+03 -0.27278016704E+03  0.76548255285E+03  0.00000000000E+00 0. -1.
          2    1    6    6  502    0 -0.75691609667E+01 -0.89566711029E+02 -0.59177760287E+02  0.10761735564E+03  0.00000000000E+00 0. -1.
          1    1    5    5  503    0 -0.47903350565E+02  0.10032513687E+02 -0.26527045782E+02  0.55669259778E+02  0.00000000000E+00 0. -1.
         -2    1    5    5    0  503 -0.39231791877E+03  0.90612021151E+02 -0.52417304031E+03  0.66096994179E+03  0.00000000000E+00 0.  1.
         -1    1    6    6    0  502 -0.10088383163E+03 -0.69103440401E+03 -0.75099306355E+03  0.10255226358E+04  0.00000000000E+00 0.  1.
<mgrwt>
<rscale>  0 0.22155396E+04</rscale>
<asrwt>0</asrwt>
<pdfrwt beam="1">  1        1 0.34483883E+00 0.22155396E+04</pdfrwt>
<pdfrwt beam="2">  1       -1 0.84227942E-01 0.22155396E+04</pdfrwt>
<totfact> 0.25947177E+00</totfact>
</mgrwt>
</event>
<event>
12    1  0.1467288E-007  0.1785495E+04  0.7818608E-02  0.8714051E-01
         -1   -1    0    0    0  501 -0.00000000000E+00  0.00000000000E+00  0.75086435850E+03  0.75086435850E+03  0.00000000000E+00 0.  1.
          1   -1    0    0  501    0  0.00000000000E+00 -0.00000000000E+00 -0.10614414098E+04  0.10614414098E+04  0.00000000000E+00 0. -1.
         23    2    1    2    0    0 -0.40314814467E+03  0.25132014808E+03 -0.58160875094E+03  0.75663037666E+03  0.92360945890E+02 0.  0.
        254    2    1    2    0    0  0.40314814467E+03 -0.25132014808E+03  0.27103169967E+03  0.10556753916E+04  0.90294081028E+03 0.  0.
        -24    2    4    4    0    0 -0.18746937819E+03  0.10218035830E+03  0.28219377887E+03  0.36259879173E+03  0.79113599044E+02 0.  0.
         24    2    4    4    0    0  0.59061752286E+03 -0.35350050638E+03 -0.11162079200E+02  0.69307659989E+03  0.80242849984E+02 0.  0.
         13    1    3    3    0    0 -0.11496542831E+03  0.10799493905E+03 -0.24081642367E+03  0.28787585254E+03  0.00000000000E+00 0. -1.
        -13    1    3    3    0    0 -0.28818271636E+03  0.14332520903E+03 -0.34079232727E+03  0.46875452411E+03  0.00000000000E+00 0.  1.
          4    1    6    6  502    0  0.20036538425E+03 -0.16491552294E+03 -0.82591593198E+01  0.25963749850E+03  0.00000000000E+00 0. -1.
          1    1    5    5  503    0 -0.93184779523E+01 -0.82504110420E+01  0.18808801765E+01  0.12587335856E+02  0.00000000000E+00 0. -1.
         -2    1    5    5    0  503 -0.17815090024E+03  0.11043076934E+03  0.28031289869E+03  0.35001145588E+03  0.00000000000E+00 0.  1.
         -3    1    6    6    0  502  0.39025213861E+03 -0.18858498344E+03 -0.29029198805E+01  0.43343910139E+03  0.00000000000E+00 0.  1.
<mgrwt>
<rscale>  0 0.17854955E+04</rscale>
<asrwt>0</asrwt>
<pdfrwt beam="1">  1        1 0.16329868E+00 0.17854955E+04</pdfrwt>
<pdfrwt beam="2">  1       -1 0.11551759E+00 0.17854955E+04</pdfrwt>
<totfact> 0.87023483E+00</totfact>
</mgrwt>
</event>
<event>
12    1  0.1467288E-007  0.2112425E+04  0.7818608E-02  0.8555790E-01
         -1   -1    0    0    0  501 -0.00000000000E+00  0.00000000000E+00  0.19479892834E+04  0.19479892834E+04  0.00000000000E+00 0.  1.
          1   -1    0    0  501    0  0.00000000000E+00 -0.00000000000E+00 -0.57268511175E+03  0.57268511175E+03  0.00000000000E+00 0. -1.
         23    2    1    2    0    0  0.43488221107E+03  0.46938356744E+03  0.12547969992E+04  0.14114657292E+04  0.90975406520E+02 0.  0.
        254    2    1    2    0    0 -0.43488221107E+03 -0.46938356744E+03  0.12050717254E+03  0.11092086660E+04  0.89798575450E+03 0.  0.
        -24    2    4    4    0    0 -0.14950948977E+03  0.25386030505E+03  0.11487958756E+03  0.32763469023E+03  0.85726475446E+02 0.  0.
         24    2    4    4    0    0 -0.28537272130E+03 -0.72324387249E+03  0.56275849745E+01  0.78157397581E+03  0.79416124269E+02 0.  0.
         13    1    3    3    0    0  0.17968993954E+03  0.25542046056E+03  0.64645932388E+03  0.71793993027E+03  0.00000000000E+00 0.  1.
        -13    1    3    3    0    0  0.25519227153E+03  0.21396310688E+03  0.60833767529E+03  0.69352579889E+03  0.00000000000E+00 0. -1.
          4    1    6    6  502    0 -0.47774609946E+02 -0.74183902177E+02  0.19018990685E+02  0.90262875560E+02  0.00000000000E+00 0. -1.
          3    1    5    5  503    0 -0.44683736159E+02  0.23571676651E+02  0.19628367580E+01  0.50558015640E+02  0.00000000000E+00 0. -1.
         -4    1    5    5    0  503 -0.10482575361E+03  0.23028862840E+03  0.11291675080E+03  0.27707667459E+03  0.00000000000E+00 0.  1.
         -3    1    6    6    0  502 -0.23759811135E+03 -0.64905997031E+03 -0.13391405710E+02  0.69131110025E+03  0.00000000000E+00 0.  1.
<mgrwt>
<rscale>  0 0.21124246E+04</rscale>
<asrwt>0</asrwt>
<pdfrwt beam="1">  1        1 0.88105403E-01 0.21124246E+04</pdfrwt>
<pdfrwt beam="2">  1       -1 0.29969066E+00 0.21124246E+04</pdfrwt>
<totfact> 0.11168420E+00</totfact>
</mgrwt>
</event>
<event>
12    1  0.1467288E-007  0.1340640E+04  0.7818608E-02  0.8997944E-01
         -1   -1    0    0    0  501 -0.00000000000E+00  0.00000000000E+00  0.10551754935E+04  0.10551754935E+04  0.00000000000E+00 0.  1.
          1   -1    0    0  501    0  0.00000000000E+00 -0.00000000000E+00 -0.42583308791E+03  0.42583308791E+03  0.00000000000E+00 0. -1.
         23    2    1    2    0    0 -0.23866894195E+02 -0.32551326075E+03 -0.56352263584E+02  0.34438599015E+03  0.94327202008E+02 0.  0.
        254    2    1    2    0    0  0.23866894195E+02  0.32551326075E+03  0.68569466913E+03  0.11366225912E+04  0.84569806906E+03 0.  0.
        -24    2    4    4    0    0 -0.34549105767E+03  0.16527303130E+02  0.50394194469E+03  0.61646611633E+03  0.80223227862E+02 0.  0.
         24    2    4    4    0    0  0.36935795187E+03  0.30898595762E+03  0.18175272444E+03  0.52015647488E+03  0.75040568390E+02 0.  0.
         11    1    3    3    0    0  0.25617415586E+01 -0.11970875933E+03 -0.65897650092E+02  0.13667205226E+03  0.00000000000E+00 0. -1.
        -11    1    3    3    0    0 -0.26428635754E+02 -0.20580450142E+03  0.95453865080E+01  0.20771393789E+03  0.00000000000E+00 0.  1.
          2    1    6    6  502    0  0.97001660315E+02  0.48226303577E+02  0.21426907962E+02  0.11042740079E+03  0.00000000000E+00 0. -1.
          1    1    5    5  503    0 -0.14481020750E+02  0.13450365435E+02  0.56706781858E+02  0.60052238934E+02  0.00000000000E+00 0. -1.
         -2    1    5    5    0  503 -0.33101003692E+03  0.30769376955E+01  0.44723516283E+03  0.55641387739E+03  0.00000000000E+00 0.  1.
         -1    1    6    6    0  502  0.27235629155E+03  0.26075965404E+03  0.16032581648E+03  0.40972907409E+03  0.00000000000E+00 0.  1.
<mgrwt>
<rscale>  0 0.13406396E+04</rscale>
<asrwt>0</asrwt>
<pdfrwt beam="1">  1        1 0.65512783E-01 0.13406396E+04</pdfrwt>
<pdfrwt beam="2">  1       -1 0.16233469E+00 0.13406396E+04</pdfrwt>
<totfact> 0.15163517E+01</totfact>
</mgrwt>
</event>
<event>
12    1  0.1467288E-007  0.1497876E+04  0.7818608E-02  0.8885867E-01
         -2   -1    0    0    0  501 -0.00000000000E+00  0.00000000000E+00  0.22549583006E+03  0.22549583006E+03  0.00000000000E+00 0.  1.
          2   -1    0    0  501    0  0.00000000000E+00 -0.00000000000E+00 -0.24874426219E+04  0.24874426219E+04  0.00000000000E+00 0. -1.
         23    2    1    2    0    0  0.46491741045E+03 -0.46622015020E+02 -0.77802916966E+03  0.91180365368E+03  0.87947161335E+02 0.  0.
        254    2    1    2    0    0 -0.46491741045E+03  0.46622015020E+02 -0.14839176222E+04  0.18011347983E+04  0.90760852871E+03 0.  0.
        -24    2    4    4    0    0 -0.67299198798E+03 -0.17359571783E+03 -0.11227988356E+04  0.13229449847E+04  0.80327567829E+02 0.  0.
         24    2    4    4    0    0  0.20807457753E+03  0.22021773285E+03 -0.36111878663E+03  0.47818981364E+03  0.80422883181E+02 0.  0.
         11    1    3    3    0    0  0.14142133729E+03  0.13700627201E+02 -0.18116861052E+03  0.23023850082E+03  0.00000000000E+00 0.  1.
        -11    1    3    3    0    0  0.32349607316E+03 -0.60322642221E+02 -0.59686055915E+03  0.68156515285E+03  0.00000000000E+00 0. -1.
          2    1    6    6  502    0  0.70315022392E+02  0.79684912605E+02 -0.71680099840E+02  0.12818706793E+03  0.00000000000E+00 0. -1.
          1    1    5    5  503    0 -0.50957832657E+02 -0.16084811782E+02 -0.13321886389E+03  0.14353636325E+03  0.00000000000E+00 0. -1.
         -2    1    5    5    0  503 -0.62203415532E+03 -0.15751090605E+03 -0.98957997171E+03  0.11794086214E+04  0.00000000000E+00 0.  1.
         -1    1    6    6    0  502  0.13775955514E+03  0.14053282025E+03 -0.28943868679E+03  0.35000274572E+03  0.00000000000E+00 0.  1.
<mgrwt>
<rscale>  0 0.14978757E+04</rscale>
<asrwt>0</asrwt>
<pdfrwt beam="1">  1        2 0.38268350E+00 0.14978757E+04</pdfrwt>
<pdfrwt beam="2">  1       -2 0.34691665E-01 0.14978757E+04</pdfrwt>
<totfact> 0.26726714E+01</totfact>
</mgrwt>
</event>
<event>
12    1  0.1467288E-007  0.2339154E+04  0.7818608E-02  0.8462641E-01
         -2   -1    0    0    0  501 -0.00000000000E+00  0.00000000000E+00  0.13465399102E+04  0.13465399102E+04  0.00000000000E+00 0.  1.
          2   -1    0    0  501    0  0.00000000000E+00 -0.00000000000E+00 -0.10158706282E+04  0.10158706282E+04  0.00000000000E+00 0. -1.
         23    2    1    2    0    0 -0.25829464514E+03 -0.52558438806E+03 -0.67339368138E+03  0.89694637605E+03  0.89992659109E+02 0.  0.
        254    2    1    2    0    0  0.25829464514E+03  0.52558438806E+03  0.10040629633E+04  0.14654641624E+04  0.89246159814E+03 0.  0.
        -24    2    4    4    0    0 -0.25869073677E+03  0.40414873358E+03  0.68520790815E+03  0.84058099946E+03  0.82519349884E+02 0.  0.
         24    2    4    4    0    0  0.51698538191E+03  0.12143565448E+03  0.31885505519E+03  0.62488316292E+03  0.82400957419E+02 0.  0.
         11    1    3    3    0    0 -0.16922953151E+03 -0.37343818406E+03 -0.52759925963E+03  0.66817339846E+03  0.00000000000E+00 0. -1.
        -11    1    3    3    0    0 -0.89065113636E+02 -0.15214620400E+03 -0.14579442175E+03  0.22877297758E+03  0.00000000000E+00 0.  1.
          4    1    6    6  502    0  0.34003333695E+03  0.11953744842E+03  0.21160729508E+03  0.41795875292E+03  0.00000000000E+00 0. -1.
          1    1    5    5  503    0 -0.27362508815E+01 -0.27281277573E+01  0.17031168853E+02  0.17463976135E+02  0.00000000000E+00 0. -1.
         -2    1    5    5    0  503 -0.25595448589E+03  0.40687686134E+03  0.66817673930E+03  0.82311702332E+03  0.00000000000E+00 0.  1.
         -3    1    6    6    0  502  0.17695204497E+03  0.18982060619E+01  0.10724776012E+03  0.20692441000E+03  0.00000000000E+00 0.  1.
<mgrwt>
<rscale>  0 0.23391540E+04</rscale>
<asrwt>0</asrwt>
<pdfrwt beam="1">  1        2 0.15628779E+00 0.23391540E+04</pdfrwt>
<pdfrwt beam="2">  1       -2 0.20715999E+00 0.23391540E+04</pdfrwt>
<totfact> 0.26554251E+00</totfact>
</mgrwt>
</event>
<event>
12    1  0.1467288E-007  0.2034842E+04  0.7818608E-02  0.8590502E-01
          2   -1    0    0  501    0  0.00000000000E+00  0.00000000000E+00  0.78077513963E+03  0.78077513963E+03  0.00000000000E+00 0. -1.
         -2   -1    0    0    0  501 -0.00000000000E+00 -0.00000000000E+00 -0.13257916009E+04  0.13257916009E+04  0.00000000000E+00 0.  1.
         23    2    1    2    0    0 -0.47089984565E+03  0.52468776963E+02 -0.90889171756E+03  0.10290611733E+04  0.91559308829E+02 0.  0.
        254    2    1    2    0    0  0.47089984565E+03 -0.52468776963E+02  0.36387525627E+03  0.10775055672E+04  0.89672370778E+03 0.  0.
        -24    2    4    4    0    0  0.68686745869E+03 -0.19592288184E+03  0.15528795512E+03  0.73537191987E+03  0.80528442787E+02 0.  0.
         24    2    4    4    0    0 -0.21596761304E+03  0.14345410488E+03  0.20858730114E+03  0.34213364735E+03  0.79534145893E+02 0.  0.
         11    1    3    3    0    0 -0.45576378424E+03  0.64524306863E+02 -0.89014641729E+03  0.10021200813E+04  0.00000000000E+00 0.  1.
        -11    1    3    3    0    0 -0.15136061401E+02 -0.12055529900E+02 -0.18745300273E+02  0.26941092001E+02  0.00000000000E+00 0. -1.
          4    1    6    6  502    0 -0.13465670292E+03  0.94080536649E+02  0.81461079676E+02  0.18335616303E+03  0.00000000000E+00 0. -1.
          3    1    5    5  503    0  0.12358002394E+03 -0.29419328839E+02  0.59326891234E+02  0.14020413421E+03  0.00000000000E+00 0. -1.
         -4    1    5    5    0  503  0.56328743474E+03 -0.16650355301E+03  0.95961063890E+02  0.59516778566E+03  0.00000000000E+00 0.  1.
         -3    1    6    6    0  502 -0.81310910118E+02  0.49373568232E+02  0.12712622147E+03  0.15877748432E+03  0.00000000000E+00 0.  1.
<mgrwt>
<rscale>  0 0.20348416E+04</rscale>
<asrwt>0</asrwt>
<pdfrwt beam="1">  1        2 0.12011925E+00 0.20348416E+04</pdfrwt>
<pdfrwt beam="2">  1       -2 0.20396794E+00 0.20348416E+04</pdfrwt>
<totfact> 0.41270279E+00</totfact>
</mgrwt>
</event>
<event>
12    1  0.1467288E-007  0.1633596E+04  0.7818608E-02  0.8800170E-01
          1   -1    0    0  501    0  0.00000000000E+00  0.00000000000E+00  0.10531064341E+04  0.10531064341E+04  0.00000000000E+00 0. -1.
         -1   -1    0    0    0  501 -0.00000000000E+00 -0.00000000000E+00 -0.63351561105E+03  0.63351561105E+03  0.00000000000E+00 0.  1.
         23    2    1    2    0    0 -0.39107395724E+03  0.68808576392E+00 -0.28278771906E+03  0.49081357518E+03  0.89385446437E+02 0.  0.
        254    2    1    2    0    0  0.39107395724E+03 -0.68808576392E+00  0.70237854213E+03  0.11958084700E+04  0.88525870058E+03 0.  0.
        -24    2    4    4    0    0  0.46948897588E+03 -0.32325357241E+03  0.61656027515E+03  0.84332316560E+03  0.78323803568E+02 0.  0.
         24    2    4    4    0    0 -0.78415018636E+02  0.32256548665E+03  0.85818266986E+02  0.35248530438E+03  0.81753938959E+02 0.  0.
         13    1    3    3    0    0 -0.17993089626E+03  0.13907213230E+02 -0.18260367359E+03  0.25673457036E+03  0.00000000000E+00 0.  1.
        -13    1    3    3    0    0 -0.21114306098E+03 -0.13219127466E+02 -0.10018404547E+03  0.23407900482E+03  0.00000000000E+00 0. -1.
          2    1    6    6  502    0 -0.30600890511E+02  0.20546504145E+03  0.16838358182E+02  0.20841263893E+03  0.00000000000E+00 0. -1.
          3    1    5    5  503    0  0.31298027137E+03 -0.24256481317E+03  0.38368000782E+03  0.55136620068E+03  0.00000000000E+00 0. -1.
         -4    1    5    5    0  503  0.15650870451E+03 -0.80688759240E+02  0.23288026733E+03  0.29195696492E+03  0.00000000000E+00 0.  1.
         -1    1    6    6    0  502 -0.47814128125E+02  0.11710044520E+03  0.68979908804E+02  0.14407266546E+03  0.00000000000E+00 0.  1.
<mgrwt>
<rscale>  0 0.16335965E+04</rscale>
<asrwt>0</asrwt>
<pdfrwt beam="1">  1        1 0.16201637E+00 0.16335965E+04</pdfrwt>
<pdfrwt beam="2">  1       -1 0.97463940E-01 0.16335965E+04</pdfrwt>
<totfact> 0.13312080E+01</totfact>
</mgrwt>
</event>
<event>
12    1  0.1467288E-007  0.2608103E+04  0.7818608E-02  0.8365454E-01
          2   -1    0    0  501    0  0.00000000000E+00  0.00000000000E+00  0.12259556933E+04  0.12259556933E+04  0.00000000000E+00 0. -1.
         -2   -1    0    0    0  501 -0.00000000000E+00 -0.00000000000E+00 -0.13871217488E+04  0.13871217488E+04  0.00000000000E+00 0.  1.
         23    2    1    2    0    0 -0.39412475558E+03  0.10634293753E+04 -0.21494925145E+03  0.11580195366E+04  0.92680673991E+02 0.  0.
        254    2    1    2    0    0  0.39412475558E+03 -0.10634293753E+04  0.53783196022E+02  0.14550579055E+04  0.90999149276E+03 0.  0.
        -24    2    4    4    0    0 -0.15404105775E+03  0.48799806384E+02  0.11304806252E+03  0.21129020650E+03  0.75852609388E+02 0.  0.
         24    2    4    4    0    0  0.54816581333E+03 -0.11122291817E+04 -0.59264866496E+02  0.12437676990E+04  0.76852151017E+02 0.  0.
         11    1    3    3    0    0 -0.10387851606E+03  0.17915853809E+03 -0.32833080679E+02  0.20968199507E+03  0.00000000000E+00 0. -1.
        -11    1    3    3    0    0 -0.29024623952E+03  0.88427083722E+03 -0.18211617077E+03  0.94833754158E+03  0.00000000000E+00 0.  1.
          4    1    6    6  502    0  0.41708314207E+03 -0.78384744480E+03 -0.63402414114E+02  0.89016573189E+03  0.00000000000E+00 0. -1.
          1    1    5    5  503    0 -0.11864999085E+03  0.33301286231E+02  0.12002939733E+03  0.17202863778E+03  0.00000000000E+00 0. -1.
         -2    1    5    5    0  503 -0.35391066899E+02  0.15498520153E+02 -0.69813348097E+01  0.39261568727E+02  0.00000000000E+00 0.  1.
         -3    1    6    6    0  502  0.13108267125E+03 -0.32838173689E+03  0.41375476182E+01  0.35360196708E+03  0.00000000000E+00 0.  1.
<mgrwt>
<rscale>  0 0.26081026E+04</rscale>
<asrwt>0</asrwt>
<pdfrwt beam="1">  1        2 0.18860857E+00 0.26081026E+04</pdfrwt>
<pdfrwt beam="2">  1       -2 0.21340335E+00 0.26081026E+04</pdfrwt>
<totfact> 0.17591823E+00</totfact>
</mgrwt>
</event>
<event>
12    1  0.1467288E-007  0.1598871E+04  0.7818608E-02  0.8821242E-01
         -2   -1    0    0    0  501 -0.00000000000E+00  0.00000000000E+00  0.25305795690E+03  0.25305795690E+03  0.00000000000E+00 0.  1.
          2   -1    0    0  501    0  0.00000000000E+00 -0.00000000000E+00 -0.25254967616E+04  0.25254967616E+04  0.00000000000E+00 0. -1.
         23    2    1    2    0    0 -0.46947396230E+03  0.24642932322E+03 -0.60768963161E+03  0.81161806656E+03  0.91126203586E+02 0.  0.
        254    2    1    2    0    0  0.46947396230E+03 -0.24642932322E+03 -0.16647491731E+04  0.19669366519E+04  0.90350250184E+03 0.  0.
        -24    2    4    4    0    0 -0.19039164575E+03 -0.31722104259E+03 -0.62260394001E+03  0.72880495030E+03  0.81503501969E+02 0.  0.
         24    2    4    4    0    0  0.65986560805E+03  0.70791719370E+02 -0.10421452330E+04  0.12381317016E+04  0.80432179908E+02 0.  0.
         13    1    3    3    0    0 -0.46907233812E+03  0.25088002157E+03 -0.59477291900E+03  0.79795016686E+03  0.00000000000E+00 0. -1.
        -13    1    3    3    0    0 -0.40162418505E+00 -0.44506983471E+01 -0.12916712604E+02  0.13667899702E+02  0.00000000000E+00 0.  1.
          4    1    6    6  502    0  0.16952955678E+02 -0.30291475713E+01 -0.10067192952E+02  0.19948103047E+02  0.00000000000E+00 0. -1.
          3    1    5    5  503    0 -0.62678510482E+02 -0.11388478147E+03 -0.14847350848E+03  0.19733910370E+03  0.00000000000E+00 0. -1.
         -4    1    5    5    0  503 -0.12771313526E+03 -0.20333626112E+03 -0.47413043153E+03  0.53146584660E+03  0.00000000000E+00 0.  1.
         -3    1    6    6    0  502  0.64291265237E+03  0.73820866941E+02 -0.10320780401E+04  0.12181835986E+04  0.00000000000E+00 0.  1.
<mgrwt>
<rscale>  0 0.15988709E+04</rscale>
<asrwt>0</asrwt>
<pdfrwt beam="1">  1        2 0.38853798E+00 0.15988709E+04</pdfrwt>
<pdfrwt beam="2">  1       -2 0.38931992E-01 0.15988709E+04</pdfrwt>
<totfact> 0.20165975E+01</totfact>
</mgrwt>
</event>
<event>
12    1  0.1467288E-007  0.1348907E+04  0.7818608E-02  0.8991656E-01
         -2   -1    0    0    0  501 -0.00000000000E+00  0.00000000000E+00  0.10259921840E+04  0.10259921840E+04  0.00000000000E+00 0.  1.
          2   -1    0    0  501    0  0.00000000000E+00 -0.00000000000E+00 -0.44336321248E+03  0.44336321248E+03  0.00000000000E+00 0. -1.
         23    2    1    2    0    0 -0.27500742747E+03 -0.20130167506E+03  0.30308116449E+03  0.46523079034E+03  0.91815284497E+02 0.  0.
        254    2    1    2    0    0  0.27500742747E+03  0.20130167506E+03  0.27954780701E+03  0.10041246061E+04  0.90220163970E+03 0.  0.
        -24    2    4    4    0    0 -0.13094195338E+03 -0.68642351788E+02  0.45137885672E+03  0.48150157410E+03  0.79014719848E+02 0.  0.
         24    2    4    4    0    0  0.40594938085E+03  0.26994402685E+03 -0.17183104970E+03  0.52262303203E+03  0.77098939826E+02 0.  0.
         13    1    3    3    0    0 -0.13793433305E+03 -0.49913059772E+02  0.15167684250E+03  0.21100487748E+03  0.00000000000E+00 0.  1.
        -13    1    3    3    0    0 -0.13707309442E+03 -0.15138861529E+03  0.15140432199E+03  0.25422591286E+03  0.00000000000E+00 0. -1.
          2    1    6    6  502    0  0.19602575853E+03  0.14400473090E+03 -0.12464861365E+03  0.27331435640E+03  0.00000000000E+00 0. -1.
          3    1    5    5  503    0 -0.12452098983E+03 -0.82115476933E+02  0.43210335451E+03  0.45712332848E+03  0.00000000000E+00 0. -1.
         -4    1    5    5    0  503 -0.64209635573E+01  0.13473125145E+02  0.19275502201E+02  0.24378245615E+02  0.00000000000E+00 0.  1.
         -1    1    6    6    0  502  0.20992362232E+03  0.12593929595E+03 -0.47182436048E+02  0.24930867563E+03  0.00000000000E+00 0.  1.
<mgrwt>
<rscale>  0 0.13489065E+04</rscale>
<asrwt>0</asrwt>
<pdfrwt beam="1">  1        2 0.68209725E-01 0.13489065E+04</pdfrwt>
<pdfrwt beam="2">  1       -2 0.15784495E+00 0.13489065E+04</pdfrwt>
<totfact> 0.18041042E+01</totfact>
</mgrwt>
</event>
<event>
12    1  0.1467288E-007  0.1345333E+04  0.7818608E-02  0.8994369E-01
         -2   -1    0    0    0  501 -0.00000000000E+00  0.00000000000E+00  0.71474664752E+03  0.71474664752E+03  0.00000000000E+00 0.  1.
          2   -1    0    0  501    0  0.00000000000E+00 -0.00000000000E+00 -0.63306377159E+03  0.63306377159E+03  0.00000000000E+00 0. -1.
         23    2    1    2    0    0  0.36362250377E+03 -0.25635623677E+02  0.30466660967E+02  0.37701246972E+03  0.91278006373E+02 0.  0.
        254    2    1    2    0    0 -0.36362250377E+03  0.25635623677E+02  0.51216214958E+02  0.97079794938E+03  0.89830231404E+03 0.  0.
        -24    2    4    4    0    0  0.43280286285E+02 -0.33964390736E+03  0.19209164423E+03  0.40049429433E+03  0.79153730323E+02 0.  0.
         24    2    4    4    0    0 -0.40690279006E+03  0.36527953104E+03 -0.14087542927E+03  0.57030365505E+03  0.80008474812E+02 0.  0.
         11    1    3    3    0    0  0.24783412223E+03 -0.21412296882E+02  0.63106925228E+02  0.25663733675E+03  0.00000000000E+00 0.  1.
        -11    1    3    3    0    0  0.11578838154E+03 -0.42233267955E+01 -0.32640264261E+02  0.12037513298E+03  0.00000000000E+00 0. -1.
          4    1    6    6  502    0 -0.31650936867E+03  0.24366733693E+03 -0.82181356154E+02  0.40780599167E+03  0.00000000000E+00 0. -1.
          1    1    5    5  503    0  0.59073719871E+02 -0.16462808582E+03  0.82422188122E+02  0.19335337627E+03  0.00000000000E+00 0. -1.
         -2    1    5    5    0  503 -0.15793433586E+02 -0.17501582154E+03  0.10966945610E+03  0.20714091806E+03  0.00000000000E+00 0.  1.
         -3    1    6    6    0  502 -0.90393421390E+02  0.12161219411E+03 -0.58694073113E+02  0.16249766339E+03  0.00000000000E+00 0.  1.
<mgrwt>
<rscale>  0 0.13453330E+04</rscale>
<asrwt>0</asrwt>
<pdfrwt beam="1">  1        2 0.97394426E-01 0.13453330E+04</pdfrwt>
<pdfrwt beam="2">  1       -2 0.10996102E+00 0.13453330E+04</pdfrwt>
<totfact> 0.29847829E+01</totfact>
</mgrwt>
</event>
<event>
12    1  0.1467288E-007  0.2386606E+04  0.7818608E-02  0.8444535E-01
          2   -1    0    0  501    0  0.00000000000E+00  0.00000000000E+00  0.14078047539E+04  0.14078047539E+04  0.00000000000E+00 0. -1.
         -2   -1    0    0    0  501 -0.00000000000E+00 -0.00000000000E+00 -0.10114841089E+04  0.10114841089E+04  0.00000000000E+00 0.  1.
         23    2    1    2    0    0 -0.73678490930E+03 -0.69318293258E+03  0.19122415995E+03  0.10337080069E+04  0.92903086539E+02 0.  0.
        254    2    1    2    0    0  0.73678490930E+03  0.69318293258E+03  0.20509648507E+03  0.13855808560E+04  0.92434580092E+03 0.  0.
        -24    2    4    4    0    0  0.78948291357E+03  0.55081882469E+03 -0.16256711705E+03  0.97967708194E+03  0.81574927967E+02 0.  0.
         24    2    4    4    0    0 -0.52698004265E+02  0.14236410789E+03  0.36766360213E+03  0.40590377405E+03  0.80850050018E+02 0.  0.
         11    1    3    3    0    0 -0.10819311035E+01 -0.61559843507E+00 -0.43756657758E+01  0.45492842654E+01  0.00000000000E+00 0. -1.
        -11    1    3    3    0    0 -0.73570297820E+03 -0.69256733414E+03  0.19559982572E+03  0.10291587226E+04  0.00000000000E+00 0.  1.
          4    1    6    6  502    0 -0.27741270770E+02  0.12520823708E+03  0.34503858567E+03  0.36810094585E+03  0.00000000000E+00 0. -1.
          3    1    5    5  503    0  0.51824796715E+03  0.32002979200E+03 -0.82578442051E+02  0.61467001091E+03  0.00000000000E+00 0. -1.
         -4    1    5    5    0  503  0.27123494642E+03  0.23078903269E+03 -0.79988675003E+02  0.36500707102E+03  0.00000000000E+00 0.  1.
         -3    1    6    6    0  502 -0.24956733495E+02  0.17155870801E+02  0.22625016461E+02  0.37802828195E+02  0.00000000000E+00 0.  1.
<mgrwt>
<rscale>  0 0.23866061E+04</rscale>
<asrwt>0</asrwt>
<pdfrwt beam="1">  1        2 0.21658535E+00 0.23866061E+04</pdfrwt>
<pdfrwt beam="2">  1       -2 0.15561294E+00 0.23866061E+04</pdfrwt>
<totfact> 0.35026237E+00</totfact>
</mgrwt>
</event>
<event>
12    1  0.1467288E-007  0.2361205E+04  0.7818608E-02  0.8454172E-01
          1   -1    0    0  501    0  0.00000000000E+00  0.00000000000E+00  0.17585277502E+04  0.17585277502E+04  0.00000000000E+00 0. -1.
         -1   -1    0    0    0  501 -0.00000000000E+00 -0.00000000000E+00 -0.79260761600E+03  0.79260761600E+03  0.00000000000E+00 0.  1.
         23    2    1    2    0    0 -0.70829761788E+03  0.12786149837E+03  0.11776909141E+04  0.13834714860E+04  0.94886169873E+02 0.  0.
        254    2    1    2    0    0  0.70829761788E+03 -0.12786149837E+03 -0.21177077990E+03  0.11676638802E+04  0.89473906565E+03 0.  0.
        -24    2    4    4    0    0  0.36298719143E+03 -0.57660540881E+02 -0.55436214165E+03  0.66979777666E+03  0.78912853192E+02 0.  0.
         24    2    4    4    0    0  0.34531042644E+03 -0.70200957487E+02  0.34259136175E+03  0.49786610352E+03  0.79588635149E+02 0.  0.
         13    1    3    3    0    0 -0.13941586521E+03  0.63841549468E+02  0.23699597374E+03  0.28227578444E+03  0.00000000000E+00 0.  1.
        -13    1    3    3    0    0 -0.56888175266E+03  0.64019948900E+02  0.94069494036E+03  0.11011957016E+04  0.00000000000E+00 0. -1.
          2    1    6    6  502    0  0.33928476406E+03 -0.59905566657E+02  0.34268293143E+03  0.48593664148E+03  0.00000000000E+00 0. -1.
          3    1    5    5  503    0  0.18860257993E+03 -0.20863402076E+02 -0.35392435026E+03  0.40158269436E+03  0.00000000000E+00 0. -1.
         -4    1    5    5    0  503  0.17438461151E+03 -0.36797138805E+02 -0.20043779139E+03  0.26821508230E+03  0.00000000000E+00 0.  1.
         -3    1    6    6    0  502  0.60256623829E+01 -0.10295390831E+02 -0.91569680451E-01  0.11929462038E+02  0.00000000000E+00 0.  1.
<mgrwt>
<rscale>  0 0.23612052E+04</rscale>
<asrwt>0</asrwt>
<pdfrwt beam="1">  1        1 0.27054273E+00 0.23612052E+04</pdfrwt>
<pdfrwt beam="2">  1       -1 0.12193963E+00 0.23612052E+04</pdfrwt>
<totfact> 0.23261442E+00</totfact>
</mgrwt>
</event>
<event>
12    1  0.1467288E-007  0.2692964E+04  0.7818608E-02  0.8337291E-01
          1   -1    0    0  501    0  0.00000000000E+00  0.00000000000E+00  0.29774927535E+04  0.29774927535E+04  0.00000000000E+00 0. -1.
         -1   -1    0    0    0  501 -0.00000000000E+00 -0.00000000000E+00 -0.60890623021E+03  0.60890623021E+03  0.00000000000E+00 0.  1.
         23    2    1    2    0    0  0.68205799190E+03  0.83483162690E+03  0.40390096089E+03  0.11550414629E+04  0.94009814691E+02 0.  0.
        254    2    1    2    0    0 -0.68205799190E+03 -0.83483162690E+03  0.19646855624E+04  0.24313575208E+04  0.94306048862E+03 0.  0.
        -24    2    4    4    0    0 -0.36016754533E+03 -0.25162699838E+03  0.16115887859E+04  0.16727645600E+04  0.88803442638E+02 0.  0.
         24    2    4    4    0    0 -0.32189044657E+03 -0.58320462852E+03  0.35309677651E+03  0.75859296077E+03  0.83933594171E+02 0.  0.
         13    1    3    3    0    0  0.17380225663E+03  0.23466546409E+03  0.67891631555E+02  0.29980723487E+03  0.00000000000E+00 0.  1.
        -13    1    3    3    0    0  0.50825573527E+03  0.60016616281E+03  0.33600932933E+03  0.85523422804E+03  0.00000000000E+00 0. -1.
          4    1    6    6  502    0 -0.14296198559E+03 -0.34441240233E+03  0.20296839174E+03  0.42456354089E+03  0.00000000000E+00 0. -1.
          3    1    5    5  503    0 -0.45962441563E+02 -0.79627110889E+00  0.14977783711E+03  0.15667348394E+03  0.00000000000E+00 0. -1.
         -4    1    5    5    0  503 -0.31420510377E+03 -0.25083072727E+03  0.14618109488E+04  0.15160910761E+04  0.00000000000E+00 0.  1.
         -3    1    6    6    0  502 -0.17892846097E+03 -0.23879222619E+03  0.15012838477E+03  0.33402941989E+03  0.00000000000E+00 0.  1.
<mgrwt>
<rscale>  0 0.26929641E+04</rscale>
<asrwt>0</asrwt>
<pdfrwt beam="1">  1        1 0.45807580E+00 0.26929641E+04</pdfrwt>
<pdfrwt beam="2">  1       -1 0.93677883E-01 0.26929641E+04</pdfrwt>
<totfact> 0.59900784E-01</totfact>
</mgrwt>
</event>
<event>
12    1  0.1467288E-007  0.1181433E+04  0.7818608E-02  0.9129266E-01
         -1   -1    0    0    0  501 -0.00000000000E+00  0.00000000000E+00  0.21538785980E+03  0.21538785980E+03  0.00000000000E+00 0.  1.
          1   -1    0    0  501    0  0.00000000000E+00 -0.00000000000E+00 -0.16200809287E+04  0.16200809287E+04  0.00000000000E+00 0. -1.
         23    2    1    2    0    0 -0.12986900078E+03  0.11158102091E+03 -0.45772057159E+02  0.19943486813E+03  0.91448913715E+02 0.  0.
        254    2    1    2    0    0  0.12986900078E+03 -0.11158102091E+03 -0.13589210117E+04  0.16360339203E+04  0.89477616801E+03 0.  0.
        -24    2    4    4    0    0  0.39934273572E+03 -0.76303724081E+01 -0.12545780062E+04  0.13191567209E+04  0.81704575280E+02 0.  0.
         24    2    4    4    0    0 -0.26947373494E+03 -0.10395064850E+03 -0.10434300554E+03  0.31687719942E+03  0.78114438868E+02 0.  0.
         13    1    3    3    0    0  0.34554244081E+01  0.41590137571E+02  0.10415888643E+01  0.41746429888E+02  0.00000000000E+00 0.  1.
        -13    1    3    3    0    0 -0.13332442519E+03  0.69990883341E+02 -0.46813646024E+02  0.15768843824E+03  0.00000000000E+00 0. -1.
          2    1    6    6  502    0 -0.87921393753E+02 -0.53984191823E+02 -0.34075540851E+01  0.10322827070E+03  0.00000000000E+00 0. -1.
          3    1    5    5  503    0  0.49248693825E+02  0.38235321607E+01 -0.26120801352E+03  0.26583769403E+03  0.00000000000E+00 0. -1.
         -4    1    5    5    0  503  0.35009404189E+03 -0.11453904569E+02 -0.99336999265E+03  0.10533190269E+04  0.00000000000E+00 0.  1.
         -1    1    6    6    0  502 -0.18155234119E+03 -0.49966456681E+02 -0.10093545145E+03  0.21364892872E+03  0.00000000000E+00 0.  1.
<mgrwt>
<rscale>  0 0.11814326E+04</rscale>
<asrwt>0</asrwt>
<pdfrwt beam="1">  1        1 0.24924321E+00 0.11814326E+04</pdfrwt>
<pdfrwt beam="2">  1       -1 0.33136595E-01 0.11814326E+04</pdfrwt>
<totfact> 0.45847310E+01</totfact>
</mgrwt>
</event>
<event>
12    1  0.1467288E-007  0.2415082E+04  0.7818608E-02  0.8433879E-01
          2   -1    0    0  501    0  0.00000000000E+00  0.00000000000E+00  0.91555199120E+03  0.91555199120E+03  0.00000000000E+00 0. -1.
         -2   -1    0    0    0  501 -0.00000000000E+00 -0.00000000000E+00 -0.15926508690E+04  0.15926508690E+04  0.00000000000E+00 0.  1.
         23    2    1    2    0    0  0.43226447825E+03 -0.77314410513E+03  0.26924784812E+03  0.93158628685E+03  0.10370255393E+03 0.  0.
        254    2    1    2    0    0 -0.43226447825E+03  0.77314410513E+03 -0.94634672595E+03  0.15766165734E+04  0.89752064449E+03 0.  0.
        -24    2    4    4    0    0 -0.16744846084E+03 -0.12590372684E+03  0.26016181214E+02  0.22358281724E+03  0.73632187320E+02 0.  0.
         24    2    4    4    0    0 -0.26481601741E+03  0.89904783197E+03 -0.97236290717E+03  0.13530337561E+04  0.82439036715E+02 0.  0.
         11    1    3    3    0    0  0.38355002743E+03 -0.70684161760E+03  0.21301991407E+03  0.83193339860E+03  0.00000000000E+00 0. -1.
        -11    1    3    3    0    0  0.48714450814E+02 -0.66302487530E+02  0.56227934045E+02  0.99652888256E+02  0.00000000000E+00 0.  1.
          2    1    6    6  502    0 -0.19918422330E+03  0.66591553815E+03 -0.77109494809E+03  0.10381258487E+04  0.00000000000E+00 0. -1.
          1    1    5    5  503    0 -0.16248913920E+03 -0.98746009227E+02  0.73980350849E+01  0.19028459112E+03  0.00000000000E+00 0. -1.
         -2    1    5    5    0  503 -0.49593216403E+01 -0.27157717614E+02  0.18618146129E+02  0.33298226115E+02  0.00000000000E+00 0.  1.
         -1    1    6    6    0  502 -0.65631794103E+02  0.23313229382E+03 -0.20126795908E+03  0.31490790744E+03  0.00000000000E+00 0.  1.
<mgrwt>
<rscale>  0 0.24150815E+04</rscale>
<asrwt>0</asrwt>
<pdfrwt beam="1">  1        2 0.14085415E+00 0.24150815E+04</pdfrwt>
<pdfrwt beam="2">  1       -2 0.24502321E+00 0.24150815E+04</pdfrwt>
<totfact> 0.17724656E+00</totfact>
</mgrwt>
</event>
<event>
12    1  0.1467288E-007  0.2174270E+04  0.7818608E-02  0.8529214E-01
         -2   -1    0    0    0  501 -0.00000000000E+00  0.00000000000E+00  0.10600824435E+04  0.10600824435E+04  0.00000000000E+00 0.  1.
          2   -1    0    0  501    0  0.00000000000E+00 -0.00000000000E+00 -0.11148784291E+04  0.11148784291E+04  0.00000000000E+00 0. -1.
         23    2    1    2    0    0 -0.67799150484E+03 -0.48067871846E+03 -0.35994668816E+03  0.91041624939E+03  0.92583032007E+02 0.  0.
        254    2    1    2    0    0  0.67799150484E+03  0.48067871846E+03  0.30515070254E+03  0.12645446233E+04  0.90290178975E+03 0.  0.
        -24    2    4    4    0    0 -0.60233311247E+02 -0.10591038731E+03  0.28236348411E+03  0.31798798986E+03  0.80883636222E+02 0.  0.
         24    2    4    4    0    0  0.73822481609E+03  0.58658910577E+03  0.22787218430E+02  0.94655663340E+03  0.79922117217E+02 0.  0.
         11    1    3    3    0    0 -0.48819278338E+03 -0.33468516541E+03 -0.21082526369E+03  0.62832606622E+03  0.00000000000E+00 0.  1.
        -11    1    3    3    0    0 -0.18979872146E+03 -0.14599355305E+03 -0.14912142447E+03  0.28209018316E+03  0.00000000000E+00 0. -1.
          4    1    6    6  502    0  0.60765150192E+03  0.50847838393E+03 -0.23790419888E+01  0.79233596066E+03  0.00000000000E+00 0. -1.
          3    1    5    5  503    0 -0.28458789948E+02 -0.11052769015E+03  0.22117535893E+03  0.24888714795E+03  0.00000000000E+00 0. -1.
         -4    1    5    5    0  503 -0.31774521299E+02  0.46173028380E+01  0.61188125181E+02  0.69100841908E+02  0.00000000000E+00 0.  1.
         -3    1    6    6    0  502  0.13057331416E+03  0.78110721844E+02  0.25166260419E+02  0.15422067274E+03  0.00000000000E+00 0.  1.
<mgrwt>
<rscale>  0 0.21742705E+04</rscale>
<asrwt>0</asrwt>
<pdfrwt beam="1">  1        2 0.17151976E+00 0.21742705E+04</pdfrwt>
<pdfrwt beam="2">  1       -2 0.16308961E+00 0.21742705E+04</pdfrwt>
<totfact> 0.46706310E+00</totfact>
</mgrwt>
</event>
<event>
12    1  0.1467288E-007  0.1556032E+04  0.7818608E-02  0.8848024E-01
         -2   -1    0    0    0  501 -0.00000000000E+00  0.00000000000E+00  0.92531715805E+03  0.92531715805E+03  0.00000000000E+00 0.  1.
          2   -1    0    0  501    0  0.00000000000E+00 -0.00000000000E+00 -0.65416362838E+03  0.65416362838E+03  0.00000000000E+00 0. -1.
         23    2    1    2    0    0  0.40056481416E+03 -0.17710661248E+03  0.14760049224E+03  0.47129249386E+03  0.92259346040E+02 0.  0.
        254    2    1    2    0    0 -0.40056481416E+03  0.17710661248E+03  0.12355303743E+03  0.11081882926E+04  0.10104439699E+04 0.  0.
        -24    2    4    4    0    0 -0.10476894707E+03  0.44657390010E+03  0.40077835349E+03  0.61477612586E+03  0.83196248572E+02 0.  0.
         24    2    4    4    0    0 -0.29579586709E+03 -0.26946728762E+03 -0.27722531607E+03  0.49341216671E+03  0.80584591004E+02 0.  0.
         11    1    3    3    0    0  0.26687836342E+02 -0.22245348219E+02 -0.11298202703E+02  0.36534169079E+02  0.00000000000E+00 0.  1.
        -11    1    3    3    0    0  0.37387697782E+03 -0.15486126426E+03  0.15889869494E+03  0.43475832478E+03  0.00000000000E+00 0. -1.
          2    1    6    6  502    0 -0.60091407286E+02 -0.25062431793E+02 -0.70136137425E+02  0.95698382902E+02  0.00000000000E+00 0. -1.
          1    1    5    5  503    0  0.44859637023E+01  0.71735970149E+01  0.24934441424E+02  0.26330794398E+02  0.00000000000E+00 0. -1.
         -2    1    5    5    0  503 -0.10925491077E+03  0.43940030308E+03  0.37584391207E+03  0.58844533146E+03  0.00000000000E+00 0.  1.
         -1    1    6    6    0  502 -0.23570445980E+03 -0.24440485583E+03 -0.20708917864E+03  0.39771378381E+03  0.00000000000E+00 0.  1.
<mgrwt>
<rscale>  0 0.15560319E+04</rscale>
<asrwt>0</asrwt>
<pdfrwt beam="1">  1        2 0.10064056E+00 0.15560319E+04</pdfrwt>
<pdfrwt beam="2">  1       -2 0.14235649E+00 0.15560319E+04</pdfrwt>
<totfact> 0.14750243E+01</totfact>
</mgrwt>
</event>
<event>
12    1  0.1467288E-007  0.1218749E+04  0.7818608E-02  0.9096602E-01
          2   -1    0    0  501    0  0.00000000000E+00  0.00000000000E+00  0.61794606222E+03  0.61794606222E+03  0.00000000000E+00 0. -1.
         -2   -1    0    0    0  501 -0.00000000000E+00 -0.00000000000E+00 -0.60092179637E+03  0.60092179637E+03  0.00000000000E+00 0.  1.
         23    2    1    2    0    0 -0.13251943483E+03  0.21238000493E+03 -0.90531959567E+02  0.28258754259E+03  0.94831515969E+02 0.  0.
        254    2    1    2    0    0  0.13251943483E+03 -0.21238000493E+03  0.10755622542E+03  0.93628031599E+03  0.89575991280E+03 0.  0.
        -24    2    4    4    0    0  0.13703733619E+03 -0.40343868191E+03 -0.26603022175E+03  0.50866407403E+03  0.80156470408E+02 0.  0.
         24    2    4    4    0    0 -0.45179013563E+01  0.19105867698E+03  0.37358644717E+03  0.42761624197E+03  0.82249543478E+02 0.  0.
         11    1    3    3    0    0 -0.23936466554E+01  0.79853322877E+02 -0.11387268778E+02  0.80696670371E+02  0.00000000000E+00 0. -1.
        -11    1    3    3    0    0 -0.13012578818E+03  0.13252668206E+03 -0.79144690790E+02  0.20189087222E+03  0.00000000000E+00 0.  1.
          2    1    6    6  502    0  0.22193593729E+02  0.10852890330E+02  0.61081708583E+02  0.65888663324E+02  0.00000000000E+00 0. -1.
          3    1    5    5  503    0 -0.17809295752E+01 -0.27724692440E+02 -0.40146219668E+02  0.48821606228E+02  0.00000000000E+00 0. -1.
         -2    1    5    5    0  503  0.13881826576E+03 -0.37571398947E+03 -0.22588400209E+03  0.45984246780E+03  0.00000000000E+00 0.  1.
         -1    1    6    6    0  502 -0.26711495085E+02  0.18020578665E+03  0.31250473859E+03  0.36172757864E+03  0.00000000000E+00 0.  1.
<mgrwt>
<rscale>  0 0.12187490E+04</rscale>
<asrwt>0</asrwt>
<pdfrwt beam="1">  1        2 0.95068625E-01 0.12187490E+04</pdfrwt>
<pdfrwt beam="2">  1       -2 0.92449507E-01 0.12187490E+04</pdfrwt>
<totfact> 0.46848317E+01</totfact>
</mgrwt>
</event>
<event>
12    1  0.1467288E-007  0.2128968E+04  0.7818608E-02  0.8548589E-01
          1   -1    0    0  501    0  0.00000000000E+00  0.00000000000E+00  0.24018365642E+04  0.24018365642E+04  0.00000000000E+00 0. -1.
         -1   -1    0    0    0  501 -0.00000000000E+00 -0.00000000000E+00 -0.47177488843E+03  0.47177488843E+03  0.00000000000E+00 0.  1.
         23    2    1    2    0    0 -0.40176895910E+03  0.61479335162E+03  0.14353571674E+04  0.16151167466E+04  0.94671776320E+02 0.  0.
        254    2    1    2    0    0  0.40176895910E+03 -0.61479335162E+03  0.49470450834E+03  0.12584947061E+04  0.89425232061E+03 0.  0.
        -24    2    4    4    0    0  0.47317668279E+03  0.27096983324E+01  0.39930803248E+03  0.62478644854E+03  0.83711921972E+02 0.  0.
         24    2    4    4    0    0 -0.71407723690E+02 -0.61750304995E+03  0.95396475860E+02  0.63370825752E+03  0.77952474825E+02 0.  0.
         11    1    3    3    0    0 -0.61631784909E+02  0.99526500771E+02  0.31256429874E+03  0.33376704767E+03  0.00000000000E+00 0.  1.
        -11    1    3    3    0    0 -0.34013717419E+03  0.51526685085E+03  0.11227928687E+04  0.12813496989E+04  0.00000000000E+00 0. -1.
          2    1    6    6  502    0 -0.21381162786E+02 -0.13214392369E+03 -0.10995156376E+02  0.13431330594E+03  0.00000000000E+00 0. -1.
          1    1    5    5  503    0  0.37686504469E+03 -0.26197464565E+01  0.35816487146E+03  0.51991941696E+03  0.00000000000E+00 0. -1.
         -2    1    5    5    0  503  0.96311638097E+02  0.53294447889E+01  0.41143161017E+02  0.10486703158E+03  0.00000000000E+00 0.  1.
         -1    1    6    6    0  502 -0.50026560904E+02 -0.48535912627E+03  0.10639163224E+03  0.49939495157E+03  0.00000000000E+00 0.  1.
<mgrwt>
<rscale>  0 0.21289680E+04</rscale>
<asrwt>0</asrwt>
<pdfrwt beam="1">  1        1 0.36951331E+00 0.21289680E+04</pdfrwt>
<pdfrwt beam="2">  1       -1 0.72580753E-01 0.21289680E+04</pdfrwt>
<totfact> 0.27822431E+00</totfact>
</mgrwt>
</event>
<event>
12    1  0.1467288E-007  0.1513017E+04  0.7818608E-02  0.8875843E-01
         -1   -1    0    0    0  501 -0.00000000000E+00  0.00000000000E+00  0.74892339709E+03  0.74892339709E+03  0.00000000000E+00 0.  1.
          1   -1    0    0  501    0  0.00000000000E+00 -0.00000000000E+00 -0.76417000609E+03  0.76417000609E+03  0.00000000000E+00 0. -1.
         23    2    1    2    0    0  0.31566845027E+03  0.32359463557E+03 -0.15453828849E+03  0.48649609228E+03  0.91849368691E+02 0.  0.
        254    2    1    2    0    0 -0.31566845027E+03 -0.32359463557E+03  0.13929167949E+03  0.10265973109E+04  0.91112008434E+03 0.  0.
        -24    2    4    4    0    0  0.26583868843E+03 -0.28596666405E+03 -0.65533881788E+02  0.40376053807E+03  0.79251127579E+02 0.  0.
         24    2    4    4    0    0 -0.58150713871E+03 -0.37627971512E+02  0.20482556128E+03  0.62283677282E+03  0.80035732172E+02 0.  0.
         11    1    3    3    0    0  0.19833290869E+03  0.15241082340E+03 -0.54014314587E+02  0.25589558014E+03  0.00000000000E+00 0.  1.
        -11    1    3    3    0    0  0.11733554159E+03  0.17118381217E+03 -0.10052397391E+03  0.23060051214E+03  0.00000000000E+00 0. -1.
          2    1    6    6  502    0 -0.15856792254E+03  0.19277273941E+02  0.34924152514E+02  0.16350870245E+03  0.00000000000E+00 0. -1.
          3    1    5    5  503    0  0.19520618320E+01  0.49987095862E+01 -0.25318325884E+01  0.59336177143E+01  0.00000000000E+00 0. -1.
         -4    1    5    5    0  503  0.26388662660E+03 -0.29096537364E+03 -0.63002049200E+02  0.39782692036E+03  0.00000000000E+00 0.  1.
         -1    1    6    6    0  502 -0.42293921617E+03 -0.56905245453E+02  0.16990140876E+03  0.45932807037E+03  0.00000000000E+00 0.  1.
<mgrwt>
<rscale>  0 0.15130166E+04</rscale>
<asrwt>0</asrwt>
<pdfrwt beam="1">  1        1 0.11756462E+00 0.15130166E+04</pdfrwt>
<pdfrwt beam="2">  1       -1 0.11521898E+00 0.15130166E+04</pdfrwt>
<totfact> 0.15708592E+01</totfact>
</mgrwt>
</event>
<event>
12    1  0.1467288E-007  0.3863906E+04  0.7818608E-02  0.8032578E-01
          2   -1    0    0  501    0  0.00000000000E+00  0.00000000000E+00  0.25889790326E+04  0.25889790326E+04  0.00000000000E+00 0. -1.
         -2   -1    0    0    0  501 -0.00000000000E+00 -0.00000000000E+00 -0.14416658529E+04  0.14416658529E+04  0.00000000000E+00 0.  1.
         23    2    1    2    0    0  0.48151892314E+02  0.80774628173E+03  0.22594363548E+04  0.24016080413E+04  0.88858778033E+02 0.  0.
        254    2    1    2    0    0 -0.48151892314E+02 -0.80774628173E+03 -0.11121231751E+04  0.16290368443E+04  0.87302372421E+03 0.  0.
        -24    2    4    4    0    0  0.11513806204E+02 -0.52176282566E+03 -0.12032911076E+04  0.13140007347E+04  0.79494825229E+02 0.  0.
         24    2    4    4    0    0 -0.59665698518E+02 -0.28598345607E+03  0.91167932507E+02  0.31503610956E+03  0.74763799280E+02 0.  0.
         13    1    3    3    0    0  0.52743409127E+02  0.78150711023E+03  0.22189784231E+04  0.23531681777E+04  0.00000000000E+00 0. -1.
        -13    1    3    3    0    0 -0.45915168124E+01  0.26239171495E+02  0.40457931686E+02  0.48439863581E+02  0.00000000000E+00 0.  1.
          4    1    6    6  502    0 -0.22807412270E+02 -0.91969837865E+02  0.67063455323E+02  0.11608676140E+03  0.00000000000E+00 0. -1.
          3    1    5    5  503    0 -0.40084789657E+01 -0.17386592125E+01 -0.18325157095E+01  0.47380326404E+01  0.00000000000E+00 0. -1.
         -4    1    5    5    0  503  0.15522285170E+02 -0.52002416644E+03 -0.12014585919E+04  0.13092627021E+04  0.00000000000E+00 0.  1.
         -3    1    6    6    0  502 -0.36858286248E+02 -0.19401361821E+03  0.24104477183E+02  0.19894934816E+03  0.00000000000E+00 0.  1.
<mgrwt>
<rscale>  0 0.38639061E+04</rscale>
<asrwt>0</asrwt>
<pdfrwt beam="1">  1        2 0.39830447E+00 0.38639061E+04</pdfrwt>
<pdfrwt beam="2">  1       -2 0.22179475E+00 0.38639061E+04</pdfrwt>
<totfact> 0.23720328E-01</totfact>
</mgrwt>
</event>
<event>
12    1  0.1467288E-007  0.1720552E+04  0.7818608E-02  0.8749729E-01
          2   -1    0    0  501    0  0.00000000000E+00  0.00000000000E+00  0.96349166227E+03  0.96349166227E+03  0.00000000000E+00 0. -1.
         -2   -1    0    0    0  501 -0.00000000000E+00 -0.00000000000E+00 -0.76811739636E+03  0.76811739636E+03  0.00000000000E+00 0.  1.
         23    2    1    2    0    0 -0.56534400951E+02  0.54808236377E+03 -0.27939875943E+03  0.62450270158E+03  0.91375825790E+02 0.  0.
        254    2    1    2    0    0  0.56534400951E+02 -0.54808236377E+03  0.47477302534E+03  0.11071063571E+04  0.83467637099E+03 0.  0.
        -24    2    4    4    0    0  0.20610322636E+03 -0.37546868732E+03 -0.13008492983E+03  0.45468298949E+03  0.79744948973E+02 0.  0.
         24    2    4    4    0    0 -0.14956882541E+03 -0.17261367645E+03  0.60485795517E+03  0.65242336757E+03  0.87388728052E+02 0.  0.
         13    1    3    3    0    0 -0.47405926712E+02  0.54113307277E+03 -0.26060583934E+03  0.60248462871E+03  0.00000000000E+00 0.  1.
        -13    1    3    3    0    0 -0.91284742382E+01  0.69492910027E+01 -0.18792920091E+02  0.22018072870E+02  0.00000000000E+00 0. -1.
          4    1    6    6  502    0 -0.16106183525E+03 -0.15511539510E+03  0.55254898216E+03  0.59608059712E+03  0.00000000000E+00 0. -1.
          1    1    5    5  503    0  0.16074079723E+03 -0.27388411295E+03 -0.13073978075E+03  0.34342830619E+03  0.00000000000E+00 0. -1.
         -2    1    5    5    0  503  0.45362429123E+02 -0.10158457437E+03  0.65485091805E+00  0.11125468330E+03  0.00000000000E+00 0.  1.
         -3    1    6    6    0  502  0.11493009842E+02 -0.17498281351E+02  0.52308973006E+02  0.56342770454E+02  0.00000000000E+00 0.  1.
<mgrwt>
<rscale>  0 0.17205519E+04</rscale>
<asrwt>0</asrwt>
<pdfrwt beam="1">  1        2 0.14822949E+00 0.17205519E+04</pdfrwt>
<pdfrwt beam="2">  1       -2 0.11817191E+00 0.17205519E+04</pdfrwt>
<totfact> 0.13941042E+01</totfact>
</mgrwt>
</event>
<event>
12    1  0.1467288E-007  0.1331345E+04  0.7818608E-02  0.9005071E-01
          2   -1    0    0  501    0  0.00000000000E+00  0.00000000000E+00  0.18102569517E+04  0.18102569517E+04  0.00000000000E+00 0. -1.
         -2   -1    0    0    0  501 -0.00000000000E+00 -0.00000000000E+00 -0.24478289035E+03  0.24478289035E+03  0.00000000000E+00 0.  1.
         23    2    1    2    0    0 -0.96371348092E+02 -0.27715833740E+02 -0.93531133556E+02  0.16310684318E+03  0.88318543774E+02 0.  0.
        254    2    1    2    0    0  0.96371348092E+02  0.27715833740E+02  0.16590051949E+04  0.18919329989E+04  0.90391184930E+03 0.  0.
        -24    2    4    4    0    0  0.14237192904E+03 -0.25684510506E+03  0.15405141116E+04  0.15703177994E+04  0.80467937962E+02 0.  0.
         24    2    4    4    0    0 -0.46000580950E+02  0.28456093880E+03  0.11849108337E+03  0.32161519948E+03  0.79405405112E+02 0.  0.
         13    1    3    3    0    0  0.94281324527E+01  0.15883745884E+02 -0.19261090122E+02  0.26686563240E+02  0.00000000000E+00 0.  1.
        -13    1    3    3    0    0 -0.10579948054E+03 -0.43599579624E+02 -0.74270043434E+02  0.13642027994E+03  0.00000000000E+00 0. -1.
          4    1    6    6  502    0 -0.31784009049E+02  0.24802168794E+03  0.12852088009E+03  0.28114515386E+03  0.00000000000E+00 0. -1.
          3    1    5    5  503    0  0.64896600625E+02 -0.18844814838E+03  0.92989074133E+03  0.95101054895E+03  0.00000000000E+00 0. -1.
         -4    1    5    5    0  503  0.77475328418E+02 -0.68396956679E+02  0.61062337024E+03  0.61930725046E+03  0.00000000000E+00 0.  1.
         -3    1    6    6    0  502 -0.14216571901E+02  0.36539250863E+02 -0.10029796726E+02  0.40470045622E+02  0.00000000000E+00 0.  1.
<mgrwt>
<rscale>  0 0.13313451E+04</rscale>
<asrwt>0</asrwt>
<pdfrwt beam="1">  1        2 0.27850106E+00 0.13313451E+04</pdfrwt>
<pdfrwt beam="2">  1       -2 0.37658907E-01 0.13313451E+04</pdfrwt>
<totfact> 0.55416385E+01</totfact>
</mgrwt>
</event>
<event>
12    1  0.1467288E-007  0.1429153E+04  0.7818608E-02  0.8932982E-01
          2   -1    0    0  501    0  0.00000000000E+00  0.00000000000E+00  0.91968469966E+03  0.91968469966E+03  0.00000000000E+00 0. -1.
         -2   -1    0    0    0  501 -0.00000000000E+00 -0.00000000000E+00 -0.55521189177E+03  0.55521189177E+03  0.00000000000E+00 0.  1.
         23    2    1    2    0    0 -0.38512140060E+03  0.17102783871E+03  0.64360279518E+02  0.43598215409E+03  0.91483213197E+02 0.  0.
        254    2    1    2    0    0  0.38512140060E+03 -0.17102783871E+03  0.30011252837E+03  0.10389144373E+04  0.90094764754E+03 0.  0.
        -24    2    4    4    0    0  0.50694507539E+03 -0.45961083404E+02  0.53114078929E+03  0.74004887192E+03  0.80349636811E+02 0.  0.
         24    2    4    4    0    0 -0.12182367479E+03 -0.12506675531E+03 -0.23102826093E+03  0.29886556542E+03  0.73917980375E+02 0.  0.
         13    1    3    3    0    0 -0.36020006449E+03  0.17065411554E+03  0.80037197196E+02  0.40653765698E+03  0.00000000000E+00 0.  1.
        -13    1    3    3    0    0 -0.24921336108E+02  0.37372317332E+00 -0.15676917678E+02  0.29444497114E+02  0.00000000000E+00 0. -1.
          4    1    6    6  502    0 -0.11274153588E+03 -0.13209327129E+03 -0.22867540037E+03  0.28714408399E+03  0.00000000000E+00 0. -1.
          1    1    5    5  503    0  0.25845539325E+03 -0.30724647603E+02  0.32806392841E+03  0.41877098203E+03  0.00000000000E+00 0. -1.
         -2    1    5    5    0  503  0.24848968214E+03 -0.15236435801E+02  0.20307686088E+03  0.32127788989E+03  0.00000000000E+00 0.  1.
         -3    1    6    6    0  502 -0.90821389090E+01  0.70265159873E+01 -0.23528605537E+01  0.11721481428E+02  0.00000000000E+00 0.  1.
<mgrwt>
<rscale>  0 0.14291534E+04</rscale>
<asrwt>0</asrwt>
<pdfrwt beam="1">  1        2 0.14148995E+00 0.14291534E+04</pdfrwt>
<pdfrwt beam="2">  1       -2 0.85417214E-01 0.14291534E+04</pdfrwt>
<totfact> 0.32922111E+01</totfact>
</mgrwt>
</event>
<event>
12    1  0.1467288E-007  0.1958036E+04  0.7818608E-02  0.8626495E-01
          2   -1    0    0  501    0  0.00000000000E+00  0.00000000000E+00  0.18488027874E+04  0.18488027874E+04  0.00000000000E+00 0. -1.
         -2   -1    0    0    0  501 -0.00000000000E+00 -0.00000000000E+00 -0.51843093893E+03  0.51843093893E+03  0.00000000000E+00 0.  1.
         23    2    1    2    0    0  0.43893752470E+03  0.22719944025E+03 -0.20250356521E+03  0.54184040000E+03  0.91091102245E+02 0.  0.
        254    2    1    2    0    0 -0.43893752470E+03 -0.22719944025E+03  0.15328754137E+04  0.18253933264E+04  0.85910885558E+03 0.  0.
        -24    2    4    4    0    0  0.22621489377E+03  0.41165892570E+02  0.58918258576E+03  0.63744929986E+03  0.79609557609E+02 0.  0.
         24    2    4    4    0    0 -0.66515241847E+03 -0.26836533282E+03  0.94369282797E+03  0.11879440265E+04  0.78785562830E+02 0.  0.
         11    1    3    3    0    0  0.50272377506E+02  0.54362416487E+02 -0.91957189286E+01  0.74613306541E+02  0.00000000000E+00 0. -1.
        -11    1    3    3    0    0  0.38866514720E+03  0.17283702377E+03 -0.19330784629E+03  0.46722709346E+03  0.00000000000E+00 0.  1.
          2    1    6    6  502    0 -0.34045870214E+02 -0.83284578651E+01  0.23389225203E+02  0.42137161089E+02  0.00000000000E+00 0. -1.
          1    1    5    5  503    0  0.79039572191E+01  0.18376065395E+02  0.24644435180E+02  0.31741148443E+02  0.00000000000E+00 0. -1.
         -2    1    5    5    0  503  0.21831093655E+03  0.22789827175E+02  0.56453815058E+03  0.60570815142E+03  0.00000000000E+00 0.  1.
         -1    1    6    6    0  502 -0.63110654826E+03 -0.26003687496E+03  0.92030360276E+03  0.11458068654E+04  0.00000000000E+00 0.  1.
<mgrwt>
<rscale>  0 0.19580363E+04</rscale>
<asrwt>0</asrwt>
<pdfrwt beam="1">  1        2 0.28443119E+00 0.19580363E+04</pdfrwt>
<pdfrwt beam="2">  1       -2 0.79758607E-01 0.19580363E+04</pdfrwt>
<totfact> 0.10517011E+01</totfact>
</mgrwt>
</event>
<event>
12    1  0.1798983E-007  0.1831715E+04  0.7818608E-02  0.8689613E-01
          2   -1    0    0  501    0  0.00000000000E+00  0.00000000000E+00  0.15672993613E+04  0.15672993613E+04  0.00000000000E+00 0. -1.
         -2   -1    0    0    0  501 -0.00000000000E+00 -0.00000000000E+00 -0.53518499869E+03  0.53518499869E+03  0.00000000000E+00 0.  1.
         23    2    1    2    0    0 -0.54272004031E+03 -0.24152158392E+02 -0.97923789413E+02  0.55917036064E+03  0.89185507612E+02 0.  0.
        254    2    1    2    0    0  0.54272004031E+03  0.24152158392E+02  0.11300381520E+04  0.15433139993E+04  0.89983526639E+03 0.  0.
        -24    2    4    4    0    0  0.34524111558E+03  0.23287942011E+02 -0.36963370504E+02  0.35696436260E+03  0.79520495988E+02 0.  0.
         24    2    4    4    0    0  0.19747892474E+03  0.86421638006E+00  0.11670015225E+04  0.11863496367E+04  0.80834611761E+02 0.  0.
         11    1    3    3    0    0 -0.50286503853E+03 -0.32682355385E+02 -0.67751916998E+02  0.50846013176E+03  0.00000000000E+00 0.  1.
        -11    1    3    3    0    0 -0.39855001782E+02  0.85301969934E+01 -0.30171872415E+02  0.50710228878E+02  0.00000000000E+00 0. -1.
          2    1    6    6  502    0  0.51229227935E+02  0.69947488328E+01  0.14550275684E+03  0.15441636103E+03  0.00000000000E+00 0. -1.
          1    1    5    5  503    0  0.76371799429E+02  0.29670891329E+02 -0.32038196063E+02  0.87974198191E+02  0.00000000000E+00 0. -1.
         -2    1    5    5    0  503  0.26886931615E+03 -0.63829493173E+01 -0.49251744408E+01  0.26899016441E+03  0.00000000000E+00 0.  1.
         -1    1    6    6    0  502  0.14624969680E+03 -0.61305324527E+01  0.10214987656E+04  0.10319332757E+04  0.00000000000E+00 0.  1.
<mgrwt>
<rscale>  0 0.18317152E+04</rscale>
<asrwt>0</asrwt>
<pdfrwt beam="1">  1        2 0.24112298E+00 0.18317152E+04</pdfrwt>
<pdfrwt beam="2">  1       -2 0.82336154E-01 0.18317152E+04</pdfrwt>
<totfact> 0.14188949E+01</totfact>
</mgrwt>
</event>
<event>
12    1  0.1467288E-007  0.1448243E+04  0.7818608E-02  0.8919620E-01
         -4   -1    0    0    0  501 -0.00000000000E+00  0.00000000000E+00  0.93953857711E+03  0.93953857711E+03  0.00000000000E+00 0.  1.
          4   -1    0    0  501    0  0.00000000000E+00 -0.00000000000E+00 -0.55809507476E+03  0.55809507476E+03  0.00000000000E+00 0. -1.
         23    2    1    2    0    0 -0.31504425690E+03  0.18613946160E+03 -0.12965084228E+03  0.39859506397E+03  0.90376441319E+02 0.  0.
        254    2    1    2    0    0  0.31504425690E+03 -0.18613946160E+03  0.51109434464E+03  0.10990385879E+04  0.90153624753E+03 0.  0.
        -24    2    4    4    0    0 -0.18530637459E+03  0.15972718091E+03 -0.56461731563E+02  0.26358417585E+03  0.80233819796E+02 0.  0.
         24    2    4    4    0    0  0.50035063149E+03 -0.34586664251E+03  0.56755607620E+03  0.83545441206E+03  0.76744290740E+02 0.  0.
         13    1    3    3    0    0 -0.86225874125E+02  0.41219332559E+02 -0.76871536726E+02  0.12265059276E+03  0.00000000000E+00 0.  1.
        -13    1    3    3    0    0 -0.22881838278E+03  0.14492012904E+03 -0.52779305557E+02  0.27594447121E+03  0.00000000000E+00 0. -1.
          4    1    6    6  502    0  0.10705361712E+03 -0.38655035812E+02  0.97252102682E+02  0.14970858429E+03  0.00000000000E+00 0. -1.
          1    1    5    5  503    0 -0.16553794429E+03  0.16727975447E+03 -0.57947463543E+02  0.24237003896E+03  0.00000000000E+00 0. -1.
         -2    1    5    5    0  503 -0.19768430304E+02 -0.75525735644E+01  0.14857319794E+01  0.21214136882E+02  0.00000000000E+00 0.  1.
         -3    1    6    6    0  502  0.39329701437E+03 -0.30721160669E+03  0.47030397352E+03  0.68574582777E+03  0.00000000000E+00 0.  1.
<mgrwt>
<rscale>  0 0.14482429E+04</rscale>
<asrwt>0</asrwt>
<pdfrwt beam="1">  1        4 0.85860781E-01 0.14482429E+04</pdfrwt>
<pdfrwt beam="2">  1       -4 0.14454440E+00 0.14482429E+04</pdfrwt>
<totfact> 0.75193246E-01</totfact>
</mgrwt>
</event>
<event>
12    1  0.1467288E-007  0.1350341E+04  0.7818608E-02  0.8990570E-01
          2   -1    0    0  501    0  0.00000000000E+00  0.00000000000E+00  0.19002794411E+04  0.19002794411E+04  0.00000000000E+00 0. -1.
         -2   -1    0    0    0  501 -0.00000000000E+00 -0.00000000000E+00 -0.23988855658E+03  0.23988855658E+03  0.00000000000E+00 0.  1.
         23    2    1    2    0    0 -0.18553450870E+02  0.21447423318E+03  0.88995361607E+03  0.91981206387E+03  0.87711839781E+02 0.  0.
        254    2    1    2    0    0  0.18553450870E+02 -0.21447423318E+03  0.77043726848E+03  0.12203559338E+04  0.92160273076E+03 0.  0.
        -24    2    4    4    0    0 -0.14181434061E+03  0.22537897475E+03  0.68324005320E+03  0.73764441389E+03  0.79970754573E+02 0.  0.
         24    2    4    4    0    0  0.16036779148E+03 -0.43985320793E+03  0.87197215274E+02  0.48271151994E+03  0.78856731259E+02 0.  0.
         11    1    3    3    0    0  0.11346338660E+01  0.21021020998E+03  0.77001065087E+03  0.79818921455E+03  0.00000000000E+00 0. -1.
        -11    1    3    3    0    0 -0.19688084736E+02  0.42640232082E+01  0.11994296520E+03  0.12162284932E+03  0.00000000000E+00 0.  1.
          2    1    6    6  502    0  0.18039015128E+02 -0.30483842802E+02  0.28266590586E+02  0.45317445671E+02  0.00000000000E+00 0. -1.
          3    1    5    5  503    0 -0.61385256395E+01  0.20352778279E+02  0.16164441378E+02  0.26705921549E+02  0.00000000000E+00 0. -1.
         -4    1    5    5    0  503 -0.13567581497E+03  0.20502619647E+03  0.66707561182E+03  0.71093849234E+03  0.00000000000E+00 0.  1.
         -1    1    6    6    0  502  0.14232877635E+03 -0.40936936513E+03  0.58930624688E+02  0.43739407427E+03  0.00000000000E+00 0.  1.
<mgrwt>
<rscale>  0 0.13503411E+04</rscale>
<asrwt>0</asrwt>
<pdfrwt beam="1">  1        2 0.29235067E+00 0.13503411E+04</pdfrwt>
<pdfrwt beam="2">  1       -2 0.36905933E-01 0.13503411E+04</pdfrwt>
<totfact> 0.51307925E+01</totfact>
</mgrwt>
</event>
<event>
12    1  0.1467288E-007  0.3142123E+04  0.7818608E-02  0.8204272E-01
          1   -1    0    0  501    0  0.00000000000E+00  0.00000000000E+00  0.28732042416E+04  0.28732042416E+04  0.00000000000E+00 0. -1.
         -1   -1    0    0    0  501 -0.00000000000E+00 -0.00000000000E+00 -0.85905267406E+03  0.85905267406E+03  0.00000000000E+00 0.  1.
         23    2    1    2    0    0 -0.12458697746E+04  0.12279358430E+03  0.11530848920E+03  0.12609957458E+04  0.97695770691E+02 0.  0.
        254    2    1    2    0    0  0.12458697746E+04 -0.12279358430E+03  0.18988430784E+04  0.24712611699E+04  0.96656969429E+03 0.  0.
        -24    2    4    4    0    0 -0.91997614595E+02  0.16472449466E+03  0.17832906229E+03  0.27146972537E+03  0.79352612460E+02 0.  0.
         24    2    4    4    0    0  0.13378673892E+04 -0.28751807895E+03  0.17205140161E+04  0.21997914445E+04  0.79737839403E+02 0.  0.
         11    1    3    3    0    0 -0.28650274790E+03  0.53486995548E+02  0.59827111626E+02  0.29752977420E+03  0.00000000000E+00 0.  1.
        -11    1    3    3    0    0 -0.95936702670E+03  0.69306588747E+02  0.55481377578E+02  0.96346597160E+03  0.00000000000E+00 0. -1.
          4    1    6    6  502    0  0.11062006256E+04 -0.26185253440E+03  0.14566725023E+04  0.18477395252E+04  0.00000000000E+00 0. -1.
          3    1    5    5  503    0 -0.10257695851E+03  0.15367506984E+03  0.14524259421E+03  0.23501802203E+03  0.00000000000E+00 0. -1.
         -4    1    5    5    0  503  0.10579343911E+02  0.11049424819E+02  0.33086468078E+02  0.36451703339E+02  0.00000000000E+00 0.  1.
         -3    1    6    6    0  502  0.23166676362E+03 -0.25665544554E+02  0.26384151377E+03  0.35205191937E+03  0.00000000000E+00 0.  1.
<mgrwt>
<rscale>  0 0.31421227E+04</rscale>
<asrwt>0</asrwt>
<pdfrwt beam="1">  1        1 0.44203142E+00 0.31421227E+04</pdfrwt>
<pdfrwt beam="2">  1       -1 0.13216195E+00 0.31421227E+04</pdfrwt>
<totfact> 0.30181697E-01</totfact>
</mgrwt>
</event>
<event>
12    1  0.1467288E-007  0.1629518E+04  0.7818608E-02  0.8802616E-01
          1   -1    0    0  501    0  0.00000000000E+00  0.00000000000E+00  0.16287627489E+04  0.16287627489E+04  0.00000000000E+00 0. -1.
         -1   -1    0    0    0  501 -0.00000000000E+00 -0.00000000000E+00 -0.40756855304E+03  0.40756855304E+03  0.00000000000E+00 0.  1.
         23    2    1    2    0    0 -0.50690163535E+02 -0.53668886548E+03  0.23112257403E+03  0.59355513891E+03  0.91025423363E+02 0.  0.
        254    2    1    2    0    0  0.50690163535E+02  0.53668886548E+03  0.99007162186E+03  0.14427761630E+04  0.90042035142E+03 0.  0.
        -24    2    4    4    0    0 -0.46001930917E+02  0.64797783393E+03  0.10703538291E+04  0.12545462888E+04  0.78978607234E+02 0.  0.
         24    2    4    4    0    0  0.96692094452E+02 -0.11128896845E+03 -0.80282207229E+02  0.18822987425E+03  0.85150790561E+02 0.  0.
         13    1    3    3    0    0 -0.11625325272E+01  0.15209805195E+01 -0.37758405249E+01  0.42334188650E+01  0.00000000000E+00 0. -1.
        -13    1    3    3    0    0 -0.49527631008E+02 -0.53820984600E+03  0.23489841455E+03  0.58932172005E+03  0.00000000000E+00 0.  1.
          2    1    6    6  502    0  0.62087112038E+02 -0.10516316652E+02 -0.38328993945E+02  0.73719157442E+02  0.00000000000E+00 0. -1.
          3    1    5    5  503    0 -0.41717665779E+01  0.10180383077E+02  0.48244123284E+01  0.12013275585E+02  0.00000000000E+00 0. -1.
         -4    1    5    5    0  503 -0.41830164339E+02  0.63779745085E+03  0.10655294168E+04  0.12425330132E+04  0.00000000000E+00 0.  1.
         -1    1    6    6    0  502  0.34604982414E+02 -0.10077265180E+03 -0.41953213284E+02  0.11451071680E+03  0.00000000000E+00 0.  1.
<mgrwt>
<rscale>  0 0.16295183E+04</rscale>
<asrwt>0</asrwt>
<pdfrwt beam="1">  1        1 0.25057888E+00 0.16295183E+04</pdfrwt>
<pdfrwt beam="2">  1       -1 0.62702855E-01 0.16295183E+04</pdfrwt>
<totfact> 0.13166562E+01</totfact>
</mgrwt>
</event>
<event>
12    1  0.1467288E-007  0.1279908E+04  0.7818608E-02  0.9045652E-01
         -2   -1    0    0    0  501 -0.00000000000E+00  0.00000000000E+00  0.65751872199E+03  0.65751872199E+03  0.00000000000E+00 0.  1.
          2   -1    0    0  501    0  0.00000000000E+00 -0.00000000000E+00 -0.62285823694E+03  0.62285823694E+03  0.00000000000E+00 0. -1.
         23    2    1    2    0    0  0.22249341985E+03  0.15122293228E+03  0.15838143713E+03  0.32552108993E+03  0.92236669725E+02 0.  0.
        254    2    1    2    0    0 -0.22249341985E+03 -0.15122293228E+03 -0.12372095209E+03  0.95485586899E+03  0.90778365233E+03 0.  0.
        -24    2    4    4    0    0  0.24857062626E+03  0.12133631669E+03  0.16683093975E+03  0.33229818851E+03  0.77972210719E+02 0.  0.
         24    2    4    4    0    0 -0.47106404611E+03 -0.27255924896E+03 -0.29055189183E+03  0.62255768048E+03  0.83473252923E+02 0.  0.
         11    1    3    3    0    0  0.17802365260E+03  0.13082654207E+03  0.83716536918E+02  0.23625508153E+03  0.00000000000E+00 0. -1.
        -11    1    3    3    0    0  0.44469767248E+02  0.20396390206E+02  0.74664900214E+02  0.89266008404E+02  0.00000000000E+00 0.  1.
          2    1    6    6  502    0 -0.77139402617E+02 -0.32155698269E+02 -0.78589818017E+02  0.11472068629E+03  0.00000000000E+00 0. -1.
          1    1    5    5  503    0  0.42667179145E+02  0.49006332062E+01  0.57343018941E+02  0.71643047139E+02  0.00000000000E+00 0. -1.
         -2    1    5    5    0  503  0.20590344711E+03  0.11643568348E+03  0.10948792080E+03  0.26065514137E+03  0.00000000000E+00 0.  1.
         -1    1    6    6    0  502 -0.39392464349E+03 -0.24040355070E+03 -0.21196207381E+03  0.50783699419E+03  0.00000000000E+00 0.  1.
<mgrwt>
<rscale>  0 0.12799077E+04</rscale>
<asrwt>0</asrwt>
<pdfrwt beam="1">  1        2 0.95824344E-01 0.12799077E+04</pdfrwt>
<pdfrwt beam="2">  1       -2 0.10115673E+00 0.12799077E+04</pdfrwt>
<totfact> 0.37390478E+01</totfact>
</mgrwt>
</event>
<event>
12    1  0.1467288E-007  0.1544298E+04  0.7818608E-02  0.8855518E-01
         -2   -1    0    0    0  501 -0.00000000000E+00  0.00000000000E+00  0.29762994542E+03  0.29762994542E+03  0.00000000000E+00 0. -1.
          2   -1    0    0  501    0  0.00000000000E+00 -0.00000000000E+00 -0.20032067562E+04  0.20032067562E+04  0.00000000000E+00 0.  1.
         23    2    1    2    0    0 -0.38781773285E+03 -0.29681710351E+03 -0.35978212419E+03  0.61357221633E+03  0.92329306903E+02 0.  0.
        254    2    1    2    0    0  0.38781773285E+03  0.29681710351E+03 -0.13457946866E+04  0.16872644853E+04  0.89285783752E+03 0.  0.
        -24    2    4    4    0    0  0.63866040933E+03  0.37281509627E+03 -0.10245499087E+04  0.12661035498E+04  0.80233839344E+02 0.  0.
         24    2    4    4    0    0 -0.25084267648E+03 -0.75997992763E+02 -0.32124477791E+03  0.42116093549E+03  0.74030959780E+02 0.  0.
         11    1    3    3    0    0 -0.60147736680E+02 -0.25644134130E+02 -0.17673463896E+02  0.67732733365E+02  0.00000000000E+00 0.  1.
        -11    1    3    3    0    0 -0.32766999617E+03 -0.27117296938E+03 -0.34210866030E+03  0.54583948296E+03  0.00000000000E+00 0. -1.
          4    1    6    6  502    0 -0.99852186500E+02 -0.30261917881E+02 -0.18642642644E+03  0.21363767294E+03  0.00000000000E+00 0. -1.
          1    1    5    5  503    0  0.97505428067E+02  0.92349974708E+02 -0.18005239189E+03  0.22462121484E+03  0.00000000000E+00 0. -1.
         -2    1    5    5    0  503  0.54115498126E+03  0.28046512157E+03 -0.84449751682E+03  0.10414823350E+04  0.00000000000E+00 0.  1.
         -3    1    6    6    0  502 -0.15099048998E+03 -0.45736074881E+02 -0.13481835147E+03  0.20752326256E+03  0.00000000000E+00 0.  1.
<mgrwt>
<rscale>  0 0.15442983E+04</rscale>
<asrwt>0</asrwt>
<pdfrwt beam="1">  1        2 0.30818566E+00 0.15442983E+04</pdfrwt>
<pdfrwt beam="2">  1       -2 0.45789221E-01 0.15442983E+04</pdfrwt>
<totfact> 0.28987936E+01</totfact>
</mgrwt>
</event>
<event>
12    1  0.1467288E-007  0.2724071E+04  0.7818608E-02  0.8327237E-01
         -2   -1    0    0    0  501 -0.00000000000E+00  0.00000000000E+00  0.10343310589E+04  0.10343310589E+04  0.00000000000E+00 0. -1.
          2   -1    0    0  501    0  0.00000000000E+00 -0.00000000000E+00 -0.17935659835E+04  0.17935659835E+04  0.00000000000E+00 0.  1.
         23    2    1    2    0    0 -0.10646946530E+04 -0.14587717482E+03  0.24658446629E+03  0.11062806545E+04  0.90543542996E+02 0.  0.
        254    2    1    2    0    0  0.10646946530E+04  0.14587717482E+03 -0.10058193909E+04  0.17216163879E+04  0.89299243323E+03 0.  0.
        -24    2    4    4    0    0 -0.52897787894E+01 -0.19783192386E+03 -0.37426382676E+03  0.43011989997E+03  0.75922753268E+02 0.  0.
         24    2    4    4    0    0  0.10699844318E+04  0.34370909869E+03 -0.63155556416E+03  0.12914964880E+04  0.78090454179E+02 0.  0.
         11    1    3    3    0    0 -0.91753070763E+03 -0.14672366238E+03  0.18879233883E+03  0.94817349665E+03  0.00000000000E+00 0. -1.
        -11    1    3    3    0    0 -0.14716394538E+03  0.84648756105E+00  0.57792127457E+02  0.15810715783E+03  0.00000000000E+00 0.  1.
          2    1    6    6  502    0  0.84689970130E+03  0.30022126858E+03 -0.52236582198E+03  0.10393449698E+04  0.00000000000E+00 0. -1.
          1    1    5    5  503    0 -0.43957802178E+01 -0.11646976617E+03 -0.29205409144E+03  0.31445209753E+03  0.00000000000E+00 0. -1.
         -2    1    5    5    0  503 -0.89399857168E+00 -0.81362157691E+02 -0.82209735322E+02  0.11566780243E+03  0.00000000000E+00 0.  1.
         -1    1    6    6    0  502  0.22308473049E+03  0.43487830101E+02 -0.10918974218E+03  0.25215151823E+03  0.00000000000E+00 0.  1.
<mgrwt>
<rscale>  0 0.27240712E+04</rscale>
<asrwt>0</asrwt>
<pdfrwt beam="1">  1        2 0.27593322E+00 0.27240712E+04</pdfrwt>
<pdfrwt beam="2">  1       -2 0.15912786E+00 0.27240712E+04</pdfrwt>
<totfact> 0.19478586E+00</totfact>
</mgrwt>
</event>
<event>
12    1  0.1467288E-007  0.1808751E+04  0.7818608E-02  0.8701659E-01
          2   -1    0    0  501    0  0.00000000000E+00  0.00000000000E+00  0.11313273008E+04  0.11313273008E+04  0.00000000000E+00 0. -1.
         -2   -1    0    0    0  501 -0.00000000000E+00 -0.00000000000E+00 -0.72295202532E+03  0.72295202532E+03  0.00000000000E+00 0.  1.
         23    2    1    2    0    0 -0.94364514761E+02  0.68387344131E+03  0.11641355769E+03  0.70642260297E+03  0.94303935203E+02 0.  0.
        254    2    1    2    0    0  0.94364514761E+02 -0.68387344131E+03  0.29196171778E+03  0.11478567232E+04  0.86933645205E+03 0.  0.
        -24    2    4    4    0    0  0.50270485392E+02 -0.82241303575E+03  0.42962876686E+03  0.93258651262E+03  0.79034189706E+02 0.  0.
         24    2    4    4    0    0  0.44094029369E+02  0.13853959444E+03 -0.13766704908E+03  0.21527021053E+03  0.79066709088E+02 0.  0.
         11    1    3    3    0    0 -0.13442556641E+02  0.13504369632E+03 -0.14316072428E+02  0.13646410581E+03  0.00000000000E+00 0. -1.
        -11    1    3    3    0    0 -0.80921958120E+02  0.54882974499E+03  0.13072963011E+03  0.56995849716E+03  0.00000000000E+00 0.  1.
          2    1    6    6  502    0 -0.17149877225E+02  0.14050654020E+02 -0.38297760414E+01  0.22499030018E+02  0.00000000000E+00 0. -1.
          3    1    5    5  503    0 -0.16206382281E+02 -0.19839643167E+03  0.12455661795E+03  0.23481512303E+03  0.00000000000E+00 0. -1.
         -4    1    5    5    0  503  0.66476867673E+02 -0.62401660407E+03  0.30507214891E+03  0.69777138959E+03  0.00000000000E+00 0.  1.
         -1    1    6    6    0  502  0.61243906594E+02  0.12448894042E+03 -0.13383727304E+03  0.19277118051E+03  0.00000000000E+00 0.  1.
<mgrwt>
<rscale>  0 0.18087514E+04</rscale>
<asrwt>0</asrwt>
<pdfrwt beam="1">  1        2 0.17405035E+00 0.18087514E+04</pdfrwt>
<pdfrwt beam="2">  1       -2 0.11122339E+00 0.18087514E+04</pdfrwt>
<totfact> 0.12578281E+01</totfact>
</mgrwt>
</event>
<event>
12    1  0.1467288E-007  0.2834264E+04  0.7818608E-02  0.8292709E-01
          2   -1    0    0  501    0  0.00000000000E+00  0.00000000000E+00  0.16958826207E+04  0.16958826207E+04  0.00000000000E+00 0. -1.
         -2   -1    0    0    0  501 -0.00000000000E+00 -0.00000000000E+00 -0.11841990657E+04  0.11841990657E+04  0.00000000000E+00 0.  1.
         23    2    1    2    0    0 -0.98761417549E+03 -0.59718832299E+03 -0.34305680673E+03  0.12075468728E+04  0.92009916373E+02 0.  0.
        254    2    1    2    0    0  0.98761417549E+03  0.59718832299E+03  0.85474036171E+03  0.16725348136E+04  0.85719073951E+03 0.  0.
        -24    2    4    4    0    0  0.46793404804E+03  0.44433835597E+03  0.91474201429E+03  0.11223152508E+04  0.80247875634E+02 0.  0.
         24    2    4    4    0    0  0.51968012745E+03  0.15284996703E+03 -0.60001652578E+02  0.55021956278E+03  0.75569978625E+02 0.  0.
         13    1    3    3    0    0 -0.27505414943E+03 -0.19072496837E+03 -0.62041450470E+02  0.34041142792E+03  0.00000000000E+00 0. -1.
        -13    1    3    3    0    0 -0.71256002606E+03 -0.40646335462E+03 -0.28101535626E+03  0.86713544492E+03  0.00000000000E+00 0.  1.
          2    1    6    6  502    0  0.27598573000E+03  0.45208985582E+02 -0.46193405598E+02  0.28345335818E+03  0.00000000000E+00 0. -1.
          3    1    5    5  503    0  0.44780122264E+03  0.43817575313E+03  0.86288010660E+03  0.10663423484E+04  0.00000000000E+00 0. -1.
         -2    1    5    5    0  503  0.20132825397E+02  0.61626028389E+01  0.51861907686E+02  0.55972902382E+02  0.00000000000E+00 0.  1.
         -1    1    6    6    0  502  0.24369439745E+03  0.10764098144E+03 -0.13808246980E+02  0.26676620461E+03  0.00000000000E+00 0.  1.
<mgrwt>
<rscale>  0 0.28342637E+04</rscale>
<asrwt>0</asrwt>
<pdfrwt beam="1">  1        2 0.26090502E+00 0.28342637E+04</pdfrwt>
<pdfrwt beam="2">  1       -2 0.18218447E+00 0.28342637E+04</pdfrwt>
<totfact> 0.14985648E+00</totfact>
</mgrwt>
</event>
<event>
12    1  0.1467288E-007  0.1592205E+04  0.7818608E-02  0.8825351E-01
          1   -1    0    0  501    0  0.00000000000E+00  0.00000000000E+00  0.17620960546E+04  0.17620960546E+04  0.00000000000E+00 0. -1.
         -1   -1    0    0    0  501 -0.00000000000E+00 -0.00000000000E+00 -0.35967337068E+03  0.35967337068E+03  0.00000000000E+00 0.  1.
         23    2    1    2    0    0  0.48505827647E+03  0.14372406824E+03  0.57672896213E+03  0.77260938821E+03  0.91492249032E+02 0.  0.
        254    2    1    2    0    0 -0.48505827647E+03 -0.14372406824E+03  0.82569372182E+03  0.13491600371E+04  0.93942777480E+03 0.  0.
        -24    2    4    4    0    0 -0.73085846784E+03 -0.19603873309E+03  0.76298557038E+03  0.10775997616E+04  0.80554210239E+02 0.  0.
         24    2    4    4    0    0  0.24580019137E+03  0.52314664847E+02  0.62708151447E+02  0.27156027546E+03  0.81597259231E+02 0.  0.
         11    1    3    3    0    0  0.47276845518E+03  0.12271178391E+03  0.53603793137E+03  0.72519297983E+03  0.00000000000E+00 0.  1.
        -11    1    3    3    0    0  0.12289821293E+02  0.21012284329E+02  0.40691030759E+02  0.47416408388E+02  0.00000000000E+00 0. -1.
          2    1    6    6  502    0  0.24409140787E+03  0.36736115234E+02  0.51142594948E+02  0.25208276930E+03  0.00000000000E+00 0. -1.
          1    1    5    5  503    0 -0.43174771234E+03 -0.15278307586E+03  0.48312295927E+03  0.66570004443E+03  0.00000000000E+00 0. -1.
         -2    1    5    5    0  503 -0.29911075550E+03 -0.43255657229E+02  0.27986261110E+03  0.41189971720E+03  0.00000000000E+00 0.  1.
         -1    1    6    6    0  502  0.17087834983E+01  0.15578549614E+02  0.11565556499E+02  0.19477506161E+02  0.00000000000E+00 0.  1.
<mgrwt>
<rscale>  0 0.15922048E+04</rscale>
<asrwt>0</asrwt>
<pdfrwt beam="1">  1        1 0.27109170E+00 0.15922048E+04</pdfrwt>
<pdfrwt beam="2">  1       -1 0.55334366E-01 0.15922048E+04</pdfrwt>
<totfact> 0.13707364E+01</totfact>
</mgrwt>
</event>
<event>
12    1  0.1719665E-007  0.3027285E+04  0.7818608E-02  0.8235982E-01
          2   -1    0    0  501    0  0.00000000000E+00  0.00000000000E+00  0.30138136062E+04  0.30138136062E+04  0.00000000000E+00 0. -1.
         -2   -1    0    0    0  501 -0.00000000000E+00 -0.00000000000E+00 -0.76020426062E+03  0.76020426062E+03  0.00000000000E+00 0.  1.
         23    2    1    2    0    0 -0.39019252799E+03 -0.13169135451E+04  0.12846426036E+04  0.18828347949E+04  0.90822637128E+02 0.  0.
        254    2    1    2    0    0  0.39019252799E+03  0.13169135451E+04  0.96896674193E+03  0.18911830720E+04  0.86669796957E+03 0.  0.
        -24    2    4    4    0    0  0.39361209720E+03  0.14151712851E+04  0.97027428488E+03  0.17622583432E+04  0.80511061644E+02 0.  0.
         24    2    4    4    0    0 -0.34195692067E+01 -0.98257740021E+02 -0.13075429487E+01  0.12892472872E+03  0.83388243052E+02 0.  0.
         13    1    3    3    0    0 -0.18778830757E+02 -0.12623067974E+03  0.93938915173E+02  0.15846560755E+03  0.00000000000E+00 0.  1.
        -13    1    3    3    0    0 -0.37141369723E+03 -0.11906828654E+04  0.11907036885E+04  0.17243691873E+04  0.00000000000E+00 0. -1.
          4    1    6    6  502    0  0.45620342145E+01 -0.10932140111E+03  0.11743692137E+02  0.11004496900E+03  0.00000000000E+00 0. -1.
          1    1    5    5  503    0  0.38129246098E+03  0.13953208250E+04  0.94484208075E+03  0.17277241397E+04  0.00000000000E+00 0. -1.
         -2    1    5    5    0  503  0.12319636215E+02  0.19850460152E+02  0.25432204126E+02  0.34534203500E+02  0.00000000000E+00 0.  1.
         -3    1    6    6    0  502 -0.79816034211E+01  0.11063661089E+02 -0.13051235085E+02  0.18879759721E+02  0.00000000000E+00 0.  1.
<mgrwt>
<rscale>  0 0.30272852E+04</rscale>
<asrwt>0</asrwt>
<pdfrwt beam="1">  1        2 0.46366363E+00 0.30272852E+04</pdfrwt>
<pdfrwt beam="2">  1       -2 0.11695450E+00 0.30272852E+04</pdfrwt>
<totfact> 0.82427976E-01</totfact>
</mgrwt>
</event>
<event>
12    1  0.1467288E-007  0.1964190E+04  0.7818608E-02  0.8623548E-01
          2   -1    0    0  501    0  0.00000000000E+00  0.00000000000E+00  0.18675890422E+04  0.18675890422E+04  0.00000000000E+00 0. -1.
         -2   -1    0    0    0  501 -0.00000000000E+00 -0.00000000000E+00 -0.51644693665E+03  0.51644693665E+03  0.00000000000E+00 0.  1.
         23    2    1    2    0    0 -0.35797259146E+03  0.65555827457E+03  0.31614514798E+03  0.81612527573E+03  0.90618339803E+02 0.  0.
        254    2    1    2    0    0  0.35797259146E+03 -0.65555827457E+03  0.10349969576E+04  0.15679107031E+04  0.91061750653E+03 0.  0.
        -24    2    4    4    0    0  0.18033226650E+03 -0.15612226385E+03 -0.13207164402E+03  0.28358067164E+03  0.77981988703E+02 0.  0.
         24    2    4    4    0    0  0.17764032496E+03 -0.49943601071E+03  0.11670686016E+04  0.12843300315E+04  0.80387157497E+02 0.  0.
         13    1    3    3    0    0 -0.19272295180E+03  0.39689769482E+03  0.14350939952E+03  0.46396644712E+03  0.00000000000E+00 0.  1.
        -13    1    3    3    0    0 -0.16524963966E+03  0.25866057975E+03  0.17263574846E+03  0.35215882862E+03  0.00000000000E+00 0. -1.
          4    1    6    6  502    0  0.17446189399E+03 -0.48276236479E+03  0.10820633929E+04  0.11976467090E+04  0.00000000000E+00 0. -1.
          3    1    5    5  503    0  0.12405852608E+03 -0.61164205998E+02 -0.92153591085E+02  0.16620427894E+03  0.00000000000E+00 0. -1.
         -4    1    5    5    0  503  0.56273740418E+02 -0.94958057857E+02 -0.39918052932E+02  0.11737639270E+03  0.00000000000E+00 0.  1.
         -1    1    6    6    0  502  0.31784309645E+01 -0.16673645921E+02  0.85005208714E+02  0.86683322503E+02  0.00000000000E+00 0.  1.
<mgrwt>
<rscale>  0 0.19641901E+04</rscale>
<asrwt>0</asrwt>
<pdfrwt beam="1">  1        2 0.28732139E+00 0.19641901E+04</pdfrwt>
<pdfrwt beam="2">  1       -2 0.79453376E-01 0.19641901E+04</pdfrwt>
<totfact> 0.10351271E+01</totfact>
</mgrwt>
</event>
<event>
12    1  0.1467288E-007  0.1402028E+04  0.7818608E-02  0.8952352E-01
          2   -1    0    0  501    0  0.00000000000E+00  0.00000000000E+00  0.43956885963E+03  0.43956885963E+03  0.00000000000E+00 0. -1.
         -2   -1    0    0    0  501 -0.00000000000E+00 -0.00000000000E+00 -0.11179610862E+04  0.11179610862E+04  0.00000000000E+00 0.  1.
         23    2    1    2    0    0  0.25174089605E+03 -0.25329369253E+03 -0.81540639210E+01  0.36917631213E+03  0.93238872058E+02 0.  0.
        254    2    1    2    0    0 -0.25174089605E+03  0.25329369253E+03 -0.67023816262E+03  0.11883536337E+04  0.91402078238E+03 0.  0.
        -24    2    4    4    0    0 -0.24289466103E+03  0.36799291324E+01 -0.83866241283E+03  0.87676152016E+03  0.79654016273E+02 0.  0.
         24    2    4    4    0    0 -0.88462350169E+01  0.24961376340E+03  0.16842425021E+03  0.31159211351E+03  0.79609235610E+02 0.  0.
         11    1    3    3    0    0  0.10154937346E+03 -0.13424139848E+03 -0.44500189709E+02  0.17410713713E+03  0.00000000000E+00 0. -1.
        -11    1    3    3    0    0  0.15019152259E+03 -0.11905229406E+03  0.36346125788E+02  0.19506917501E+03  0.00000000000E+00 0.  1.
          2    1    6    6  502    0 -0.24315291165E+02  0.23950568383E+03  0.14248230620E+03  0.27974169076E+03  0.00000000000E+00 0. -1.
          3    1    5    5  503    0 -0.18642023226E+03  0.14061169691E+02 -0.73343909405E+03  0.75689043075E+03  0.00000000000E+00 0. -1.
         -4    1    5    5    0  503 -0.56474428772E+02 -0.10381240559E+02 -0.10522331878E+03  0.11987108941E+03  0.00000000000E+00 0.  1.
         -1    1    6    6    0  502  0.15469056148E+02  0.10108079571E+02  0.25941944003E+02  0.31850422751E+02  0.00000000000E+00 0.  1.
<mgrwt>
<rscale>  0 0.14020284E+04</rscale>
<asrwt>0</asrwt>
<pdfrwt beam="1">  1        2 0.67625978E-01 0.14020284E+04</pdfrwt>
<pdfrwt beam="2">  1       -2 0.17199401E+00 0.14020284E+04</pdfrwt>
<totfact> 0.14325931E+01</totfact>
</mgrwt>
</event>
<event>
12    1  0.1467288E-007  0.1118708E+04  0.7818608E-02  0.9187147E-01
          2   -1    0    0  501    0  0.00000000000E+00  0.00000000000E+00  0.14624194174E+04  0.14624194174E+04  0.00000000000E+00 0. -1.
         -2   -1    0    0    0  501 -0.00000000000E+00 -0.00000000000E+00 -0.21394465204E+03  0.21394465204E+03  0.00000000000E+00 0.  1.
         23    2    1    2    0    0 -0.17335057729E+02  0.17026473730E+03  0.13989296815E+03  0.23899284755E+03  0.90867781138E+02 0.  0.
        254    2    1    2    0    0  0.17335057729E+02 -0.17026473730E+03  0.11085817972E+04  0.14373712219E+04  0.89877240914E+03 0.  0.
        -24    2    4    4    0    0 -0.11247873279E+03 -0.28484806584E+03  0.11892917488E+04  0.12305057060E+04  0.77068428496E+02 0.  0.
         24    2    4    4    0    0  0.12981379052E+03  0.11458332854E+03 -0.80709951585E+02  0.20686551594E+03  0.79361741501E+02 0.  0.
         13    1    3    3    0    0  0.73885341481E+01  0.38466730102E+02 -0.73337251365E+01  0.39850511740E+02  0.00000000000E+00 0.  1.
        -13    1    3    3    0    0 -0.24723591877E+02  0.13179800720E+03  0.14722669328E+03  0.19914233581E+03  0.00000000000E+00 0. -1.
          4    1    6    6  502    0  0.47502342785E+02  0.23463767580E+02  0.10363534717E+02  0.53985403684E+02  0.00000000000E+00 0. -1.
          3    1    5    5  503    0 -0.22962945514E+02 -0.14380969608E+03  0.64079878001E+03  0.65713895183E+03  0.00000000000E+00 0. -1.
         -4    1    5    5    0  503 -0.89515787278E+02 -0.14103836975E+03  0.54849296881E+03  0.57336675413E+03  0.00000000000E+00 0.  1.
         -3    1    6    6    0  502  0.82311447736E+02  0.91119560955E+02 -0.91073486302E+02  0.15288011226E+03  0.00000000000E+00 0.  1.
<mgrwt>
<rscale>  0 0.11187078E+04</rscale>
<asrwt>0</asrwt>
<pdfrwt beam="1">  1        2 0.22498760E+00 0.11187078E+04</pdfrwt>
<pdfrwt beam="2">  1       -2 0.32914563E-01 0.11187078E+04</pdfrwt>
<totfact> 0.11378125E+02</totfact>
</mgrwt>
</event>
<event>
12    1  0.1467288E-007  0.1448711E+04  0.7818608E-02  0.8919294E-01
         -3   -1    0    0    0  501 -0.00000000000E+00  0.00000000000E+00  0.78620221589E+03  0.78620221589E+03  0.00000000000E+00 0.  1.
          3   -1    0    0  501    0  0.00000000000E+00 -0.00000000000E+00 -0.66737427637E+03  0.66737427637E+03  0.00000000000E+00 0. -1.
         23    2    1    2    0    0  0.29556739221E+03 -0.97793524336E+02 -0.27502648491E+03  0.42554774442E+03  0.92345322761E+02 0.  0.
        254    2    1    2    0    0 -0.29556739221E+03  0.97793524336E+02  0.39385442444E+03  0.10280287479E+04  0.89710542414E+03 0.  0.
        -24    2    4    4    0    0 -0.34455966636E+03  0.30470814405E+03 -0.10566312364E+03  0.47896871180E+03  0.81718507405E+02 0.  0.
         24    2    4    4    0    0  0.48992274155E+02 -0.20691461972E+03  0.49951754808E+03  0.54906003605E+03  0.82068505329E+02 0.  0.
         11    1    3    3    0    0  0.30156439957E+03 -0.93603280314E+02 -0.27417939539E+03  0.41818297674E+03  0.00000000000E+00 0. -1.
        -11    1    3    3    0    0 -0.59970073665E+01 -0.41902440225E+01 -0.84708952353E+00  0.73647676801E+01  0.00000000000E+00 0.  1.
          2    1    6    6  502    0  0.27929953026E+02 -0.30254661745E+02  0.45166729498E+02  0.61118412012E+02  0.00000000000E+00 0. -1.
          1    1    5    5  503    0 -0.18774857809E+03  0.20535084870E+03 -0.91031911302E+02  0.29275468999E+03  0.00000000000E+00 0. -1.
         -2    1    5    5    0  503 -0.15681108827E+03  0.99357295352E+02 -0.14631212342E+02  0.18621402181E+03  0.00000000000E+00 0.  1.
         -1    1    6    6    0  502  0.21062321129E+02 -0.17665995797E+03  0.45435081858E+03  0.48794162404E+03  0.00000000000E+00 0.  1.
<mgrwt>
<rscale>  0 0.14487113E+04</rscale>
<asrwt>0</asrwt>
<pdfrwt beam="1">  1        3 0.10267297E+00 0.14487113E+04</pdfrwt>
<pdfrwt beam="2">  1       -3 0.12095419E+00 0.14487113E+04</pdfrwt>
<totfact> 0.11586966E+00</totfact>
</mgrwt>
</event>
<event>
12    1  0.1467288E-007  0.1077855E+04  0.7818608E-02  0.9227049E-01
          2   -1    0    0  501    0  0.00000000000E+00  0.00000000000E+00  0.18600347353E+04  0.18600347353E+04  0.00000000000E+00 0.  1.
         -2   -1    0    0    0  501 -0.00000000000E+00 -0.00000000000E+00 -0.15614909780E+03  0.15614909780E+03  0.00000000000E+00 0. -1.
         23    2    1    2    0    0  0.92172869807E+02  0.20496864548E+01  0.28429335969E+02  0.13167698721E+03  0.89613406772E+02 0.  0.
        254    2    1    2    0    0 -0.92172869807E+02 -0.20496864548E+01  0.16754563015E+04  0.18845068459E+04  0.85773666981E+03 0.  0.
        -24    2    4    4    0    0 -0.28145589964E+03  0.19104794969E+03  0.15261327324E+04  0.15655850050E+04  0.79110987574E+02 0.  0.
         24    2    4    4    0    0  0.18928302983E+03 -0.19309763615E+03  0.14932356909E+03  0.31892184089E+03  0.79365293688E+02 0.  0.
         11    1    3    3    0    0  0.53027302656E+02 -0.26250411232E+02  0.51226913625E+02  0.78263501048E+02  0.00000000000E+00 0.  1.
        -11    1    3    3    0    0  0.39145567152E+02  0.28300097686E+02 -0.22797577656E+02  0.53413486159E+02  0.00000000000E+00 0. -1.
          4    1    6    6  502    0  0.17131905036E+03 -0.19923491084E+03  0.13762654917E+03  0.29662406131E+03  0.00000000000E+00 0. -1.
          1    1    5    5  503    0 -0.24623587849E+03  0.19352399110E+03  0.13376127782E+04  0.13737873152E+04  0.00000000000E+00 0. -1.
         -2    1    5    5    0  503 -0.35220021144E+02 -0.24760414065E+01  0.18851995419E+03  0.19179768976E+03  0.00000000000E+00 0.  1.
         -3    1    6    6    0  502  0.17963979472E+02  0.61372746896E+01  0.11697019916E+02  0.22297779575E+02  0.00000000000E+00 0.  1.
<mgrwt>
<rscale>  0 0.10778548E+04</rscale>
<asrwt>0</asrwt>
<pdfrwt beam="1">  1        2 0.28615917E+00 0.10778548E+04</pdfrwt>
<pdfrwt beam="2">  1       -2 0.24022939E-01 0.10778548E+04</pdfrwt>
<totfact> 0.12264504E+02</totfact>
</mgrwt>
</event>
<event>
12    1  0.1467288E-007  0.1507154E+04  0.7818608E-02  0.8879709E-01
         -2   -1    0    0    0  501 -0.00000000000E+00  0.00000000000E+00  0.26955195237E+03  0.26955195237E+03  0.00000000000E+00 0.  1.
          2   -1    0    0  501    0  0.00000000000E+00 -0.00000000000E+00 -0.21067491941E+04  0.21067491941E+04  0.00000000000E+00 0. -1.
         23    2    1    2    0    0  0.70378264024E+02  0.69851065397E+02  0.17463578796E+03  0.22171975115E+03  0.93966580387E+02 0.  0.
        254    2    1    2    0    0 -0.70378264024E+02 -0.69851065397E+02 -0.20118330297E+04  0.21545813953E+04  0.76479839062E+03 0.  0.
        -24    2    4    4    0    0  0.32105678479E+03  0.13300246171E+02 -0.12166067609E+04  0.12608278589E+04  0.79375836132E+02 0.  0.
         24    2    4    4    0    0 -0.39143504881E+03 -0.83151311569E+02 -0.79522626876E+03  0.89375353644E+03  0.79215070025E+02 0.  0.
         11    1    3    3    0    0  0.11606096988E+02 -0.15185146510E+02  0.77675972702E+02  0.79992792781E+02  0.00000000000E+00 0. -1.
        -11    1    3    3    0    0  0.58772167036E+02  0.85036211907E+02  0.96959815262E+02  0.14172695837E+03  0.00000000000E+00 0.  1.
          4    1    6    6  502    0 -0.35320801164E+03 -0.67103972394E+02 -0.65092047524E+03  0.74361031979E+03  0.00000000000E+00 0. -1.
          1    1    5    5  503    0  0.32403304621E+03  0.14025783170E+02 -0.12146172650E+04  0.12571751024E+04  0.00000000000E+00 0. -1.
         -2    1    5    5    0  503 -0.29762614232E+01 -0.72553699877E+00 -0.19894959700E+01  0.36527565222E+01  0.00000000000E+00 0.  1.
         -3    1    6    6    0  502 -0.38227037173E+02 -0.16047339175E+02 -0.14430579351E+03  0.15014321665E+03  0.00000000000E+00 0.  1.
<mgrwt>
<rscale>  0 0.15071541E+04</rscale>
<asrwt>0</asrwt>
<pdfrwt beam="1">  1        2 0.32411528E+00 0.15071541E+04</pdfrwt>
<pdfrwt beam="2">  1       -2 0.41469529E-01 0.15071541E+04</pdfrwt>
<totfact> 0.31010647E+01</totfact>
</mgrwt>
</event>
<event>
12    1  0.1467288E-007  0.1902465E+04  0.7818608E-02  0.8653630E-01
          2   -1    0    0  501    0  0.00000000000E+00  0.00000000000E+00  0.26402329072E+04  0.26402329072E+04  0.00000000000E+00 0. -1.
         -2   -1    0    0    0  501 -0.00000000000E+00 -0.00000000000E+00 -0.34271353683E+03  0.34271353683E+03  0.00000000000E+00 0.  1.
         23    2    1    2    0    0  0.14926846875E+03 -0.72070169332E+03  0.81437614469E+03  0.11014330818E+04  0.90853300358E+02 0.  0.
        254    2    1    2    0    0 -0.14926846875E+03  0.72070169332E+03  0.14831432257E+04  0.18815133622E+04  0.89369273121E+03 0.  0.
        -24    2    4    4    0    0 -0.15188372825E+03 -0.10691399729E+03  0.24964457483E+02  0.20293303605E+03  0.77841655045E+02 0.  0.
         24    2    4    4    0    0  0.26152594933E+01  0.82761569061E+03  0.14581787682E+04  0.16785803262E+04  0.79950112154E+02 0.  0.
         13    1    3    3    0    0 -0.43481308553E+01 -0.18220632410E+02  0.42832625406E+02  0.46749668304E+02  0.00000000000E+00 0. -1.
        -13    1    3    3    0    0  0.15361659961E+03 -0.70248106091E+03  0.77154351929E+03  0.10546834135E+04  0.00000000000E+00 0.  1.
          2    1    6    6  502    0 -0.29244053933E+02  0.37177616942E+03  0.60383218584E+03  0.70970842146E+03  0.00000000000E+00 0. -1.
          3    1    5    5  503    0 -0.48362604466E+01 -0.43373418071E+01  0.22718340226E+02  0.23628900349E+02  0.00000000000E+00 0. -1.
         -4    1    5    5    0  503 -0.14704746780E+03 -0.10257665549E+03  0.22461172571E+01  0.17930413570E+03  0.00000000000E+00 0.  1.
         -1    1    6    6    0  502  0.31859313427E+02  0.45583952120E+03  0.85434658239E+03  0.96887190473E+03  0.00000000000E+00 0.  1.
<mgrwt>
<rscale>  0 0.19024653E+04</rscale>
<asrwt>0</asrwt>
<pdfrwt beam="1">  1        2 0.40618966E+00 0.19024653E+04</pdfrwt>
<pdfrwt beam="2">  1       -2 0.52725161E-01 0.19024653E+04</pdfrwt>
<totfact> 0.91683137E+00</totfact>
</mgrwt>
</event>
<event>
12    1  0.1467288E-007  0.1009341E+04  0.7818608E-02  0.9298359E-01
         -2   -1    0    0    0  501 -0.00000000000E+00  0.00000000000E+00  0.22545228409E+03  0.22545228409E+03  0.00000000000E+00 0. -1.
          2   -1    0    0  501    0  0.00000000000E+00 -0.00000000000E+00 -0.11296940980E+04  0.11296940980E+04  0.00000000000E+00 0.  1.
         23    2    1    2    0    0 -0.49072903758E+02 -0.11916418914E+02 -0.20859383216E+03  0.23941096753E+03  0.10609464472E+03 0.  0.
        254    2    1    2    0    0  0.49072903758E+02  0.11916418914E+02 -0.69564798172E+03  0.11157354145E+04  0.87085547012E+03 0.  0.
        -24    2    4    4    0    0  0.39456509135E+03  0.13628426452E+03 -0.58609460224E+03  0.72404107249E+03  0.80458559543E+02 0.  0.
         24    2    4    4    0    0 -0.34549218759E+03 -0.12436784561E+03 -0.10955337948E+03  0.39169434205E+03  0.81180674583E+02 0.  0.
         11    1    3    3    0    0  0.75380904557E+01  0.39660900946E+02 -0.61341738365E+02  0.73434451977E+02  0.00000000000E+00 0. -1.
        -11    1    3    3    0    0 -0.56610994214E+02 -0.51577319860E+02 -0.14725209379E+03  0.16597651556E+03  0.00000000000E+00 0.  1.
          4    1    6    6  502    0 -0.33630789966E+03 -0.12061646470E+03 -0.12037197671E+03  0.37701558019E+03  0.00000000000E+00 0. -1.
          1    1    5    5  503    0  0.36369435300E+03  0.10350641194E+03 -0.54317806290E+03  0.66183802227E+03  0.00000000000E+00 0. -1.
         -2    1    5    5    0  503  0.30870738353E+02  0.32777852587E+02 -0.42916539344E+02  0.62203050214E+02  0.00000000000E+00 0.  1.
         -3    1    6    6    0  502 -0.91842879366E+01 -0.37513809099E+01  0.10818597230E+02  0.14678761857E+02  0.00000000000E+00 0.  1.
<mgrwt>
<rscale>  0 0.10093406E+04</rscale>
<asrwt>0</asrwt>
<pdfrwt beam="1">  1        2 0.17379909E+00 0.10093406E+04</pdfrwt>
<pdfrwt beam="2">  1       -2 0.34684966E-01 0.10093406E+04</pdfrwt>
<totfact> 0.16227511E+02</totfact>
</mgrwt>
</event>
<event>
12    1  0.1467288E-007  0.1704401E+04  0.7818608E-02  0.8758858E-01
         -2   -1    0    0    0  501 -0.00000000000E+00  0.00000000000E+00  0.57828342564E+03  0.57828342564E+03  0.00000000000E+00 0.  1.
          2   -1    0    0  501    0  0.00000000000E+00 -0.00000000000E+00 -0.12558645573E+04  0.12558645573E+04  0.00000000000E+00 0. -1.
         23    2    1    2    0    0 -0.33842978489E+03  0.23655216611E+03  0.23952349216E+03  0.48635079254E+03  0.93134008390E+02 0.  0.
        254    2    1    2    0    0  0.33842978489E+03 -0.23655216611E+03 -0.91710462384E+03  0.13477971904E+04  0.89720941193E+03 0.  0.
        -24    2    4    4    0    0 -0.27979454802E+03 -0.98299634624E+02 -0.12484284963E+03  0.33036930173E+03  0.74902143840E+02 0.  0.
         24    2    4    4    0    0  0.61822433291E+03 -0.13825253148E+03 -0.79226177421E+03  0.10174278887E+04  0.78521981340E+02 0.  0.
         11    1    3    3    0    0 -0.18163549041E+01 -0.44462841749E+01  0.14247904739E+02  0.15035670173E+02  0.00000000000E+00 0. -1.
        -11    1    3    3    0    0 -0.33661342999E+03  0.24099845028E+03  0.22527558742E+03  0.47131512237E+03  0.00000000000E+00 0.  1.
          2    1    6    6  502    0  0.11177414621E+03 -0.45768366479E+02 -0.11563977704E+03  0.16721471576E+03  0.00000000000E+00 0. -1.
          1    1    5    5  503    0 -0.11163723747E+02 -0.24714919995E+02 -0.14773692350E+02  0.30882324781E+02  0.00000000000E+00 0. -1.
         -2    1    5    5    0  503 -0.26863082427E+03 -0.73584714629E+02 -0.11006915728E+03  0.29948697695E+03  0.00000000000E+00 0.  1.
         -1    1    6    6    0  502  0.50645018670E+03 -0.92484165005E+02 -0.67662199716E+03  0.85021317294E+03  0.00000000000E+00 0.  1.
<mgrwt>
<rscale>  0 0.17044010E+04</rscale>
<asrwt>0</asrwt>
<pdfrwt beam="1">  1        2 0.19320993E+00 0.17044010E+04</pdfrwt>
<pdfrwt beam="2">  1       -2 0.88966681E-01 0.17044010E+04</pdfrwt>
<totfact> 0.18118204E+01</totfact>
</mgrwt>
</event>
<event>
12    1  0.1467288E-007  0.1823624E+04  0.7818608E-02  0.8693836E-01
         -2   -1    0    0    0  501 -0.00000000000E+00  0.00000000000E+00  0.47951803330E+03  0.47951803330E+03  0.00000000000E+00 0.  1.
          2   -1    0    0  501    0  0.00000000000E+00 -0.00000000000E+00 -0.17338264881E+04  0.17338264881E+04  0.00000000000E+00 0. -1.
         23    2    1    2    0    0 -0.31249923573E+03 -0.31249955664E+03  0.15983112408E+03  0.47909115255E+03  0.93116051220E+02 0.  0.
        254    2    1    2    0    0  0.31249923573E+03  0.31249955664E+03 -0.14141395789E+04  0.17342533689E+04  0.90140570976E+03 0.  0.
        -24    2    4    4    0    0  0.53097701416E+03  0.41572812107E+03 -0.69630669611E+03  0.97240137948E+03  0.77168436229E+02 0.  0.
         24    2    4    4    0    0 -0.21847777843E+03 -0.10322856443E+03 -0.71783288279E+03  0.76185198939E+03  0.82132392739E+02 0.  0.
         13    1    3    3    0    0 -0.64458153335E+01 -0.45473330037E+01  0.22308265208E+02  0.23661899107E+02  0.00000000000E+00 0. -1.
        -13    1    3    3    0    0 -0.30605342040E+03 -0.30795222364E+03  0.13752285888E+03  0.45542925345E+03  0.00000000000E+00 0.  1.
          4    1    6    6  502    0 -0.80682557163E+02 -0.69864515931E+02 -0.39687448949E+03  0.41097455642E+03  0.00000000000E+00 0. -1.
          1    1    5    5  503    0  0.38467204467E+03  0.33985084402E+03 -0.50833421179E+03  0.72240905933E+03  0.00000000000E+00 0. -1.
         -2    1    5    5    0  503  0.14630496949E+03  0.75877277052E+02 -0.18797248432E+03  0.24999232015E+03  0.00000000000E+00 0.  1.
         -3    1    6    6    0  502 -0.13779522127E+03 -0.33364048501E+02 -0.32095839330E+03  0.35087743297E+03  0.00000000000E+00 0.  1.
<mgrwt>
<rscale>  0 0.18236239E+04</rscale>
<asrwt>0</asrwt>
<pdfrwt beam="1">  1        2 0.26674253E+00 0.18236239E+04</pdfrwt>
<pdfrwt beam="2">  1       -2 0.73772007E-01 0.18236239E+04</pdfrwt>
<totfact> 0.14655173E+01</totfact>
</mgrwt>
</event>
<event>
12    1  0.1467288E-007  0.2377471E+04  0.7818608E-02  0.8447987E-01
         -1   -1    0    0    0  501 -0.00000000000E+00  0.00000000000E+00  0.12917597839E+04  0.12917597839E+04  0.00000000000E+00 0.  1.
          1   -1    0    0  501    0  0.00000000000E+00 -0.00000000000E+00 -0.10939277428E+04  0.10939277428E+04  0.00000000000E+00 0. -1.
         23    2    1    2    0    0 -0.79546068629E+03  0.12291577555E+03  0.71441551201E+03  0.10800709922E+04  0.91092442894E+02 0.  0.
        254    2    1    2    0    0  0.79546068629E+03 -0.12291577555E+03 -0.51658347093E+03  0.13056165345E+04  0.88876884588E+03 0.  0.
        -24    2    4    4    0    0 -0.90980980966E+02  0.20550882717E+03 -0.34168647684E+02  0.24120885036E+03  0.80639916074E+02 0.  0.
         24    2    4    4    0    0  0.88644166726E+03 -0.32842460273E+03 -0.48241482325E+03  0.10644076841E+04  0.81228734041E+02 0.  0.
         11    1    3    3    0    0 -0.78879202708E+03  0.11198159537E+03  0.70758608854E+03  0.10655565740E+04  0.00000000000E+00 0.  1.
        -11    1    3    3    0    0 -0.66686592112E+01  0.10934180182E+02  0.68294234697E+01  0.14514418241E+02  0.00000000000E+00 0. -1.
          2    1    6    6  502    0  0.59164032759E+03 -0.20819792362E+03 -0.36094693022E+03  0.72364862956E+03  0.00000000000E+00 0. -1.
          1    1    5    5  503    0 -0.70994944683E+02  0.15469365341E+03  0.10688336063E+02  0.17054222089E+03  0.00000000000E+00 0. -1.
         -2    1    5    5    0  503 -0.19986036283E+02  0.50815173760E+02 -0.44856983747E+02  0.70666629476E+02  0.00000000000E+00 0.  1.
         -1    1    6    6    0  502  0.29480133967E+03 -0.12022667910E+03 -0.12146789303E+03  0.34075905458E+03  0.00000000000E+00 0.  1.
<mgrwt>
<rscale>  0 0.23774708E+04</rscale>
<asrwt>0</asrwt>
<pdfrwt beam="1">  1        1 0.16829658E+00 0.23774708E+04</pdfrwt>
<pdfrwt beam="2">  1       -1 0.19873227E+00 0.23774708E+04</pdfrwt>
<totfact> 0.17667878E+00</totfact>
</mgrwt>
</event>
<event>
12    1  0.1467288E-007  0.1831409E+04  0.7818608E-02  0.8689773E-01
         -2   -1    0    0    0  501 -0.00000000000E+00  0.00000000000E+00  0.92922781549E+03  0.92922781549E+03  0.00000000000E+00 0.  1.
          2   -1    0    0  501    0  0.00000000000E+00 -0.00000000000E+00 -0.90237804260E+03  0.90237804260E+03  0.00000000000E+00 0. -1.
         23    2    1    2    0    0  0.29074413140E+03  0.61167388578E+03 -0.20382078192E+03  0.71287318262E+03  0.89264611517E+02 0.  0.
        254    2    1    2    0    0 -0.29074413140E+03 -0.61167388578E+03  0.23067055481E+03  0.11187326755E+04  0.86004465106E+03 0.  0.
        -24    2    4    4    0    0 -0.32466857223E+03  0.10974660998E+01 -0.17638451929E+03  0.37810246975E+03  0.80243957745E+02 0.  0.
         24    2    4    4    0    0  0.33924440836E+02 -0.61277135188E+03  0.40705507410E+03  0.74063020572E+03  0.78737989006E+02 0.  0.
         11    1    3    3    0    0  0.27964983113E+03  0.58902183044E+03 -0.21313352767E+03  0.68598589301E+03  0.00000000000E+00 0. -1.
        -11    1    3    3    0    0  0.11094300266E+02  0.22652055332E+02  0.93127457455E+01  0.26887289609E+02  0.00000000000E+00 0.  1.
          2    1    6    6  502    0  0.46366289311E+02 -0.24600291238E+03  0.14056739036E+03  0.28710008171E+03  0.00000000000E+00 0. -1.
          1    1    5    5  503    0 -0.23849410367E+03 -0.21175304776E+02 -0.95304851779E+02  0.25770301859E+03  0.00000000000E+00 0. -1.
         -2    1    5    5    0  503 -0.86174468559E+02  0.22272770875E+02 -0.81079667511E+02  0.12039945115E+03  0.00000000000E+00 0.  1.
         -1    1    6    6    0  502 -0.12441848475E+02 -0.36676843949E+03  0.26648768375E+03  0.45353012402E+03  0.00000000000E+00 0.  1.
<mgrwt>
<rscale>  0 0.18314091E+04</rscale>
<asrwt>0</asrwt>
<pdfrwt beam="1">  1        2 0.13882739E+00 0.18314091E+04</pdfrwt>
<pdfrwt beam="2">  1       -2 0.14295812E+00 0.18314091E+04</pdfrwt>
<totfact> 0.93542161E+00</totfact>
</mgrwt>
</event>
<event>
12    1  0.1467288E-007  0.2542844E+04  0.7818608E-02  0.8387879E-01
         -1   -1    0    0    0  501 -0.00000000000E+00  0.00000000000E+00  0.11036761630E+04  0.11036761630E+04  0.00000000000E+00 0.  1.
          1   -1    0    0  501    0  0.00000000000E+00 -0.00000000000E+00 -0.14646634618E+04  0.14646634618E+04  0.00000000000E+00 0. -1.
         23    2    1    2    0    0  0.85598773614E+03  0.17937235003E+03  0.52562870189E+03  0.10241776683E+04  0.88118781376E+02 0.  0.
        254    2    1    2    0    0 -0.85598773614E+03 -0.17937235003E+03 -0.88661600074E+03  0.15441619565E+04  0.91293963143E+03 0.  0.
        -24    2    4    4    0    0 -0.11377055679E+03 -0.25097294339E+03 -0.72136766674E+03  0.77622458852E+03  0.78880563500E+02 0.  0.
         24    2    4    4    0    0 -0.74221717935E+03  0.71600593353E+02 -0.16524833400E+03  0.76793736795E+03  0.80048753292E+02 0.  0.
         11    1    3    3    0    0  0.24745503713E+03  0.84244778735E+02  0.18599496810E+03  0.32081974114E+03  0.00000000000E+00 0.  1.
        -11    1    3    3    0    0  0.60853269901E+03  0.95127571298E+02  0.33963373380E+03  0.70335792717E+03  0.00000000000E+00 0. -1.
          4    1    6    6  502    0 -0.41798078284E+03  0.42763892732E+02 -0.52411801242E+02  0.42341903860E+03  0.00000000000E+00 0. -1.
          3    1    5    5  503    0 -0.79241913443E+02 -0.23600232583E+03 -0.63089257168E+03  0.67823433682E+03  0.00000000000E+00 0. -1.
         -4    1    5    5    0  503 -0.34528643344E+02 -0.14970617554E+02 -0.90475095061E+02  0.97990251696E+02  0.00000000000E+00 0.  1.
         -3    1    6    6    0  502 -0.32423639652E+03  0.28836700621E+02 -0.11283653276E+03  0.34451832935E+03  0.00000000000E+00 0.  1.
<mgrwt>
<rscale>  0 0.25428442E+04</rscale>
<asrwt>0</asrwt>
<pdfrwt beam="1">  1        1 0.22533284E+00 0.25428442E+04</pdfrwt>
<pdfrwt beam="2">  1       -1 0.16979633E+00 0.25428442E+04</pdfrwt>
<totfact> 0.15129756E+00</totfact>
</mgrwt>
</event>
<event>
12    1  0.1467288E-007  0.2547263E+04  0.7818608E-02  0.8386339E-01
         -1   -1    0    0    0  501 -0.00000000000E+00  0.00000000000E+00  0.95827865408E+03  0.95827865408E+03  0.00000000000E+00 0.  1.
          1   -1    0    0  501    0  0.00000000000E+00 -0.00000000000E+00 -0.16927621306E+04  0.16927621306E+04  0.00000000000E+00 0. -1.
         23    2    1    2    0    0 -0.67567554011E+03 -0.71460220113E+03 -0.85428095882E+03  0.13058563851E+04  0.90946140536E+02 0.  0.
        254    2    1    2    0    0  0.67567554011E+03  0.71460220113E+03  0.11979748227E+03  0.13451843996E+04  0.90993180563E+03 0.  0.
        -24    2    4    4    0    0 -0.12575110174E+03  0.47734119661E+03  0.34305259602E+02  0.50116198611E+03  0.79489168540E+02 0.  0.
         24    2    4    4    0    0  0.80142664185E+03  0.23726100452E+03  0.85492222672E+02  0.84402241352E+03  0.80544818973E+02 0.  0.
         13    1    3    3    0    0 -0.63943101643E+03 -0.66931174380E+03 -0.77286958051E+03  0.12058928740E+04  0.00000000000E+00 0.  1.
        -13    1    3    3    0    0 -0.36244523677E+02 -0.45290457332E+02 -0.81411378312E+02  0.99963511046E+02  0.00000000000E+00 0. -1.
          4    1    6    6  502    0  0.29060743425E+03  0.89148196629E+02 -0.76471821511E+01  0.30406999391E+03  0.00000000000E+00 0. -1.
          1    1    5    5  503    0 -0.12725479925E+03  0.36688367300E+03  0.41040471400E+02  0.39048909554E+03  0.00000000000E+00 0. -1.
         -2    1    5    5    0  503  0.15036975088E+01  0.11045752361E+03 -0.67352117979E+01  0.11067289057E+03  0.00000000000E+00 0.  1.
         -3    1    6    6    0  502  0.51081920760E+03  0.14811280789E+03  0.93139404823E+02  0.53995241961E+03  0.00000000000E+00 0.  1.
<mgrwt>
<rscale>  0 0.25472635E+04</rscale>
<asrwt>0</asrwt>
<pdfrwt beam="1">  1        1 0.26042494E+00 0.25472635E+04</pdfrwt>
<pdfrwt beam="2">  1       -1 0.14742748E+00 0.25472635E+04</pdfrwt>
<totfact> 0.15589511E+00</totfact>
</mgrwt>
</event>
<event>
12    1  0.1467288E-007  0.1653696E+04  0.7818608E-02  0.8788223E-01
         -2   -1    0    0    0  501 -0.00000000000E+00  0.00000000000E+00  0.32439767327E+03  0.32439767327E+03  0.00000000000E+00 0.  1.
          2   -1    0    0  501    0  0.00000000000E+00 -0.00000000000E+00 -0.21075289899E+04  0.21075289899E+04  0.00000000000E+00 0. -1.
         23    2    1    2    0    0 -0.51023956614E+03 -0.28266068220E+03 -0.49237514760E+03  0.76867459891E+03  0.90475836115E+02 0.  0.
        254    2    1    2    0    0  0.51023956614E+03  0.28266068220E+03 -0.12907561691E+04  0.16632520643E+04  0.87184543660E+03 0.  0.
        -24    2    4    4    0    0  0.30225509047E+03  0.57815093354E+03 -0.65504920522E+03  0.92785419544E+03  0.78786452313E+02 0.  0.
         24    2    4    4    0    0  0.20798447567E+03 -0.29549025134E+03 -0.63570696384E+03  0.73539786886E+03  0.78196233279E+02 0.  0.
         11    1    3    3    0    0 -0.47013844800E+03 -0.25599481985E+03 -0.41416952629E+03  0.67683077987E+03  0.00000000000E+00 0.  1.
        -11    1    3    3    0    0 -0.40101118140E+02 -0.26665862353E+02 -0.78205621309E+02  0.91843819038E+02  0.00000000000E+00 0. -1.
          4    1    6    6  502    0  0.16607903910E+03 -0.27350765983E+03 -0.52244620671E+03  0.61264894199E+03  0.00000000000E+00 0. -1.
          1    1    5    5  503    0  0.29152372471E+03  0.50572035457E+03 -0.57500043000E+03  0.81936844801E+03  0.00000000000E+00 0. -1.
         -2    1    5    5    0  503  0.10731365757E+02  0.72430578964E+02 -0.80048775221E+02  0.10848574743E+03  0.00000000000E+00 0.  1.
         -3    1    6    6    0  502  0.41905436565E+02 -0.21982591511E+02 -0.11326075713E+03  0.12274892688E+03  0.00000000000E+00 0.  1.
<mgrwt>
<rscale>  0 0.16536959E+04</rscale>
<asrwt>0</asrwt>
<pdfrwt beam="1">  1        2 0.32423524E+00 0.16536959E+04</pdfrwt>
<pdfrwt beam="2">  1       -2 0.49907333E-01 0.16536959E+04</pdfrwt>
<totfact> 0.21117707E+01</totfact>
</mgrwt>
</event>
<event>
12    1  0.1467288E-007  0.1253436E+04  0.7818608E-02  0.9067329E-01
          2   -1    0    0  501    0  0.00000000000E+00  0.00000000000E+00  0.25121354208E+04  0.25121354208E+04  0.00000000000E+00 0. -1.
         -2   -1    0    0    0  501 -0.00000000000E+00 -0.00000000000E+00 -0.15635113398E+03  0.15635113398E+03  0.00000000000E+00 0.  1.
         23    2    1    2    0    0 -0.40418546957E+02  0.18892045129E+03  0.10575017574E+04  0.10788949428E+04  0.91540891127E+02 0.  0.
        254    2    1    2    0    0  0.40418546957E+02 -0.18892045129E+03  0.12982825294E+04  0.15895916120E+04  0.89662666197E+03 0.  0.
        -24    2    4    4    0    0  0.71423458710E+02 -0.10714724680E+03  0.14145884843E+04  0.14225484204E+04  0.77469899996E+02 0.  0.
         24    2    4    4    0    0 -0.31004911753E+02 -0.81773204488E+02 -0.11630595489E+03  0.16704319164E+03  0.82025552146E+02 0.  0.
         13    1    3    3    0    0 -0.79559818608E+01  0.27138863977E+02  0.40021099413E+03  0.40120899218E+03  0.00000000000E+00 0. -1.
        -13    1    3    3    0    0 -0.32462565096E+02  0.16178158731E+03  0.65729076328E+03  0.67768595058E+03  0.00000000000E+00 0.  1.
          4    1    6    6  502    0  0.12235870686E+02 -0.62659258394E+02 -0.96673628703E+02  0.11585201630E+03  0.00000000000E+00 0. -1.
          1    1    5    5  503    0  0.57364407438E+02 -0.10316978589E+03  0.13794736703E+04  0.13845151812E+04  0.00000000000E+00 0. -1.
         -2    1    5    5    0  503  0.14059051271E+02 -0.39774609113E+01  0.35114814041E+02  0.38033239187E+02  0.00000000000E+00 0.  1.
         -3    1    6    6    0  502 -0.43240782439E+02 -0.19113946094E+02 -0.19632326190E+02  0.51191175342E+02  0.00000000000E+00 0.  1.
<mgrwt>
<rscale>  0 0.12534356E+04</rscale>
<asrwt>0</asrwt>
<pdfrwt beam="1">  1        2 0.38648234E+00 0.12534356E+04</pdfrwt>
<pdfrwt beam="2">  1       -2 0.24054022E-01 0.12534356E+04</pdfrwt>
<totfact> 0.52100214E+01</totfact>
</mgrwt>
</event>
<event>
12    1  0.1467288E-007  0.2225895E+04  0.7818608E-02  0.8507727E-01
          1   -1    0    0  501    0  0.00000000000E+00  0.00000000000E+00  0.11187134201E+04  0.11187134201E+04  0.00000000000E+00 0. -1.
         -1   -1    0    0    0  501 -0.00000000000E+00 -0.00000000000E+00 -0.11072117369E+04  0.11072117369E+04  0.00000000000E+00 0.  1.
         23    2    1    2    0    0  0.91375203220E+03 -0.87515242838E+02 -0.14752374366E+03  0.93426050152E+03  0.92074620168E+02 0.  0.
        254    2    1    2    0    0 -0.91375203220E+03  0.87515242838E+02  0.15902542685E+03  0.12916646555E+04  0.89471045696E+03 0.  0.
        -24    2    4    4    0    0 -0.78135660256E+03 -0.15859419805E+03 -0.20381841986E+03  0.82675489147E+03  0.79444586207E+02 0.  0.
         24    2    4    4    0    0 -0.13239542964E+03  0.24610944089E+03  0.36284384671E+03  0.46490976402E+03  0.79918864528E+02 0.  0.
         11    1    3    3    0    0  0.59534508904E+03 -0.44209842160E+02 -0.13827578295E+03  0.61278909695E+03  0.00000000000E+00 0.  1.
        -11    1    3    3    0    0  0.31840694316E+03 -0.43305400678E+02 -0.92479607110E+01  0.32147140458E+03  0.00000000000E+00 0. -1.
          2    1    6    6  502    0 -0.84563266053E+02  0.21816884957E+03  0.27517367131E+03  0.36120512492E+03  0.00000000000E+00 0. -1.
          3    1    5    5  503    0 -0.58626089663E+03 -0.85502586483E+02 -0.13876616247E+03  0.60849698361E+03  0.00000000000E+00 0. -1.
         -4    1    5    5    0  503 -0.19509570594E+03 -0.73091611565E+02 -0.65052257386E+02  0.21825790787E+03  0.00000000000E+00 0.  1.
         -1    1    6    6    0  502 -0.47832163584E+02  0.27940591313E+02  0.87670175400E+02  0.10370463910E+03  0.00000000000E+00 0.  1.
<mgrwt>
<rscale>  0 0.22258954E+04</rscale>
<asrwt>0</asrwt>
<pdfrwt beam="1">  1        1 0.17210976E+00 0.22258954E+04</pdfrwt>
<pdfrwt beam="2">  1       -1 0.17034027E+00 0.22258954E+04</pdfrwt>
<totfact> 0.27318617E+00</totfact>
</mgrwt>
</event>
<event>
12    1  0.1467288E-007  0.1267781E+04  0.7818608E-02  0.9055512E-01
          2   -1    0    0  501    0  0.00000000000E+00  0.00000000000E+00  0.65319456037E+03  0.65319456037E+03  0.00000000000E+00 0. -1.
         -2   -1    0    0    0  501 -0.00000000000E+00 -0.00000000000E+00 -0.61515741104E+03  0.61515741104E+03  0.00000000000E+00 0.  1.
         23    2    1    2    0    0 -0.58482731291E+02  0.43701887966E+02  0.30670603866E+03  0.32783446680E+03  0.89870788364E+02 0.  0.
        254    2    1    2    0    0  0.58482731291E+02 -0.43701887966E+02 -0.26866888933E+03  0.94051750461E+03  0.89836524839E+03 0.  0.
        -24    2    4    4    0    0 -0.84663951508E+01  0.41887896124E+03 -0.12629452087E+03  0.44519109408E+03  0.81936196082E+02 0.  0.
         24    2    4    4    0    0  0.66949126441E+02 -0.46258084921E+03 -0.14237436846E+03  0.49532641053E+03  0.81329973531E+02 0.  0.
         11    1    3    3    0    0 -0.18061767678E+02  0.65098063076E+02  0.14838728165E+03  0.16304223570E+03  0.00000000000E+00 0. -1.
        -11    1    3    3    0    0 -0.40420963612E+02 -0.21396175110E+02  0.15831875701E+03  0.16479223110E+03  0.00000000000E+00 0.  1.
          2    1    6    6  502    0  0.81060007456E+02 -0.41118582942E+03 -0.11127833933E+03  0.43362124018E+03  0.00000000000E+00 0. -1.
          3    1    5    5  503    0 -0.19599705526E+02  0.40319986519E+03 -0.10627284158E+03  0.41743046919E+03  0.00000000000E+00 0. -1.
         -4    1    5    5    0  503  0.11133310375E+02  0.15679096046E+02 -0.20021679288E+02  0.27760624889E+02  0.00000000000E+00 0.  1.
         -1    1    6    6    0  502 -0.14110881014E+02 -0.51395019783E+02 -0.31096029124E+02  0.61705170357E+02  0.00000000000E+00 0.  1.
<mgrwt>
<rscale>  0 0.12677815E+04</rscale>
<asrwt>0</asrwt>
<pdfrwt beam="1">  1        2 0.10049147E+00 0.12677815E+04</pdfrwt>
<pdfrwt beam="2">  1       -2 0.94639602E-01 0.12677815E+04</pdfrwt>
<totfact> 0.41294444E+01</totfact>
</mgrwt>
</event>
<event>
12    1  0.1467288E-007  0.1976279E+04  0.7818608E-02  0.8617792E-01
         -1   -1    0    0    0  501 -0.00000000000E+00  0.00000000000E+00  0.85789037659E+03  0.85789037659E+03  0.00000000000E+00 0.  1.
          1   -1    0    0  501    0  0.00000000000E+00 -0.00000000000E+00 -0.11381639188E+04  0.11381639188E+04  0.00000000000E+00 0. -1.
         23    2    1    2    0    0 -0.49393939064E+03  0.57698111800E+03  0.52502017901E+02  0.76698472860E+03  0.92875076649E+02 0.  0.
        254    2    1    2    0    0  0.49393939064E+03 -0.57698111800E+03 -0.33277556008E+03  0.12290695668E+04  0.90718746375E+03 0.  0.
        -24    2    4    4    0    0 -0.21953810657E+03 -0.29435802946E+03  0.32076219441E+02  0.37553952165E+03  0.71815170550E+02 0.  0.
         24    2    4    4    0    0  0.71347749721E+03 -0.28262308855E+03 -0.36485177952E+03  0.85353004511E+03  0.80441082025E+02 0.  0.
         13    1    3    3    0    0 -0.40843626877E+03  0.41941121087E+03  0.28618406988E+02  0.58612708747E+03  0.00000000000E+00 0.  1.
        -13    1    3    3    0    0 -0.85503121870E+02  0.15756990714E+03  0.23883610913E+02  0.18085764113E+03  0.00000000000E+00 0. -1.
          4    1    6    6  502    0  0.83260705247E+02 -0.39828123141E+02 -0.73546333768E+02  0.11801562457E+03  0.00000000000E+00 0. -1.
          3    1    5    5  503    0 -0.19207325713E+02 -0.11637986579E+02 -0.13267175935E+02  0.26084134066E+02  0.00000000000E+00 0. -1.
         -4    1    5    5    0  503 -0.20033078086E+03 -0.28272004288E+03  0.45343395376E+02  0.34945538758E+03  0.00000000000E+00 0.  1.
         -3    1    6    6    0  502  0.63021679197E+03 -0.24279496541E+03 -0.29130544575E+03  0.73551442054E+03  0.00000000000E+00 0.  1.
<mgrwt>
<rscale>  0 0.19762792E+04</rscale>
<asrwt>0</asrwt>
<pdfrwt beam="1">  1        1 0.17510214E+00 0.19762792E+04</pdfrwt>
<pdfrwt beam="2">  1       -1 0.13198313E+00 0.19762792E+04</pdfrwt>
<totfact> 0.53856015E+00</totfact>
</mgrwt>
</event>
<event>
12    1  0.1467288E-007  0.1756468E+04  0.7818608E-02  0.8729798E-01
         -1   -1    0    0    0  501 -0.00000000000E+00  0.00000000000E+00  0.57727539032E+03  0.57727539032E+03  0.00000000000E+00 0.  1.
          1   -1    0    0  501    0  0.00000000000E+00 -0.00000000000E+00 -0.13360948510E+04  0.13360948510E+04  0.00000000000E+00 0. -1.
         23    2    1    2    0    0  0.57033797698E+03 -0.25952731648E+03 -0.14237306734E+03  0.64889203774E+03  0.90282613801E+02 0.  0.
        254    2    1    2    0    0 -0.57033797698E+03  0.25952731648E+03 -0.61644639335E+03  0.12644782036E+04  0.90898797326E+03 0.  0.
        -24    2    4    4    0    0 -0.40034613587E+02  0.43603997316E+03 -0.53208943974E+03  0.69375136466E+03  0.80238118099E+02 0.  0.
         24    2    4    4    0    0 -0.53030336339E+03 -0.17651265669E+03 -0.84356953604E+02  0.57072683894E+03  0.78959824427E+02 0.  0.
         13    1    3    3    0    0  0.11292227432E+03 -0.80838359567E+02 -0.58537523046E+02  0.15070806886E+03  0.00000000000E+00 0. -1.
        -13    1    3    3    0    0  0.45741570266E+03 -0.17868895691E+03 -0.83835544298E+02  0.49818396888E+03  0.00000000000E+00 0.  1.
          2    1    6    6  502    0 -0.13220880689E+03 -0.80376475581E+02 -0.16434864945E+02  0.15559450900E+03  0.00000000000E+00 0. -1.
          1    1    5    5  503    0 -0.36559233020E+02  0.38801656761E+03 -0.42678330341E+03  0.57795970649E+03  0.00000000000E+00 0. -1.
         -2    1    5    5    0  503 -0.34753805671E+01  0.48023405552E+02 -0.10530613634E+03  0.11579165817E+03  0.00000000000E+00 0.  1.
         -1    1    6    6    0  502 -0.39809455650E+03 -0.96136181105E+02 -0.67922088659E+02  0.41513232994E+03  0.00000000000E+00 0.  1.
<mgrwt>
<rscale>  0 0.17564677E+04</rscale>
<asrwt>0</asrwt>
<pdfrwt beam="1">  1        1 0.20555305E+00 0.17564677E+04</pdfrwt>
<pdfrwt beam="2">  1       -1 0.88811600E-01 0.17564677E+04</pdfrwt>
<totfact> 0.10043501E+01</totfact>
</mgrwt>
</event>
<event>
12    1  0.1467288E-007  0.1256333E+04  0.7818608E-02  0.9064929E-01
          2   -1    0    0  501    0  0.00000000000E+00  0.00000000000E+00  0.98419881212E+03  0.98419881212E+03  0.00000000000E+00 0. -1.
         -2   -1    0    0    0  501 -0.00000000000E+00 -0.00000000000E+00 -0.40092846969E+03  0.40092846969E+03  0.00000000000E+00 0.  1.
         23    2    1    2    0    0  0.16257785407E+03  0.76414836301E+02 -0.13727698492E+03  0.24317553993E+03  0.89546562130E+02 0.  0.
        254    2    1    2    0    0 -0.16257785407E+03 -0.76414836301E+02  0.72054732735E+03  0.11419517419E+04  0.86752207119E+03 0.  0.
        -24    2    4    4    0    0 -0.19278142620E+03 -0.91932229402E+02 -0.14626191997E+03  0.27085329575E+03  0.79704112156E+02 0.  0.
         24    2    4    4    0    0  0.30203572126E+02  0.15517393100E+02  0.86680924732E+03  0.87109844613E+03  0.79380012385E+02 0.  0.
         11    1    3    3    0    0  0.44196453169E+01 -0.10535119070E+02  0.58439254860E+01  0.12832515873E+02  0.00000000000E+00 0. -1.
        -11    1    3    3    0    0  0.15815820876E+03  0.86949955371E+02 -0.14312091041E+03  0.23034302406E+03  0.00000000000E+00 0.  1.
          4    1    6    6  502    0  0.51853598395E+01 -0.19256123368E+02  0.61538121809E+02  0.64688690508E+02  0.00000000000E+00 0. -1.
          1    1    5    5  503    0  0.18359168514E+01 -0.95337518619E+01 -0.25856167024E+02  0.27618913599E+02  0.00000000000E+00 0. -1.
         -2    1    5    5    0  503 -0.19461734305E+03 -0.82398477540E+02 -0.12040575294E+03  0.24323438215E+03  0.00000000000E+00 0.  1.
         -3    1    6    6    0  502  0.25018212286E+02  0.34773516468E+02  0.80527112551E+03  0.80640975563E+03  0.00000000000E+00 0.  1.
<mgrwt>
<rscale>  0 0.12563333E+04</rscale>
<asrwt>0</asrwt>
<pdfrwt beam="1">  1        2 0.15141520E+00 0.12563333E+04</pdfrwt>
<pdfrwt beam="2">  1       -2 0.61681304E-01 0.12563333E+04</pdfrwt>
<totfact> 0.61926669E+01</totfact>
</mgrwt>
</event>
<event>
12    1  0.1467288E-007  0.2518157E+04  0.7818608E-02  0.8396545E-01
         -2   -1    0    0    0  501 -0.00000000000E+00  0.00000000000E+00  0.51792790938E+03  0.51792790938E+03  0.00000000000E+00 0.  1.
          2   -1    0    0  501    0  0.00000000000E+00 -0.00000000000E+00 -0.30608091554E+04  0.30608091554E+04  0.00000000000E+00 0. -1.
         23    2    1    2    0    0 -0.75308886808E+02 -0.10022029061E+04 -0.17644639026E+04  0.20327096825E+04  0.92161251363E+02 0.  0.
        254    2    1    2    0    0  0.75308886808E+02  0.10022029061E+04 -0.77841734343E+03  0.15460273823E+04  0.87987783967E+03 0.  0.
        -24    2    4    4    0    0  0.17283823967E+03  0.11102277156E+04 -0.52406436665E+03  0.12423270902E+04  0.79085402486E+02 0.  0.
         24    2    4    4    0    0 -0.97529352863E+02 -0.10802480950E+03 -0.25435297678E+03  0.30370029213E+03  0.79731402268E+02 0.  0.
         11    1    3    3    0    0 -0.63638087229E+02 -0.98654687766E+03 -0.17150295957E+04  0.19795582998E+04  0.00000000000E+00 0. -1.
        -11    1    3    3    0    0 -0.11670799579E+02 -0.15656028478E+02 -0.49434306839E+02  0.53151382702E+02  0.00000000000E+00 0.  1.
          2    1    6    6  502    0 -0.61348239387E+02 -0.91439225392E+02 -0.11686980579E+03  0.16057175941E+03  0.00000000000E+00 0. -1.
          1    1    5    5  503    0  0.68850003929E+02  0.67791728874E+03 -0.33189835733E+03  0.75793712999E+03  0.00000000000E+00 0. -1.
         -2    1    5    5    0  503  0.10398823574E+03  0.43231042689E+03 -0.19216600931E+03  0.48438996016E+03  0.00000000000E+00 0.  1.
         -1    1    6    6    0  502 -0.36181113476E+02 -0.16585584111E+02 -0.13748317099E+03  0.14312853272E+03  0.00000000000E+00 0.  1.
<mgrwt>
<rscale>  0 0.25181569E+04</rscale>
<asrwt>0</asrwt>
<pdfrwt beam="1">  1        2 0.47089371E+00 0.25181569E+04</pdfrwt>
<pdfrwt beam="2">  1       -2 0.79681219E-01 0.25181569E+04</pdfrwt>
<totfact> 0.19802270E+00</totfact>
</mgrwt>
</event>
<event>
12    1  0.1467288E-007  0.1196666E+04  0.7818608E-02  0.9115780E-01
          2   -1    0    0  501    0  0.00000000000E+00  0.00000000000E+00  0.11852830386E+04  0.11852830386E+04  0.00000000000E+00 0. -1.
         -2   -1    0    0    0  501 -0.00000000000E+00 -0.00000000000E+00 -0.30203970794E+03  0.30203970794E+03  0.00000000000E+00 0.  1.
         23    2    1    2    0    0 -0.87065132893E+02 -0.53590672256E+02  0.48014486338E+03  0.49941219846E+03  0.91766860158E+02 0.  0.
        254    2    1    2    0    0  0.87065132893E+02  0.53590672256E+02  0.40309846725E+03  0.98791054805E+03  0.89611750296E+03 0.  0.
        -24    2    4    4    0    0 -0.29119678607E+03 -0.94412773518E+02  0.47193309630E+03  0.56828325566E+03  0.80719707999E+02 0.  0.
         24    2    4    4    0    0  0.37826191896E+03  0.14800344577E+03 -0.68834629043E+02  0.41962729239E+03  0.79760636079E+02 0.  0.
         11    1    3    3    0    0  0.12280082266E+02 -0.33674309529E+02  0.13811107889E+03  0.14268647327E+03  0.00000000000E+00 0.  1.
        -11    1    3    3    0    0 -0.99345215159E+02 -0.19916362728E+02  0.34203378449E+03  0.35672572519E+03  0.00000000000E+00 0. -1.
          2    1    6    6  502    0  0.31382890370E+03  0.88557986499E+02 -0.59458721519E+02  0.33146106458E+03  0.00000000000E+00 0. -1.
          1    1    5    5  503    0 -0.16010095761E+03 -0.22104524769E+02  0.29618132413E+03  0.33740821479E+03  0.00000000000E+00 0. -1.
         -2    1    5    5    0  503 -0.13109582846E+03 -0.72308248750E+02  0.17575177217E+03  0.23087504087E+03  0.00000000000E+00 0.  1.
         -1    1    6    6    0  502  0.64433015261E+02  0.59445459275E+02 -0.93759075238E+01  0.88166227808E+02  0.00000000000E+00 0.  1.
<mgrwt>
<rscale>  0 0.11966663E+04</rscale>
<asrwt>0</asrwt>
<pdfrwt beam="1">  1        2 0.18235123E+00 0.11966663E+04</pdfrwt>
<pdfrwt beam="2">  1       -2 0.46467648E-01 0.11966663E+04</pdfrwt>
<totfact> 0.83731341E+01</totfact>
</mgrwt>
</event>
<event>
12    1  0.1467288E-007  0.2854942E+04  0.7818608E-02  0.8286411E-01
         -2   -1    0    0    0  501 -0.00000000000E+00  0.00000000000E+00  0.11199501456E+04  0.11199501456E+04  0.00000000000E+00 0.  1.
          2   -1    0    0  501    0  0.00000000000E+00 -0.00000000000E+00 -0.18194325684E+04  0.18194325684E+04  0.00000000000E+00 0. -1.
         23    2    1    2    0    0  0.78562929016E+03 -0.52897095772E+03 -0.12022936948E+04  0.15332373170E+04  0.91010360635E+02 0.  0.
        254    2    1    2    0    0 -0.78562929016E+03  0.52897095772E+03  0.50281127199E+03  0.14061453970E+04  0.90961642832E+03 0.  0.
        -24    2    4    4    0    0 -0.14799069047E+03  0.55887738167E+03  0.49058818429E+03  0.76245830803E+03  0.80129474630E+02 0.  0.
         24    2    4    4    0    0 -0.63763859970E+03 -0.29906423951E+02  0.12223087694E+02  0.64368708900E+03  0.81891920591E+02 0.  0.
         11    1    3    3    0    0  0.54150093043E+03 -0.31711593702E+03 -0.82144432992E+03  0.10337100959E+04  0.00000000000E+00 0. -1.
        -11    1    3    3    0    0  0.24412835973E+03 -0.21185502071E+03 -0.38084936493E+03  0.49952722107E+03  0.00000000000E+00 0.  1.
          2    1    6    6  502    0 -0.29158334947E+03 -0.54420933124E+02  0.87390403324E+01  0.29674712884E+03  0.00000000000E+00 0. -1.
          3    1    5    5  503    0 -0.67358333590E+02  0.12157429540E+03  0.11802754697E+03  0.18234022115E+03  0.00000000000E+00 0. -1.
         -4    1    5    5    0  503 -0.80632356879E+02  0.43730308628E+03  0.37256063732E+03  0.58011808688E+03  0.00000000000E+00 0.  1.
         -1    1    6    6    0  502 -0.34605525022E+03  0.24514509173E+02  0.34840473619E+01  0.34693996016E+03  0.00000000000E+00 0.  1.
<mgrwt>
<rscale>  0 0.28549422E+04</rscale>
<asrwt>0</asrwt>
<pdfrwt beam="1">  1        2 0.27991270E+00 0.28549422E+04</pdfrwt>
<pdfrwt beam="2">  1       -2 0.17230002E+00 0.28549422E+04</pdfrwt>
<totfact> 0.14969458E+00</totfact>
</mgrwt>
</event>
<event>
12    1  0.1467288E-007  0.1515338E+04  0.7818608E-02  0.8874317E-01
          2   -1    0    0  501    0  0.00000000000E+00  0.00000000000E+00  0.78102050928E+03  0.78102050928E+03  0.00000000000E+00 0. -1.
         -2   -1    0    0    0  501 -0.00000000000E+00 -0.00000000000E+00 -0.73501536438E+03  0.73501536438E+03  0.00000000000E+00 0.  1.
         23    2    1    2    0    0  0.16456118573E+03  0.38681213746E+03 -0.16274492886E+03  0.45967822560E+03  0.90078552845E+02 0.  0.
        254    2    1    2    0    0 -0.16456118573E+03 -0.38681213746E+03  0.20875007375E+03  0.10563576481E+04  0.94636719818E+03 0.  0.
        -24    2    4    4    0    0  0.35624422809E+03 -0.33778187469E+03  0.17122169397E+03  0.52599027450E+03  0.79638906744E+02 0.  0.
         24    2    4    4    0    0 -0.52080541382E+03 -0.49030262771E+02  0.37528379783E+02  0.53036737356E+03  0.78986871838E+02 0.  0.
         13    1    3    3    0    0  0.15319550753E+03  0.37996668341E+03 -0.13926776871E+03  0.43271128415E+03  0.00000000000E+00 0.  1.
        -13    1    3    3    0    0  0.11365678205E+02  0.68454540455E+01 -0.23477160151E+02  0.26966941445E+02  0.00000000000E+00 0. -1.
          4    1    6    6  502    0 -0.47892477619E+03 -0.46409203768E+02  0.56198406793E+02  0.48443886753E+03  0.00000000000E+00 0. -1.
          3    1    5    5  503    0  0.18057683311E+03 -0.21485596841E+03  0.72065535568E+02  0.28976632177E+03  0.00000000000E+00 0. -1.
         -2    1    5    5    0  503  0.17566739497E+03 -0.12292590628E+03  0.99156158403E+02  0.23622395272E+03  0.00000000000E+00 0.  1.
         -3    1    6    6    0  502 -0.41880637626E+02 -0.26210590033E+01 -0.18670027010E+02  0.45928506038E+02  0.00000000000E+00 0.  1.
<mgrwt>
<rscale>  0 0.15153377E+04</rscale>
<asrwt>0</asrwt>
<pdfrwt beam="1">  1        2 0.12015700E+00 0.15153377E+04</pdfrwt>
<pdfrwt beam="2">  1       -2 0.11307929E+00 0.15153377E+04</pdfrwt>
<totfact> 0.21086253E+01</totfact>
</mgrwt>
</event>
<event>
12    1  0.1467288E-007  0.1146386E+04  0.7818608E-02  0.9161124E-01
         -1   -1    0    0    0  501 -0.00000000000E+00  0.00000000000E+00  0.39154724237E+03  0.39154724237E+03  0.00000000000E+00 0.  1.
          1   -1    0    0  501    0  0.00000000000E+00 -0.00000000000E+00 -0.83910744984E+03  0.83910744984E+03  0.00000000000E+00 0. -1.
         23    2    1    2    0    0 -0.71567950953E+02  0.14907441219E+03  0.24078989327E+02  0.19109845521E+03  0.92702048963E+02 0.  0.
        254    2    1    2    0    0  0.71567950953E+02 -0.14907441219E+03 -0.47163919680E+03  0.10395562370E+04  0.91153084751E+03 0.  0.
        -24    2    4    4    0    0  0.15062070271E+03  0.28081905475E+03 -0.49502278467E+03  0.59377477783E+03  0.77298071464E+02 0.  0.
         24    2    4    4    0    0 -0.79052751762E+02 -0.42989346694E+03  0.23383587866E+02  0.44578145917E+03  0.84359864163E+02 0.  0.
         11    1    3    3    0    0 -0.26820001848E+02  0.22423395881E+02 -0.30224723489E+02  0.46213148475E+02  0.00000000000E+00 0. -1.
        -11    1    3    3    0    0 -0.44747949104E+02  0.12665101631E+03  0.54303712816E+02  0.14488530673E+03  0.00000000000E+00 0.  1.
          4    1    6    6  502    0 -0.87498347226E+02 -0.24723022572E+03  0.10413925511E+02  0.26246370248E+03  0.00000000000E+00 0. -1.
          1    1    5    5  503    0  0.15184422662E+03  0.26558003936E+03 -0.49004501259E+03  0.57769675508E+03  0.00000000000E+00 0. -1.
         -4    1    5    5    0  503 -0.12235239051E+01  0.15239015392E+02 -0.49777720802E+01  0.16078022756E+02  0.00000000000E+00 0.  1.
         -3    1    6    6    0  502  0.84455954643E+01 -0.18266324122E+03  0.12969662355E+02  0.18331775669E+03  0.00000000000E+00 0.  1.
<mgrwt>
<rscale>  0 0.11463860E+04</rscale>
<asrwt>0</asrwt>
<pdfrwt beam="1">  1        1 0.12909345E+00 0.11463860E+04</pdfrwt>
<pdfrwt beam="2">  1       -1 0.60238038E-01 0.11463860E+04</pdfrwt>
<totfact> 0.56797999E+01</totfact>
</mgrwt>
</event>
<event>
12    1  0.1467288E-007  0.2651342E+04  0.7818608E-02  0.8350968E-01
          2   -1    0    0  501    0  0.00000000000E+00  0.00000000000E+00  0.43003089956E+04  0.43003089956E+04  0.00000000000E+00 0. -1.
         -2   -1    0    0    0  501 -0.00000000000E+00 -0.00000000000E+00 -0.40866922707E+03  0.40866922707E+03  0.00000000000E+00 0.  1.
         23    2    1    2    0    0 -0.77571091769E+02  0.10809309994E+04  0.25180128985E+04  0.27428486232E+04  0.91654315291E+02 0.  0.
        254    2    1    2    0    0  0.77571091769E+02 -0.10809309994E+04  0.13736268700E+04  0.19661295994E+04  0.89687553422E+03 0.  0.
        -24    2    4    4    0    0 -0.13972982587E+03  0.69985680991E+02  0.21209887244E+02  0.17564536820E+03  0.77324098894E+02 0.  0.
         24    2    4    4    0    0  0.21730091764E+03 -0.11509166804E+04  0.13524169828E+04  0.17904842312E+04  0.70520868688E+02 0.  0.
         13    1    3    3    0    0 -0.74673143513E+01  0.35807547053E+03  0.93274270884E+03  0.99914101320E+03  0.00000000000E+00 0. -1.
        -13    1    3    3    0    0 -0.70103777417E+02  0.72285552883E+03  0.15852701896E+04  0.17437076100E+04  0.00000000000E+00 0.  1.
          4    1    6    6  502    0  0.21342529348E+03 -0.10827755880E+04  0.12507357271E+04  0.16680207400E+04  0.00000000000E+00 0. -1.
          1    1    5    5  503    0 -0.11370343302E+03  0.82467347637E+02  0.10986492302E+01  0.14046544464E+03  0.00000000000E+00 0. -1.
         -2    1    5    5    0  503 -0.26026392848E+02 -0.12481666646E+02  0.20111238014E+02  0.35179923556E+02  0.00000000000E+00 0.  1.
         -3    1    6    6    0  502  0.38756241601E+01 -0.68141092311E+02  0.10168125567E+03  0.12246349121E+03  0.00000000000E+00 0.  1.
<mgrwt>
<rscale>  0 0.26513423E+04</rscale>
<asrwt>0</asrwt>
<pdfrwt beam="1">  1        2 0.66158597E+00 0.26513423E+04</pdfrwt>
<pdfrwt beam="2">  1       -2 0.62872192E-01 0.26513423E+04</pdfrwt>
<totfact> 0.39258969E-01</totfact>
</mgrwt>
</event>
<event>
12    1  0.1467288E-007  0.2033427E+04  0.7818608E-02  0.8591150E-01
         -1   -1    0    0    0  501 -0.00000000000E+00  0.00000000000E+00  0.54414392850E+03  0.54414392850E+03  0.00000000000E+00 0.  1.
          1   -1    0    0  501    0  0.00000000000E+00 -0.00000000000E+00 -0.18996936678E+04  0.18996936678E+04  0.00000000000E+00 0. -1.
         23    2    1    2    0    0  0.28925764002E+03 -0.64992721294E+03 -0.10467905868E+04  0.12689155056E+04  0.91107976251E+02 0.  0.
        254    2    1    2    0    0 -0.28925764002E+03  0.64992721294E+03 -0.30875915253E+03  0.11749220907E+04  0.88262922033E+03 0.  0.
        -24    2    4    4    0    0  0.26247485834E+03  0.41158300369E+03 -0.27832556544E+03  0.56780109491E+03  0.81482162565E+02 0.  0.
         24    2    4    4    0    0 -0.55173249835E+03  0.23834420925E+03 -0.30433587090E+02  0.60712099582E+03  0.80330495570E+02 0.  0.
         11    1    3    3    0    0 -0.14040503788E+01 -0.27872638325E+02 -0.66161583791E+02  0.71806758000E+02  0.00000000000E+00 0.  1.
        -11    1    3    3    0    0  0.29066169039E+03 -0.62205457461E+03 -0.98062900300E+03  0.11971087476E+04  0.00000000000E+00 0. -1.
          2    1    6    6  502    0 -0.32966792290E+03  0.14256330821E+03 -0.57590820839E+02  0.36376082648E+03  0.00000000000E+00 0. -1.
          3    1    5    5  503    0  0.22610910714E+03  0.35429335489E+03 -0.26972718371E+03  0.49940150509E+03  0.00000000000E+00 0. -1.
         -2    1    5    5    0  503  0.36365751197E+02  0.57289648793E+02 -0.85983817342E+01  0.68399589819E+02  0.00000000000E+00 0.  1.
         -1    1    6    6    0  502 -0.22206457545E+03  0.95780901044E+02  0.27157233749E+02  0.24336016934E+03  0.00000000000E+00 0.  1.
<mgrwt>
<rscale>  0 0.20334274E+04</rscale>
<asrwt>0</asrwt>
<pdfrwt beam="1">  1        1 0.29226056E+00 0.20334274E+04</pdfrwt>
<pdfrwt beam="2">  1       -1 0.83714453E-01 0.20334274E+04</pdfrwt>
<totfact> 0.45620207E+00</totfact>
</mgrwt>
</event>
<event>
12    1  0.1467288E-007  0.1260495E+04  0.7818608E-02  0.9061493E-01
          2   -1    0    0  501    0  0.00000000000E+00  0.00000000000E+00  0.75963444648E+03  0.75963444648E+03  0.00000000000E+00 0. -1.
         -2   -1    0    0    0  501 -0.00000000000E+00 -0.00000000000E+00 -0.52289876948E+03  0.52289876948E+03  0.00000000000E+00 0.  1.
         23    2    1    2    0    0 -0.11351977119E+03 -0.27858212399E+03  0.61329519121E+02  0.32027454553E+03  0.91212588711E+02 0.  0.
        254    2    1    2    0    0  0.11351977119E+03  0.27858212399E+03  0.17540615788E+03  0.96225867043E+03  0.89703940290E+03 0.  0.
        -24    2    4    4    0    0  0.44960947824E+03  0.25809254308E+03 -0.82397326635E+02  0.53093777452E+03  0.79656495421E+02 0.  0.
         24    2    4    4    0    0 -0.33608970705E+03  0.20489580912E+02  0.25780348451E+03  0.43132089591E+03  0.78733503080E+02 0.  0.
         13    1    3    3    0    0 -0.88497219889E+02 -0.99990008879E+02  0.17330535847E+02  0.13464808679E+03  0.00000000000E+00 0.  1.
        -13    1    3    3    0    0 -0.25022551297E+02 -0.17859211511E+03  0.43998983274E+02  0.18562645874E+03  0.00000000000E+00 0. -1.
          2    1    6    6  502    0 -0.90717964955E+02 -0.18182451761E+02  0.39408085170E+02  0.10056514254E+03  0.00000000000E+00 0. -1.
          3    1    5    5  503    0  0.43342020661E+03  0.23214409055E+03 -0.88958289704E+02  0.49965741421E+03  0.00000000000E+00 0. -1.
         -4    1    5    5    0  503  0.16189271634E+02  0.25948452530E+02  0.65609630687E+01  0.31280360310E+02  0.00000000000E+00 0.  1.
         -1    1    6    6    0  502 -0.24537174210E+03  0.38672032672E+02  0.21839539934E+03  0.33075575337E+03  0.00000000000E+00 0.  1.
<mgrwt>
<rscale>  0 0.12604950E+04</rscale>
<asrwt>0</asrwt>
<pdfrwt beam="1">  1        2 0.11686684E+00 0.12604950E+04</pdfrwt>
<pdfrwt beam="2">  1       -2 0.80445965E-01 0.12604950E+04</pdfrwt>
<totfact> 0.49503792E+01</totfact>
</mgrwt>
</event>
<event>
12    1  0.1467288E-007  0.1305879E+04  0.7818608E-02  0.9024916E-01
          2   -1    0    0  501    0  0.00000000000E+00  0.00000000000E+00  0.11270744660E+04  0.11270744660E+04  0.00000000000E+00 0. -1.
         -2   -1    0    0    0  501 -0.00000000000E+00 -0.00000000000E+00 -0.37826246558E+03  0.37826246558E+03  0.00000000000E+00 0.  1.
         23    2    1    2    0    0  0.90571593747E+02 -0.66535766407E+02 -0.16546058816E+03  0.22005499585E+03  0.91742973351E+02 0.  0.
        254    2    1    2    0    0 -0.90571593747E+02  0.66535766407E+02  0.91427258853E+03  0.12852819357E+04  0.89633981628E+03 0.  0.
        -24    2    4    4    0    0 -0.30890761086E+02  0.19397466523E+03  0.10517992567E+04  0.10732059863E+04  0.83120411376E+02 0.  0.
         24    2    4    4    0    0 -0.59680832660E+02 -0.12743889883E+03 -0.13752666821E+03  0.21207594933E+03  0.79121103983E+02 0.  0.
         11    1    3    3    0    0  0.25920393395E+02 -0.19701572603E+02  0.39304990252E+01  0.32794322365E+02  0.00000000000E+00 0. -1.
        -11    1    3    3    0    0  0.64651200352E+02 -0.46834193804E+02 -0.16939108719E+03  0.18726067349E+03  0.00000000000E+00 0.  1.
          4    1    6    6  502    0  0.81757714457E+01 -0.13008994876E+02  0.58910929660E+01  0.16455459968E+02  0.00000000000E+00 0. -1.
          3    1    5    5  503    0 -0.16545872354E+02  0.14558680841E+02  0.41400512645E+02  0.46901210294E+02  0.00000000000E+00 0. -1.
         -4    1    5    5    0  503 -0.14344888733E+02  0.17941598439E+03  0.10103987441E+04  0.10263047761E+04  0.00000000000E+00 0.  1.
         -3    1    6    6    0  502 -0.67856604106E+02 -0.11442990395E+03 -0.14341776117E+03  0.19562048936E+03  0.00000000000E+00 0.  1.
<mgrwt>
<rscale>  0 0.13058790E+04</rscale>
<asrwt>0</asrwt>
<pdfrwt beam="1">  1        2 0.17339607E+00 0.13058790E+04</pdfrwt>
<pdfrwt beam="2">  1       -2 0.58194226E-01 0.13058790E+04</pdfrwt>
<totfact> 0.56748615E+01</totfact>
</mgrwt>
</event>
<event>
12    1  0.1467288E-007  0.2076203E+04  0.7818608E-02  0.8571799E-01
          1   -1    0    0  501    0  0.00000000000E+00  0.00000000000E+00  0.16759672084E+04  0.16759672084E+04  0.00000000000E+00 0. -1.
         -1   -1    0    0    0  501 -0.00000000000E+00 -0.00000000000E+00 -0.64300449539E+03  0.64300449539E+03  0.00000000000E+00 0.  1.
         23    2    1    2    0    0  0.34861702430E+03 -0.14092153777E+02  0.13410005861E+04  0.13889188493E+04  0.95292075995E+02 0.  0.
        254    2    1    2    0    0 -0.34861702430E+03  0.14092153777E+02 -0.30803787301E+03  0.93005285452E+03  0.80521957413E+03 0.  0.
        -24    2    4    4    0    0 -0.53760719049E+03 -0.19099561137E+03 -0.27568240262E+03  0.63880834871E+03  0.81083317910E+02 0.  0.
         24    2    4    4    0    0  0.18899016619E+03  0.20508776515E+03 -0.32355470392E+02  0.29124450581E+03  0.77448120530E+02 0.  0.
         11    1    3    3    0    0  0.20605063120E+03 -0.32164699099E+02  0.94254074064E+03  0.96533645857E+03  0.00000000000E+00 0. -1.
        -11    1    3    3    0    0  0.14256639310E+03  0.18072545323E+02  0.39845984541E+03  0.42358239073E+03  0.00000000000E+00 0.  1.
          2    1    6    6  502    0  0.88735565775E+02  0.14822620906E+03 -0.33532207429E+02  0.17598130191E+03  0.00000000000E+00 0. -1.
          1    1    5    5  503    0 -0.16524558663E+03 -0.98587793441E+02 -0.84526159083E+02  0.21016738207E+03  0.00000000000E+00 0. -1.
         -2    1    5    5    0  503 -0.37236160386E+03 -0.92407817928E+02 -0.19115624353E+03  0.42864096664E+03  0.00000000000E+00 0.  1.
         -1    1    6    6    0  502  0.10025460041E+03  0.56861556082E+02  0.11767370371E+01  0.11526320390E+03  0.00000000000E+00 0.  1.
<mgrwt>
<rscale>  0 0.20762027E+04</rscale>
<asrwt>0</asrwt>
<pdfrwt beam="1">  1        1 0.25784111E+00 0.20762027E+04</pdfrwt>
<pdfrwt beam="2">  1       -1 0.98923769E-01 0.20762027E+04</pdfrwt>
<totfact> 0.44560620E+00</totfact>
</mgrwt>
</event>
<event>
12    1  0.1467288E-007  0.2783731E+04  0.7818608E-02  0.8308337E-01
         -1   -1    0    0    0  501 -0.00000000000E+00  0.00000000000E+00  0.67063373109E+03  0.67063373109E+03  0.00000000000E+00 0.  1.
          1   -1    0    0  501    0  0.00000000000E+00 -0.00000000000E+00 -0.28887445145E+04  0.28887445145E+04  0.00000000000E+00 0. -1.
         23    2    1    2    0    0  0.55232444169E+03 -0.91352904038E+03 -0.18186158755E+04  0.21106075454E+04  0.87766232886E+02 0.  0.
        254    2    1    2    0    0 -0.55232444169E+03  0.91352904038E+03 -0.39949490796E+03  0.14487707002E+04  0.89428338004E+03 0.  0.
        -24    2    4    4    0    0 -0.56761355762E+03  0.15276206103E+03 -0.16192916796E+02  0.59305709759E+03  0.77026699034E+02 0.  0.
         24    2    4    4    0    0  0.15289115929E+02  0.76076697935E+03 -0.38330199116E+03  0.85571360263E+03  0.79531121964E+02 0.  0.
         11    1    3    3    0    0  0.16407504454E+03 -0.24908473400E+03 -0.58468717153E+03  0.65637101818E+03  0.00000000000E+00 0. -1.
        -11    1    3    3    0    0  0.38824939715E+03 -0.66444430638E+03 -0.12339287040E+04  0.14542365272E+04  0.00000000000E+00 0.  1.
          4    1    6    6  502    0 -0.14172354461E+02  0.76807889821E+02 -0.60697600972E+02  0.98916663578E+02  0.00000000000E+00 0. -1.
          3    1    5    5  503    0 -0.18978307263E+03  0.37746727866E+02  0.28499002321E+02  0.19558789138E+03  0.00000000000E+00 0. -1.
         -4    1    5    5    0  503 -0.37783048498E+03  0.11501533316E+03 -0.44691919117E+02  0.39746920620E+03  0.00000000000E+00 0.  1.
         -3    1    6    6    0  502  0.29461470391E+02  0.68395908953E+03 -0.32260439019E+03  0.75679693905E+03  0.00000000000E+00 0.  1.
<mgrwt>
<rscale>  0 0.27837310E+04</rscale>
<asrwt>0</asrwt>
<pdfrwt beam="1">  1        1 0.44442223E+00 0.27837310E+04</pdfrwt>
<pdfrwt beam="2">  1       -1 0.10317442E+00 0.27837310E+04</pdfrwt>
<totfact> 0.55307820E-01</totfact>
</mgrwt>
</event>
<event>
12    1  0.1842293E-007  0.2627206E+04  0.7818608E-02  0.8359018E-01
          1   -1    0    0  501    0  0.00000000000E+00  0.00000000000E+00  0.26784212448E+04  0.26784212448E+04  0.00000000000E+00 0. -1.
         -1   -1    0    0    0  501 -0.00000000000E+00 -0.00000000000E+00 -0.64424257080E+03  0.64424257080E+03  0.00000000000E+00 0.  1.
         23    2    1    2    0    0  0.38946574178E+03  0.29149241471E+03 -0.42882527679E+03  0.65574489753E+03  0.97256674699E+02 0.  0.
        254    2    1    2    0    0 -0.38946574178E+03 -0.29149241471E+03  0.24630039508E+04  0.26669189181E+04  0.89967586500E+03 0.  0.
        -24    2    4    4    0    0 -0.89960685754E+02 -0.57516535244E+03  0.16500727648E+04  0.17518764133E+04  0.86155271648E+02 0.  0.
         24    2    4    4    0    0 -0.29950505602E+03  0.28367293773E+03  0.81293118602E+03  0.91504250475E+03  0.79196326470E+02 0.  0.
         13    1    3    3    0    0  0.36023440305E+03  0.27725078427E+03 -0.42619870780E+03  0.62312291007E+03  0.00000000000E+00 0.  1.
        -13    1    3    3    0    0  0.29231338727E+02  0.14241630436E+02 -0.26265689856E+01  0.32621987461E+02  0.00000000000E+00 0. -1.
          2    1    6    6  502    0 -0.84882204592E+01 -0.19950995505E+01  0.42050273497E+02  0.42944799568E+02  0.00000000000E+00 0. -1.
          1    1    5    5  503    0  0.38901255017E+00  0.28852698867E+01  0.42268606765E+01  0.51324910386E+01  0.00000000000E+00 0. -1.
         -2    1    5    5    0  503 -0.90349698305E+02 -0.57805062233E+03  0.16458459041E+04  0.17467439223E+04  0.00000000000E+00 0.  1.
         -1    1    6    6    0  502 -0.29101683557E+03  0.28566803728E+03  0.77088091252E+03  0.87209770519E+03  0.00000000000E+00 0.  1.
<mgrwt>
<rscale>  0 0.26272061E+04</rscale>
<asrwt>0</asrwt>
<pdfrwt beam="1">  1        1 0.41206480E+00 0.26272061E+04</pdfrwt>
<pdfrwt beam="2">  1       -1 0.99114244E-01 0.26272061E+04</pdfrwt>
<totfact> 0.86833360E-01</totfact>
</mgrwt>
</event>
<event>
12    1  0.1467288E-007  0.1469676E+04  0.7818608E-02  0.8904872E-01
          2   -1    0    0  501    0  0.00000000000E+00  0.00000000000E+00  0.47958885929E+03  0.47958885929E+03  0.00000000000E+00 0. -1.
         -2   -1    0    0    0  501 -0.00000000000E+00 -0.00000000000E+00 -0.11259369754E+04  0.11259369754E+04  0.00000000000E+00 0.  1.
         23    2    1    2    0    0  0.23719064409E+03  0.49399827422E+02  0.21509651628E+03  0.33589912268E+03  0.88667720761E+02 0.  0.
        254    2    1    2    0    0 -0.23719064409E+03 -0.49399827422E+02 -0.86144463242E+03  0.12696267120E+04  0.90064720542E+03 0.  0.
        -24    2    4    4    0    0 -0.11873225527E+03 -0.41238172625E+03 -0.74329677467E+03  0.86181542084E+03  0.77972352572E+02 0.  0.
         24    2    4    4    0    0 -0.11845838883E+03  0.36298189883E+03 -0.11814785775E+03  0.40781129121E+03  0.81011629929E+02 0.  0.
         13    1    3    3    0    0  0.12058454572E+03  0.51508126751E+02  0.16013835817E+03  0.20697346097E+03  0.00000000000E+00 0. -1.
        -13    1    3    3    0    0  0.11660609837E+03 -0.21082993299E+01  0.54958158102E+02  0.12892566170E+03  0.00000000000E+00 0.  1.
          4    1    6    6  502    0 -0.26209520284E+02  0.17641256691E+03 -0.26150643074E+02  0.18025589824E+03  0.00000000000E+00 0. -1.
          1    1    5    5  503    0 -0.10468560613E+03 -0.29408603949E+03 -0.59188136824E+03  0.66915560883E+03  0.00000000000E+00 0. -1.
         -2    1    5    5    0  503 -0.14046649141E+02 -0.11829568677E+03 -0.15141540643E+03  0.19265981201E+03  0.00000000000E+00 0.  1.
         -3    1    6    6    0  502 -0.92248868543E+02  0.18656933192E+03 -0.91997214673E+02  0.22755539297E+03  0.00000000000E+00 0.  1.
<mgrwt>
<rscale>  0 0.14696759E+04</rscale>
<asrwt>0</asrwt>
<pdfrwt beam="1">  1        2 0.73782903E-01 0.14696759E+04</pdfrwt>
<pdfrwt beam="2">  1       -2 0.17322107E+00 0.14696759E+04</pdfrwt>
<totfact> 0.12643119E+01</totfact>
</mgrwt>
</event>
<event>
12    1  0.1467288E-007  0.1388519E+04  0.7818608E-02  0.8962171E-01
         -2   -1    0    0    0  501 -0.00000000000E+00  0.00000000000E+00  0.23050057177E+03  0.23050057177E+03  0.00000000000E+00 0.  1.
          2   -1    0    0  501    0  0.00000000000E+00 -0.00000000000E+00 -0.20910845253E+04  0.20910845253E+04  0.00000000000E+00 0. -1.
         23    2    1    2    0    0  0.25436049368E+03  0.22686938999E+03 -0.83926825366E+03  0.91030889443E+03  0.90122698695E+02 0.  0.
        254    2    1    2    0    0 -0.25436049368E+03 -0.22686938999E+03 -0.10213156999E+04  0.14112762026E+04  0.91238466695E+03 0.  0.
        -24    2    4    4    0    0 -0.43930399556E+03  0.15961488185E+03 -0.28027435242E+03  0.55155563120E+03  0.84823290773E+02 0.  0.
         24    2    4    4    0    0  0.18494350188E+03 -0.38648427184E+03 -0.74104134743E+03  0.85972057143E+03  0.80018691957E+02 0.  0.
         13    1    3    3    0    0  0.65818269439E+02  0.32662941340E+02 -0.27236674970E+03  0.28210380833E+03  0.00000000000E+00 0.  1.
        -13    1    3    3    0    0  0.18854222424E+03  0.19420644865E+03 -0.56690150395E+03  0.62820508610E+03  0.00000000000E+00 0. -1.
          4    1    6    6  502    0  0.94582261756E+02 -0.18632258637E+03 -0.28331065905E+03  0.35203244163E+03  0.00000000000E+00 0. -1.
          3    1    5    5  503    0 -0.45411324386E+02  0.36097147034E+02 -0.60794753065E+02  0.84030913400E+02  0.00000000000E+00 0. -1.
         -4    1    5    5    0  503 -0.39389267118E+03  0.12351773482E+03 -0.21947959935E+03  0.46752471780E+03  0.00000000000E+00 0.  1.
         -3    1    6    6    0  502  0.90361240127E+02 -0.20016168547E+03 -0.45773068838E+03  0.50768812980E+03  0.00000000000E+00 0.  1.
<mgrwt>
<rscale>  0 0.13885189E+04</rscale>
<asrwt>0</asrwt>
<pdfrwt beam="1">  1        2 0.32170532E+00 0.13885189E+04</pdfrwt>
<pdfrwt beam="2">  1       -2 0.35461626E-01 0.13885189E+04</pdfrwt>
<totfact> 0.43298472E+01</totfact>
</mgrwt>
</event>
<event>
12    1  0.1467288E-007  0.1603520E+04  0.7818608E-02  0.8818388E-01
         -2   -1    0    0    0  501 -0.00000000000E+00  0.00000000000E+00  0.57674525083E+03  0.57674525083E+03  0.00000000000E+00 0. -1.
          2   -1    0    0  501    0  0.00000000000E+00 -0.00000000000E+00 -0.11145635335E+04  0.11145635335E+04  0.00000000000E+00 0.  1.
         23    2    1    2    0    0 -0.80685484633E+01  0.34648628259E+03  0.25882140952E+03  0.44213811059E+03  0.91540926976E+02 0.  0.
        254    2    1    2    0    0  0.80685484633E+01 -0.34648628259E+03 -0.79663969217E+03  0.12491706737E+04  0.89759385440E+03 0.  0.
        -24    2    4    4    0    0 -0.43354659359E+03 -0.23329549630E+03 -0.43798652674E+03  0.66348708557E+03  0.77417554212E+02 0.  0.
         24    2    4    4    0    0  0.44161514205E+03 -0.11319078630E+03 -0.35865316543E+03  0.58568358816E+03  0.80975827086E+02 0.  0.
         13    1    3    3    0    0  0.12542523414E+02  0.28231214279E+02 -0.80084144696E+00  0.30902389880E+02  0.00000000000E+00 0.  1.
        -13    1    3    3    0    0 -0.20611071878E+02  0.31825506831E+03  0.25962225097E+03  0.41123572071E+03  0.00000000000E+00 0. -1.
          2    1    6    6  502    0  0.14046045236E+03 -0.70741846568E+02 -0.14589745366E+03  0.21452182760E+03  0.00000000000E+00 0. -1.
          1    1    5    5  503    0 -0.25663274319E+02 -0.78329899600E+01 -0.49020176718E+01  0.27276164645E+02  0.00000000000E+00 0. -1.
         -2    1    5    5    0  503 -0.40788331927E+03 -0.22546250634E+03 -0.43308450907E+03  0.63621092092E+03  0.00000000000E+00 0.  1.
         -1    1    6    6    0  502  0.30115468970E+03 -0.42448939727E+02 -0.21275571176E+03  0.37116176055E+03  0.00000000000E+00 0.  1.
<mgrwt>
<rscale>  0 0.16035202E+04</rscale>
<asrwt>0</asrwt>
<pdfrwt beam="1">  1        2 0.17147131E+00 0.16035202E+04</pdfrwt>
<pdfrwt beam="2">  1       -2 0.88730040E-01 0.16035202E+04</pdfrwt>
<totfact> 0.22345258E+01</totfact>
</mgrwt>
</event>
<event>
12    1  0.1467288E-007  0.2277668E+04  0.7818608E-02  0.8486779E-01
         -2   -1    0    0    0  501 -0.00000000000E+00  0.00000000000E+00  0.41013381186E+03  0.41013381186E+03  0.00000000000E+00 0.  1.
          2   -1    0    0  501    0  0.00000000000E+00 -0.00000000000E+00 -0.31622436433E+04  0.31622436433E+04  0.00000000000E+00 0. -1.
         23    2    1    2    0    0  0.89436840517E+03 -0.13224670967E+03 -0.66272044717E+03  0.11246650786E+04  0.91044557405E+02 0.  0.
        254    2    1    2    0    0 -0.89436840517E+03  0.13224670967E+03 -0.20893893842E+04  0.24477123766E+04  0.89909056445E+03 0.  0.
        -24    2    4    4    0    0 -0.12222634541E+03  0.42199493891E+03 -0.72450445254E+03  0.85097000197E+03  0.78893818025E+02 0.  0.
         24    2    4    4    0    0 -0.77214205976E+03 -0.28974822924E+03 -0.13648849317E+04  0.15967423746E+04  0.80733743189E+02 0.  0.
         11    1    3    3    0    0  0.35421401204E+03 -0.50929012118E+02 -0.20791723540E+03  0.41387305708E+03  0.00000000000E+00 0.  1.
        -11    1    3    3    0    0  0.54015439313E+03 -0.81317697551E+02 -0.45480321176E+03  0.71079202147E+03  0.00000000000E+00 0. -1.
          4    1    6    6  502    0 -0.23066074163E+03 -0.11568209450E+03 -0.47644886482E+03  0.54183968617E+03  0.00000000000E+00 0. -1.
          1    1    5    5  503    0 -0.13321634727E+03  0.39563720676E+03 -0.66939958570E+03  0.78890506393E+03  0.00000000000E+00 0. -1.
         -4    1    5    5    0  503  0.10990001854E+02  0.26357732145E+02 -0.55104866843E+02  0.62064938043E+02  0.00000000000E+00 0.  1.
         -3    1    6    6    0  502 -0.54148131812E+03 -0.17406613473E+03 -0.88843606686E+03  0.10549026884E+04  0.00000000000E+00 0.  1.
<mgrwt>
<rscale>  0 0.22776681E+04</rscale>
<asrwt>0</asrwt>
<pdfrwt beam="1">  1        2 0.48649903E+00 0.22776681E+04</pdfrwt>
<pdfrwt beam="2">  1       -2 0.63097508E-01 0.22776681E+04</pdfrwt>
<totfact> 0.29041118E+00</totfact>
</mgrwt>
</event>
<event>
12    1  0.1467288E-007  0.4109612E+04  0.7818608E-02  0.7982792E-01
         -1   -1    0    0    0  501 -0.00000000000E+00  0.00000000000E+00  0.23604899164E+04  0.23604899164E+04  0.00000000000E+00 0.  1.
          1   -1    0    0  501    0  0.00000000000E+00 -0.00000000000E+00 -0.17887078551E+04  0.17887078551E+04  0.00000000000E+00 0. -1.
         23    2    1    2    0    0  0.12914176855E+04  0.37610080400E+03  0.17054658533E+04  0.21740050835E+04  0.92048209140E+02 0.  0.
        254    2    1    2    0    0 -0.12914176855E+04 -0.37610080400E+03 -0.11336837920E+04  0.19751926880E+04  0.89829603202E+03 0.  0.
        -24    2    4    4    0    0 -0.86664283913E+03  0.16711437992E+03 -0.84293978118E+03  0.12229628540E+04  0.78061776361E+02 0.  0.
         24    2    4    4    0    0 -0.42477484641E+03 -0.54321518392E+03 -0.29074401083E+03  0.75222983401E+03  0.76165852986E+02 0.  0.
         13    1    3    3    0    0  0.93055243209E+02  0.54515734976E+01  0.10181171131E+03  0.13803848196E+03  0.00000000000E+00 0. -1.
        -13    1    3    3    0    0  0.11983624423E+04  0.37064923050E+03  0.16036541420E+04  0.20359666015E+04  0.00000000000E+00 0.  1.
          2    1    6    6  502    0 -0.14360202478E+03 -0.24373246981E+03 -0.12454677405E+03  0.30909376779E+03  0.00000000000E+00 0. -1.
          3    1    5    5  503    0 -0.40986977978E+03  0.78659607376E+02 -0.34497872663E+03  0.54147104450E+03  0.00000000000E+00 0. -1.
         -4    1    5    5    0  503 -0.45677305935E+03  0.88454772546E+02 -0.49796105456E+03  0.68149180948E+03  0.00000000000E+00 0.  1.
         -1    1    6    6    0  502 -0.28117282162E+03 -0.29948271411E+03 -0.16619723678E+03  0.44313606622E+03  0.00000000000E+00 0.  1.
<mgrwt>
<rscale>  0 0.41096116E+04</rscale>
<asrwt>0</asrwt>
<pdfrwt beam="1">  1        1 0.27518582E+00 0.41096116E+04</pdfrwt>
<pdfrwt beam="2">  1       -1 0.36315229E+00 0.41096116E+04</pdfrwt>
<totfact> 0.40832150E-02</totfact>
</mgrwt>
</event>
<event>
12    1  0.1467288E-007  0.2572338E+04  0.7818608E-02  0.8377659E-01
         -2   -1    0    0    0  501 -0.00000000000E+00  0.00000000000E+00  0.67355164840E+03  0.67355164840E+03  0.00000000000E+00 0.  1.
          2   -1    0    0  501    0  0.00000000000E+00 -0.00000000000E+00 -0.24559812117E+04  0.24559812117E+04  0.00000000000E+00 0. -1.
         23    2    1    2    0    0 -0.59441713019E+03 -0.90885529994E+03 -0.41752672366E+03  0.11683915106E+04  0.10705361367E+03 0.  0.
        254    2    1    2    0    0  0.59441713019E+03  0.90885529994E+03 -0.13649028396E+04  0.19611413495E+04  0.89652994937E+03 0.  0.
        -24    2    4    4    0    0  0.14017910843E+03  0.18367879634E+03 -0.99654493357E+03  0.10261228754E+04  0.80238818909E+02 0.  0.
         24    2    4    4    0    0  0.45423802176E+03  0.72517650360E+03 -0.36835790606E+03  0.93501847412E+03  0.79742449168E+02 0.  0.
         11    1    3    3    0    0 -0.14860031380E+03 -0.15035174417E+03 -0.77496246008E+02  0.22515187848E+03  0.00000000000E+00 0. -1.
        -11    1    3    3    0    0 -0.44581681639E+03 -0.75850355577E+03 -0.34003047765E+03  0.94323963213E+03  0.00000000000E+00 0.  1.
          2    1    6    6  502    0  0.30006596744E+03  0.54526731180E+03 -0.26067166384E+03  0.67476347149E+03  0.00000000000E+00 0. -1.
          3    1    5    5  503    0  0.97149936918E+02  0.17379098341E+03 -0.77066776267E+03  0.79597124104E+03  0.00000000000E+00 0. -1.
         -4    1    5    5    0  503  0.43029171513E+02  0.98878129371E+01 -0.22587717090E+03  0.23015163432E+03  0.00000000000E+00 0.  1.
         -1    1    6    6    0  502  0.15417205432E+03  0.17990919180E+03 -0.10768624222E+03  0.26025500262E+03  0.00000000000E+00 0.  1.
<mgrwt>
<rscale>  0 0.25723376E+04</rscale>
<asrwt>0</asrwt>
<pdfrwt beam="1">  1        2 0.37784326E+00 0.25723376E+04</pdfrwt>
<pdfrwt beam="2">  1       -2 0.10362333E+00 0.25723376E+04</pdfrwt>
<totfact> 0.24826118E+00</totfact>
</mgrwt>
</event>
<event>
12    1  0.1467288E-007  0.1462548E+04  0.7818608E-02  0.8909747E-01
         -1   -1    0    0    0  501 -0.00000000000E+00  0.00000000000E+00  0.50998525854E+03  0.50998525854E+03  0.00000000000E+00 0.  1.
          1   -1    0    0  501    0  0.00000000000E+00 -0.00000000000E+00 -0.10485826147E+04  0.10485826147E+04  0.00000000000E+00 0. -1.
         23    2    1    2    0    0  0.18360559320E+03 -0.30960610402E+03 -0.46588933841E+03  0.59431148645E+03  0.81156107489E+02 0.  0.
        254    2    1    2    0    0 -0.18360559320E+03  0.30960610402E+03 -0.72708017716E+02  0.96425638676E+03  0.89159237887E+03 0.  0.
        -24    2    4    4    0    0  0.13943805032E+02  0.16520925961E+03 -0.46110717698E+03  0.49699474709E+03  0.83038670559E+02 0.  0.
         24    2    4    4    0    0 -0.19754939824E+03  0.14439684441E+03  0.38839915927E+03  0.46726163967E+03  0.87197015830E+02 0.  0.
         11    1    3    3    0    0  0.16704546880E+03 -0.21378276361E+03 -0.32992063781E+03  0.42714738196E+03  0.00000000000E+00 0. -1.
        -11    1    3    3    0    0  0.16560124405E+02 -0.95823340408E+02 -0.13596870060E+03  0.16716410449E+03  0.00000000000E+00 0.  1.
          2    1    6    6  502    0 -0.66594679733E+02  0.26801512610E+02  0.18411224443E+03  0.19761197078E+03  0.00000000000E+00 0. -1.
          1    1    5    5  503    0 -0.84523896681E+01  0.13281560522E+03 -0.26014655013E+03  0.29221166203E+03  0.00000000000E+00 0. -1.
         -2    1    5    5    0  503  0.22396194700E+02  0.32393654395E+02 -0.20096062685E+03  0.20478308506E+03  0.00000000000E+00 0.  1.
         -1    1    6    6    0  502 -0.13095471850E+03  0.11759533180E+03  0.20428691484E+03  0.26964966889E+03  0.00000000000E+00 0.  1.
<mgrwt>
<rscale>  0 0.14625480E+04</rscale>
<asrwt>0</asrwt>
<pdfrwt beam="1">  1        1 0.16132040E+00 0.14625480E+04</pdfrwt>
<pdfrwt beam="2">  1       -1 0.78459271E-01 0.14625480E+04</pdfrwt>
<totfact> 0.21889381E+01</totfact>
</mgrwt>
</event>
<event>
12    1  0.1467288E-007  0.1761399E+04  0.7818608E-02  0.8727101E-01
         -2   -1    0    0    0  501 -0.00000000000E+00  0.00000000000E+00  0.72460195689E+03  0.72460195689E+03  0.00000000000E+00 0.  1.
          2   -1    0    0  501    0  0.00000000000E+00 -0.00000000000E+00 -0.10704242123E+04  0.10704242123E+04  0.00000000000E+00 0. -1.
         23    2    1    2    0    0  0.50634747302E+02  0.96613294743E+02 -0.78027669155E+03  0.79371730026E+03  0.96215544493E+02 0.  0.
        254    2    1    2    0    0 -0.50634747302E+02 -0.96613294743E+02  0.43445443611E+03  0.10013088690E+04  0.89552821711E+03 0.  0.
        -24    2    4    4    0    0 -0.50120687784E+02  0.37456181398E+03  0.52398581241E+02  0.38955378859E+03  0.78726787421E+02 0.  0.
         24    2    4    4    0    0 -0.51405951856E+00 -0.47117510872E+03  0.38205585487E+03  0.61175508037E+03  0.79191885817E+02 0.  0.
         13    1    3    3    0    0  0.12327524747E+02  0.87416337022E+02 -0.68428035038E+03  0.68995157928E+03  0.00000000000E+00 0.  1.
        -13    1    3    3    0    0  0.38307222556E+02  0.91969577210E+01 -0.95996341172E+02  0.10376572098E+03  0.00000000000E+00 0. -1.
          2    1    6    6  502    0  0.52184034396E+01 -0.43731446969E+02  0.10285170987E+02  0.45226717001E+02  0.00000000000E+00 0. -1.
          1    1    5    5  503    0 -0.11743616306E+02  0.21990000355E+02  0.22601955453E+02  0.33649978155E+02  0.00000000000E+00 0. -1.
         -2    1    5    5    0  503 -0.38377071478E+02  0.35257181362E+03  0.29796625788E+02  0.35590381044E+03  0.00000000000E+00 0.  1.
         -3    1    6    6    0  502 -0.57324629581E+01 -0.42744366175E+03  0.37177068389E+03  0.56652836337E+03  0.00000000000E+00 0.  1.
<mgrwt>
<rscale>  0 0.17613989E+04</rscale>
<asrwt>0</asrwt>
<pdfrwt beam="1">  1        2 0.16468065E+00 0.17613989E+04</pdfrwt>
<pdfrwt beam="2">  1       -2 0.11147722E+00 0.17613989E+04</pdfrwt>
<totfact> 0.13692221E+01</totfact>
</mgrwt>
</event>
<event>
12    1  0.1467288E-007  0.1661592E+04  0.7818608E-02  0.8783578E-01
          2   -1    0    0  501    0  0.00000000000E+00  0.00000000000E+00  0.28975294577E+04  0.28975294577E+04  0.00000000000E+00 0. -1.
         -2   -1    0    0    0  501 -0.00000000000E+00 -0.00000000000E+00 -0.23821061742E+03  0.23821061742E+03  0.00000000000E+00 0.  1.
         23    2    1    2    0    0 -0.14465106893E+02 -0.17245787990E+03  0.20200850371E+04  0.20291555441E+04  0.82326821651E+02 0.  0.
        254    2    1    2    0    0  0.14465106893E+02  0.17245787990E+03  0.63923380321E+03  0.11065845310E+04  0.88654301048E+03 0.  0.
        -24    2    4    4    0    0  0.37055577586E+03  0.22256241772E+03  0.95237213317E+02  0.44952705273E+03  0.78478223314E+02 0.  0.
         24    2    4    4    0    0 -0.35609066896E+03 -0.50104537826E+02  0.54399658989E+03  0.65705747827E+03  0.80505966848E+02 0.  0.
         11    1    3    3    0    0 -0.43050693503E+02 -0.65588397435E+02  0.10058697101E+04  0.10089247117E+04  0.00000000000E+00 0.  1.
        -11    1    3    3    0    0  0.28585586610E+02 -0.10686948246E+03  0.10142153269E+04  0.10202308324E+04  0.00000000000E+00 0. -1.
          2    1    6    6  502    0 -0.11613567304E+03 -0.38118379542E+02  0.13030499097E+03  0.17866140065E+03  0.00000000000E+00 0. -1.
          1    1    5    5  503    0  0.16757097030E+03  0.69915912495E+02  0.68838113286E+02  0.19418277665E+03  0.00000000000E+00 0. -1.
         -2    1    5    5    0  503  0.20298480556E+03  0.15264650523E+03  0.26399100031E+02  0.25534427609E+03  0.00000000000E+00 0.  1.
         -1    1    6    6    0  502 -0.23995499593E+03 -0.11986158284E+02  0.41369159892E+03  0.47839607761E+03  0.00000000000E+00 0.  1.
<mgrwt>
<rscale>  0 0.16615923E+04</rscale>
<asrwt>0</asrwt>
<pdfrwt beam="1">  1        2 0.44577374E+00 0.16615923E+04</pdfrwt>
<pdfrwt beam="2">  1       -2 0.36647789E-01 0.16615923E+04</pdfrwt>
<totfact> 0.13552182E+01</totfact>
</mgrwt>
</event>
<event>
12    1  0.1467288E-007  0.2344522E+04  0.7818608E-02  0.8460571E-01
          2   -1    0    0  501    0  0.00000000000E+00  0.00000000000E+00  0.16268355207E+04  0.16268355207E+04  0.00000000000E+00 0. -1.
         -2   -1    0    0    0  501 -0.00000000000E+00 -0.00000000000E+00 -0.84470518145E+03  0.84470518145E+03  0.00000000000E+00 0.  1.
         23    2    1    2    0    0 -0.93053678648E+03  0.15055398778E+01 -0.58193828842E+02  0.93665831928E+03  0.89673338951E+02 0.  0.
        254    2    1    2    0    0  0.93053678648E+03 -0.15055398778E+01  0.84032416811E+03  0.15348823829E+04  0.88533510275E+03 0.  0.
        -24    2    4    4    0    0  0.19152119140E+03  0.18748188884E+03  0.70193696468E+03  0.75552458781E+03  0.79196432999E+02 0.  0.
         24    2    4    4    0    0  0.73901559508E+03 -0.18898742872E+03  0.13838720344E+03  0.77935779509E+03  0.79920314739E+02 0.  0.
         13    1    3    3    0    0 -0.75325267566E+03 -0.22697079446E+02 -0.72978785660E+02  0.75711997329E+03  0.00000000000E+00 0.  1.
        -13    1    3    3    0    0 -0.17728411083E+03  0.24202619324E+02  0.14784956818E+02  0.17953834599E+03  0.00000000000E+00 0. -1.
          4    1    6    6  502    0  0.36087167478E+03 -0.11866593225E+03  0.99979783160E+02  0.39281793006E+03  0.00000000000E+00 0. -1.
          3    1    5    5  503    0  0.15215389095E+03  0.18386908261E+03  0.57461876673E+03  0.62221007156E+03  0.00000000000E+00 0. -1.
         -4    1    5    5    0  503  0.39367300450E+02  0.36128062317E+01  0.12731819795E+03  0.13331451625E+03  0.00000000000E+00 0.  1.
         -3    1    6    6    0  502  0.37814392030E+03 -0.70321496464E+02  0.38407420277E+02  0.38653986503E+03  0.00000000000E+00 0.  1.
<mgrwt>
<rscale>  0 0.23445225E+04</rscale>
<asrwt>0</asrwt>
<pdfrwt beam="1">  1        2 0.25028239E+00 0.23445225E+04</pdfrwt>
<pdfrwt beam="2">  1       -2 0.12995464E+00 0.23445225E+04</pdfrwt>
<totfact> 0.42307990E+00</totfact>
</mgrwt>
</event>
<event>
12    1  0.1467288E-007  0.1463709E+04  0.7818608E-02  0.8908951E-01
         -2   -1    0    0    0  501 -0.00000000000E+00  0.00000000000E+00  0.11716763868E+04  0.11716763868E+04  0.00000000000E+00 0.  1.
          2   -1    0    0  501    0  0.00000000000E+00 -0.00000000000E+00 -0.45713244222E+03  0.45713244222E+03  0.00000000000E+00 0. -1.
         23    2    1    2    0    0 -0.21188113496E+03 -0.11306171428E+03  0.58862552247E+03  0.64199179555E+03  0.89425350252E+02 0.  0.
        254    2    1    2    0    0  0.21188113496E+03  0.11306171428E+03  0.12591842212E+03  0.98681703348E+03  0.94882866839E+03 0.  0.
        -24    2    4    4    0    0 -0.14292085742E+03  0.28647793343E+03  0.38578929728E+03  0.50743250656E+03  0.78475403724E+02 0.  0.
         24    2    4    4    0    0  0.35480199238E+03 -0.17341621914E+03 -0.25987087516E+03  0.47938452692E+03  0.79492226287E+02 0.  0.
         13    1    3    3    0    0 -0.11491227136E+03 -0.93907916189E+02  0.43205946701E+03  0.45683575809E+03  0.00000000000E+00 0.  1.
        -13    1    3    3    0    0 -0.96968863598E+02 -0.19153798096E+02  0.15656605546E+03  0.18515603747E+03  0.00000000000E+00 0. -1.
          2    1    6    6  502    0  0.55525359066E+02 -0.50754774007E+02 -0.23608607428E+02  0.78844650602E+02  0.00000000000E+00 0. -1.
          3    1    5    5  503    0 -0.11696131009E+03  0.21387209206E+03  0.23771247113E+03  0.34048265558E+03  0.00000000000E+00 0. -1.
         -4    1    5    5    0  503 -0.25959547331E+02  0.72605841362E+02  0.14807682616E+03  0.16694985098E+03  0.00000000000E+00 0.  1.
         -1    1    6    6    0  502  0.29927663331E+03 -0.12266144513E+03 -0.23626226773E+03  0.40053987632E+03  0.00000000000E+00 0.  1.
<mgrwt>
<rscale>  0 0.14637094E+04</rscale>
<asrwt>0</asrwt>
<pdfrwt beam="1">  1        2 0.70328069E-01 0.14637094E+04</pdfrwt>
<pdfrwt beam="2">  1       -2 0.18025790E+00 0.14637094E+04</pdfrwt>
<totfact> 0.11936383E+01</totfact>
</mgrwt>
</event>
<event>
12    1  0.1467288E-007  0.1294610E+04  0.7818608E-02  0.9033850E-01
         -2   -1    0    0    0  501 -0.00000000000E+00  0.00000000000E+00  0.17123070984E+03  0.17123070984E+03  0.00000000000E+00 0.  1.
          2   -1    0    0  501    0  0.00000000000E+00 -0.00000000000E+00 -0.24470141328E+04  0.24470141328E+04  0.00000000000E+00 0. -1.
         23    2    1    2    0    0  0.17422406519E+03  0.22085009004E+03 -0.25484511290E+03  0.39047508912E+03  0.91629561221E+02 0.  0.
        254    2    1    2    0    0 -0.17422406519E+03 -0.22085009004E+03 -0.20209383101E+04  0.22277697535E+04  0.89422459956E+03 0.  0.
        -24    2    4    4    0    0 -0.43228135122E+03 -0.36983765818E+03 -0.92263379894E+03  0.10869655547E+04  0.81203018263E+02 0.  0.
         24    2    4    4    0    0  0.25805728603E+03  0.14898756813E+03 -0.10983045111E+04  0.11408041988E+04  0.79815803721E+02 0.  0.
         13    1    3    3    0    0  0.76154664226E+02  0.65797888510E+02 -0.40889967512E+02  0.10863187589E+03  0.00000000000E+00 0.  1.
        -13    1    3    3    0    0  0.98069400960E+02  0.15505220153E+03 -0.21395514539E+03  0.28184321323E+03  0.00000000000E+00 0. -1.
          4    1    6    6  502    0  0.12916794063E+03  0.61484874220E+02 -0.38582456569E+03  0.41149160640E+03  0.00000000000E+00 0. -1.
          3    1    5    5  503    0 -0.38476126149E+03 -0.32669954786E+03 -0.86063379092E+03  0.99772959513E+03  0.00000000000E+00 0. -1.
         -4    1    5    5    0  503 -0.47520089728E+02 -0.43138110315E+02 -0.62000008015E+02  0.89235959586E+02  0.00000000000E+00 0.  1.
         -3    1    6    6    0  502  0.12888934540E+03  0.87502693914E+02 -0.71247994544E+03  0.72931259241E+03  0.00000000000E+00 0.  1.
<mgrwt>
<rscale>  0 0.12946103E+04</rscale>
<asrwt>0</asrwt>
<pdfrwt beam="1">  1        2 0.37646368E+00 0.12946103E+04</pdfrwt>
<pdfrwt beam="2">  1       -2 0.26343189E-01 0.12946103E+04</pdfrwt>
<totfact> 0.47972776E+01</totfact>
</mgrwt>
</event>
<event>
12    1  0.1467288E-007  0.1190797E+04  0.7818608E-02  0.9120950E-01
         -2   -1    0    0    0  501 -0.00000000000E+00  0.00000000000E+00  0.46278989778E+03  0.46278989778E+03  0.00000000000E+00 0.  1.
          2   -1    0    0  501    0  0.00000000000E+00 -0.00000000000E+00 -0.76600499071E+03  0.76600499071E+03  0.00000000000E+00 0. -1.
         23    2    1    2    0    0  0.12473811768E+03 -0.10910956929E+03  0.12270714700E+03  0.22806493044E+03  0.97427267544E+02 0.  0.
        254    2    1    2    0    0 -0.12473811768E+03  0.10910956929E+03 -0.42592223993E+03  0.10007299581E+04  0.89027310324E+03 0.  0.
        -24    2    4    4    0    0  0.64881961236E+02 -0.36921560386E+03 -0.20559187533E+03  0.43513940360E+03  0.80922495863E+02 0.  0.
         24    2    4    4    0    0 -0.18962007891E+03  0.47832517315E+03 -0.22033036461E+03  0.56559055445E+03  0.81218594635E+02 0.  0.
         13    1    3    3    0    0  0.48458481000E+02 -0.10521677954E+03  0.75652910365E+02  0.13835518756E+03  0.00000000000E+00 0. -1.
        -13    1    3    3    0    0  0.76279636677E+02 -0.38927897526E+01  0.47054236634E+02  0.89709742887E+02  0.00000000000E+00 0.  1.
          4    1    6    6  502    0 -0.98077307602E+02  0.14363366766E+03 -0.73207379282E+02  0.18870376025E+03  0.00000000000E+00 0. -1.
          3    1    5    5  503    0  0.19426358132E+02 -0.24391895065E+02 -0.13789890490E+00  0.31182798964E+02  0.00000000000E+00 0. -1.
         -4    1    5    5    0  503  0.45455603104E+02 -0.34482370880E+03 -0.20545397642E+03  0.40395660464E+03  0.00000000000E+00 0.  1.
         -3    1    6    6    0  502 -0.91542771310E+02  0.33469150549E+03 -0.14712298532E+03  0.37688679420E+03  0.00000000000E+00 0.  1.
<mgrwt>
<rscale>  0 0.11907970E+04</rscale>
<asrwt>0</asrwt>
<pdfrwt beam="1">  1        2 0.11784692E+00 0.11907970E+04</pdfrwt>
<pdfrwt beam="2">  1       -2 0.71198446E-01 0.11907970E+04</pdfrwt>
<totfact> 0.64542566E+01</totfact>
</mgrwt>
</event>
<event>
12    1  0.1467288E-007  0.1550503E+04  0.7818608E-02  0.8851547E-01
         -1   -1    0    0    0  501 -0.00000000000E+00  0.00000000000E+00  0.39246194156E+03  0.39246194156E+03  0.00000000000E+00 0.  1.
          1   -1    0    0  501    0  0.00000000000E+00 -0.00000000000E+00 -0.15313958073E+04  0.15313958073E+04  0.00000000000E+00 0. -1.
         23    2    1    2    0    0 -0.49644447077E+02  0.22069496314E+03  0.18062294148E+03  0.30343792225E+03  0.90989492727E+02 0.  0.
        254    2    1    2    0    0  0.49644447077E+02 -0.22069496314E+03 -0.13195568072E+04  0.16204198266E+04  0.91288521136E+03 0.  0.
        -24    2    4    4    0    0  0.59305057724E+01  0.34055275532E+03 -0.67832750735E+03  0.76338042102E+03  0.81302582469E+02 0.  0.
         24    2    4    4    0    0  0.43713941305E+02 -0.56124771846E+03 -0.64122929986E+03  0.85703940558E+03  0.80197366468E+02 0.  0.
         11    1    3    3    0    0 -0.65843386667E+01  0.57394818128E+02  0.22720024196E+01  0.57815920460E+02  0.00000000000E+00 0. -1.
        -11    1    3    3    0    0 -0.43060108411E+02  0.16330014501E+03  0.17835093906E+03  0.24562200179E+03  0.00000000000E+00 0.  1.
          2    1    6    6  502    0  0.17885300833E+02 -0.42802427125E+03 -0.43805252673E+03  0.61271092445E+03  0.00000000000E+00 0. -1.
          1    1    5    5  503    0 -0.21852546074E+02  0.23555373430E+03 -0.52112636212E+03  0.57230741810E+03  0.00000000000E+00 0. -1.
         -2    1    5    5    0  503  0.27783051847E+02  0.10499902102E+03 -0.15720114523E+03  0.19107300293E+03  0.00000000000E+00 0.  1.
         -1    1    6    6    0  502  0.25828640472E+02 -0.13322344721E+03 -0.20317677313E+03  0.24432848114E+03  0.00000000000E+00 0.  1.
<mgrwt>
<rscale>  0 0.15505026E+04</rscale>
<asrwt>0</asrwt>
<pdfrwt beam="1">  1        1 0.23559936E+00 0.15505026E+04</pdfrwt>
<pdfrwt beam="2">  1       -1 0.60378760E-01 0.15505026E+04</pdfrwt>
<totfact> 0.16673173E+01</totfact>
</mgrwt>
</event>
<event>
12    1  0.1467288E-007  0.1868864E+04  0.7818608E-02  0.8670512E-01
          1   -1    0    0  501    0  0.00000000000E+00  0.00000000000E+00  0.17095823553E+04  0.17095823553E+04  0.00000000000E+00 0. -1.
         -1   -1    0    0    0  501 -0.00000000000E+00 -0.00000000000E+00 -0.51074661721E+03  0.51074661721E+03  0.00000000000E+00 0.  1.
         23    2    1    2    0    0 -0.47723709910E+03 -0.16670164678E+03  0.10663433624E+04  0.11836904058E+04  0.92141861033E+02 0.  0.
        254    2    1    2    0    0  0.47723709910E+03  0.16670164678E+03  0.13249237568E+03  0.10366385667E+04  0.89527682896E+03 0.  0.
        -24    2    4    4    0    0 -0.14687090694E+03 -0.97110549769E+02 -0.19901789365E+03  0.27739176740E+03  0.79602439937E+02 0.  0.
         24    2    4    4    0    0  0.62410800604E+03  0.26381219654E+03  0.33151026933E+03  0.75924679926E+03  0.86307388221E+02 0.  0.
         13    1    3    3    0    0 -0.15074701536E+03 -0.93903002469E+02  0.32465845645E+03  0.37006154874E+03  0.00000000000E+00 0. -1.
        -13    1    3    3    0    0 -0.32649008374E+03 -0.72798644307E+02  0.74168490594E+03  0.81362885710E+03  0.00000000000E+00 0.  1.
          4    1    6    6  502    0  0.45735504415E+03  0.23115516389E+03  0.26341967706E+03  0.57619117701E+03  0.00000000000E+00 0. -1.
          3    1    5    5  503    0 -0.57591773015E+02 -0.79106406459E+02 -0.13201224259E+03  0.16432245146E+03  0.00000000000E+00 0. -1.
         -4    1    5    5    0  503 -0.89279133930E+02 -0.18004143309E+02 -0.67005651064E+02  0.11306931593E+03  0.00000000000E+00 0.  1.
         -3    1    6    6    0  502  0.16675296189E+03  0.32657032659E+02  0.68090592275E+02  0.18305562225E+03  0.00000000000E+00 0.  1.
<mgrwt>
<rscale>  0 0.18688643E+04</rscale>
<asrwt>0</asrwt>
<pdfrwt beam="1">  1        1 0.26301267E+00 0.18688643E+04</pdfrwt>
<pdfrwt beam="2">  1       -1 0.78576403E-01 0.18688643E+04</pdfrwt>
<totfact> 0.71368624E+00</totfact>
</mgrwt>
</event>
<event>
12    1  0.1467288E-007  0.2915586E+04  0.7818608E-02  0.8268255E-01
         -2   -1    0    0    0  501 -0.00000000000E+00  0.00000000000E+00  0.75796870106E+03  0.75796870106E+03  0.00000000000E+00 0.  1.
          2   -1    0    0  501    0  0.00000000000E+00 -0.00000000000E+00 -0.28037582765E+04  0.28037582765E+04  0.00000000000E+00 0. -1.
         23    2    1    2    0    0 -0.44368492090E+02 -0.44989153586E+03 -0.24314375956E+04  0.24748072157E+04  0.91711594356E+02 0.  0.
        254    2    1    2    0    0  0.44368492090E+02  0.44989153586E+03  0.38564802013E+03  0.10869197619E+04  0.91010945287E+03 0.  0.
        -24    2    4    4    0    0  0.15972451219E+03  0.65888682061E+03  0.45942784112E+03  0.82316571574E+03  0.82970429653E+02 0.  0.
         24    2    4    4    0    0 -0.11535602010E+03 -0.20899528476E+03 -0.73779820995E+02  0.26375404614E+03  0.84478958579E+02 0.  0.
         11    1    3    3    0    0 -0.19263824697E+02 -0.29037993449E+03 -0.17813604632E+04  0.18049755403E+04  0.00000000000E+00 0. -1.
        -11    1    3    3    0    0 -0.25104667393E+02 -0.15951160137E+03 -0.65007713233E+03  0.66983167533E+03  0.00000000000E+00 0.  1.
          2    1    6    6  502    0 -0.10819398739E+03 -0.13737750988E+03 -0.24617718044E+02  0.17659148102E+03  0.00000000000E+00 0. -1.
          1    1    5    5  503    0  0.16010039754E+03  0.66024301845E+03  0.46102718408E+03  0.82103534952E+03  0.00000000000E+00 0. -1.
         -2    1    5    5    0  503 -0.37588534556E+00 -0.13561978331E+01 -0.15993429540E+01  0.21303662221E+01  0.00000000000E+00 0.  1.
         -1    1    6    6    0  502 -0.71620327157E+01 -0.71617774881E+02 -0.49162102951E+02  0.87162565119E+02  0.00000000000E+00 0.  1.
<mgrwt>
<rscale>  0 0.29155864E+04</rscale>
<asrwt>0</asrwt>
<pdfrwt beam="1">  1        2 0.43134743E+00 0.29155864E+04</pdfrwt>
<pdfrwt beam="2">  1       -2 0.11661057E+00 0.29155864E+04</pdfrwt>
<totfact> 0.11295482E+00</totfact>
</mgrwt>
</event>
<event>
12    1  0.1467288E-007  0.1616986E+04  0.7818608E-02  0.8810180E-01
         -1   -1    0    0    0  501 -0.00000000000E+00  0.00000000000E+00  0.56227088995E+03  0.56227088995E+03  0.00000000000E+00 0.  1.
          1   -1    0    0  501    0  0.00000000000E+00 -0.00000000000E+00 -0.11625380097E+04  0.11625380097E+04  0.00000000000E+00 0. -1.
         23    2    1    2    0    0 -0.19240043774E+03 -0.40063432455E+03 -0.56352388174E+03  0.72341508112E+03  0.90798809755E+02 0.  0.
        254    2    1    2    0    0  0.19240043774E+03  0.40063432455E+03 -0.36743237998E+02  0.10013938185E+04  0.89661235981E+03 0.  0.
        -24    2    4    4    0    0  0.97124003332E+02 -0.25878997983E+03 -0.14456976465E+03  0.32191089546E+03  0.79503975260E+02 0.  0.
         24    2    4    4    0    0  0.95276434404E+02  0.65942430438E+03  0.10782652665E+03  0.67948292305E+03  0.78437686805E+02 0.  0.
         11    1    3    3    0    0 -0.16246444341E+03 -0.26084912321E+03 -0.34214461272E+03  0.45989117894E+03  0.00000000000E+00 0.  1.
        -11    1    3    3    0    0 -0.29935994328E+02 -0.13978520134E+03 -0.22137926902E+03  0.26352390218E+03  0.00000000000E+00 0. -1.
          2    1    6    6  502    0  0.23872100613E+02  0.25633371326E+03  0.78146775771E+02  0.26904231694E+03  0.00000000000E+00 0. -1.
          1    1    5    5  503    0 -0.53153771090E+01 -0.11028435254E+02  0.68233719617E+01  0.14015634944E+02  0.00000000000E+00 0. -1.
         -2    1    5    5    0  503  0.10243938044E+03 -0.24776154458E+03 -0.15139313661E+03  0.30789526052E+03  0.00000000000E+00 0.  1.
         -1    1    6    6    0  502  0.71404333791E+02  0.40309059112E+03  0.29679750878E+02  0.41044060611E+03  0.00000000000E+00 0.  1.
<mgrwt>
<rscale>  0 0.16169864E+04</rscale>
<asrwt>0</asrwt>
<pdfrwt beam="1">  1        1 0.17885200E+00 0.16169864E+04</pdfrwt>
<pdfrwt beam="2">  1       -1 0.86503215E-01 0.16169864E+04</pdfrwt>
<totfact> 0.14379227E+01</totfact>
</mgrwt>
</event>
<event>
12    1  0.1467288E-007  0.1540832E+04  0.7818608E-02  0.8857745E-01
          1   -1    0    0  501    0  0.00000000000E+00  0.00000000000E+00  0.12031086928E+04  0.12031086928E+04  0.00000000000E+00 0.  1.
         -1   -1    0    0    0  501 -0.00000000000E+00 -0.00000000000E+00 -0.49333953427E+03  0.49333953427E+03  0.00000000000E+00 0. -1.
         23    2    1    2    0    0 -0.10375981573E+03  0.27719267870E+03  0.68393189854E+03  0.75094586509E+03  0.92493080595E+02 0.  0.
        254    2    1    2    0    0  0.10375981573E+03 -0.27719267870E+03  0.25837260032E+02  0.94550236203E+03  0.89761086898E+03 0.  0.
        -24    2    4    4    0    0  0.22452248452E+03  0.25933716823E+03  0.13851866591E+03  0.37858005754E+03  0.80432122184E+02 0.  0.
         24    2    4    4    0    0 -0.12076266879E+03 -0.53652984694E+03 -0.11268140588E+03  0.56692230448E+03  0.79094255549E+02 0.  0.
         13    1    3    3    0    0 -0.11155223393E+02  0.21014966910E+02  0.13657839748E+02  0.27433636831E+02  0.00000000000E+00 0. -1.
        -13    1    3    3    0    0 -0.92604592339E+02  0.25617771180E+03  0.67027405879E+03  0.72351222825E+03  0.00000000000E+00 0.  1.
          2    1    6    6  502    0 -0.96361823284E+02 -0.49884361801E+03 -0.11835581589E+03  0.52166910525E+03  0.00000000000E+00 0. -1.
          3    1    5    5  503    0  0.23060472337E+03  0.24857906104E+03  0.13837480942E+03  0.36622080212E+03  0.00000000000E+00 0. -1.
         -4    1    5    5    0  503 -0.60822388461E+01  0.10758107196E+02  0.14385649383E+00  0.12359255419E+02  0.00000000000E+00 0.  1.
         -1    1    6    6    0  502 -0.24400845504E+02 -0.37686228930E+02  0.56744100057E+01  0.45253199237E+02  0.00000000000E+00 0.  1.
<mgrwt>
<rscale>  0 0.15408323E+04</rscale>
<asrwt>0</asrwt>
<pdfrwt beam="1">  1        1 0.18509364E+00 0.15408323E+04</pdfrwt>
<pdfrwt beam="2">  1       -1 0.75898391E-01 0.15408323E+04</pdfrwt>
<totfact> 0.17873139E+01</totfact>
</mgrwt>
</event>
<event>
12    1  0.1467288E-007  0.1793142E+04  0.7818608E-02  0.8709955E-01
         -2   -1    0    0    0  501 -0.00000000000E+00  0.00000000000E+00  0.21395261169E+03  0.21395261169E+03  0.00000000000E+00 0.  1.
          2   -1    0    0  501    0  0.00000000000E+00 -0.00000000000E+00 -0.37570934652E+04  0.37570934652E+04  0.00000000000E+00 0. -1.
         23    2    1    2    0    0 -0.52908888387E+03 -0.36955152437E+03 -0.16957988359E+04  0.18167161153E+04  0.90666288223E+02 0.  0.
        254    2    1    2    0    0  0.52908888387E+03  0.36955152437E+03 -0.18473420176E+04  0.21543299615E+04  0.90108916144E+03 0.  0.
        -24    2    4    4    0    0  0.36967616901E+03  0.29948887538E+03 -0.18983089360E+04  0.19587112006E+04  0.81355357968E+02 0.  0.
         24    2    4    4    0    0  0.15941271486E+03  0.70062648991E+02  0.50966918383E+02  0.19561876097E+03  0.73129231029E+02 0.  0.
         11    1    3    3    0    0 -0.48105646458E+03 -0.32161113119E+03 -0.14361726313E+04  0.15483671621E+04  0.00000000000E+00 0. -1.
        -11    1    3    3    0    0 -0.48032419290E+02 -0.47940393175E+02 -0.25962620455E+03  0.26834895322E+03  0.00000000000E+00 0.  1.
          4    1    6    6  502    0  0.14845675026E+03  0.40522987341E+02  0.55905168191E+02  0.16372814978E+03  0.00000000000E+00 0. -1.
          3    1    5    5  503    0  0.16805121914E+03  0.12080287607E+03 -0.98433273728E+03  0.10058555984E+04  0.00000000000E+00 0. -1.
         -4    1    5    5    0  503  0.20162494987E+03  0.17868599931E+03 -0.91397619873E+03  0.95285560218E+03  0.00000000000E+00 0.  1.
         -3    1    6    6    0  502  0.10955964601E+02  0.29539661650E+02 -0.49382498076E+01  0.31890611187E+02  0.00000000000E+00 0.  1.
<mgrwt>
<rscale>  0 0.17931424E+04</rscale>
<asrwt>0</asrwt>
<pdfrwt beam="1">  1        2 0.57801441E+00 0.17931424E+04</pdfrwt>
<pdfrwt beam="2">  1       -2 0.32915784E-01 0.17931424E+04</pdfrwt>
<totfact> 0.43544251E+00</totfact>
</mgrwt>
</event>
<event>
12    1  0.1467288E-007  0.3396308E+04  0.7818608E-02  0.8138813E-01
         -1   -1    0    0    0  501 -0.00000000000E+00  0.00000000000E+00  0.13427875570E+04  0.13427875570E+04  0.00000000000E+00 0.  1.
          1   -1    0    0  501    0  0.00000000000E+00 -0.00000000000E+00 -0.21475670074E+04  0.21475670074E+04  0.00000000000E+00 0. -1.
         23    2    1    2    0    0  0.44803763781E+03  0.15177523814E+04 -0.45056913322E+03  0.16477589452E+04  0.88243875398E+02 0.  0.
        254    2    1    2    0    0 -0.44803763781E+03 -0.15177523814E+04 -0.35421031717E+03  0.18425956192E+04  0.87486207550E+03 0.  0.
        -24    2    4    4    0    0 -0.17959564061E+03 -0.11386387419E+04 -0.60988370742E+03  0.13064907791E+04  0.78786043097E+02 0.  0.
         24    2    4    4    0    0 -0.26844199720E+03 -0.37911363945E+03  0.25567339025E+03  0.53610484011E+03  0.79064907730E+02 0.  0.
         13    1    3    3    0    0  0.32304220850E+03  0.94441098561E+03 -0.27988645009E+03  0.10366314693E+04  0.00000000000E+00 0.  1.
        -13    1    3    3    0    0  0.12499542931E+03  0.57334139576E+03 -0.17068268313E+03  0.61112747587E+03  0.00000000000E+00 0. -1.
          2    1    6    6  502    0 -0.49906912646E+02 -0.10696590212E+03  0.34799598590E+02  0.12305858852E+03  0.00000000000E+00 0. -1.
          1    1    5    5  503    0 -0.22794365019E+01 -0.12903187186E+03 -0.88233976892E+02  0.15633187284E+03  0.00000000000E+00 0. -1.
         -2    1    5    5    0  503 -0.17731620411E+03 -0.10096068701E+04 -0.52164973053E+03  0.11501589063E+04  0.00000000000E+00 0.  1.
         -1    1    6    6    0  502 -0.21853508455E+03 -0.27214773733E+03  0.22087379166E+03  0.41304625160E+03  0.00000000000E+00 0.  1.
<mgrwt>
<rscale>  0 0.33963076E+04</rscale>
<asrwt>0</asrwt>
<pdfrwt beam="1">  1        1 0.33039492E+00 0.33963076E+04</pdfrwt>
<pdfrwt beam="2">  1       -1 0.20658270E+00 0.33963076E+04</pdfrwt>
<totfact> 0.26403318E-01</totfact>
</mgrwt>
</event>
<event>
12    1  0.1467288E-007  0.2351328E+04  0.7818608E-02  0.8457954E-01
         -2   -1    0    0    0  501 -0.00000000000E+00  0.00000000000E+00  0.10797871802E+04  0.10797871802E+04  0.00000000000E+00 0. -1.
          2   -1    0    0  501    0  0.00000000000E+00 -0.00000000000E+00 -0.12800543849E+04  0.12800543849E+04  0.00000000000E+00 0.  1.
         23    2    1    2    0    0  0.78464913162E+03  0.27194876743E+03  0.47715270970E+03  0.96284396241E+03  0.98809896824E+02 0.  0.
        254    2    1    2    0    0 -0.78464913162E+03 -0.27194876743E+03 -0.67741991436E+03  0.13969976027E+04  0.89614405632E+03 0.  0.
        -24    2    4    4    0    0  0.14286175220E+03 -0.22250802253E+03 -0.23720258938E+03  0.36554210011E+03  0.86236060993E+02 0.  0.
         24    2    4    4    0    0 -0.92751088382E+03 -0.49440744895E+02 -0.44021732498E+03  0.10314555026E+04  0.85955417028E+02 0.  0.
         11    1    3    3    0    0  0.77543076776E+03  0.26013838035E+03  0.47884851281E+03  0.94776618991E+03  0.00000000000E+00 0. -1.
        -11    1    3    3    0    0  0.92183638641E+01  0.11810387084E+02 -0.16958031066E+01  0.15077772501E+02  0.00000000000E+00 0.  1.
          2    1    6    6  502    0 -0.26057120784E+03 -0.51573684196E+02 -0.11515775702E+03  0.28951426262E+03  0.00000000000E+00 0. -1.
          3    1    5    5  503    0  0.10283777418E+03 -0.11936004100E+03 -0.18561547345E+03  0.24346566734E+03  0.00000000000E+00 0. -1.
         -4    1    5    5    0  503  0.40023978019E+02 -0.10314798153E+03 -0.51587115923E+02  0.12207643278E+03  0.00000000000E+00 0.  1.
         -3    1    6    6    0  502 -0.66693967598E+03  0.21329393012E+01 -0.32505956796E+03  0.74194123995E+03  0.00000000000E+00 0.  1.
<mgrwt>
<rscale>  0 0.23513284E+04</rscale>
<asrwt>0</asrwt>
<pdfrwt beam="1">  1        2 0.19693144E+00 0.23513284E+04</pdfrwt>
<pdfrwt beam="2">  1       -2 0.16612111E+00 0.23513284E+04</pdfrwt>
<totfact> 0.34840925E+00</totfact>
</mgrwt>
</event>
<event>
12    1  0.1467288E-007  0.1557151E+04  0.7818608E-02  0.8847313E-01
          2   -1    0    0  501    0  0.00000000000E+00  0.00000000000E+00  0.64314705722E+03  0.64314705722E+03  0.00000000000E+00 0. -1.
         -2   -1    0    0    0  501 -0.00000000000E+00 -0.00000000000E+00 -0.94252145049E+03  0.94252145049E+03  0.00000000000E+00 0.  1.
         23    2    1    2    0    0 -0.53791926458E+02  0.47704361782E+03  0.83787294405E+02  0.49532233824E+03  0.88655081097E+02 0.  0.
        254    2    1    2    0    0  0.53791926458E+02 -0.47704361782E+03 -0.38316168767E+03  0.10903461695E+04  0.90087607678E+03 0.  0.
        -24    2    4    4    0    0 -0.26265205625E+03 -0.54834349806E+03 -0.43680765531E+02  0.61482111419E+03  0.80189143084E+02 0.  0.
         24    2    4    4    0    0  0.31644398271E+03  0.71299880239E+02 -0.33948092214E+03  0.47552505527E+03  0.75208474103E+02 0.  0.
         11    1    3    3    0    0 -0.14032368866E+02  0.12588530301E+03  0.62589787151E+02  0.14128516675E+03  0.00000000000E+00 0.  1.
        -11    1    3    3    0    0 -0.39759557591E+02  0.35115831481E+03  0.21197507254E+02  0.35403717149E+03  0.00000000000E+00 0. -1.
          4    1    6    6  502    0  0.23528378784E+03  0.85985405532E+02 -0.25521202729E+03  0.35761030418E+03  0.00000000000E+00 0. -1.
          3    1    5    5  503    0 -0.24018323814E+03 -0.48502762431E+03 -0.63053018497E+02  0.54489950208E+03  0.00000000000E+00 0. -1.
         -4    1    5    5    0  503 -0.22468818115E+02 -0.63315873742E+02  0.19372252966E+02  0.69921612111E+02  0.00000000000E+00 0.  1.
         -3    1    6    6    0  502  0.81160194871E+02 -0.14685525293E+02 -0.84268894856E+02  0.11791475109E+03  0.00000000000E+00 0.  1.
<mgrwt>
<rscale>  0 0.15571511E+04</rscale>
<asrwt>0</asrwt>
<pdfrwt beam="1">  1        2 0.98945702E-01 0.15571511E+04</pdfrwt>
<pdfrwt beam="2">  1       -2 0.14500330E+00 0.15571511E+04</pdfrwt>
<totfact> 0.14351922E+01</totfact>
</mgrwt>
</event>
<event>
12    1  0.1546548E-007  0.1670827E+04  0.7818608E-02  0.8778180E-01
          1   -1    0    0  501    0  0.00000000000E+00  0.00000000000E+00  0.89379499945E+03  0.89379499945E+03  0.00000000000E+00 0. -1.
         -1   -1    0    0    0  501 -0.00000000000E+00 -0.00000000000E+00 -0.78084563162E+03  0.78084563162E+03  0.00000000000E+00 0.  1.
         23    2    1    2    0    0  0.28580783274E+03  0.32179427919E+03  0.45789190077E+03  0.63503252524E+03  0.91452938432E+02 0.  0.
        254    2    1    2    0    0 -0.28580783274E+03 -0.32179427919E+03 -0.34494253294E+03  0.10396081058E+04  0.88122754569E+03 0.  0.
        -24    2    4    4    0    0 -0.24494773803E+03 -0.49613835937E+03  0.86039851701E+02  0.56566649814E+03  0.80144026790E+02 0.  0.
         24    2    4    4    0    0 -0.40860094713E+02  0.17434408018E+03 -0.43098238465E+03  0.47394160769E+03  0.82519246166E+02 0.  0.
         11    1    3    3    0    0  0.64557895118E+01  0.27384630271E+02  0.61934601381E+02  0.68025657230E+02  0.00000000000E+00 0. -1.
        -11    1    3    3    0    0  0.27935204323E+03  0.29440964892E+03  0.39595729939E+03  0.56700686801E+03  0.00000000000E+00 0.  1.
          4    1    6    6  502    0 -0.49586730833E+02  0.10906038873E+03 -0.34770608687E+03  0.36776695761E+03  0.00000000000E+00 0. -1.
          3    1    5    5  503    0 -0.12151956733E+03 -0.26555140439E+03  0.84881404459E+02  0.30412071031E+03  0.00000000000E+00 0. -1.
         -4    1    5    5    0  503 -0.12342817070E+03 -0.23058695498E+03  0.11584472418E+01  0.26154578782E+03  0.00000000000E+00 0.  1.
         -1    1    6    6    0  502  0.87266361195E+01  0.65283691449E+02 -0.83276297777E+02  0.10617465008E+03  0.00000000000E+00 0.  1.
<mgrwt>
<rscale>  0 0.16708272E+04</rscale>
<asrwt>0</asrwt>
<pdfrwt beam="1">  1        1 0.13750692E+00 0.16708272E+04</pdfrwt>
<pdfrwt beam="2">  1       -1 0.12013010E+00 0.16708272E+04</pdfrwt>
<totfact> 0.10846880E+01</totfact>
</mgrwt>
</event>
<event>
12    1  0.1467288E-007  0.1134283E+04  0.7818608E-02  0.9172407E-01
          2   -1    0    0  501    0  0.00000000000E+00  0.00000000000E+00  0.34944302801E+03  0.34944302801E+03  0.00000000000E+00 0. -1.
         -2   -1    0    0    0  501 -0.00000000000E+00 -0.00000000000E+00 -0.92046325067E+03  0.92046325067E+03  0.00000000000E+00 0.  1.
         23    2    1    2    0    0  0.15570483527E+03 -0.95777287011E+02 -0.30041784494E+02  0.20600812897E+03  0.90108578680E+02 0.  0.
        254    2    1    2    0    0 -0.15570483527E+03  0.95777287011E+02 -0.54097843817E+03  0.10638981497E+04  0.89766603921E+03 0.  0.
        -24    2    4    4    0    0 -0.24572043322E+03  0.44407771404E+03 -0.45284747661E+03  0.68499440190E+03  0.81012012396E+02 0.  0.
         24    2    4    4    0    0  0.90015597941E+02 -0.34830042703E+03 -0.88130961555E+02  0.37890374781E+03  0.79906122283E+02 0.  0.
         11    1    3    3    0    0  0.53279893030E+02 -0.77949339234E+02  0.92402926759E+01  0.94869539352E+02  0.00000000000E+00 0. -1.
        -11    1    3    3    0    0  0.10242494224E+03 -0.17827947778E+02 -0.39282077170E+02  0.11113858962E+03  0.00000000000E+00 0.  1.
          4    1    6    6  502    0  0.55484922859E+02 -0.30366209753E+03 -0.92633662145E+02  0.32228906513E+03  0.00000000000E+00 0. -1.
          1    1    5    5  503    0 -0.21756724983E+03  0.42496890180E+03 -0.43788172771E+03  0.64782287946E+03  0.00000000000E+00 0. -1.
         -2    1    5    5    0  503 -0.28153183385E+02  0.19108812238E+02 -0.14965748906E+02  0.37171522436E+02  0.00000000000E+00 0.  1.
         -3    1    6    6    0  502  0.34530675082E+02 -0.44638329497E+02  0.45027005899E+01  0.56614682676E+02  0.00000000000E+00 0.  1.
<mgrwt>
<rscale>  0 0.11342830E+04</rscale>
<asrwt>0</asrwt>
<pdfrwt beam="1">  1        2 0.53760466E-01 0.11342830E+04</pdfrwt>
<pdfrwt beam="2">  1       -2 0.14160973E+00 0.11342830E+04</pdfrwt>
<totfact> 0.31946823E+01</totfact>
</mgrwt>
</event>
<event>
12    1  0.1467288E-007  0.1594207E+04  0.7818608E-02  0.8824115E-01
          2   -1    0    0  501    0  0.00000000000E+00  0.00000000000E+00  0.12815077349E+04  0.12815077349E+04  0.00000000000E+00 0. -1.
         -2   -1    0    0    0  501 -0.00000000000E+00 -0.00000000000E+00 -0.49580177434E+03  0.49580177434E+03  0.00000000000E+00 0.  1.
         23    2    1    2    0    0  0.18030703532E+03 -0.45239564876E+03  0.51693937354E+02  0.49791811454E+03  0.89876223906E+02 0.  0.
        254    2    1    2    0    0 -0.18030703532E+03  0.45239564876E+03  0.73401202317E+03  0.12793913947E+04  0.92784494427E+03 0.  0.
        -24    2    4    4    0    0 -0.21194856648E+03  0.58286513541E+02  0.83247380273E+03  0.86446183868E+03  0.77214803068E+02 0.  0.
         24    2    4    4    0    0  0.31641531163E+02  0.39410913522E+03 -0.98461779561E+02  0.41492955599E+03  0.78413120360E+02 0.  0.
         11    1    3    3    0    0  0.61162331401E+02 -0.63597585212E+02  0.20935904753E+01  0.88260221777E+02  0.00000000000E+00 0. -1.
        -11    1    3    3    0    0  0.11914470392E+03 -0.38879806355E+03  0.49600346879E+02  0.40965789276E+03  0.00000000000E+00 0.  1.
          2    1    6    6  502    0  0.25059049041E+02  0.38479919629E+03 -0.10756923695E+03  0.40033675593E+03  0.00000000000E+00 0. -1.
          3    1    5    5  503    0 -0.16666885305E+03  0.74218023236E+02  0.60186579834E+03  0.62891117081E+03  0.00000000000E+00 0. -1.
         -4    1    5    5    0  503 -0.45279713429E+02 -0.15931509696E+02  0.23060800439E+03  0.23555066787E+03  0.00000000000E+00 0.  1.
         -1    1    6    6    0  502  0.65824821219E+01  0.93099389249E+01  0.91074573897E+01  0.14592800066E+02  0.00000000000E+00 0.  1.
<mgrwt>
<rscale>  0 0.15942068E+04</rscale>
<asrwt>0</asrwt>
<pdfrwt beam="1">  1        2 0.19715503E+00 0.15942068E+04</pdfrwt>
<pdfrwt beam="2">  1       -2 0.76277197E-01 0.15942068E+04</pdfrwt>
<totfact> 0.25008428E+01</totfact>
</mgrwt>
</event>
<event>
12    1  0.2468129E-007  0.2063289E+04  0.7818608E-02  0.8577590E-01
          2   -1    0    0  501    0  0.00000000000E+00  0.00000000000E+00  0.10995636221E+04  0.10995636221E+04  0.00000000000E+00 0. -1.
         -2   -1    0    0    0  501 -0.00000000000E+00 -0.00000000000E+00 -0.96792027857E+03  0.96792027857E+03  0.00000000000E+00 0.  1.
         23    2    1    2    0    0  0.83141130791E+03 -0.56418763770E+01  0.18223780020E+02  0.83666210720E+03  0.91623041749E+02 0.  0.
        254    2    1    2    0    0 -0.83141130791E+03  0.56418763770E+01  0.11341956347E+03  0.12308217934E+04  0.90043417090E+03 0.  0.
        -24    2    4    4    0    0 -0.75263207339E+03 -0.34035237836E+03  0.20819162765E+03  0.85520093083E+03  0.75697416844E+02 0.  0.
         24    2    4    4    0    0 -0.78779234515E+02  0.34599425474E+03 -0.94772064183E+02  0.37562086260E+03  0.78683519055E+02 0.  0.
         13    1    3    3    0    0  0.53730657577E+02 -0.15663029328E+02 -0.15858452501E+02  0.58170478484E+02  0.00000000000E+00 0. -1.
        -13    1    3    3    0    0  0.77768065033E+03  0.10021152951E+02  0.34082232521E+02  0.77849162872E+03  0.00000000000E+00 0.  1.
          4    1    6    6  502    0 -0.25107698950E+02  0.39982824126E+02 -0.36133656973E+02  0.59453039770E+02  0.00000000000E+00 0. -1.
          1    1    5    5  503    0 -0.59073828712E+02 -0.24856796684E+02  0.37899668926E+02  0.74457789954E+02  0.00000000000E+00 0. -1.
         -2    1    5    5    0  503 -0.69355824468E+03 -0.31549558168E+03  0.17029195873E+03  0.78074314088E+03  0.00000000000E+00 0.  1.
         -3    1    6    6    0  502 -0.53671535565E+02  0.30601143061E+03 -0.58638407210E+02  0.31616782283E+03  0.00000000000E+00 0.  1.
<mgrwt>
<rscale>  0 0.20632886E+04</rscale>
<asrwt>0</asrwt>
<pdfrwt beam="1">  1        2 0.16916363E+00 0.20632886E+04</pdfrwt>
<pdfrwt beam="2">  1       -2 0.14891081E+00 0.20632886E+04</pdfrwt>
<totfact> 0.61549827E+00</totfact>
</mgrwt>
</event>
<event>
12    1  0.1467288E-007  0.1245518E+04  0.7818608E-02  0.9073922E-01
          2   -1    0    0  501    0  0.00000000000E+00  0.00000000000E+00  0.60146171500E+03  0.60146171500E+03  0.00000000000E+00 0. -1.
         -2   -1    0    0    0  501 -0.00000000000E+00 -0.00000000000E+00 -0.64481047887E+03  0.64481047887E+03  0.00000000000E+00 0.  1.
         23    2    1    2    0    0 -0.19311833680E+03  0.12357620588E+03 -0.17830351556E+03  0.30443661068E+03  0.91234508785E+02 0.  0.
        254    2    1    2    0    0  0.19311833680E+03 -0.12357620588E+03  0.13495475169E+03  0.94183558319E+03  0.90347977846E+03 0.  0.
        -24    2    4    4    0    0  0.32913302939E+03 -0.44683216686E+03  0.15448740923E+03  0.58153106272E+03  0.79526605125E+02 0.  0.
         24    2    4    4    0    0 -0.13601469259E+03  0.32325596099E+03 -0.19532657535E+02  0.36030452047E+03  0.80270853029E+02 0.  0.
         13    1    3    3    0    0 -0.14820853741E+03  0.12398946719E+03 -0.17272881532E+03  0.25918025036E+03  0.00000000000E+00 0.  1.
        -13    1    3    3    0    0 -0.44909799392E+02 -0.41326131326E+00 -0.55747002354E+01  0.45256360316E+02  0.00000000000E+00 0. -1.
          4    1    6    6  502    0 -0.10702669439E+03  0.15201965833E+03 -0.15891340419E+02  0.18659374194E+03  0.00000000000E+00 0. -1.
          3    1    5    5  503    0  0.25929470561E+03 -0.39639224649E+03  0.14191554943E+03  0.49446999970E+03  0.00000000000E+00 0. -1.
         -4    1    5    5    0  503  0.69838323779E+02 -0.50439920373E+02  0.12571859796E+02  0.87061063020E+02  0.00000000000E+00 0.  1.
         -3    1    6    6    0  502 -0.28987998200E+02  0.17123630265E+03 -0.36413171158E+01  0.17371077853E+03  0.00000000000E+00 0.  1.
<mgrwt>
<rscale>  0 0.12455181E+04</rscale>
<asrwt>0</asrwt>
<pdfrwt beam="1">  1        2 0.92532571E-01 0.12455181E+04</pdfrwt>
<pdfrwt beam="2">  1       -2 0.99201612E-01 0.12455181E+04</pdfrwt>
<totfact> 0.40964847E+01</totfact>
</mgrwt>
</event>
<event>
12    1  0.1467288E-007  0.1821655E+04  0.7818608E-02  0.8694868E-01
          2   -1    0    0  501    0  0.00000000000E+00  0.00000000000E+00  0.17809946480E+04  0.17809946480E+04  0.00000000000E+00 0. -1.
         -2   -1    0    0    0  501 -0.00000000000E+00 -0.00000000000E+00 -0.46581094478E+03  0.46581094478E+03  0.00000000000E+00 0.  1.
         23    2    1    2    0    0  0.21093479052E+03  0.62271351616E+03  0.24740175579E+03  0.70771231125E+03  0.85927164815E+02 0.  0.
        254    2    1    2    0    0 -0.21093479052E+03 -0.62271351616E+03  0.10677819475E+04  0.15390932816E+04  0.89240362672E+03 0.  0.
        -24    2    4    4    0    0  0.26156702295E+03  0.20864388798E+02  0.12686247372E+03  0.30253986693E+03  0.81139716702E+02 0.  0.
         24    2    4    4    0    0 -0.47250181348E+03 -0.64357790496E+03  0.94091947375E+03  0.12365534146E+04  0.79274256226E+02 0.  0.
         13    1    3    3    0    0  0.15700317450E+03  0.42672411702E+03  0.12972958201E+03  0.47283531308E+03  0.00000000000E+00 0.  1.
        -13    1    3    3    0    0  0.53931616025E+02  0.19598939914E+03  0.11767217378E+03  0.23487699816E+03  0.00000000000E+00 0. -1.
          4    1    6    6  502    0 -0.17831051749E+03 -0.29317291585E+03  0.44290193138E+03  0.56027414723E+03  0.00000000000E+00 0. -1.
          1    1    5    5  503    0  0.12191182030E+03  0.50363951785E+02  0.62483120820E+02  0.14595602062E+03  0.00000000000E+00 0. -1.
         -2    1    5    5    0  503  0.13965520265E+03 -0.29499562988E+02  0.64379352902E+02  0.15658384631E+03  0.00000000000E+00 0.  1.
         -3    1    6    6    0  502 -0.29419129599E+03 -0.35040498911E+03  0.49801754237E+03  0.67627926742E+03  0.00000000000E+00 0.  1.
<mgrwt>
<rscale>  0 0.18216551E+04</rscale>
<asrwt>0</asrwt>
<pdfrwt beam="1">  1        2 0.27399917E+00 0.18216551E+04</pdfrwt>
<pdfrwt beam="2">  1       -2 0.71663223E-01 0.18216551E+04</pdfrwt>
<totfact> 0.14710073E+01</totfact>
</mgrwt>
</event>
<event>
12    1  0.1467288E-007  0.2424752E+04  0.7818608E-02  0.8430295E-01
          2   -1    0    0  501    0  0.00000000000E+00  0.00000000000E+00  0.15364314960E+04  0.15364314960E+04  0.00000000000E+00 0. -1.
         -2   -1    0    0    0  501 -0.00000000000E+00 -0.00000000000E+00 -0.95666826283E+03  0.95666826283E+03  0.00000000000E+00 0.  1.
         23    2    1    2    0    0  0.66689524933E+03 -0.73121301821E+03 -0.89882967706E+02  0.99798594640E+03  0.92061119640E+02 0.  0.
        254    2    1    2    0    0 -0.66689524933E+03  0.73121301821E+03  0.66964620089E+03  0.14951138125E+04  0.89861978959E+03 0.  0.
        -24    2    4    4    0    0 -0.74851457507E+03  0.77779976246E+03  0.32519451436E+03  0.11301745613E+04  0.79350659395E+02 0.  0.
         24    2    4    4    0    0  0.81619325747E+02 -0.46586744252E+02  0.34445168654E+03  0.36493925120E+03  0.75509295024E+02 0.  0.
         11    1    3    3    0    0  0.12814152461E+03 -0.12689024622E+03 -0.51165900276E+02  0.18745488595E+03  0.00000000000E+00 0. -1.
        -11    1    3    3    0    0  0.53875372472E+03 -0.60432277199E+03 -0.38717067430E+02  0.81053106045E+03  0.00000000000E+00 0.  1.
          4    1    6    6  502    0  0.45194633302E+02 -0.14900719879E+02  0.60802906106E+02  0.77211266815E+02  0.00000000000E+00 0. -1.
          1    1    5    5  503    0 -0.16435465061E+03  0.17650849991E+03  0.38828083593E+02  0.24428532865E+03  0.00000000000E+00 0. -1.
         -2    1    5    5    0  503 -0.58415992446E+03  0.60129126255E+03  0.28636643076E+03  0.88588923260E+03  0.00000000000E+00 0.  1.
         -3    1    6    6    0  502  0.36424692446E+02 -0.31686024373E+02  0.28364878043E+03  0.28772798439E+03  0.00000000000E+00 0.  1.
<mgrwt>
<rscale>  0 0.24247517E+04</rscale>
<asrwt>0</asrwt>
<pdfrwt beam="1">  1        2 0.23637408E+00 0.24247517E+04</pdfrwt>
<pdfrwt beam="2">  1       -2 0.14717973E+00 0.24247517E+04</pdfrwt>
<totfact> 0.34236313E+00</totfact>
</mgrwt>
</event>
<event>
12    1  0.1467288E-007  0.1262398E+04  0.7818608E-02  0.9059927E-01
         -1   -1    0    0    0  501 -0.00000000000E+00  0.00000000000E+00  0.35997588570E+03  0.35997588570E+03  0.00000000000E+00 0.  1.
          1   -1    0    0  501    0  0.00000000000E+00 -0.00000000000E+00 -0.11067745166E+04  0.11067745166E+04  0.00000000000E+00 0. -1.
         23    2    1    2    0    0 -0.27341072366E+02 -0.32156136879E+01 -0.53566772204E+03  0.54415354351E+03  0.91680401784E+02 0.  0.
        254    2    1    2    0    0  0.27341072366E+02  0.32156136879E+01 -0.21113090889E+03  0.92259685882E+03  0.89769194538E+03 0.  0.
        -24    2    4    4    0    0 -0.20211395942E+03  0.33366887183E+03 -0.30699429382E+03  0.50140130344E+03  0.70518097184E+02 0.  0.
         24    2    4    4    0    0  0.22945503178E+03 -0.33045325814E+03  0.95863384931E+02  0.42119555538E+03  0.79793106699E+02 0.  0.
         13    1    3    3    0    0  0.19720251924E+02  0.28462410120E+02 -0.12975595567E+03  0.13429670568E+03  0.00000000000E+00 0.  1.
        -13    1    3    3    0    0 -0.47061324290E+02 -0.31678023808E+02 -0.40591176637E+03  0.40985683783E+03  0.00000000000E+00 0. -1.
          2    1    6    6  502    0  0.21780080817E+03 -0.26202511412E+03  0.79193854713E+02  0.34980854634E+03  0.00000000000E+00 0. -1.
          1    1    5    5  503    0 -0.18413085730E+03  0.31429235594E+03 -0.30464694623E+03  0.47486168455E+03  0.00000000000E+00 0. -1.
         -4    1    5    5    0  503 -0.17983102120E+02  0.19376515886E+02 -0.23473475971E+01  0.26539618883E+02  0.00000000000E+00 0.  1.
         -3    1    6    6    0  502  0.11654223612E+02 -0.68428144017E+02  0.16669530218E+02  0.71387009037E+02  0.00000000000E+00 0.  1.
<mgrwt>
<rscale>  0 0.12623979E+04</rscale>
<asrwt>0</asrwt>
<pdfrwt beam="1">  1        1 0.17027300E+00 0.12623979E+04</pdfrwt>
<pdfrwt beam="2">  1       -1 0.55380906E-01 0.12623979E+04</pdfrwt>
<totfact> 0.40693481E+01</totfact>
</mgrwt>
</event>
<event>
12    1  0.1467288E-007  0.1789651E+04  0.7818608E-02  0.8711822E-01
          1   -1    0    0  501    0  0.00000000000E+00  0.00000000000E+00  0.70323368175E+03  0.70323368175E+03  0.00000000000E+00 0. -1.
         -1   -1    0    0    0  501 -0.00000000000E+00 -0.00000000000E+00 -0.11386157593E+04  0.11386157593E+04  0.00000000000E+00 0.  1.
         23    2    1    2    0    0  0.24844952188E+03  0.13548749179E+03 -0.83250514141E+03  0.88392462550E+03  0.90409666217E+02 0.  0.
        254    2    1    2    0    0 -0.24844952188E+03 -0.13548749179E+03  0.39712306389E+03  0.95792481552E+03  0.82451755527E+03 0.  0.
        -24    2    4    4    0    0 -0.24897101327E+03 -0.33508028674E+03 -0.81883167961E+02  0.43271564030E+03  0.79199798923E+02 0.  0.
         24    2    4    4    0    0  0.52149139616E+00  0.19959279495E+03  0.47900623185E+03  0.52520917522E+03  0.80994764238E+02 0.  0.
         11    1    3    3    0    0  0.10828424888E+03  0.82445866852E+02 -0.27803539481E+03  0.30955852481E+03  0.00000000000E+00 0. -1.
        -11    1    3    3    0    0  0.14016527300E+03  0.53041624942E+02 -0.55446974660E+03  0.57436610069E+03  0.00000000000E+00 0.  1.
          4    1    6    6  502    0 -0.24480625990E+02  0.59122796564E+02  0.22445926672E+03  0.23340258897E+03  0.00000000000E+00 0. -1.
          1    1    5    5  503    0 -0.33476328575E+01 -0.22956234947E+02 -0.20225941854E+02  0.30777980645E+02  0.00000000000E+00 0. -1.
         -2    1    5    5    0  503 -0.24562338042E+03 -0.31212405180E+03 -0.61657226107E+02  0.40193765965E+03  0.00000000000E+00 0.  1.
         -3    1    6    6    0  502  0.25002117386E+02  0.14046999838E+03  0.25454696513E+03  0.29180658625E+03  0.00000000000E+00 0.  1.
<mgrwt>
<rscale>  0 0.17896513E+04</rscale>
<asrwt>0</asrwt>
<pdfrwt beam="1">  1        1 0.10818980E+00 0.17896513E+04</pdfrwt>
<pdfrwt beam="2">  1       -1 0.17517165E+00 0.17896513E+04</pdfrwt>
<totfact> 0.57621230E+00</totfact>
</mgrwt>
</event>
<event>
12    1  0.1467288E-007  0.1654499E+04  0.7818608E-02  0.8787749E-01
         -1   -1    0    0    0  501 -0.00000000000E+00  0.00000000000E+00  0.54822381110E+03  0.54822381110E+03  0.00000000000E+00 0.  1.
          1   -1    0    0  501    0  0.00000000000E+00 -0.00000000000E+00 -0.12482894061E+04  0.12482894061E+04  0.00000000000E+00 0. -1.
         23    2    1    2    0    0 -0.36009965412E+03 -0.11924473692E+03  0.22432063679E+03  0.44993743828E+03  0.90735230747E+02 0.  0.
        254    2    1    2    0    0  0.36009965412E+03  0.11924473692E+03 -0.92438623176E+03  0.13465757789E+04  0.90271000583E+03 0.  0.
        -24    2    4    4    0    0  0.64140215900E+03 -0.39772100048E+02 -0.59445457806E+03  0.87818919638E+03  0.69724240809E+02 0.  0.
         24    2    4    4    0    0 -0.28130250488E+03  0.15901683697E+03 -0.32993165370E+03  0.46838658250E+03  0.78189774656E+02 0.  0.
         13    1    3    3    0    0 -0.26929015707E+03 -0.60346903723E+02  0.19464275386E+03  0.33770510674E+03  0.00000000000E+00 0.  1.
        -13    1    3    3    0    0 -0.90809497041E+02 -0.58897833199E+02  0.29677882931E+02  0.11223233154E+03  0.00000000000E+00 0. -1.
          2    1    6    6  502    0 -0.14579411224E+02  0.15119917394E+02 -0.86051988968E+00  0.21021694226E+02  0.00000000000E+00 0. -1.
          3    1    5    5  503    0  0.27979921435E+03  0.13329526437E+01 -0.29824211824E+03  0.40894710931E+03  0.00000000000E+00 0. -1.
         -4    1    5    5    0  503  0.36160294465E+03 -0.41105052691E+02 -0.29621245981E+03  0.46924208707E+03  0.00000000000E+00 0.  1.
         -1    1    6    6    0  502 -0.26672309366E+03  0.14389691958E+03 -0.32907113381E+03  0.44736488828E+03  0.00000000000E+00 0.  1.
<mgrwt>
<rscale>  0 0.16544993E+04</rscale>
<asrwt>0</asrwt>
<pdfrwt beam="1">  1        1 0.19204452E+00 0.16544993E+04</pdfrwt>
<pdfrwt beam="2">  1       -1 0.84342126E-01 0.16544993E+04</pdfrwt>
<totfact> 0.13108158E+01</totfact>
</mgrwt>
</event>
<event>
12    1  0.1467288E-007  0.1297306E+04  0.7818608E-02  0.9031705E-01
         -1   -1    0    0    0  501 -0.00000000000E+00  0.00000000000E+00  0.12664931285E+03  0.12664931285E+03  0.00000000000E+00 0.  1.
          1   -1    0    0  501    0  0.00000000000E+00 -0.00000000000E+00 -0.33221690628E+04  0.33221690628E+04  0.00000000000E+00 0. -1.
         23    2    1    2    0    0 -0.83956997187E+02 -0.25357792750E+03 -0.53725086806E+03  0.60674894120E+03  0.90306365932E+02 0.  0.
        254    2    1    2    0    0  0.83956997187E+02  0.25357792750E+03 -0.26582688819E+04  0.28420694344E+04  0.96933723700E+03 0.  0.
        -24    2    4    4    0    0 -0.36420559542E+03  0.20252405133E+03 -0.19716290065E+04  0.20167164918E+04  0.78503262387E+02 0.  0.
         24    2    4    4    0    0  0.44816259261E+03  0.51053876168E+02 -0.68663987544E+03  0.82535294261E+03  0.79227227996E+02 0.  0.
         13    1    3    3    0    0 -0.25543011028E+02 -0.16625531984E+03 -0.25403809758E+03  0.30467791487E+03  0.00000000000E+00 0.  1.
        -13    1    3    3    0    0 -0.58413986159E+02 -0.87322607665E+02 -0.28321277048E+03  0.30207102634E+03  0.00000000000E+00 0. -1.
          2    1    6    6  502    0  0.18983715382E+03  0.24663173933E+02 -0.36331688411E+03  0.41066479688E+03  0.00000000000E+00 0. -1.
          3    1    5    5  503    0 -0.24102868112E+03  0.15256005911E+03 -0.11788659508E+04  0.12128867740E+04  0.00000000000E+00 0. -1.
         -4    1    5    5    0  503 -0.12317691430E+03  0.49963992220E+02 -0.79276305569E+03  0.80382971779E+03  0.00000000000E+00 0.  1.
         -1    1    6    6    0  502  0.25832543879E+03  0.26390702236E+02 -0.32332299133E+03  0.41468814573E+03  0.00000000000E+00 0.  1.
<mgrwt>
<rscale>  0 0.12973056E+04</rscale>
<asrwt>0</asrwt>
<pdfrwt beam="1">  1        1 0.51110293E+00 0.12973056E+04</pdfrwt>
<pdfrwt beam="2">  1       -1 0.19484510E-01 0.12973056E+04</pdfrwt>
<totfact> 0.73212496E+00</totfact>
</mgrwt>
</event>
<event>
12    1  0.1467288E-007  0.1137826E+04  0.7818608E-02  0.9169089E-01
         -2   -1    0    0    0  501 -0.00000000000E+00  0.00000000000E+00  0.35155370679E+03  0.35155370679E+03  0.00000000000E+00 0.  1.
          2   -1    0    0  501    0  0.00000000000E+00 -0.00000000000E+00 -0.92066125906E+03  0.92066125906E+03  0.00000000000E+00 0. -1.
         23    2    1    2    0    0 -0.15316627626E+03 -0.66364691976E+02  0.32291349146E+02  0.19271042549E+03  0.90721531847E+02 0.  0.
        254    2    1    2    0    0  0.15316627626E+03  0.66364691976E+02 -0.60139890141E+03  0.10795045403E+04  0.88078671282E+03 0.  0.
        -24    2    4    4    0    0  0.42504730953E+03  0.17947609097E+03 -0.78891045308E+02  0.47445453137E+03  0.77501114409E+02 0.  0.
         24    2    4    4    0    0 -0.27188103327E+03 -0.11311139900E+03 -0.52250785610E+03  0.60505000898E+03  0.79734364234E+02 0.  0.
         11    1    3    3    0    0 -0.11589987084E+03 -0.62679676290E+02  0.61315909288E+02  0.14533121693E+03  0.00000000000E+00 0.  1.
        -11    1    3    3    0    0 -0.37266405415E+02 -0.36850156861E+01 -0.29024560142E+02  0.47379208569E+02  0.00000000000E+00 0. -1.
          2    1    6    6  502    0 -0.20409468952E+03 -0.64933552142E+02 -0.30946146185E+03  0.37634745230E+03  0.00000000000E+00 0. -1.
          1    1    5    5  503    0  0.25434359619E+03  0.74929535968E+02 -0.69265726722E+02  0.27404897588E+03  0.00000000000E+00 0. -1.
         -2    1    5    5    0  503  0.17070371334E+03  0.10454655500E+03 -0.96253185863E+01  0.20040555549E+03  0.00000000000E+00 0.  1.
         -1    1    6    6    0  502 -0.67786343757E+02 -0.48177846855E+02 -0.21304639425E+03  0.22870255668E+03  0.00000000000E+00 0.  1.
<mgrwt>
<rscale>  0 0.11378258E+04</rscale>
<asrwt>0</asrwt>
<pdfrwt beam="1">  1        2 0.14164019E+00 0.11378258E+04</pdfrwt>
<pdfrwt beam="2">  1       -2 0.54085186E-01 0.11378258E+04</pdfrwt>
<totfact> 0.90560859E+01</totfact>
</mgrwt>
</event>
<event>
12    1  0.1467288E-007  0.1351630E+04  0.7818608E-02  0.8989595E-01
          1   -1    0    0  501    0  0.00000000000E+00  0.00000000000E+00  0.66781849873E+03  0.66781849873E+03  0.00000000000E+00 0. -1.
         -1   -1    0    0    0  501 -0.00000000000E+00 -0.00000000000E+00 -0.68390754742E+03  0.68390754742E+03  0.00000000000E+00 0.  1.
         23    2    1    2    0    0  0.13328012039E+03  0.88649064599E+02 -0.34095576523E+03  0.38684434921E+03  0.88178622864E+02 0.  0.
        254    2    1    2    0    0 -0.13328012039E+03 -0.88649064599E+02  0.32486671654E+03  0.96488169694E+03  0.89433554018E+03 0.  0.
        -24    2    4    4    0    0 -0.14625864780E+03  0.12135736468E+03 -0.26321541641E+03  0.33479773432E+03  0.81779981978E+02 0.  0.
         24    2    4    4    0    0  0.12978527411E+02 -0.21000642928E+03  0.58808213295E+03  0.63008396262E+03  0.83030490425E+02 0.  0.
         11    1    3    3    0    0 -0.81570730704E+01  0.11127818223E+02 -0.71389975960E+02  0.72711036625E+02  0.00000000000E+00 0.  1.
        -11    1    3    3    0    0  0.14143719346E+03  0.77521246376E+02 -0.26956578926E+03  0.31413331259E+03  0.00000000000E+00 0. -1.
          4    1    6    6  502    0 -0.61446869052E+01  0.54870678296E+01  0.10712896434E+02  0.13514112643E+02  0.00000000000E+00 0. -1.
          3    1    5    5  503    0 -0.11275577548E+03  0.97558864260E+02 -0.13856625147E+03  0.20354901853E+03  0.00000000000E+00 0. -1.
         -4    1    5    5    0  503 -0.33502872325E+02  0.23798500421E+02 -0.12464916494E+03  0.13124871579E+03  0.00000000000E+00 0.  1.
         -3    1    6    6    0  502  0.19123214316E+02 -0.21549349711E+03  0.57736923652E+03  0.61656984998E+03  0.00000000000E+00 0.  1.
<mgrwt>
<rscale>  0 0.13516303E+04</rscale>
<asrwt>0</asrwt>
<pdfrwt beam="1">  1        1 0.10274131E+00 0.13516303E+04</pdfrwt>
<pdfrwt beam="2">  1       -1 0.10521655E+00 0.13516303E+04</pdfrwt>
<totfact> 0.24268215E+01</totfact>
</mgrwt>
</event>
<event>
12    1  0.2106309E-007  0.1917986E+04  0.7818608E-02  0.8645955E-01
         -2   -1    0    0    0  501 -0.00000000000E+00  0.00000000000E+00  0.11804662382E+04  0.11804662382E+04  0.00000000000E+00 0.  1.
          2   -1    0    0  501    0  0.00000000000E+00 -0.00000000000E+00 -0.77907169702E+03  0.77907169702E+03  0.00000000000E+00 0. -1.
         23    2    1    2    0    0  0.49438097222E+03 -0.54107181755E+03  0.29045054696E+03  0.79363195294E+03  0.91207998921E+02 0.  0.
        254    2    1    2    0    0 -0.49438097222E+03  0.54107181755E+03  0.11094399427E+03  0.11659059823E+04  0.89992051445E+03 0.  0.
        -24    2    4    4    0    0  0.39352772332E+01  0.55277590874E+03 -0.17542461201E+03  0.58543638607E+03  0.79907921658E+02 0.  0.
         24    2    4    4    0    0 -0.49831624945E+03 -0.11704091197E+02  0.28636860628E+03  0.58046959626E+03  0.80510268292E+02 0.  0.
         13    1    3    3    0    0  0.15306123053E+02 -0.35556460679E+02 -0.81277081703E+00  0.38719502777E+02  0.00000000000E+00 0. -1.
        -13    1    3    3    0    0  0.47907484916E+03 -0.50551535687E+03  0.29126331778E+03  0.75491245016E+03  0.00000000000E+00 0.  1.
          2    1    6    6  502    0 -0.46053849276E+03  0.33905780519E+01  0.28081357955E+03  0.53941029448E+03  0.00000000000E+00 0. -1.
          3    1    5    5  503    0  0.22107336047E+02  0.50742918596E+03 -0.17284818104E+03  0.53651617568E+03  0.00000000000E+00 0. -1.
         -4    1    5    5    0  503 -0.18172058814E+02  0.45346722781E+02 -0.25764309672E+01  0.48920210395E+02  0.00000000000E+00 0.  1.
         -1    1    6    6    0  502 -0.37777756691E+02 -0.15094669249E+02  0.55550267264E+01  0.41059301776E+02  0.00000000000E+00 0.  1.
<mgrwt>
<rscale>  0 0.19179863E+04</rscale>
<asrwt>0</asrwt>
<pdfrwt beam="1">  1        2 0.11985718E+00 0.19179863E+04</pdfrwt>
<pdfrwt beam="2">  1       -2 0.18161019E+00 0.19179863E+04</pdfrwt>
<totfact> 0.58942955E+00</totfact>
</mgrwt>
</event>
<event>
12    1  0.1467288E-007  0.2128621E+04  0.7818608E-02  0.8548740E-01
         -2   -1    0    0    0  501 -0.00000000000E+00  0.00000000000E+00  0.38080807194E+03  0.38080807194E+03  0.00000000000E+00 0.  1.
          2   -1    0    0  501    0  0.00000000000E+00 -0.00000000000E+00 -0.29746123144E+04  0.29746123144E+04  0.00000000000E+00 0. -1.
         23    2    1    2    0    0 -0.58554917656E+03  0.99222773098E+01 -0.20832939436E+04  0.21659225202E+04  0.90224265537E+02 0.  0.
        254    2    1    2    0    0  0.58554917656E+03 -0.99222773098E+01 -0.51051029887E+03  0.11894978662E+04  0.90073199048E+03 0.  0.
        -24    2    4    4    0    0  0.74520448787E+03  0.18984290864E+03 -0.24086795853E+03  0.80985863350E+03  0.80520644012E+02 0.  0.
         24    2    4    4    0    0 -0.15965531131E+03 -0.19976518595E+03 -0.26964234034E+03  0.37963923269E+03  0.77608036613E+02 0.  0.
         13    1    3    3    0    0 -0.45379603381E+03 -0.62482397748E+01 -0.14716472048E+04  0.15400374593E+04  0.00000000000E+00 0. -1.
        -13    1    3    3    0    0 -0.13175314275E+03  0.16170517085E+02 -0.61164673885E+03  0.62588506085E+03  0.00000000000E+00 0.  1.
          4    1    6    6  502    0 -0.25535117545E+02 -0.71984317194E+02 -0.11641141530E+03  0.13923146829E+03  0.00000000000E+00 0. -1.
          1    1    5    5  503    0  0.27558238221E+02 -0.20215275377E+01  0.34838101020E+01  0.27851032301E+02  0.00000000000E+00 0. -1.
         -2    1    5    5    0  503  0.71764624965E+03  0.19186443618E+03 -0.24435176863E+03  0.78200760120E+03  0.00000000000E+00 0.  1.
         -3    1    6    6    0  502 -0.13412019376E+03 -0.12778086876E+03 -0.15323092504E+03  0.24040776440E+03  0.00000000000E+00 0.  1.
<mgrwt>
<rscale>  0 0.21286206E+04</rscale>
<asrwt>0</asrwt>
<pdfrwt beam="1">  1        2 0.45763269E+00 0.21286206E+04</pdfrwt>
<pdfrwt beam="2">  1       -2 0.58585854E-01 0.21286206E+04</pdfrwt>
<totfact> 0.45295980E+00</totfact>
</mgrwt>
</event>
<event>
12    1  0.1467288E-007  0.1767342E+04  0.7818608E-02  0.8723862E-01
         -2   -1    0    0    0  501 -0.00000000000E+00  0.00000000000E+00  0.26573747893E+03  0.26573747893E+03  0.00000000000E+00 0. -1.
          2   -1    0    0  501    0  0.00000000000E+00 -0.00000000000E+00 -0.29385187823E+04  0.29385187823E+04  0.00000000000E+00 0.  1.
         23    2    1    2    0    0 -0.60930412232E+03  0.21417615181E+03 -0.98495024515E+03  0.11816032998E+04  0.94532719990E+02 0.  0.
        254    2    1    2    0    0  0.60930412232E+03 -0.21417615181E+03 -0.16878310582E+04  0.20226529615E+04  0.90842081876E+03 0.  0.
        -24    2    4    4    0    0  0.44810627948E+03  0.35404694234E+02 -0.16504977160E+04  0.17125364148E+04  0.81151286277E+02 0.  0.
         24    2    4    4    0    0  0.16119784284E+03 -0.24958084604E+03 -0.37333342207E+02  0.31011654669E+03  0.80642115826E+02 0.  0.
         13    1    3    3    0    0 -0.49295625326E+02  0.31528933579E+02 -0.52121902188E+02  0.78363416315E+02  0.00000000000E+00 0. -1.
        -13    1    3    3    0    0 -0.56000849699E+03  0.18264721823E+03 -0.93282834296E+03  0.11032398835E+04  0.00000000000E+00 0.  1.
          4    1    6    6  502    0  0.55098890936E+02 -0.91026206107E+02 -0.52663463836E+02  0.11872277963E+03  0.00000000000E+00 0. -1.
          3    1    5    5  503    0  0.29186551216E+02 -0.14518758950E+02 -0.80676092686E+02  0.87013108578E+02  0.00000000000E+00 0. -1.
         -4    1    5    5    0  503  0.41891972827E+03  0.49923453184E+02 -0.15698216234E+04  0.16255233062E+04  0.00000000000E+00 0.  1.
         -3    1    6    6    0  502  0.10609895190E+03 -0.15855463994E+03  0.15330121630E+02  0.19139376706E+03  0.00000000000E+00 0.  1.
<mgrwt>
<rscale>  0 0.17673422E+04</rscale>
<asrwt>0</asrwt>
<pdfrwt beam="1">  1        2 0.45207985E+00 0.17673422E+04</pdfrwt>
<pdfrwt beam="2">  1       -2 0.40882685E-01 0.17673422E+04</pdfrwt>
<totfact> 0.10238005E+01</totfact>
</mgrwt>
</event>
<event>
12    1  0.1467288E-007  0.1996880E+04  0.7818608E-02  0.8608081E-01
          2   -1    0    0  501    0  0.00000000000E+00  0.00000000000E+00  0.50554013887E+04  0.50554013887E+04  0.00000000000E+00 0.  1.
         -2   -1    0    0    0  501 -0.00000000000E+00 -0.00000000000E+00 -0.19719155298E+03  0.19719155298E+03  0.00000000000E+00 0. -1.
         23    2    1    2    0    0 -0.17496414658E+03  0.27232146160E+03  0.37868964300E+04  0.38017616057E+04  0.89639855271E+02 0.  0.
        254    2    1    2    0    0  0.17496414658E+03 -0.27232146160E+03  0.10713134056E+04  0.14508313359E+04  0.92327012364E+03 0.  0.
        -24    2    4    4    0    0  0.44953393929E+03 -0.41690615401E+03  0.88839433662E+03  0.10823067960E+04  0.79069585917E+02 0.  0.
         24    2    4    4    0    0 -0.27456979271E+03  0.14458469241E+03  0.18291906902E+03  0.36852453998E+03  0.77830883393E+02 0.  0.
         13    1    3    3    0    0 -0.84186621427E+02  0.17397944383E+03  0.26441995815E+04  0.26512539790E+04  0.00000000000E+00 0.  1.
        -13    1    3    3    0    0 -0.90777525150E+02  0.98342017766E+02  0.11426968485E+04  0.11505076267E+04  0.00000000000E+00 0. -1.
          4    1    6    6  502    0 -0.66665784149E+02  0.66960229717E+02  0.30451842493E+02  0.99273933392E+02  0.00000000000E+00 0. -1.
          1    1    5    5  503    0  0.11786956654E+02 -0.27758623991E+02  0.25998168050E+02  0.39816809202E+02  0.00000000000E+00 0. -1.
         -2    1    5    5    0  503  0.43774698263E+03 -0.38914753002E+03  0.86239616857E+03  0.10424899868E+04  0.00000000000E+00 0.  1.
         -3    1    6    6    0  502 -0.20790400856E+03  0.77624462694E+02  0.15246722653E+03  0.26925060659E+03  0.00000000000E+00 0.  1.
<mgrwt>
<rscale>  0 0.19968800E+04</rscale>
<asrwt>0</asrwt>
<pdfrwt beam="1">  1        2 0.77775396E+00 0.19968800E+04</pdfrwt>
<pdfrwt beam="2">  1       -2 0.30337166E-01 0.19968800E+04</pdfrwt>
<totfact> 0.27921433E-01</totfact>
</mgrwt>
</event>
<event>
12    1  0.1467288E-007  0.2668576E+04  0.7818608E-02  0.8345273E-01
         -2   -1    0    0    0  501 -0.00000000000E+00  0.00000000000E+00  0.12197871044E+04  0.12197871044E+04  0.00000000000E+00 0. -1.
          2   -1    0    0  501    0  0.00000000000E+00 -0.00000000000E+00 -0.14595373235E+04  0.14595373235E+04  0.00000000000E+00 0.  1.
         23    2    1    2    0    0  0.28396222950E+03  0.10088115293E+04 -0.64737446655E+03  0.12353054885E+04  0.92469997584E+02 0.  0.
        254    2    1    2    0    0 -0.28396222950E+03 -0.10088115293E+04  0.40762424751E+03  0.14440189394E+04  0.90592379403E+03 0.  0.
        -24    2    4    4    0    0 -0.40524737796E+03 -0.22330013556E+03 -0.12391741182E+03  0.48447438326E+03  0.72605200868E+02 0.  0.
         24    2    4    4    0    0  0.12128514846E+03 -0.78551139379E+03  0.53154165933E+03  0.95954455612E+03  0.80318008996E+02 0.  0.
         13    1    3    3    0    0  0.58507667331E+02  0.31762967081E+03 -0.16369150231E+03  0.36208654055E+03  0.00000000000E+00 0.  1.
        -13    1    3    3    0    0  0.22545456217E+03  0.69118185853E+03 -0.48368296424E+03  0.87321894795E+03  0.00000000000E+00 0. -1.
          2    1    6    6  502    0  0.59980762491E+02 -0.57207759335E+03  0.41016691789E+03  0.70647531112E+03  0.00000000000E+00 0. -1.
          1    1    5    5  503    0 -0.67608586567E+02 -0.20423647429E+02 -0.41914424954E+02  0.82127129325E+02  0.00000000000E+00 0. -1.
         -2    1    5    5    0  503 -0.33763879140E+03 -0.20287648813E+03 -0.82002986863E+02  0.40234725393E+03  0.00000000000E+00 0.  1.
         -1    1    6    6    0  502  0.61304385971E+02 -0.21343380043E+03  0.12137474144E+03  0.25306924500E+03  0.00000000000E+00 0.  1.
<mgrwt>
<rscale>  0 0.26685763E+04</rscale>
<asrwt>0</asrwt>
<pdfrwt beam="1">  1        2 0.22454420E+00 0.26685763E+04</pdfrwt>
<pdfrwt beam="2">  1       -2 0.18765955E+00 0.26685763E+04</pdfrwt>
<totfact> 0.18921037E+00</totfact>
</mgrwt>
</event>
<event>
12    1  0.1467288E-007  0.1991651E+04  0.7818608E-02  0.8610534E-01
         -1   -1    0    0    0  501 -0.00000000000E+00  0.00000000000E+00  0.73115381523E+03  0.73115381523E+03  0.00000000000E+00 0.  1.
          1   -1    0    0  501    0  0.00000000000E+00 -0.00000000000E+00 -0.13563059036E+04  0.13563059036E+04  0.00000000000E+00 0. -1.
         23    2    1    2    0    0  0.15012967472E+03 -0.76211688707E+03 -0.35923784411E+03  0.86073409219E+03  0.91925404725E+02 0.  0.
        254    2    1    2    0    0 -0.15012967472E+03  0.76211688707E+03 -0.26591424424E+03  0.12267256266E+04  0.91147370173E+03 0.  0.
        -24    2    4    4    0    0  0.33568148662E+03  0.11990456677E+03 -0.19544798192E+03  0.41426743276E+03  0.79739743034E+02 0.  0.
         24    2    4    4    0    0 -0.48581116134E+03  0.64221232030E+03 -0.70466262323E+02  0.81245819387E+03  0.81692556741E+02 0.  0.
         11    1    3    3    0    0  0.14019454671E+03 -0.67152439939E+03 -0.28365298205E+03  0.74233317596E+03  0.00000000000E+00 0.  1.
        -11    1    3    3    0    0  0.99351280119E+01 -0.90592487677E+02 -0.75584862057E+02  0.11840091623E+03  0.00000000000E+00 0. -1.
          4    1    6    6  502    0 -0.42461246320E+03  0.53835386857E+03 -0.33919892374E+02  0.68649194519E+03  0.00000000000E+00 0. -1.
          1    1    5    5  503    0  0.12103482395E+03  0.83744069508E+02 -0.88520604526E+02  0.17175096859E+03  0.00000000000E+00 0. -1.
         -2    1    5    5    0  503  0.21464666267E+03  0.36160497258E+02 -0.10692737739E+03  0.24251646417E+03  0.00000000000E+00 0.  1.
         -3    1    6    6    0  502 -0.61198698143E+02  0.10385845173E+03 -0.36546369949E+02  0.12596624868E+03  0.00000000000E+00 0.  1.
<mgrwt>
<rscale>  0 0.19916508E+04</rscale>
<asrwt>0</asrwt>
<pdfrwt beam="1">  1        1 0.20866245E+00 0.19916508E+04</pdfrwt>
<pdfrwt beam="2">  1       -1 0.11248520E+00 0.19916508E+04</pdfrwt>
<totfact> 0.55415828E+00</totfact>
</mgrwt>
</event>
<event>
12    1  0.1467288E-007  0.3086782E+04  0.7818608E-02  0.8219375E-01
         -1   -1    0    0    0  501 -0.00000000000E+00  0.00000000000E+00  0.21256100714E+04  0.21256100714E+04  0.00000000000E+00 0.  1.
          1   -1    0    0  501    0  0.00000000000E+00 -0.00000000000E+00 -0.11206454354E+04  0.11206454354E+04  0.00000000000E+00 0. -1.
         23    2    1    2    0    0  0.31329240379E+03  0.77922594603E+02  0.18965244614E+04  0.19260153626E+04  0.92228429630E+02 0.  0.
        254    2    1    2    0    0 -0.31329240379E+03 -0.77922594603E+02 -0.89155982538E+03  0.13202401442E+04  0.91865720222E+03 0.  0.
        -24    2    4    4    0    0 -0.90900102266E+02 -0.36311266772E+03 -0.33677368603E+02  0.38583216803E+03  0.87284928116E+02 0.  0.
         24    2    4    4    0    0 -0.22239230152E+03  0.28519007312E+03 -0.85788245678E+03  0.93440797621E+03  0.79776204294E+02 0.  0.
         11    1    3    3    0    0  0.10553745610E+03  0.71818687240E+02  0.68570362437E+03  0.69748515321E+03  0.00000000000E+00 0. -1.
        -11    1    3    3    0    0  0.20775494769E+03  0.61039073624E+01  0.12108208370E+04  0.12285302093E+04  0.00000000000E+00 0.  1.
          4    1    6    6  502    0 -0.76187746392E+02  0.43104184749E+02 -0.20293095900E+03  0.22100569577E+03  0.00000000000E+00 0. -1.
          3    1    5    5  503    0 -0.24769942311E+02 -0.12534545792E+03  0.29395988744E+02  0.13110742930E+03  0.00000000000E+00 0. -1.
         -4    1    5    5    0  503 -0.66130159955E+02 -0.23776720980E+03 -0.63073357348E+02  0.25472473873E+03  0.00000000000E+00 0.  1.
         -1    1    6    6    0  502 -0.14620455513E+03  0.24208588837E+03 -0.65495149778E+03  0.71340228044E+03  0.00000000000E+00 0.  1.
<mgrwt>
<rscale>  0 0.30867816E+04</rscale>
<asrwt>0</asrwt>
<pdfrwt beam="1">  1        1 0.17240699E+00 0.30867816E+04</pdfrwt>
<pdfrwt beam="2">  1       -1 0.32701693E+00 0.30867816E+04</pdfrwt>
<totfact> 0.22752789E-01</totfact>
</mgrwt>
</event>
<event>
12    1  0.1467288E-007  0.3229286E+04  0.7818608E-02  0.8181125E-01
         -2   -1    0    0    0  501 -0.00000000000E+00  0.00000000000E+00  0.60211735591E+03  0.60211735591E+03  0.00000000000E+00 0.  1.
          2   -1    0    0  501    0  0.00000000000E+00 -0.00000000000E+00 -0.43298413621E+04  0.43298413621E+04  0.00000000000E+00 0. -1.
         23    2    1    2    0    0  0.95818615800E+03  0.11409436967E+04 -0.19031618723E+04  0.24185102308E+04  0.85401358165E+02 0.  0.
        254    2    1    2    0    0 -0.95818615800E+03 -0.11409436967E+04 -0.18245621339E+04  0.25134484872E+04  0.87665448435E+03 0.  0.
        -24    2    4    4    0    0 -0.18226038329E+03 -0.18019913751E+03 -0.97734093049E+03  0.10137561117E+04  0.82556544561E+02 0.  0.
         24    2    4    4    0    0 -0.77592577471E+03 -0.96074455919E+03 -0.84722120344E+03  0.14996923756E+04  0.78756192634E+02 0.  0.
         11    1    3    3    0    0  0.12908021015E+03  0.11699626890E+03 -0.24540942421E+03  0.30095782609E+03  0.00000000000E+00 0.  1.
        -11    1    3    3    0    0  0.82910594785E+03  0.10239474278E+04 -0.16577524481E+04  0.21175524047E+04  0.00000000000E+00 0. -1.
          4    1    6    6  502    0 -0.74993002385E+03 -0.92681550203E+03 -0.83393224660E+03  0.14549312724E+04  0.00000000000E+00 0. -1.
          1    1    5    5  503    0 -0.14468987826E+03 -0.87725271859E+02 -0.63551979555E+03  0.65765971044E+03  0.00000000000E+00 0. -1.
         -2    1    5    5    0  503 -0.37570505030E+02 -0.92473865655E+02 -0.34182113494E+03  0.35609640123E+03  0.00000000000E+00 0.  1.
         -3    1    6    6    0  502 -0.25995750857E+02 -0.33929057168E+02 -0.13288956844E+02  0.44761103170E+02  0.00000000000E+00 0.  1.
<mgrwt>
<rscale>  0 0.32292864E+04</rscale>
<asrwt>0</asrwt>
<pdfrwt beam="1">  1        2 0.66612942E+00 0.32292864E+04</pdfrwt>
<pdfrwt beam="2">  1       -2 0.92633442E-01 0.32292864E+04</pdfrwt>
<totfact> 0.14761672E-01</totfact>
</mgrwt>
</event>
<event>
12    1  0.1467288E-007  0.1775694E+04  0.7818608E-02  0.8719333E-01
         -2   -1    0    0    0  501 -0.00000000000E+00  0.00000000000E+00  0.33243215097E+03  0.33243215097E+03  0.00000000000E+00 0.  1.
          2   -1    0    0  501    0  0.00000000000E+00 -0.00000000000E+00 -0.23712280896E+04  0.23712280896E+04  0.00000000000E+00 0. -1.
         23    2    1    2    0    0 -0.80012888731E+02 -0.55384517880E+03 -0.12717891560E+04  0.13925129299E+04  0.92184912454E+02 0.  0.
        254    2    1    2    0    0  0.80012888731E+02  0.55384517880E+03 -0.76700678268E+03  0.13111473108E+04  0.90424627252E+03 0.  0.
        -24    2    4    4    0    0  0.29505293922E+03 -0.16266892314E+02 -0.60088656576E+03  0.67443679507E+03  0.80495198009E+02 0.  0.
         24    2    4    4    0    0 -0.21504005049E+03  0.57011207112E+03 -0.16612021691E+03  0.63671051568E+03  0.80835372019E+02 0.  0.
         11    1    3    3    0    0 -0.29006178620E+02 -0.88703532125E+02 -0.14513938701E+03  0.17255467734E+03  0.00000000000E+00 0. -1.
        -11    1    3    3    0    0 -0.51006710111E+02 -0.46514164668E+03 -0.11266497690E+04  0.12199582525E+04  0.00000000000E+00 0.  1.
          4    1    6    6  502    0 -0.16239744178E+02  0.10753328479E+03 -0.83095620254E+01  0.10906963578E+03  0.00000000000E+00 0. -1.
          1    1    5    5  503    0  0.19148151695E+03  0.15134943541E+02 -0.44478502393E+03  0.48448731187E+03  0.00000000000E+00 0. -1.
         -2    1    5    5    0  503  0.10357142226E+03 -0.31401835855E+02 -0.15610154183E+03  0.18994948320E+03  0.00000000000E+00 0.  1.
         -3    1    6    6    0  502 -0.19880030631E+03  0.46257878633E+03 -0.15781065489E+03  0.52764087990E+03  0.00000000000E+00 0.  1.
<mgrwt>
<rscale>  0 0.17756942E+04</rscale>
<asrwt>0</asrwt>
<pdfrwt beam="1">  1        2 0.36480433E+00 0.17756942E+04</pdfrwt>
<pdfrwt beam="2">  1       -2 0.51143407E-01 0.17756942E+04</pdfrwt>
<totfact> 0.14123260E+01</totfact>
</mgrwt>
</event>
<event>
12    1  0.1467288E-007  0.1698440E+04  0.7818608E-02  0.8762254E-01
          2   -1    0    0  501    0  0.00000000000E+00  0.00000000000E+00  0.12845034811E+04  0.12845034811E+04  0.00000000000E+00 0. -1.
         -2   -1    0    0    0  501 -0.00000000000E+00 -0.00000000000E+00 -0.56144247123E+03  0.56144247123E+03  0.00000000000E+00 0.  1.
         23    2    1    2    0    0 -0.54792111907E+03 -0.19126229001E+03  0.44636566506E+03  0.73766386275E+03  0.90038053967E+02 0.  0.
        254    2    1    2    0    0  0.54792111907E+03  0.19126229001E+03  0.27669534478E+03  0.11082820895E+04  0.90273476717E+03 0.  0.
        -24    2    4    4    0    0  0.13435018645E+03  0.90032703978E+02  0.56149858915E+03  0.58974026559E+03  0.79731141059E+02 0.  0.
         24    2    4    4    0    0  0.41357093262E+03  0.10122958603E+03 -0.28480324437E+03  0.51854182395E+03  0.80525708843E+02 0.  0.
         11    1    3    3    0    0 -0.29919811560E+03 -0.97979651475E+02  0.29748428892E+03  0.43314711893E+03  0.00000000000E+00 0. -1.
        -11    1    3    3    0    0 -0.24872300347E+03 -0.93282638538E+02  0.14888137614E+03  0.30451674382E+03  0.00000000000E+00 0.  1.
          2    1    6    6  502    0  0.21517916808E+03  0.93457832068E+02 -0.14669350098E+03  0.27668650849E+03  0.00000000000E+00 0. -1.
          1    1    5    5  503    0  0.20932482885E+02  0.26298294169E+02  0.24875963677E+03  0.25102017051E+03  0.00000000000E+00 0. -1.
         -2    1    5    5    0  503  0.11341770357E+03  0.63734409810E+02  0.31273895238E+03  0.33872009508E+03  0.00000000000E+00 0.  1.
         -1    1    6    6    0  502  0.19839176454E+03  0.77717539657E+01 -0.13810974339E+03  0.24185531546E+03  0.00000000000E+00 0.  1.
<mgrwt>
<rscale>  0 0.16984402E+04</rscale>
<asrwt>0</asrwt>
<pdfrwt beam="1">  1        2 0.19761592E+00 0.16984402E+04</pdfrwt>
<pdfrwt beam="2">  1       -2 0.86375765E-01 0.16984402E+04</pdfrwt>
<totfact> 0.18661149E+01</totfact>
</mgrwt>
</event>
<event>
12    1  0.1467288E-007  0.2603761E+04  0.7818608E-02  0.8366925E-01
         -1   -1    0    0    0  501 -0.00000000000E+00  0.00000000000E+00  0.80066883914E+03  0.80066883914E+03  0.00000000000E+00 0.  1.
          1   -1    0    0  501    0  0.00000000000E+00 -0.00000000000E+00 -0.21168469611E+04  0.21168469611E+04  0.00000000000E+00 0. -1.
         23    2    1    2    0    0 -0.30653515076E+03 -0.89858150239E+03 -0.12996501259E+04  0.16122323581E+04  0.93756129088E+02 0.  0.
        254    2    1    2    0    0  0.30653515076E+03  0.89858150239E+03 -0.16527996050E+02  0.13052834421E+04  0.89558873066E+03 0.  0.
        -24    2    4    4    0    0 -0.36738057398E+02  0.92597544768E+03 -0.11823048707E+03  0.93779481105E+03  0.81856245886E+02 0.  0.
         24    2    4    4    0    0  0.34327320816E+03 -0.27393945284E+02  0.10170249102E+03  0.36748863106E+03  0.78214919280E+02 0.  0.
         11    1    3    3    0    0 -0.23937901756E+03 -0.73144758197E+03 -0.11096628555E+04  0.13504330906E+04  0.00000000000E+00 0. -1.
        -11    1    3    3    0    0 -0.67156133204E+02 -0.16713392042E+03 -0.18998727043E+03  0.26179926759E+03  0.00000000000E+00 0.  1.
          4    1    6    6  502    0  0.12044986101E+03 -0.46576037397E+02  0.29416281487E+02  0.13244928801E+03  0.00000000000E+00 0. -1.
          1    1    5    5  503    0  0.77740874952E+01  0.32949166209E+03 -0.86446229650E+01  0.32969671112E+03  0.00000000000E+00 0. -1.
         -2    1    5    5    0  503 -0.44512144894E+02  0.59648378559E+03 -0.10958586411E+03  0.60809809992E+03  0.00000000000E+00 0.  1.
         -3    1    6    6    0  502  0.22282334715E+03  0.19182092113E+02  0.72286209534E+02  0.23503934305E+03  0.00000000000E+00 0.  1.
<mgrwt>
<rscale>  0 0.26037614E+04</rscale>
<asrwt>0</asrwt>
<pdfrwt beam="1">  1        1 0.32566876E+00 0.26037614E+04</pdfrwt>
<pdfrwt beam="2">  1       -1 0.12317982E+00 0.26037614E+04</pdfrwt>
<totfact> 0.12681184E+00</totfact>
</mgrwt>
</event>
<event>
12    1  0.1467288E-007  0.3436691E+04  0.7818608E-02  0.8128959E-01
          2   -1    0    0  501    0  0.00000000000E+00  0.00000000000E+00  0.34144379263E+04  0.34144379263E+04  0.00000000000E+00 0. -1.
         -2   -1    0    0    0  501 -0.00000000000E+00 -0.00000000000E+00 -0.86477213575E+03  0.86477213575E+03  0.00000000000E+00 0.  1.
         23    2    1    2    0    0  0.11766194131E+04  0.42011350405E+03 -0.52676513731E+02  0.12537806147E+04  0.90897827519E+02 0.  0.
        254    2    1    2    0    0 -0.11766194131E+04 -0.42011350405E+03  0.26023423043E+04  0.30254294474E+04  0.90559884761E+03 0.  0.
        -24    2    4    4    0    0 -0.15571207101E+03 -0.42973629220E+03  0.12195383084E+04  0.13046864958E+04  0.77547642523E+02 0.  0.
         24    2    4    4    0    0 -0.10209073421E+04  0.96227881502E+01  0.13828039959E+04  0.17207429516E+04  0.80405317370E+02 0.  0.
         13    1    3    3    0    0  0.11412575837E+04  0.39081339187E+03 -0.44527763036E+02  0.12071398847E+04  0.00000000000E+00 0.  1.
        -13    1    3    3    0    0  0.35361829440E+02  0.29300112176E+02 -0.81487506955E+01  0.46640729977E+02  0.00000000000E+00 0. -1.
          4    1    6    6  502    0 -0.41332210531E+03  0.35240974892E+02  0.52072135730E+03  0.66575357378E+03  0.00000000000E+00 0. -1.
          3    1    5    5  503    0 -0.11053676733E+03 -0.19907640098E+03  0.63987710857E+03  0.67918517683E+03  0.00000000000E+00 0. -1.
         -4    1    5    5    0  503 -0.45175303678E+02 -0.23065989122E+03  0.57966119979E+03  0.62550131896E+03  0.00000000000E+00 0.  1.
         -3    1    6    6    0  502 -0.60758523679E+03 -0.25618186742E+02  0.86208263864E+03  0.10549893778E+04  0.00000000000E+00 0.  1.
<mgrwt>
<rscale>  0 0.34366907E+04</rscale>
<asrwt>0</asrwt>
<pdfrwt beam="1">  1        2 0.52529813E+00 0.34366907E+04</pdfrwt>
<pdfrwt beam="2">  1       -2 0.13304187E+00 0.34366907E+04</pdfrwt>
<totfact> 0.31477803E-01</totfact>
</mgrwt>
</event>
<event>
12    1  0.1467288E-007  0.2847293E+04  0.7818608E-02  0.8288734E-01
          2   -1    0    0  501    0  0.00000000000E+00  0.00000000000E+00  0.18652404358E+04  0.18652404358E+04  0.00000000000E+00 0. -1.
         -2   -1    0    0    0  501 -0.00000000000E+00 -0.00000000000E+00 -0.10865997728E+04  0.10865997728E+04  0.00000000000E+00 0.  1.
         23    2    1    2    0    0 -0.12669437072E+04  0.95846422031E+02  0.59020974635E+03  0.14027491227E+04  0.70884855745E+02 0.  0.
        254    2    1    2    0    0  0.12669437072E+04 -0.95846422031E+02  0.18843091662E+03  0.15490910859E+04  0.86593538352E+03 0.  0.
        -24    2    4    4    0    0  0.12773511338E+04  0.13802386088E+03  0.19404532446E+03  0.13016502011E+04  0.77221454222E+02 0.  0.
         24    2    4    4    0    0 -0.10407426607E+02 -0.23387028291E+03 -0.56144078401E+01  0.24744088482E+03  0.79949022184E+02 0.  0.
         13    1    3    3    0    0 -0.10627922497E+04  0.74041267773E+02  0.46633125558E+03  0.11629592922E+04  0.00000000000E+00 0. -1.
        -13    1    3    3    0    0 -0.20415145751E+03  0.21805154258E+02  0.12387849077E+03  0.23978983054E+03  0.00000000000E+00 0.  1.
          2    1    6    6  502    0  0.21978165790E+02 -0.18931019457E+02  0.65419040613E+01  0.29735833230E+02  0.00000000000E+00 0. -1.
          1    1    5    5  503    0  0.31225320977E+03  0.28312363542E+02  0.80641400388E+02  0.32373861741E+03  0.00000000000E+00 0. -1.
         -2    1    5    5    0  503  0.96509792401E+03  0.10971149733E+03  0.11340392407E+03  0.97791158372E+03  0.00000000000E+00 0.  1.
         -1    1    6    6    0  502 -0.32385592397E+02 -0.21493926345E+03 -0.12156311901E+02  0.21770505159E+03  0.00000000000E+00 0.  1.
<mgrwt>
<rscale>  0 0.28472933E+04</rscale>
<asrwt>0</asrwt>
<pdfrwt beam="1">  1        2 0.28696007E+00 0.28472933E+04</pdfrwt>
<pdfrwt beam="2">  1       -2 0.16716920E+00 0.28472933E+04</pdfrwt>
<totfact> 0.15368103E+00</totfact>
</mgrwt>
</event>
<event>
12    1  0.1467288E-007  0.2785611E+04  0.7818608E-02  0.8307750E-01
         -2   -1    0    0    0  501 -0.00000000000E+00  0.00000000000E+00  0.60747132238E+03  0.60747132238E+03  0.00000000000E+00 0. -1.
          2   -1    0    0  501    0  0.00000000000E+00 -0.00000000000E+00 -0.31934128189E+04  0.31934128189E+04  0.00000000000E+00 0.  1.
         23    2    1    2    0    0  0.20571004608E+03 -0.16248256057E+03 -0.28189942279E+04  0.28326576008E+04  0.92213993704E+02 0.  0.
        254    2    1    2    0    0 -0.20571004608E+03  0.16248256057E+03  0.23305273142E+03  0.96822654047E+03  0.90245878161E+03 0.  0.
        -24    2    4    4    0    0  0.16963236909E+03  0.83926159659E+02  0.46735295380E+03  0.51180354500E+03  0.87780090756E+02 0.  0.
         24    2    4    4    0    0 -0.37534241517E+03  0.78556400914E+02 -0.23430022237E+03  0.45642299547E+03  0.79826811527E+02 0.  0.
         13    1    3    3    0    0  0.18063672667E+03 -0.94227623266E+02 -0.21974110635E+04  0.22068357107E+04  0.00000000000E+00 0.  1.
        -13    1    3    3    0    0  0.25073319413E+02 -0.68254937307E+02 -0.62158316448E+03  0.62582189014E+03  0.00000000000E+00 0. -1.
          4    1    6    6  502    0 -0.67054296757E+02 -0.14850380501E+02 -0.53232548138E+02  0.86893709185E+02  0.00000000000E+00 0. -1.
          1    1    5    5  503    0  0.49509685916E+02 -0.16145128428E+02  0.10720733051E+03  0.11918592990E+03  0.00000000000E+00 0. -1.
         -2    1    5    5    0  503  0.12012268318E+03  0.10007128809E+03  0.36014562329E+03  0.39261761510E+03  0.00000000000E+00 0.  1.
         -3    1    6    6    0  502 -0.30828811841E+03  0.93406781415E+02 -0.18106767424E+03  0.36952928629E+03  0.00000000000E+00 0.  1.
<mgrwt>
<rscale>  0 0.27856107E+04</rscale>
<asrwt>0</asrwt>
<pdfrwt beam="1">  1        2 0.49129429E+00 0.27856107E+04</pdfrwt>
<pdfrwt beam="2">  1       -2 0.93457125E-01 0.27856107E+04</pdfrwt>
<totfact> 0.11044277E+00</totfact>
</mgrwt>
</event>
<event>
12    1  0.1467288E-007  0.1681048E+04  0.7818608E-02  0.8772248E-01
         -2   -1    0    0    0  501 -0.00000000000E+00  0.00000000000E+00  0.70431991966E+03  0.70431991966E+03  0.00000000000E+00 0.  1.
          2   -1    0    0  501    0  0.00000000000E+00 -0.00000000000E+00 -0.10030679830E+04  0.10030679830E+04  0.00000000000E+00 0. -1.
         23    2    1    2    0    0 -0.59039975421E+03 -0.54113737824E+02 -0.14375382368E+03  0.61735319830E+03  0.94655392000E+02 0.  0.
        254    2    1    2    0    0  0.59039975421E+03  0.54113737824E+02 -0.15499423965E+03  0.10900347043E+04  0.90147228241E+03 0.  0.
        -24    2    4    4    0    0  0.49958569726E+03 -0.82254808358E+02 -0.48961387202E+03  0.70883196332E+03  0.79807807492E+02 0.  0.
         24    2    4    4    0    0  0.90814056947E+02  0.13636854618E+03  0.33461963237E+03  0.38120274102E+03  0.80632859728E+02 0.  0.
         11    1    3    3    0    0 -0.51669524364E+03 -0.38566614684E+02 -0.92710906463E+02  0.52636172994E+03  0.00000000000E+00 0.  1.
        -11    1    3    3    0    0 -0.73704510576E+02 -0.15547123139E+02 -0.51042917217E+02  0.90991468365E+02  0.00000000000E+00 0. -1.
          2    1    6    6  502    0  0.26528071781E+02  0.10994266249E+03  0.20837830598E+03  0.23709206235E+03  0.00000000000E+00 0. -1.
          3    1    5    5  503    0  0.48991188585E+03 -0.78682734120E+02 -0.49143003285E+03  0.69836101390E+03  0.00000000000E+00 0. -1.
         -4    1    5    5    0  503  0.96738114094E+01 -0.35720742380E+01  0.18161608279E+01  0.10470949417E+02  0.00000000000E+00 0.  1.
         -1    1    6    6    0  502  0.64285985166E+02  0.26425883694E+02  0.12624132639E+03  0.14411067867E+03  0.00000000000E+00 0.  1.
<mgrwt>
<rscale>  0 0.16810482E+04</rscale>
<asrwt>0</asrwt>
<pdfrwt beam="1">  1        2 0.15431815E+00 0.16810482E+04</pdfrwt>
<pdfrwt beam="2">  1       -2 0.10835691E+00 0.16810482E+04</pdfrwt>
<totfact> 0.16284080E+01</totfact>
</mgrwt>
</event>
<event>
12    1  0.1467288E-007  0.1810810E+04  0.7818608E-02  0.8700572E-01
          2   -1    0    0  501    0  0.00000000000E+00  0.00000000000E+00  0.80164922282E+03  0.80164922282E+03  0.00000000000E+00 0. -1.
         -2   -1    0    0    0  501 -0.00000000000E+00 -0.00000000000E+00 -0.10225895789E+04  0.10225895789E+04  0.00000000000E+00 0.  1.
         23    2    1    2    0    0 -0.46606698740E+03 -0.24915908193E+03  0.35214337641E+03  0.64162615577E+03  0.91544969048E+02 0.  0.
        254    2    1    2    0    0  0.46606698740E+03  0.24915908193E+03 -0.57308373245E+03  0.11826126459E+04  0.88929692511E+03 0.  0.
        -24    2    4    4    0    0 -0.22978466317E+03  0.14699377243E+03 -0.32839126524E+03  0.43397713953E+03  0.78020343418E+02 0.  0.
         24    2    4    4    0    0  0.69585165057E+03  0.10216530950E+03 -0.24469246721E+03  0.74863550638E+03  0.77028876571E+02 0.  0.
         11    1    3    3    0    0 -0.46090660552E+03 -0.25612257959E+03  0.34303018739E+03  0.62904958807E+03  0.00000000000E+00 0. -1.
        -11    1    3    3    0    0 -0.51603818767E+01  0.69634976606E+01  0.91131890272E+01  0.12576567697E+02  0.00000000000E+00 0.  1.
          2    1    6    6  502    0  0.61983155640E+03  0.79265902432E+02 -0.19344010838E+03  0.65413554951E+03  0.00000000000E+00 0. -1.
          3    1    5    5  503    0 -0.13007395940E+03  0.11939731773E+03 -0.17223234542E+03  0.24665549904E+03  0.00000000000E+00 0. -1.
         -4    1    5    5    0  503 -0.99710703769E+02  0.27596454699E+02 -0.15615891982E+03  0.18732164049E+03  0.00000000000E+00 0.  1.
         -1    1    6    6    0  502  0.76020094168E+02  0.22899407067E+02 -0.51252358838E+02  0.94499956866E+02  0.00000000000E+00 0.  1.
<mgrwt>
<rscale>  0 0.18108099E+04</rscale>
<asrwt>0</asrwt>
<pdfrwt beam="1">  1        2 0.12333065E+00 0.18108099E+04</pdfrwt>
<pdfrwt beam="2">  1       -2 0.15732147E+00 0.18108099E+04</pdfrwt>
<totfact> 0.85413454E+00</totfact>
</mgrwt>
</event>
<event>
12    1  0.1467288E-007  0.1098794E+04  0.7818608E-02  0.9206368E-01
          2   -1    0    0  501    0  0.00000000000E+00  0.00000000000E+00  0.20779964765E+04  0.20779964765E+04  0.00000000000E+00 0. -1.
         -2   -1    0    0    0  501 -0.00000000000E+00 -0.00000000000E+00 -0.14525386249E+03  0.14525386249E+03  0.00000000000E+00 0.  1.
         23    2    1    2    0    0  0.69846852511E+02 -0.41714768301E+02  0.56944021957E+03  0.58238582940E+03  0.91062538554E+02 0.  0.
        254    2    1    2    0    0 -0.69846852511E+02  0.41714768301E+02  0.13633023945E+04  0.16408645096E+04  0.90951867241E+03 0.  0.
        -24    2    4    4    0    0  0.32383717616E+03 -0.60773930497E+02  0.10982446861E+04  0.11495996379E+04  0.82909286012E+02 0.  0.
         24    2    4    4    0    0 -0.39368402867E+03  0.10248869880E+03  0.26505770841E+03  0.49126487172E+03  0.74796641547E+02 0.  0.
         13    1    3    3    0    0  0.64021002171E+02 -0.27751089986E+02  0.18616397995E+03  0.19881106394E+03  0.00000000000E+00 0.  1.
        -13    1    3    3    0    0  0.58258503408E+01 -0.13963678315E+02  0.38327623961E+03  0.38357476546E+03  0.00000000000E+00 0. -1.
          2    1    6    6  502    0 -0.14644490185E+03  0.13801650101E+01  0.89901616780E+02  0.17184386760E+03  0.00000000000E+00 0. -1.
          1    1    5    5  503    0  0.25442824799E+02 -0.20299679230E+02  0.56486065399E+02  0.65192713511E+02  0.00000000000E+00 0. -1.
         -2    1    5    5    0  503  0.29839435136E+03 -0.40474251267E+02  0.10417586207E+04  0.10844069244E+04  0.00000000000E+00 0.  1.
         -1    1    6    6    0  502 -0.24723912683E+03  0.10110853379E+03  0.17515609163E+03  0.31942100412E+03  0.00000000000E+00 0.  1.
<mgrwt>
<rscale>  0 0.10987939E+04</rscale>
<asrwt>0</asrwt>
<pdfrwt beam="1">  1        2 0.31969174E+00 0.10987939E+04</pdfrwt>
<pdfrwt beam="2">  1       -2 0.22346750E-01 0.10987939E+04</pdfrwt>
<totfact> 0.10570096E+02</totfact>
</mgrwt>
</event>
<event>
12    1  0.1467288E-007  0.2560479E+04  0.7818608E-02  0.8381751E-01
          1   -1    0    0  501    0  0.00000000000E+00  0.00000000000E+00  0.18565371532E+04  0.18565371532E+04  0.00000000000E+00 0. -1.
         -1   -1    0    0    0  501 -0.00000000000E+00 -0.00000000000E+00 -0.88283354331E+03  0.88283354331E+03  0.00000000000E+00 0.  1.
         23    2    1    2    0    0 -0.35022272879E+03 -0.88910912838E+03  0.10583086229E+04  0.14288039665E+04  0.91063887380E+02 0.  0.
        254    2    1    2    0    0  0.35022272879E+03  0.88910912838E+03 -0.84605012995E+02  0.13105667300E+04  0.89289201113E+03 0.  0.
        -24    2    4    4    0    0 -0.48044227063E+02  0.25363376489E+03 -0.40798155514E+03  0.48908729233E+03  0.78224649170E+02 0.  0.
         24    2    4    4    0    0  0.39826695586E+03  0.63547536349E+03  0.32337654214E+03  0.82147943764E+03  0.88377444634E+02 0.  0.
         13    1    3    3    0    0 -0.90966392881E+02 -0.16027629182E+03  0.24200710976E+03  0.30418878271E+03  0.00000000000E+00 0.  1.
        -13    1    3    3    0    0 -0.25925633591E+03 -0.72883283656E+03  0.81630151312E+03  0.11246151838E+04  0.00000000000E+00 0. -1.
          4    1    6    6  502    0  0.13784488993E+03  0.28147743098E+03  0.10343839977E+03  0.33004584587E+03  0.00000000000E+00 0. -1.
          1    1    5    5  503    0 -0.48652587223E+02  0.66632694159E+02 -0.13432456058E+03  0.15763907431E+03  0.00000000000E+00 0. -1.
         -2    1    5    5    0  503  0.60836016075E+00  0.18700107073E+03 -0.27365699456E+03  0.33144821802E+03  0.00000000000E+00 0.  1.
         -1    1    6    6    0  502  0.26042206592E+03  0.35399793251E+03  0.21993814237E+03  0.49143359176E+03  0.00000000000E+00 0.  1.
<mgrwt>
<rscale>  0 0.25604791E+04</rscale>
<asrwt>0</asrwt>
<pdfrwt beam="1">  1        1 0.28562110E+00 0.25604791E+04</pdfrwt>
<pdfrwt beam="2">  1       -1 0.13582055E+00 0.25604791E+04</pdfrwt>
<totfact> 0.14945083E+00</totfact>
</mgrwt>
</event>
<event>
12    1  0.1467288E-007  0.1178796E+04  0.7818608E-02  0.9131622E-01
          1   -1    0    0  501    0  0.00000000000E+00  0.00000000000E+00  0.12929209011E+04  0.12929209011E+04  0.00000000000E+00 0. -1.
         -1   -1    0    0    0  501 -0.00000000000E+00 -0.00000000000E+00 -0.26868612944E+03  0.26868612944E+03  0.00000000000E+00 0.  1.
         23    2    1    2    0    0  0.58047201512E+02  0.61756359887E+02 -0.66244229366E+02  0.14061708623E+03  0.90562362089E+02 0.  0.
        254    2    1    2    0    0 -0.58047201512E+02 -0.61756359887E+02  0.10904790010E+04  0.14209899443E+04  0.90712989399E+03 0.  0.
        -24    2    4    4    0    0  0.78053493735E+02  0.17192258175E+03 -0.77367155223E+02  0.21949607338E+03  0.80889600826E+02 0.  0.
         24    2    4    4    0    0 -0.13610069525E+03 -0.23367894164E+03  0.11678461563E+04  0.12014938709E+04  0.81201171158E+02 0.  0.
         11    1    3    3    0    0  0.58548297435E+02  0.17848403755E+01 -0.12086797070E+02  0.59809526424E+02  0.00000000000E+00 0. -1.
        -11    1    3    3    0    0 -0.50109592339E+00  0.59971519512E+02 -0.54157432296E+02  0.80807559811E+02  0.00000000000E+00 0.  1.
          4    1    6    6  502    0 -0.12103647091E+03 -0.14301359020E+03  0.86253361910E+03  0.88264769775E+03  0.00000000000E+00 0. -1.
          3    1    5    5  503    0  0.94573216931E+02  0.14715453247E+03 -0.59460909141E+02  0.18475429495E+03  0.00000000000E+00 0. -1.
         -4    1    5    5    0  503 -0.16519723196E+02  0.24768049281E+02 -0.17906246082E+02  0.34741778429E+02  0.00000000000E+00 0.  1.
         -3    1    6    6    0  502 -0.15064224332E+02 -0.90665351444E+02  0.30531253717E+03  0.31884617319E+03  0.00000000000E+00 0.  1.
<mgrwt>
<rscale>  0 0.11787958E+04</rscale>
<asrwt>0</asrwt>
<pdfrwt beam="1">  1        1 0.19891090E+00 0.11787958E+04</pdfrwt>
<pdfrwt beam="2">  1       -1 0.41336329E-01 0.11787958E+04</pdfrwt>
<totfact> 0.51988852E+01</totfact>
</mgrwt>
</event>
<event>
12    1  0.1467288E-007  0.1562233E+04  0.7818608E-02  0.8844092E-01
          4   -1    0    0  501    0  0.00000000000E+00  0.00000000000E+00  0.23014174729E+04  0.23014174729E+04  0.00000000000E+00 0. -1.
         -4   -1    0    0    0  501 -0.00000000000E+00 -0.00000000000E+00 -0.26511605891E+03  0.26511605891E+03  0.00000000000E+00 0.  1.
         23    2    1    2    0    0 -0.45855234764E+03  0.24405322080E+03  0.70414840779E+03  0.87964775782E+03  0.90127507054E+02 0.  0.
        254    2    1    2    0    0  0.45855234764E+03 -0.24405322080E+03  0.13321530062E+04  0.16868857740E+04  0.89505293277E+03 0.  0.
        -24    2    4    4    0    0  0.64270123648E+03  0.70234310843E+02  0.95480106164E+03  0.11558677233E+04  0.79921140285E+02 0.  0.
         24    2    4    4    0    0 -0.18414888884E+03 -0.31428753165E+03  0.37735194459E+03  0.53101805071E+03  0.83055489203E+02 0.  0.
         13    1    3    3    0    0 -0.39112416389E+03  0.18273094152E+03  0.62074449129E+03  0.75610345326E+03  0.00000000000E+00 0. -1.
        -13    1    3    3    0    0 -0.67428183755E+02  0.61322279284E+02  0.83403916499E+02  0.12354430456E+03  0.00000000000E+00 0.  1.
          2    1    6    6  502    0 -0.17042414047E+03 -0.24025154622E+03  0.26788927767E+03  0.39815808193E+03  0.00000000000E+00 0. -1.
          3    1    5    5  503    0  0.49230218575E+03  0.37640241279E+02  0.77830234906E+03  0.92170102333E+03  0.00000000000E+00 0. -1.
         -4    1    5    5    0  503  0.15039905074E+03  0.32594069564E+02  0.17649871258E+03  0.23416669997E+03  0.00000000000E+00 0.  1.
         -1    1    6    6    0  502 -0.13724748375E+02 -0.74035985429E+02  0.10946266692E+03  0.13285996878E+03  0.00000000000E+00 0.  1.
<mgrwt>
<rscale>  0 0.15622327E+04</rscale>
<asrwt>0</asrwt>
<pdfrwt beam="1">  1        4 0.35406421E+00 0.15622327E+04</pdfrwt>
<pdfrwt beam="2">  1       -4 0.40787088E-01 0.15622327E+04</pdfrwt>
<totfact> 0.15892578E-01</totfact>
</mgrwt>
</event>
<event>
12    1  0.1467288E-007  0.1459827E+04  0.7818608E-02  0.8911616E-01
          2   -1    0    0  501    0  0.00000000000E+00  0.00000000000E+00  0.70364661020E+03  0.70364661020E+03  0.00000000000E+00 0. -1.
         -2   -1    0    0    0  501 -0.00000000000E+00 -0.00000000000E+00 -0.75716057088E+03  0.75716057088E+03  0.00000000000E+00 0.  1.
         23    2    1    2    0    0 -0.35594193131E+03 -0.24269959126E+03 -0.14350364428E+03  0.46354933819E+03  0.93203771146E+02 0.  0.
        254    2    1    2    0    0  0.35594193131E+03  0.24269959126E+03  0.89989683602E+02  0.99725784288E+03  0.89488955294E+03 0.  0.
        -24    2    4    4    0    0 -0.14156079193E+03  0.16829553023E+03 -0.28112675533E+03  0.36715043894E+03  0.86048526708E+02 0.  0.
         24    2    4    4    0    0  0.49750272324E+03  0.74404061035E+02  0.37111643893E+03  0.63010740393E+03  0.79139151626E+02 0.  0.
         11    1    3    3    0    0 -0.20705517308E+03 -0.12827163065E+03 -0.12794173868E+03  0.27512641536E+03  0.00000000000E+00 0.  1.
        -11    1    3    3    0    0 -0.14888675823E+03 -0.11442796061E+03 -0.15561905598E+02  0.18842292284E+03  0.00000000000E+00 0. -1.
          2    1    6    6  502    0  0.41688687134E+03  0.33144580306E+02  0.31508683000E+03  0.52361525679E+03  0.00000000000E+00 0. -1.
          3    1    5    5  503    0 -0.98170788559E+02  0.16572480647E+03 -0.23266668283E+03  0.30205297632E+03  0.00000000000E+00 0. -1.
         -4    1    5    5    0  503 -0.43390003371E+02  0.25707237562E+01 -0.48460072495E+02  0.65097462619E+02  0.00000000000E+00 0.  1.
         -1    1    6    6    0  502  0.80615851901E+02  0.41259480729E+02  0.56029608925E+02  0.10649214715E+03  0.00000000000E+00 0.  1.
<mgrwt>
<rscale>  0 0.14598267E+04</rscale>
<asrwt>0</asrwt>
<pdfrwt beam="1">  1        2 0.10825332E+00 0.14598267E+04</pdfrwt>
<pdfrwt beam="2">  1       -2 0.11648624E+00 0.14598267E+04</pdfrwt>
<totfact> 0.22537766E+01</totfact>
</mgrwt>
</event>
<event>
12    1  0.1467288E-007  0.1245967E+04  0.7818608E-02  0.9073546E-01
         -1   -1    0    0    0  501 -0.00000000000E+00  0.00000000000E+00  0.49629814122E+03  0.49629814122E+03  0.00000000000E+00 0.  1.
          1   -1    0    0  501    0  0.00000000000E+00 -0.00000000000E+00 -0.78200703311E+03  0.78200703311E+03  0.00000000000E+00 0. -1.
         23    2    1    2    0    0 -0.77054633126E+02 -0.92125747204E+02  0.19597944635E+03  0.24839303142E+03  0.94162545008E+02 0.  0.
        254    2    1    2    0    0  0.77054633126E+02  0.92125747204E+02 -0.48168833823E+03  0.10299121429E+04  0.90236954578E+03 0.  0.
        -24    2    4    4    0    0 -0.28485217177E+03  0.33219927392E+03 -0.35673040884E+03  0.57026419192E+03  0.80296616626E+02 0.  0.
         24    2    4    4    0    0  0.36190680489E+03 -0.24007352672E+03 -0.12495792939E+03  0.45964795099E+03  0.83963808122E+02 0.  0.
         13    1    3    3    0    0 -0.18790880009E+01 -0.74034326569E+02  0.80150351770E+02  0.10912695071E+03  0.00000000000E+00 0.  1.
        -13    1    3    3    0    0 -0.75175545125E+02 -0.18091420635E+02  0.11582909458E+03  0.13926608071E+03  0.00000000000E+00 0. -1.
          4    1    6    6  502    0  0.16062008006E+03 -0.89601490859E+02 -0.12573960061E+02  0.18435113711E+03  0.00000000000E+00 0. -1.
          3    1    5    5  503    0 -0.24977419004E+03  0.27094013484E+03 -0.33036179312E+03  0.49490869566E+03  0.00000000000E+00 0. -1.
         -4    1    5    5    0  503 -0.35077981721E+02  0.61259139079E+02 -0.26368615717E+02  0.75355496264E+02  0.00000000000E+00 0.  1.
         -3    1    6    6    0  502  0.20128672483E+03 -0.15047203586E+03 -0.11238396933E+03  0.27529681388E+03  0.00000000000E+00 0.  1.
<mgrwt>
<rscale>  0 0.12459673E+04</rscale>
<asrwt>0</asrwt>
<pdfrwt beam="1">  1        1 0.12030878E+00 0.12459673E+04</pdfrwt>
<pdfrwt beam="2">  1       -1 0.76353560E-01 0.12459673E+04</pdfrwt>
<totfact> 0.38964665E+01</totfact>
</mgrwt>
</event>
<event>
12    1  0.1467288E-007  0.2055162E+04  0.7818608E-02  0.8581256E-01
          1   -1    0    0  501    0  0.00000000000E+00  0.00000000000E+00  0.21179146744E+04  0.21179146744E+04  0.00000000000E+00 0. -1.
         -1   -1    0    0    0  501 -0.00000000000E+00 -0.00000000000E+00 -0.49856698951E+03  0.49856698951E+03  0.00000000000E+00 0.  1.
         23    2    1    2    0    0  0.53232500704E+03 -0.11958238680E+03  0.14398054101E+04  0.15422206626E+04  0.87949375402E+02 0.  0.
        254    2    1    2    0    0 -0.53232500704E+03  0.11958238680E+03  0.17954227480E+03  0.10742610014E+04  0.90781683742E+03 0.  0.
        -24    2    4    4    0    0 -0.55200671320E+03 -0.16210465076E+03  0.40161221628E+03  0.70614728556E+03  0.79763948115E+02 0.  0.
         24    2    4    4    0    0  0.19681706167E+02  0.28168703755E+03 -0.22206994148E+03  0.36811371582E+03  0.80359767174E+02 0.  0.
         13    1    3    3    0    0  0.16504301290E+01  0.56262383511E+01  0.31667609155E+02  0.32205837160E+02  0.00000000000E+00 0.  1.
        -13    1    3    3    0    0  0.53067457691E+03 -0.12520862515E+03  0.14081378010E+04  0.15100148254E+04  0.00000000000E+00 0. -1.
          2    1    6    6  502    0 -0.76495727501E+01  0.15345242318E+03 -0.16396302136E+03  0.22469987654E+03  0.00000000000E+00 0. -1.
          1    1    5    5  503    0 -0.41529292642E+03 -0.14664312631E+03  0.27539103498E+03  0.51943492699E+03  0.00000000000E+00 0. -1.
         -2    1    5    5    0  503 -0.13671378679E+03 -0.15461524454E+02  0.12622118130E+03  0.18671235857E+03  0.00000000000E+00 0.  1.
         -1    1    6    6    0  502  0.27331278917E+02  0.12823461437E+03 -0.58106920124E+02  0.14341383928E+03  0.00000000000E+00 0.  1.
<mgrwt>
<rscale>  0 0.20551616E+04</rscale>
<asrwt>0</asrwt>
<pdfrwt beam="1">  1        1 0.32583302E+00 0.20551616E+04</pdfrwt>
<pdfrwt beam="2">  1       -1 0.76702615E-01 0.20551616E+04</pdfrwt>
<totfact> 0.39016029E+00</totfact>
</mgrwt>
</event>
<event>
12    1  0.1467288E-007  0.1901195E+04  0.7818608E-02  0.8654262E-01
          2   -1    0    0  501    0  0.00000000000E+00  0.00000000000E+00  0.84152382091E+03  0.84152382091E+03  0.00000000000E+00 0. -1.
         -2   -1    0    0    0  501 -0.00000000000E+00 -0.00000000000E+00 -0.10738082818E+04  0.10738082818E+04  0.00000000000E+00 0.  1.
         23    2    1    2    0    0  0.27575276535E+03  0.59483147848E+03  0.23886773649E+03  0.70501795955E+03  0.10064021245E+03 0.  0.
        254    2    1    2    0    0 -0.27575276535E+03 -0.59483147848E+03 -0.47115219743E+03  0.12103141432E+04  0.90167170119E+03 0.  0.
        -24    2    4    4    0    0 -0.27310301412E+03  0.17909052540E+03 -0.13306825926E+03  0.36204140356E+03  0.81903257950E+02 0.  0.
         24    2    4    4    0    0 -0.26497512303E+01 -0.77392200388E+03 -0.33808393817E+03  0.84827273965E+03  0.79395228467E+02 0.  0.
         11    1    3    3    0    0  0.23817905073E+03  0.51550813829E+03  0.24177449447E+03  0.61719754296E+03  0.00000000000E+00 0. -1.
        -11    1    3    3    0    0  0.37573714614E+02  0.79323340189E+02 -0.29067579809E+01  0.87820416593E+02  0.00000000000E+00 0.  1.
          4    1    6    6  502    0  0.18962141042E+01 -0.15312047282E+03 -0.33461791524E+02  0.15674554640E+03  0.00000000000E+00 0. -1.
          1    1    5    5  503    0  0.43133751631E+01  0.98270806275E+01  0.36330235501E+00  0.10738189212E+02  0.00000000000E+00 0. -1.
         -2    1    5    5    0  503 -0.27741638928E+03  0.16926344477E+03 -0.13343156161E+03  0.35130321435E+03  0.00000000000E+00 0.  1.
         -3    1    6    6    0  502 -0.45459653345E+01 -0.62080153106E+03 -0.30462214664E+03  0.69152719324E+03  0.00000000000E+00 0.  1.
<mgrwt>
<rscale>  0 0.19011946E+04</rscale>
<asrwt>0</asrwt>
<pdfrwt beam="1">  1        2 0.12946520E+00 0.19011946E+04</pdfrwt>
<pdfrwt beam="2">  1       -2 0.16520127E+00 0.19011946E+04</pdfrwt>
<totfact> 0.69498438E+00</totfact>
</mgrwt>
</event>
<event>
12    1  0.1467288E-007  0.1631940E+04  0.7818608E-02  0.8801163E-01
          2   -1    0    0  501    0  0.00000000000E+00  0.00000000000E+00  0.15010318783E+04  0.15010318783E+04  0.00000000000E+00 0. -1.
         -2   -1    0    0    0  501 -0.00000000000E+00 -0.00000000000E+00 -0.44356615015E+03  0.44356615015E+03  0.00000000000E+00 0.  1.
         23    2    1    2    0    0  0.29654700208E+03  0.40878078275E+03  0.58060362846E+02  0.51625269153E+03  0.90022125052E+02 0.  0.
        254    2    1    2    0    0 -0.29654700208E+03 -0.40878078275E+03  0.99940536526E+03  0.14283453369E+04  0.88674543386E+03 0.  0.
        -24    2    4    4    0    0 -0.21667101486E+03 -0.55553346684E+03  0.10717757865E+04  0.12292441740E+04  0.82305172257E+02 0.  0.
         24    2    4    4    0    0 -0.79875987214E+02  0.14675268409E+03 -0.72370421264E+02  0.19910116283E+03  0.80543600288E+02 0.  0.
         11    1    3    3    0    0  0.21314200750E+03  0.31452827527E+03  0.58310932511E+01  0.37998888530E+03  0.00000000000E+00 0.  1.
        -11    1    3    3    0    0  0.83404994580E+02  0.94252507474E+02  0.52229269595E+02  0.13626380623E+03  0.00000000000E+00 0. -1.
          2    1    6    6  502    0 -0.66394995987E+02  0.11801785791E+03 -0.18630521975E+02  0.13668799006E+03  0.00000000000E+00 0. -1.
          1    1    5    5  503    0 -0.19426804256E+03 -0.52582919414E+03  0.96290192541E+03  0.11141887325E+04  0.00000000000E+00 0. -1.
         -4    1    5    5    0  503 -0.22402972299E+02 -0.29704272696E+02  0.10887386111E+03  0.11505544149E+03  0.00000000000E+00 0.  1.
         -1    1    6    6    0  502 -0.13480991227E+02  0.28734826178E+02 -0.53739899289E+02  0.62413172773E+02  0.00000000000E+00 0.  1.
<mgrwt>
<rscale>  0 0.16319399E+04</rscale>
<asrwt>0</asrwt>
<pdfrwt beam="1">  1        2 0.23092798E+00 0.16319399E+04</pdfrwt>
<pdfrwt beam="2">  1       -2 0.68240947E-01 0.16319399E+04</pdfrwt>
<totfact> 0.23826696E+01</totfact>
</mgrwt>
</event>
<event>
12    1  0.1467288E-007  0.2479543E+04  0.7818608E-02  0.8410310E-01
         -1   -1    0    0    0  501 -0.00000000000E+00  0.00000000000E+00  0.61660985286E+03  0.61660985286E+03  0.00000000000E+00 0.  1.
          1   -1    0    0  501    0  0.00000000000E+00 -0.00000000000E+00 -0.24927155711E+04  0.24927155711E+04  0.00000000000E+00 0. -1.
         23    2    1    2    0    0 -0.51520683756E+03  0.82250742125E+03 -0.28316645718E+03  0.10151510312E+04  0.91606933225E+02 0.  0.
        254    2    1    2    0    0  0.51520683756E+03 -0.82250742125E+03 -0.15929392610E+04  0.20941743927E+04  0.95192140133E+03 0.  0.
        -24    2    4    4    0    0  0.75813061082E+02 -0.82982072455E+03 -0.13425691402E+04  0.15821430730E+04  0.79591155597E+02 0.  0.
         24    2    4    4    0    0  0.43939377648E+03  0.73133033057E+01 -0.25037012077E+03  0.51203131968E+03  0.79815410462E+02 0.  0.
         11    1    3    3    0    0 -0.20185105933E+02  0.73192163433E+02 -0.10771467553E+02  0.76684782081E+02  0.00000000000E+00 0. -1.
        -11    1    3    3    0    0 -0.49502173163E+03  0.74931525781E+03 -0.27239498963E+03  0.93846624913E+03  0.00000000000E+00 0.  1.
          4    1    6    6  502    0  0.71917480975E+02  0.16593921097E+02 -0.73271108980E+02  0.10400066201E+03  0.00000000000E+00 0. -1.
          1    1    5    5  503    0 -0.14532381567E+02 -0.74975998250E+02 -0.13838476078E+03  0.15805990144E+03  0.00000000000E+00 0. -1.
         -2    1    5    5    0  503  0.90345442649E+02 -0.75484472630E+03 -0.12041843795E+04  0.14240831716E+04  0.00000000000E+00 0.  1.
         -3    1    6    6    0  502  0.36747629551E+03 -0.92806177910E+01 -0.17709901179E+03  0.40803065767E+03  0.00000000000E+00 0.  1.
<mgrwt>
<rscale>  0 0.24795427E+04</rscale>
<asrwt>0</asrwt>
<pdfrwt beam="1">  1        1 0.38349470E+00 0.24795427E+04</pdfrwt>
<pdfrwt beam="2">  1       -1 0.94863054E-01 0.24795427E+04</pdfrwt>
<totfact> 0.13099735E+00</totfact>
</mgrwt>
</event>
<event>
12    1  0.1467288E-007  0.2148768E+04  0.7818608E-02  0.8540060E-01
         -1   -1    0    0    0  501 -0.00000000000E+00  0.00000000000E+00  0.10411762080E+04  0.10411762080E+04  0.00000000000E+00 0.  1.
          1   -1    0    0  501    0  0.00000000000E+00 -0.00000000000E+00 -0.11086506282E+04  0.11086506282E+04  0.00000000000E+00 0. -1.
         23    2    1    2    0    0  0.52204920971E+03  0.68795777677E+03  0.16685900394E+03  0.88428362458E+03  0.91073165857E+02 0.  0.
        254    2    1    2    0    0 -0.52204920971E+03 -0.68795777677E+03 -0.23433342416E+03  0.12655432116E+04  0.89491127309E+03 0.  0.
        -24    2    4    4    0    0  0.41587413286E+02 -0.24720681604E+03  0.27758170897E+03  0.38204556493E+03  0.77887647856E+02 0.  0.
         24    2    4    4    0    0 -0.56363662299E+03 -0.44075096072E+03 -0.51191513313E+03  0.88349764664E+03  0.81014418013E+02 0.  0.
         11    1    3    3    0    0  0.49708106712E+02  0.46568654792E+02 -0.85607553605E+01  0.68649996463E+02  0.00000000000E+00 0. -1.
        -11    1    3    3    0    0  0.47234110300E+03  0.64138912197E+03  0.17541975930E+03  0.81563362812E+03  0.00000000000E+00 0.  1.
          2    1    6    6  502    0 -0.66825700943E+02 -0.23324311622E+02 -0.41779061568E+02  0.82189949536E+02  0.00000000000E+00 0. -1.
          1    1    5    5  503    0  0.16290830394E+01  0.33996022490E+01  0.20375227848E+02  0.20721030786E+02  0.00000000000E+00 0. -1.
         -2    1    5    5    0  503  0.39958330246E+02 -0.25060641829E+03  0.25720648112E+03  0.36132453415E+03  0.00000000000E+00 0.  1.
         -1    1    6    6    0  502 -0.49681092205E+03 -0.41742664910E+03 -0.47013607157E+03  0.80130769710E+03  0.00000000000E+00 0.  1.
<mgrwt>
<rscale>  0 0.21487677E+04</rscale>
<asrwt>0</asrwt>
<pdfrwt beam="1">  1        1 0.17056164E+00 0.21487677E+04</pdfrwt>
<pdfrwt beam="2">  1       -1 0.16018096E+00 0.21487677E+04</pdfrwt>
<totfact> 0.33324052E+00</totfact>
</mgrwt>
</event>
<event>
12    1  0.1467288E-007  0.1796317E+04  0.7818608E-02  0.8708261E-01
          2   -1    0    0  501    0  0.00000000000E+00  0.00000000000E+00  0.28268339870E+04  0.28268339870E+04  0.00000000000E+00 0. -1.
         -2   -1    0    0    0  501 -0.00000000000E+00 -0.00000000000E+00 -0.28536819158E+03  0.28536819158E+03  0.00000000000E+00 0.  1.
         23    2    1    2    0    0  0.19711573142E+02  0.23782407893E+03  0.20161653076E+04  0.20322431734E+04  0.90227099110E+02 0.  0.
        254    2    1    2    0    0 -0.19711573142E+02 -0.23782407893E+03  0.52530048774E+03  0.10799590052E+04  0.91291949905E+03 0.  0.
        -24    2    4    4    0    0 -0.21074525403E+03  0.15686103964E+03 -0.11667736472E+03  0.29843015095E+03  0.80174807193E+02 0.  0.
         24    2    4    4    0    0  0.19103368089E+03 -0.39468511856E+03  0.64197785246E+03  0.78152885420E+03  0.79884772315E+02 0.  0.
         11    1    3    3    0    0 -0.45757864945E+01  0.22914225658E+03  0.17905064317E+04  0.18051150638E+04  0.00000000000E+00 0. -1.
        -11    1    3    3    0    0  0.24287359636E+02  0.86818223474E+01  0.22565887594E+03  0.22712810960E+03  0.00000000000E+00 0.  1.
          2    1    6    6  502    0 -0.78203699053E+00  0.25397291004E+01  0.13119005526E+02  0.13385444026E+02  0.00000000000E+00 0. -1.
          1    1    5    5  503    0 -0.24751636396E+02 -0.75565997962E+01 -0.56677904449E+01  0.26492820788E+02  0.00000000000E+00 0. -1.
         -2    1    5    5    0  503 -0.18599361763E+03  0.16441763943E+03 -0.11100957427E+03  0.27193733016E+03  0.00000000000E+00 0.  1.
         -1    1    6    6    0  502  0.19181571788E+03 -0.39722484766E+03  0.62885884694E+03  0.76814341017E+03  0.00000000000E+00 0.  1.
<mgrwt>
<rscale>  0 0.17963168E+04</rscale>
<asrwt>0</asrwt>
<pdfrwt beam="1">  1        2 0.43489752E+00 0.17963168E+04</pdfrwt>
<pdfrwt beam="2">  1       -2 0.43902801E-01 0.17963168E+04</pdfrwt>
<totfact> 0.10377233E+01</totfact>
</mgrwt>
</event>
<event>
12    1  0.1467288E-007  0.1284552E+04  0.7818608E-02  0.9041906E-01
          2   -1    0    0  501    0  0.00000000000E+00  0.00000000000E+00  0.86750502955E+03  0.86750502955E+03  0.00000000000E+00 0. -1.
         -2   -1    0    0    0  501 -0.00000000000E+00 -0.00000000000E+00 -0.47552267811E+03  0.47552267811E+03  0.00000000000E+00 0.  1.
         23    2    1    2    0    0  0.67942594606E+02 -0.16347055148E+03 -0.17660717628E+03  0.26607642684E+03  0.90927184287E+02 0.  0.
        254    2    1    2    0    0 -0.67942594606E+02  0.16347055148E+03  0.56858952771E+03  0.10769512808E+04  0.89732446355E+03 0.  0.
        -24    2    4    4    0    0 -0.92598345018E+02  0.52500266016E+03  0.28370100360E+03  0.60902758397E+03  0.78905588602E+02 0.  0.
         24    2    4    4    0    0  0.24655750412E+02 -0.36153210868E+03  0.28488852411E+03  0.46792369686E+03  0.80484428815E+02 0.  0.
         11    1    3    3    0    0 -0.14659771795E+02 -0.83974425665E+01  0.86556679521E-01  0.16894775607E+02  0.00000000000E+00 0. -1.
        -11    1    3    3    0    0  0.82602366402E+02 -0.15507310892E+03 -0.17669373296E+03  0.24918165123E+03  0.00000000000E+00 0.  1.
          2    1    6    6  502    0  0.21140695449E+02 -0.69705227668E+02  0.24644896548E+02  0.76896805487E+02  0.00000000000E+00 0. -1.
          3    1    5    5  503    0 -0.19483633478E+02  0.24062607280E+02  0.57354045896E+01  0.31488345596E+02  0.00000000000E+00 0. -1.
         -4    1    5    5    0  503 -0.73114711540E+02  0.50094005288E+03  0.27796559901E+03  0.57753923837E+03  0.00000000000E+00 0.  1.
         -1    1    6    6    0  502  0.35150549632E+01 -0.29182688101E+03  0.26024362756E+03  0.39102689137E+03  0.00000000000E+00 0.  1.
<mgrwt>
<rscale>  0 0.12845518E+04</rscale>
<asrwt>0</asrwt>
<pdfrwt beam="1">  1        2 0.13346231E+00 0.12845518E+04</pdfrwt>
<pdfrwt beam="2">  1       -2 0.73157335E-01 0.12845518E+04</pdfrwt>
<totfact> 0.51111063E+01</totfact>
</mgrwt>
</event>
<event>
12    1  0.1542753E-007  0.1778624E+04  0.7818608E-02  0.8717750E-01
          1   -1    0    0  501    0  0.00000000000E+00  0.00000000000E+00  0.73188319929E+03  0.73188319929E+03  0.00000000000E+00 0. -1.
         -1   -1    0    0    0  501 -0.00000000000E+00 -0.00000000000E+00 -0.10806036220E+04  0.10806036220E+04  0.00000000000E+00 0.  1.
         23    2    1    2    0    0 -0.14526822440E+03 -0.61525115890E+03  0.58628143248E+02  0.64109898476E+03  0.89071900932E+02 0.  0.
        254    2    1    2    0    0  0.14526822440E+03  0.61525115890E+03 -0.40734856593E+03  0.11713878365E+04  0.89809785868E+03 0.  0.
        -24    2    4    4    0    0 -0.69725403684E+01 -0.12292865836E+03  0.16573453021E+03  0.22115101975E+03  0.79244985132E+02 0.  0.
         24    2    4    4    0    0  0.15224076477E+03  0.73817981726E+03 -0.57308309614E+03  0.95023681674E+03  0.80243876738E+02 0.  0.
         13    1    3    3    0    0 -0.10194093614E+03 -0.35772597086E+03 -0.62344727771E+01  0.37201974859E+03  0.00000000000E+00 0.  1.
        -13    1    3    3    0    0 -0.43327288261E+02 -0.25752518804E+03  0.64862616026E+02  0.26907923618E+03  0.00000000000E+00 0. -1.
          2    1    6    6  502    0  0.14144590358E+03  0.71992233841E+03 -0.54019037095E+03  0.91109865209E+03  0.00000000000E+00 0. -1.
          3    1    5    5  503    0 -0.41649066396E+01 -0.11590904402E+03  0.17452912032E+03  0.20955349382E+03  0.00000000000E+00 0. -1.
         -4    1    5    5    0  503 -0.28076337288E+01 -0.70196143312E+01 -0.87945901078E+01  0.11597525929E+02  0.00000000000E+00 0.  1.
         -1    1    6    6    0  502  0.10794861190E+02  0.18257478850E+02 -0.32892725187E+02  0.39138164652E+02  0.00000000000E+00 0.  1.
<mgrwt>
<rscale>  0 0.17786238E+04</rscale>
<asrwt>0</asrwt>
<pdfrwt beam="1">  1        1 0.11259742E+00 0.17786238E+04</pdfrwt>
<pdfrwt beam="2">  1       -1 0.16624671E+00 0.17786238E+04</pdfrwt>
<totfact> 0.63088837E+00</totfact>
</mgrwt>
</event>
<event>
12    1  0.1467288E-007  0.1573996E+04  0.7818608E-02  0.8836684E-01
          2   -1    0    0  501    0  0.00000000000E+00  0.00000000000E+00  0.10035675500E+04  0.10035675500E+04  0.00000000000E+00 0. -1.
         -2   -1    0    0    0  501 -0.00000000000E+00 -0.00000000000E+00 -0.61716402285E+03  0.61716402285E+03  0.00000000000E+00 0.  1.
         23    2    1    2    0    0  0.31150889972E+03  0.41954774061E+03  0.14699608898E+03  0.55087302101E+03  0.93782374897E+02 0.  0.
        254    2    1    2    0    0 -0.31150889972E+03 -0.41954774061E+03  0.23940743819E+03  0.10698585519E+04  0.90234322642E+03 0.  0.
        -24    2    4    4    0    0 -0.29670768267E+03 -0.14426819763E+03  0.55008252554E+03  0.64595966301E+03  0.76317360649E+02 0.  0.
         24    2    4    4    0    0 -0.14801217047E+02 -0.27527954299E+03 -0.31067508735E+03  0.42389888884E+03  0.84695662530E+02 0.  0.
         13    1    3    3    0    0  0.29842307972E+02  0.60842069466E+01  0.11564194354E+02  0.32577776326E+02  0.00000000000E+00 0. -1.
        -13    1    3    3    0    0  0.28166659175E+03  0.41346353367E+03  0.13543189463E+03  0.51829524468E+03  0.00000000000E+00 0.  1.
          4    1    6    6  502    0 -0.21356462399E+02 -0.11938845919E+02 -0.19835197632E+02  0.31497136269E+02  0.00000000000E+00 0. -1.
          3    1    5    5  503    0  0.17400446791E+00 -0.11287291150E+01 -0.23879110167E+01  0.26469654312E+01  0.00000000000E+00 0. -1.
         -2    1    5    5    0  503 -0.29688168714E+03 -0.14313946851E+03  0.55247043655E+03  0.64331269758E+03  0.00000000000E+00 0.  1.
         -3    1    6    6    0  502  0.65552453513E+01 -0.26334069707E+03 -0.29083988972E+03  0.39240175257E+03  0.00000000000E+00 0.  1.
<mgrwt>
<rscale>  0 0.15739959E+04</rscale>
<asrwt>0</asrwt>
<pdfrwt beam="1">  1        2 0.15439501E+00 0.15739959E+04</pdfrwt>
<pdfrwt beam="2">  1       -2 0.94948311E-01 0.15739959E+04</pdfrwt>
<totfact> 0.22470878E+01</totfact>
</mgrwt>
</event>
<event>
12    1  0.1467288E-007  0.1385296E+04  0.7818608E-02  0.8964532E-01
         -1   -1    0    0    0  501 -0.00000000000E+00  0.00000000000E+00  0.24933990180E+03  0.24933990180E+03  0.00000000000E+00 0.  1.
          1   -1    0    0  501    0  0.00000000000E+00 -0.00000000000E+00 -0.19241243851E+04  0.19241243851E+04  0.00000000000E+00 0. -1.
         23    2    1    2    0    0 -0.22684472407E+03 -0.63711543821E+02 -0.98775434314E+03  0.10194990841E+04  0.90565172691E+02 0.  0.
        254    2    1    2    0    0  0.22684472407E+03  0.63711543821E+02 -0.68703014016E+03  0.11539652028E+04  0.89672046148E+03 0.  0.
        -24    2    4    4    0    0  0.40684788616E+03  0.31990420703E+03 -0.18235442790E+03  0.55462270084E+03  0.80556183883E+02 0.  0.
         24    2    4    4    0    0 -0.18000316210E+03 -0.25619266321E+03 -0.50467571226E+03  0.59934250192E+03  0.80486278446E+02 0.  0.
         13    1    3    3    0    0 -0.12583177298E+03 -0.56466179416E+02 -0.40065663767E+03  0.42373081764E+03  0.00000000000E+00 0.  1.
        -13    1    3    3    0    0 -0.10101295109E+03 -0.72453644053E+01 -0.58709770547E+03  0.59576826649E+03  0.00000000000E+00 0. -1.
          2    1    6    6  502    0 -0.99795665354E+02 -0.20210829378E+03 -0.37551302616E+03  0.43796914281E+03  0.00000000000E+00 0. -1.
          1    1    5    5  503    0  0.26423266306E+03  0.25203045063E+03 -0.14026266553E+03  0.39116730898E+03  0.00000000000E+00 0. -1.
         -2    1    5    5    0  503  0.14261522311E+03  0.67873756397E+02 -0.42091762371E+02  0.16345539186E+03  0.00000000000E+00 0.  1.
         -1    1    6    6    0  502 -0.80207496744E+02 -0.54084369428E+02 -0.12916268610E+03  0.16137335911E+03  0.00000000000E+00 0.  1.
<mgrwt>
<rscale>  0 0.13852956E+04</rscale>
<asrwt>0</asrwt>
<pdfrwt beam="1">  1        1 0.29601912E+00 0.13852956E+04</pdfrwt>
<pdfrwt beam="2">  1       -1 0.38359987E-01 0.13852956E+04</pdfrwt>
<totfact> 0.21549774E+01</totfact>
</mgrwt>
</event>
<event>
12    1  0.1467288E-007  0.1428763E+04  0.7818608E-02  0.8933257E-01
         -1   -1    0    0    0  501 -0.00000000000E+00  0.00000000000E+00  0.29593066819E+03  0.29593066819E+03  0.00000000000E+00 0.  1.
          1   -1    0    0  501    0  0.00000000000E+00 -0.00000000000E+00 -0.17245298787E+04  0.17245298787E+04  0.00000000000E+00 0. -1.
         23    2    1    2    0    0  0.13465015426E+03 -0.38658140847E+03 -0.27711765549E+03  0.50274793737E+03  0.91572070696E+02 0.  0.
        254    2    1    2    0    0 -0.13465015426E+03  0.38658140847E+03 -0.11514815550E+04  0.15177126095E+04  0.89998107985E+03 0.  0.
        -24    2    4    4    0    0  0.36762362128E+03  0.13447277684E+03 -0.32436002189E+03  0.51464214368E+03  0.80106539163E+02 0.  0.
         24    2    4    4    0    0 -0.50227377553E+03  0.25210863164E+03 -0.82712153314E+03  0.10030704658E+04  0.78629645333E+02 0.  0.
         13    1    3    3    0    0  0.88402558886E+01 -0.11783101090E+03 -0.11371642843E+03  0.16399305885E+03  0.00000000000E+00 0. -1.
        -13    1    3    3    0    0  0.12580989837E+03 -0.26875039757E+03 -0.16340122705E+03  0.33875487852E+03  0.00000000000E+00 0.  1.
          2    1    6    6  502    0 -0.10596655836E+03  0.36644794986E+02 -0.21752750168E+03  0.24472426622E+03  0.00000000000E+00 0. -1.
          3    1    5    5  503    0  0.16588585258E+03  0.92287908072E+02 -0.19020487361E+03  0.26872489279E+03  0.00000000000E+00 0. -1.
         -4    1    5    5    0  503  0.20173776870E+03  0.42184868764E+02 -0.13415514828E+03  0.24591725088E+03  0.00000000000E+00 0.  1.
         -1    1    6    6    0  502 -0.39630721717E+03  0.21546383665E+03 -0.60959403147E+03  0.75834619963E+03  0.00000000000E+00 0.  1.
<mgrwt>
<rscale>  0 0.14287635E+04</rscale>
<asrwt>0</asrwt>
<pdfrwt beam="1">  1        1 0.26531229E+00 0.14287635E+04</pdfrwt>
<pdfrwt beam="2">  1       -1 0.45527795E-01 0.14287635E+04</pdfrwt>
<totfact> 0.21380663E+01</totfact>
</mgrwt>
</event>
<event>
12    1  0.1467288E-007  0.2452403E+04  0.7818608E-02  0.8420141E-01
          3   -1    0    0  501    0  0.00000000000E+00  0.00000000000E+00  0.10558005391E+04  0.10558005391E+04  0.00000000000E+00 0. -1.
         -3   -1    0    0    0  501 -0.00000000000E+00 -0.00000000000E+00 -0.14241041698E+04  0.14241041698E+04  0.00000000000E+00 0.  1.
         23    2    1    2    0    0  0.30164562205E+03  0.32285102399E+03  0.81604696337E+03  0.93248485354E+03  0.91501315044E+02 0.  0.
        254    2    1    2    0    0 -0.30164562205E+03 -0.32285102399E+03 -0.11843505941E+04  0.15474198554E+04  0.89252395723E+03 0.  0.
        -24    2    4    4    0    0  0.20985947704E+03 -0.37670556011E+03 -0.33710136924E+03  0.55310466766E+03  0.79620105045E+02 0.  0.
         24    2    4    4    0    0 -0.51150509909E+03  0.53854536114E+02 -0.84724922486E+03  0.99431518776E+03  0.79332629742E+02 0.  0.
         13    1    3    3    0    0  0.29667295947E+03  0.28183439800E+03  0.75518229260E+03  0.85892128151E+03  0.00000000000E+00 0. -1.
        -13    1    3    3    0    0  0.49726625767E+01  0.41016625995E+02  0.60864670772E+02  0.73563572026E+02  0.00000000000E+00 0.  1.
          2    1    6    6  502    0 -0.16357877207E+03  0.50452685740E+02 -0.31298788365E+03  0.35674206856E+03  0.00000000000E+00 0. -1.
          1    1    5    5  503    0  0.60962247935E+01 -0.86505084113E+01  0.41896281771E+01  0.11381925881E+02  0.00000000000E+00 0. -1.
         -2    1    5    5    0  503  0.20376325225E+03 -0.36805505169E+03 -0.34129099742E+03  0.54172274178E+03  0.00000000000E+00 0.  1.
         -1    1    6    6    0  502 -0.34792632703E+03  0.34018503745E+01 -0.53426134121E+03  0.63757311920E+03  0.00000000000E+00 0.  1.
<mgrwt>
<rscale>  0 0.24524029E+04</rscale>
<asrwt>0</asrwt>
<pdfrwt beam="1">  1        3 0.16243085E+00 0.24524029E+04</pdfrwt>
<pdfrwt beam="2">  1       -3 0.21909295E+00 0.24524029E+04</pdfrwt>
<totfact> 0.68250976E-02</totfact>
</mgrwt>
</event>
<event>
12    1  0.2193344E-007  0.2558887E+04  0.7818608E-02  0.8382302E-01
         -1   -1    0    0    0  501 -0.00000000000E+00  0.00000000000E+00  0.81579504529E+03  0.81579504529E+03  0.00000000000E+00 0.  1.
          1   -1    0    0  501    0  0.00000000000E+00 -0.00000000000E+00 -0.20066013407E+04  0.20066013407E+04  0.00000000000E+00 0. -1.
         23    2    1    2    0    0 -0.97194509280E+02  0.17656854339E+03  0.69225257459E+03  0.72706230956E+03  0.93716336928E+02 0.  0.
        254    2    1    2    0    0  0.97194509280E+02 -0.17656854339E+03 -0.18830588700E+04  0.20953340764E+04  0.89659966586E+03 0.  0.
        -24    2    4    4    0    0  0.88720985827E+02 -0.38938889272E+03 -0.32745209452E+03  0.52318057368E+03  0.83653543680E+02 0.  0.
         24    2    4    4    0    0  0.84735234534E+01  0.21282034933E+03 -0.15556067754E+04  0.15721535027E+04  0.79936816434E+02 0.  0.
         11    1    3    3    0    0 -0.66229202945E+02  0.17802451908E+03  0.56439487585E+03  0.59550030445E+03  0.00000000000E+00 0.  1.
        -11    1    3    3    0    0 -0.30965306335E+02 -0.14559756813E+01  0.12785769874E+03  0.13156200511E+03  0.00000000000E+00 0. -1.
          2    1    6    6  502    0 -0.45060828062E+01 -0.38024424787E+01 -0.12036505263E+02  0.13403014960E+02  0.00000000000E+00 0. -1.
          3    1    5    5  503    0 -0.15769382867E+02 -0.43790575689E+02 -0.29901442088E+02  0.55320739277E+02  0.00000000000E+00 0. -1.
         -4    1    5    5    0  503  0.10449036869E+03 -0.34559831703E+03 -0.29755065244E+03  0.46785983441E+03  0.00000000000E+00 0.  1.
         -1    1    6    6    0  502  0.12979606260E+02  0.21662279180E+03 -0.15435702702E+04  0.15587504878E+04  0.00000000000E+00 0.  1.
<mgrwt>
<rscale>  0 0.25588868E+04</rscale>
<asrwt>0</asrwt>
<pdfrwt beam="1">  1        1 0.30870790E+00 0.25588868E+04</pdfrwt>
<pdfrwt beam="2">  1       -1 0.12550693E+00 0.25588868E+04</pdfrwt>
<totfact> 0.14440160E+00</totfact>
</mgrwt>
</event>
<event>
12    1  0.1467288E-007  0.1910006E+04  0.7818608E-02  0.8649892E-01
         -2   -1    0    0    0  501 -0.00000000000E+00  0.00000000000E+00  0.10627479827E+04  0.10627479827E+04  0.00000000000E+00 0.  1.
          2   -1    0    0  501    0  0.00000000000E+00 -0.00000000000E+00 -0.85818128034E+03  0.85818128034E+03  0.00000000000E+00 0. -1.
         23    2    1    2    0    0  0.38185766438E+03 -0.57733724984E+03  0.33616782951E+03  0.77500765744E+03  0.92165522820E+02 0.  0.
        254    2    1    2    0    0 -0.38185766438E+03  0.57733724984E+03 -0.13160112714E+03  0.11459216056E+04  0.90370564547E+03 0.  0.
        -24    2    4    4    0    0 -0.45939307259E+03  0.69059805472E+03 -0.32618696650E+03  0.89494509790E+03  0.81000758103E+02 0.  0.
         24    2    4    4    0    0  0.77535408215E+02 -0.11326080488E+03  0.19458583936E+03  0.25097650772E+03  0.79283094657E+02 0.  0.
         13    1    3    3    0    0  0.84188010930E+02 -0.11602959793E+03  0.11232206106E+03  0.18211736375E+03  0.00000000000E+00 0. -1.
        -13    1    3    3    0    0  0.29766965345E+03 -0.46130765191E+03  0.22384576845E+03  0.59289029369E+03  0.00000000000E+00 0.  1.
          2    1    6    6  502    0  0.90948359218E+02 -0.11022641917E+03  0.18673537992E+03  0.23514159488E+03  0.00000000000E+00 0. -1.
          3    1    5    5  503    0 -0.31394649307E+03  0.49312301902E+03 -0.26688712123E+03  0.64262076521E+03  0.00000000000E+00 0. -1.
         -4    1    5    5    0  503 -0.14544657952E+03  0.19747503569E+03 -0.59299845267E+02  0.25232433269E+03  0.00000000000E+00 0.  1.
         -1    1    6    6    0  502 -0.13412951003E+02 -0.30343857080E+01  0.78504594361E+01  0.15834912838E+02  0.00000000000E+00 0.  1.
<mgrwt>
<rscale>  0 0.19100057E+04</rscale>
<asrwt>0</asrwt>
<pdfrwt beam="1">  1        2 0.13202789E+00 0.19100057E+04</pdfrwt>
<pdfrwt beam="2">  1       -2 0.16349969E+00 0.19100057E+04</pdfrwt>
<totfact> 0.69568926E+00</totfact>
</mgrwt>
</event>
<event>
12    1  0.1467288E-007  0.9981573E+03  0.7818608E-02  0.9310568E-01
          3   -1    0    0  501    0  0.00000000000E+00  0.00000000000E+00  0.54006178628E+03  0.54006178628E+03  0.00000000000E+00 0. -1.
         -3   -1    0    0    0  501 -0.00000000000E+00 -0.00000000000E+00 -0.46120556257E+03  0.46120556257E+03  0.00000000000E+00 0.  1.
         23    2    1    2    0    0 -0.94517031438E+02 -0.59104259240E+02  0.33226377599E+02  0.14734042854E+03  0.90434656091E+02 0.  0.
        254    2    1    2    0    0  0.94517031438E+02  0.59104259240E+02  0.45629846119E+02  0.85392692031E+03  0.84538885708E+03 0.  0.
        -24    2    4    4    0    0  0.64946416256E+02  0.43024599749E+03  0.13641339305E+03  0.46266490237E+03  0.78233897664E+02 0.  0.
         24    2    4    4    0    0  0.29570615182E+02 -0.37114173825E+03 -0.90783546926E+02  0.39126201794E+03  0.78890450203E+02 0.  0.
         13    1    3    3    0    0 -0.11115846162E+03 -0.44560205918E+02  0.19530055524E+02  0.12133935310E+03  0.00000000000E+00 0. -1.
        -13    1    3    3    0    0  0.16641430187E+02 -0.14544053322E+02  0.13696322075E+02  0.26001075441E+02  0.00000000000E+00 0.  1.
          4    1    6    6  502    0  0.25918325468E+02 -0.34619825182E+03 -0.61414748937E+02  0.35255745708E+03  0.00000000000E+00 0. -1.
          1    1    5    5  503    0  0.52069338180E+02  0.35308100439E+03  0.14227637264E+03  0.38421345350E+03  0.00000000000E+00 0. -1.
         -2    1    5    5    0  503  0.12877078076E+02  0.77164993103E+02 -0.58629795982E+01  0.78451448872E+02  0.00000000000E+00 0.  1.
         -3    1    6    6    0  502  0.36522897140E+01 -0.24943486431E+02 -0.29368797990E+02  0.38704560854E+02  0.00000000000E+00 0.  1.
<mgrwt>
<rscale>  0 0.99815730E+03</rscale>
<asrwt>0</asrwt>
<pdfrwt beam="1">  1        3 0.83086428E-01 0.99815730E+03</pdfrwt>
<pdfrwt beam="2">  1       -3 0.70954702E-01 0.99815730E+03</pdfrwt>
<totfact> 0.66285978E+00</totfact>
</mgrwt>
</event>
<event>
12    1  0.1467288E-007  0.3819968E+04  0.7818608E-02  0.8041883E-01
         -2   -1    0    0    0  501 -0.00000000000E+00  0.00000000000E+00  0.11808307550E+04  0.11808307550E+04  0.00000000000E+00 0.  1.
          2   -1    0    0  501    0  0.00000000000E+00 -0.00000000000E+00 -0.30893833289E+04  0.30893833289E+04  0.00000000000E+00 0. -1.
         23    2    1    2    0    0 -0.24673764237E+03 -0.15644284931E+04  0.47638259084E+02  0.15870719155E+04  0.90619462309E+02 0.  0.
        254    2    1    2    0    0  0.24673764237E+03  0.15644284931E+04 -0.19561908330E+04  0.26831421683E+04  0.92965227153E+03 0.  0.
        -24    2    4    4    0    0  0.14805901595E+01  0.13270525893E+04 -0.99620601710E+03  0.16611893512E+04  0.77800162313E+02 0.  0.
         24    2    4    4    0    0  0.24525705221E+03  0.23737590388E+03 -0.95998481591E+03  0.10219528171E+04  0.79488189208E+02 0.  0.
         13    1    3    3    0    0 -0.50533447632E+02 -0.42233977107E+03  0.49738834561E+02  0.42825046786E+03  0.00000000000E+00 0.  1.
        -13    1    3    3    0    0 -0.19620419474E+03 -0.11420887221E+04 -0.21005754771E+01  0.11588214477E+04  0.00000000000E+00 0. -1.
          2    1    6    6  502    0 -0.54125514120E+01  0.86993248270E+01 -0.43055650799E+02  0.44257914896E+02  0.00000000000E+00 0. -1.
          3    1    5    5  503    0  0.32819307478E+02  0.31461449855E+03 -0.24521298042E+03  0.40023592469E+03  0.00000000000E+00 0. -1.
         -2    1    5    5    0  503 -0.31338717319E+02  0.10124380907E+04 -0.75099303667E+03  0.12609534265E+04  0.00000000000E+00 0.  1.
         -1    1    6    6    0  502  0.25066960362E+03  0.22867657906E+03 -0.91692916511E+03  0.97769490222E+03  0.00000000000E+00 0.  1.
<mgrwt>
<rscale>  0 0.38199680E+04</rscale>
<asrwt>0</asrwt>
<pdfrwt beam="1">  1        2 0.47528973E+00 0.38199680E+04</pdfrwt>
<pdfrwt beam="2">  1       -2 0.18166627E+00 0.38199680E+04</pdfrwt>
<totfact> 0.21590403E-01</totfact>
</mgrwt>
</event>
<event>
12    1  0.1467288E-007  0.1825695E+04  0.7818608E-02  0.8692753E-01
          1   -1    0    0  501    0  0.00000000000E+00  0.00000000000E+00  0.15141700843E+04  0.15141700843E+04  0.00000000000E+00 0. -1.
         -1   -1    0    0    0  501 -0.00000000000E+00 -0.00000000000E+00 -0.55032806182E+03  0.55032806182E+03  0.00000000000E+00 0.  1.
         23    2    1    2    0    0  0.66271794340E+02  0.68485358818E+03  0.31906461377E+03  0.76437550730E+03  0.95138322621E+02 0.  0.
        254    2    1    2    0    0 -0.66271794340E+02 -0.68485358818E+03  0.64477740874E+03  0.13001226389E+04  0.89507797497E+03 0.  0.
        -24    2    4    4    0    0 -0.15960464639E+03  0.17423039162E+03  0.70355772424E+02  0.25943761068E+03  0.80796451716E+02 0.  0.
         24    2    4    4    0    0  0.93332852051E+02 -0.85908397980E+03  0.57442163631E+03  0.10406850282E+04  0.79553792948E+02 0.  0.
         11    1    3    3    0    0 -0.17529008801E+02  0.70682057825E+02  0.16767419610E+02  0.74728614388E+02  0.00000000000E+00 0. -1.
        -11    1    3    3    0    0  0.83800803141E+02  0.61417153036E+03  0.30229719416E+03  0.68964689291E+03  0.00000000000E+00 0.  1.
          4    1    6    6  502    0  0.95524826856E+02 -0.69029965507E+03  0.49038474710E+03  0.85212429054E+03  0.00000000000E+00 0. -1.
          3    1    5    5  503    0 -0.14606124194E+03  0.17033361022E+03  0.84220915615E+02  0.23966766114E+03  0.00000000000E+00 0. -1.
         -4    1    5    5    0  503 -0.13543404447E+02  0.38967814021E+01 -0.13865143191E+02  0.19769949545E+02  0.00000000000E+00 0.  1.
         -3    1    6    6    0  502 -0.21919748057E+01 -0.16878432473E+03  0.84036889214E+02  0.18856073763E+03  0.00000000000E+00 0.  1.
<mgrwt>
<rscale>  0 0.18256947E+04</rscale>
<asrwt>0</asrwt>
<pdfrwt beam="1">  1        1 0.23294924E+00 0.18256947E+04</pdfrwt>
<pdfrwt beam="2">  1       -1 0.84665856E-01 0.18256947E+04</pdfrwt>
<totfact> 0.83142986E+00</totfact>
</mgrwt>
</event>
<event>
12    1  0.1467288E-007  0.2815952E+04  0.7818608E-02  0.8298333E-01
         -1   -1    0    0    0  501 -0.00000000000E+00  0.00000000000E+00  0.18383888150E+04  0.18383888150E+04  0.00000000000E+00 0.  1.
          1   -1    0    0  501    0  0.00000000000E+00 -0.00000000000E+00 -0.10783337379E+04  0.10783337379E+04  0.00000000000E+00 0. -1.
         23    2    1    2    0    0 -0.98203176464E+03 -0.80787908538E+03  0.34950639579E+03  0.13221901922E+04  0.94747983710E+02 0.  0.
        254    2    1    2    0    0  0.98203176464E+03  0.80787908538E+03  0.41054868134E+03  0.15945323607E+04  0.87001622183E+03 0.  0.
        -24    2    4    4    0    0  0.55641719604E+03  0.89463734909E+03  0.45508016734E+03  0.11504392371E+04  0.80227158987E+02 0.  0.
         24    2    4    4    0    0  0.42561456860E+03 -0.86758263702E+02 -0.44531486007E+02  0.44409312365E+03  0.80999332728E+02 0.  0.
         11    1    3    3    0    0 -0.97239713431E+03 -0.80936793671E+03  0.34447361381E+03  0.13112187897E+04  0.00000000000E+00 0.  1.
        -11    1    3    3    0    0 -0.96346303359E+01  0.14888513295E+01  0.50327819808E+01  0.10971402575E+02  0.00000000000E+00 0. -1.
          2    1    6    6  502    0  0.23774741210E+03 -0.61352720551E+02  0.13285995925E+02  0.24589531506E+03  0.00000000000E+00 0. -1.
          1    1    5    5  503    0  0.24417292951E+03  0.34438889095E+03  0.14967580103E+03  0.44791402426E+03  0.00000000000E+00 0. -1.
         -2    1    5    5    0  503  0.31224426653E+03  0.55024845814E+03  0.30540436631E+03  0.70252521280E+03  0.00000000000E+00 0.  1.
         -1    1    6    6    0  502  0.18786715649E+03 -0.25405543151E+02 -0.57817481932E+02  0.19819780859E+03  0.00000000000E+00 0.  1.
<mgrwt>
<rscale>  0 0.28159522E+04</rscale>
<asrwt>0</asrwt>
<pdfrwt beam="1">  1        1 0.16589750E+00 0.28159522E+04</pdfrwt>
<pdfrwt beam="2">  1       -1 0.28282905E+00 0.28159522E+04</pdfrwt>
<totfact> 0.48567703E-01</totfact>
</mgrwt>
</event>
<event>
12    1  0.1467288E-007  0.3098984E+04  0.7818608E-02  0.8216017E-01
          1   -1    0    0  501    0  0.00000000000E+00  0.00000000000E+00  0.13825408733E+04  0.13825408733E+04  0.00000000000E+00 0. -1.
         -1   -1    0    0    0  501 -0.00000000000E+00 -0.00000000000E+00 -0.17366032711E+04  0.17366032711E+04  0.00000000000E+00 0.  1.
         23    2    1    2    0    0  0.13759612677E+04  0.19220394913E+03  0.14892620403E+03  0.14003495899E+04  0.92672494716E+02 0.  0.
        254    2    1    2    0    0 -0.13759612677E+04 -0.19220394913E+03 -0.50298860183E+03  0.17187945545E+04  0.87809191918E+03 0.  0.
        -24    2    4    4    0    0 -0.52286377566E+03 -0.44644397351E+03 -0.44551995224E+03  0.82310713001E+03  0.79489434827E+02 0.  0.
         24    2    4    4    0    0 -0.85309749208E+03  0.25424002437E+03 -0.57468649590E+02  0.89568742446E+03  0.80870239699E+02 0.  0.
         11    1    3    3    0    0  0.43909150932E+03  0.23428527721E+02  0.25843615578E+02  0.44047490500E+03  0.00000000000E+00 0.  1.
        -11    1    3    3    0    0  0.93686975841E+03  0.16877542141E+03  0.12308258845E+03  0.95987468489E+03  0.00000000000E+00 0. -1.
          4    1    6    6  502    0 -0.14558083779E+03  0.30089426536E+02 -0.37173884321E+02  0.15323528182E+03  0.00000000000E+00 0. -1.
          1    1    5    5  503    0 -0.26875735526E+03 -0.25469809618E+03 -0.19814606380E+03  0.41995654395E+03  0.00000000000E+00 0. -1.
         -2    1    5    5    0  503 -0.25410642040E+03 -0.19174587733E+03 -0.24737388844E+03  0.40315058606E+03  0.00000000000E+00 0.  1.
         -3    1    6    6    0  502 -0.70751665429E+03  0.22415059784E+03 -0.20294765269E+02  0.74245214264E+03  0.00000000000E+00 0.  1.
<mgrwt>
<rscale>  0 0.30989837E+04</rscale>
<asrwt>0</asrwt>
<pdfrwt beam="1">  1        1 0.21269860E+00 0.30989837E+04</pdfrwt>
<pdfrwt beam="2">  1       -1 0.26716973E+00 0.30989837E+04</pdfrwt>
<totfact> 0.35948632E-01</totfact>
</mgrwt>
</event>
<event>
12    1  0.1467288E-007  0.1365225E+04  0.7818608E-02  0.8979383E-01
          1   -1    0    0  501    0  0.00000000000E+00  0.00000000000E+00  0.86180345303E+03  0.86180345303E+03  0.00000000000E+00 0. -1.
         -1   -1    0    0    0  501 -0.00000000000E+00 -0.00000000000E+00 -0.54067969764E+03  0.54067969764E+03  0.00000000000E+00 0.  1.
         23    2    1    2    0    0 -0.25887421350E+03  0.69753419396E+02 -0.18391236845E+03  0.33771803238E+03  0.91369098688E+02 0.  0.
        254    2    1    2    0    0  0.25887421350E+03 -0.69753419396E+02  0.50503612384E+03  0.10647651183E+04  0.89821037225E+03 0.  0.
        -24    2    4    4    0    0 -0.25032784105E+03  0.18660648861E+03  0.35433779311E+02  0.32183595077E+03  0.69547227803E+02 0.  0.
         24    2    4    4    0    0  0.50920205456E+03 -0.25635990801E+03  0.46960234452E+03  0.74292916752E+03  0.80064044179E+02 0.  0.
         13    1    3    3    0    0  0.65512758116E+01  0.83813965355E+01 -0.47093744045E+01  0.11633796884E+02  0.00000000000E+00 0. -1.
        -13    1    3    3    0    0 -0.26542548932E+03  0.61372022861E+02 -0.17920299404E+03  0.32608423550E+03  0.00000000000E+00 0.  1.
          2    1    6    6  502    0  0.36775600208E+03 -0.14823476667E+03  0.30209307948E+03  0.49847592899E+03  0.00000000000E+00 0. -1.
          1    1    5    5  503    0 -0.11061013502E+03  0.12402772613E+03  0.28303422325E+02  0.16857806066E+03  0.00000000000E+00 0. -1.
         -2    1    5    5    0  503 -0.13971770603E+03  0.62578762476E+02  0.71303569862E+01  0.15325789012E+03  0.00000000000E+00 0.  1.
         -1    1    6    6    0  502  0.14144605248E+03 -0.10812514134E+03  0.16750926505E+03  0.24445323853E+03  0.00000000000E+00 0.  1.
<mgrwt>
<rscale>  0 0.13652247E+04</rscale>
<asrwt>0</asrwt>
<pdfrwt beam="1">  1        1 0.13258515E+00 0.13652247E+04</pdfrwt>
<pdfrwt beam="2">  1       -1 0.83181492E-01 0.13652247E+04</pdfrwt>
<totfact> 0.27467265E+01</totfact>
</mgrwt>
</event>
<event>
12    1  0.1467288E-007  0.1265807E+04  0.7818608E-02  0.9057129E-01
         -3   -1    0    0    0  501 -0.00000000000E+00  0.00000000000E+00  0.26876263345E+03  0.26876263345E+03  0.00000000000E+00 0.  1.
          3   -1    0    0  501    0  0.00000000000E+00 -0.00000000000E+00 -0.14904102638E+04  0.14904102638E+04  0.00000000000E+00 0. -1.
         23    2    1    2    0    0 -0.24007428078E+03  0.13432554776E+03 -0.12875582202E+03  0.31868148657E+03  0.96440733652E+02 0.  0.
        254    2    1    2    0    0  0.24007428078E+03 -0.13432554776E+03 -0.10928918083E+04  0.14404914107E+04  0.89717556055E+03 0.  0.
        -24    2    4    4    0    0 -0.16085305709E+03 -0.32191597206E+03 -0.85559138376E+03  0.93173580434E+03  0.81187401036E+02 0.  0.
         24    2    4    4    0    0  0.40092733787E+03  0.18759042431E+03 -0.23730042455E+03  0.50875560632E+03  0.81165743526E+02 0.  0.
         11    1    3    3    0    0 -0.16328777107E+03  0.10636939829E+03 -0.41715647925E+02  0.19929259985E+03  0.00000000000E+00 0.  1.
        -11    1    3    3    0    0 -0.76786509712E+02  0.27956149469E+02 -0.87040174092E+02  0.11938888672E+03  0.00000000000E+00 0. -1.
          2    1    6    6  502    0  0.19534120776E+03  0.75875131920E+02 -0.15527026978E+03  0.26081426297E+03  0.00000000000E+00 0. -1.
          3    1    5    5  503    0 -0.58517598694E+02 -0.47479066352E+02 -0.15351855859E+03  0.17101613646E+03  0.00000000000E+00 0. -1.
         -4    1    5    5    0  503 -0.10233545840E+03 -0.27443690571E+03 -0.70207282517E+03  0.76071966788E+03  0.00000000000E+00 0.  1.
         -1    1    6    6    0  502  0.20558613012E+03  0.11171529239E+03 -0.82030154774E+02  0.24794134335E+03  0.00000000000E+00 0.  1.
<mgrwt>
<rscale>  0 0.12658066E+04</rscale>
<asrwt>0</asrwt>
<pdfrwt beam="1">  1        3 0.22929388E+00 0.12658066E+04</pdfrwt>
<pdfrwt beam="2">  1       -3 0.41348098E-01 0.12658066E+04</pdfrwt>
<totfact> 0.14667715E+00</totfact>
</mgrwt>
</event>
<event>
12    1  0.1467288E-007  0.1826016E+04  0.7818608E-02  0.8692585E-01
          2   -1    0    0  501    0  0.00000000000E+00  0.00000000000E+00  0.22324292403E+04  0.22324292403E+04  0.00000000000E+00 0. -1.
         -2   -1    0    0    0  501 -0.00000000000E+00 -0.00000000000E+00 -0.37339758808E+03  0.37339758808E+03  0.00000000000E+00 0.  1.
         23    2    1    2    0    0 -0.59997683460E+03 -0.31751080383E+03  0.54921617431E+03  0.87767143903E+03  0.88788716338E+02 0.  0.
        254    2    1    2    0    0  0.59997683460E+03  0.31751080383E+03  0.13098154779E+04  0.17281553894E+04  0.90006619257E+03 0.  0.
        -24    2    4    4    0    0  0.31421095122E+02  0.50268247718E+03  0.73827635495E+03  0.89735804100E+03  0.80762116045E+02 0.  0.
         24    2    4    4    0    0  0.56855573948E+03 -0.18517167335E+03  0.57153912297E+03  0.83079734837E+03  0.77608552781E+02 0.  0.
         13    1    3    3    0    0 -0.36975532827E+03 -0.16481051204E+03  0.28231277871E+03  0.49354028477E+03  0.00000000000E+00 0.  1.
        -13    1    3    3    0    0 -0.23022150633E+03 -0.15270029179E+03  0.26690339560E+03  0.38413115426E+03  0.00000000000E+00 0. -1.
          4    1    6    6  502    0  0.11772776930E+03 -0.61930888306E+02  0.15988359719E+03  0.20798564191E+03  0.00000000000E+00 0. -1.
          3    1    5    5  503    0  0.42689502725E+02  0.12232048062E+03  0.19029962032E+03  0.23021433300E+03  0.00000000000E+00 0. -1.
         -4    1    5    5    0  503 -0.11268407603E+02  0.38036199656E+03  0.54797673463E+03  0.66714370801E+03  0.00000000000E+00 0.  1.
         -3    1    6    6    0  502  0.45082797018E+03 -0.12324078504E+03  0.41165552578E+03  0.62281170646E+03  0.00000000000E+00 0.  1.
<mgrwt>
<rscale>  0 0.18260161E+04</rscale>
<asrwt>0</asrwt>
<pdfrwt beam="1">  1        2 0.34345064E+00 0.18260161E+04</pdfrwt>
<pdfrwt beam="2">  1       -2 0.57445784E-01 0.18260161E+04</pdfrwt>
<totfact> 0.13244632E+01</totfact>
</mgrwt>
</event>
<event>
12    1  0.1467288E-007  0.2663384E+04  0.7818608E-02  0.8346984E-01
          1   -1    0    0  501    0  0.00000000000E+00  0.00000000000E+00  0.14700284364E+04  0.14700284364E+04  0.00000000000E+00 0. -1.
         -1   -1    0    0    0  501 -0.00000000000E+00 -0.00000000000E+00 -0.12063736652E+04  0.12063736652E+04  0.00000000000E+00 0.  1.
         23    2    1    2    0    0  0.11570767603E+04 -0.22509789183E+03  0.17619838055E+03  0.11954001667E+04  0.91869468042E+02 0.  0.
        254    2    1    2    0    0 -0.11570767603E+04  0.22509789183E+03  0.87456390683E+02  0.14810019348E+04  0.89231296109E+03 0.  0.
        -24    2    4    4    0    0 -0.31573333034E+02 -0.19667413216E+03  0.17049163309E+03  0.27358096618E+03  0.78112473277E+02 0.  0.
         24    2    4    4    0    0 -0.11255034273E+04  0.42177202400E+03 -0.83035242406E+02  0.12074209686E+04  0.79504333306E+02 0.  0.
         13    1    3    3    0    0  0.89191189410E+03 -0.17665488933E+03  0.17455324524E+03  0.92584156970E+03  0.00000000000E+00 0. -1.
        -13    1    3    3    0    0  0.26516486620E+03 -0.48443002505E+02  0.16451353079E+01  0.26955859702E+03  0.00000000000E+00 0.  1.
          2    1    6    6  502    0 -0.36414874875E+03  0.14607465055E+03  0.91105242358E+01  0.39246033737E+03  0.00000000000E+00 0. -1.
          1    1    5    5  503    0 -0.40591149471E+02 -0.11769139842E+03  0.61991648358E+02  0.13907505579E+03  0.00000000000E+00 0. -1.
         -2    1    5    5    0  503  0.90178164376E+01 -0.78982733747E+02  0.10849998473E+03  0.13450591039E+03  0.00000000000E+00 0.  1.
         -1    1    6    6    0  502 -0.76135467852E+03  0.27569737344E+03 -0.92145766641E+02  0.81496063128E+03  0.00000000000E+00 0.  1.
<mgrwt>
<rscale>  0 0.26633840E+04</rscale>
<asrwt>0</asrwt>
<pdfrwt beam="1">  1        1 0.22615822E+00 0.26633840E+04</pdfrwt>
<pdfrwt beam="2">  1       -1 0.18559595E+00 0.26633840E+04</pdfrwt>
<totfact> 0.11411342E+00</totfact>
</mgrwt>
</event>
<event>
12    1  0.1467288E-007  0.5325077E+04  0.7818608E-02  0.7780228E-01
         -2   -1    0    0    0  501 -0.00000000000E+00  0.00000000000E+00  0.20568384040E+04  0.20568384040E+04  0.00000000000E+00 0. -1.
          2   -1    0    0  501    0  0.00000000000E+00 -0.00000000000E+00 -0.34466059089E+04  0.34466059089E+04  0.00000000000E+00 0.  1.
         23    2    1    2    0    0  0.57878660048E+03 -0.19869385890E+04 -0.22745394651E+04  0.30765715011E+04  0.94040083543E+02 0.  0.
        254    2    1    2    0    0 -0.57878660048E+03  0.19869385890E+04  0.88477196017E+03  0.24268728119E+04  0.90772866974E+03 0.  0.
        -24    2    4    4    0    0 -0.77372965301E+03  0.18220809463E+04  0.70450424532E+03  0.21026658639E+04  0.78999700385E+02 0.  0.
         24    2    4    4    0    0  0.19494305253E+03  0.16485764277E+03  0.18026771485E+03  0.32420694799E+03  0.86214035956E+02 0.  0.
         11    1    3    3    0    0  0.50142244903E+03 -0.17370231630E+04 -0.19392860722E+04  0.26513212576E+04  0.00000000000E+00 0.  1.
        -11    1    3    3    0    0  0.77364151451E+02 -0.24991542600E+03 -0.33525339295E+03  0.42525024347E+03  0.00000000000E+00 0. -1.
          4    1    6    6  502    0  0.11362618536E+03  0.14331164659E+03  0.10255577011E+03  0.20968267461E+03  0.00000000000E+00 0. -1.
          3    1    5    5  503    0 -0.35733471742E+03  0.74630969469E+03  0.30654355785E+03  0.88240309016E+03  0.00000000000E+00 0. -1.
         -4    1    5    5    0  503 -0.41639493560E+03  0.10757712516E+04  0.39796068747E+03  0.12202627737E+04  0.00000000000E+00 0.  1.
         -3    1    6    6    0  502  0.81316867172E+02  0.21545996185E+02  0.77711944744E+02  0.11452427338E+03  0.00000000000E+00 0.  1.
<mgrwt>
<rscale>  0 0.53250770E+04</rscale>
<asrwt>0</asrwt>
<pdfrwt beam="1">  1        2 0.53024706E+00 0.53250770E+04</pdfrwt>
<pdfrwt beam="2">  1       -2 0.31643668E+00 0.53250770E+04</pdfrwt>
<totfact> 0.15798748E-02</totfact>
</mgrwt>
</event>
<event>
12    1  0.1467288E-007  0.2611964E+04  0.7818608E-02  0.8364149E-01
          1   -1    0    0  501    0  0.00000000000E+00  0.00000000000E+00  0.18616068092E+04  0.18616068092E+04  0.00000000000E+00 0. -1.
         -1   -1    0    0    0  501 -0.00000000000E+00 -0.00000000000E+00 -0.91619195093E+03  0.91619195093E+03  0.00000000000E+00 0.  1.
         23    2    1    2    0    0  0.88155305303E+03  0.45327991974E+02  0.12026364755E+04  0.14946502898E+04  0.91948813682E+02 0.  0.
        254    2    1    2    0    0 -0.88155305303E+03 -0.45327991974E+02 -0.25722161718E+03  0.12831484704E+04  0.89505118547E+03 0.  0.
        -24    2    4    4    0    0  0.14684365780E+03  0.11471816298E+03  0.19211862667E+02  0.20335756029E+03  0.79132072547E+02 0.  0.
         24    2    4    4    0    0 -0.10283967108E+04 -0.16004615496E+03 -0.27643347985E+03  0.10797909101E+04  0.79488201973E+02 0.  0.
         13    1    3    3    0    0  0.72793723703E+02 -0.17405734040E+02  0.79319237428E+02  0.10905699067E+03  0.00000000000E+00 0.  1.
        -13    1    3    3    0    0  0.80875932933E+03  0.62733726015E+02  0.11233172381E+04  0.13855932991E+04  0.00000000000E+00 0. -1.
          4    1    6    6  502    0 -0.35997856088E+03 -0.94303983526E+02 -0.94174180358E+02  0.38385750201E+03  0.00000000000E+00 0. -1.
          1    1    5    5  503    0  0.43609651474E+01  0.29263593956E+02 -0.15834517853E+02  0.33557531254E+02  0.00000000000E+00 0. -1.
         -2    1    5    5    0  503  0.14248269265E+03  0.85454569029E+02  0.35046380519E+02  0.16980002903E+03  0.00000000000E+00 0.  1.
         -3    1    6    6    0  502 -0.66841814995E+03 -0.65742171432E+02 -0.18225929949E+03  0.69593340812E+03  0.00000000000E+00 0.  1.
<mgrwt>
<rscale>  0 0.26119641E+04</rscale>
<asrwt>0</asrwt>
<pdfrwt beam="1">  1        1 0.28640105E+00 0.26119641E+04</pdfrwt>
<pdfrwt beam="2">  1       -1 0.14095261E+00 0.26119641E+04</pdfrwt>
<totfact> 0.13402254E+00</totfact>
</mgrwt>
</event>
<event>
12    1  0.1467288E-007  0.1340381E+04  0.7818608E-02  0.8998142E-01
          2   -1    0    0  501    0  0.00000000000E+00  0.00000000000E+00  0.17112478898E+04  0.17112478898E+04  0.00000000000E+00 0.  1.
         -2   -1    0    0    0  501 -0.00000000000E+00 -0.00000000000E+00 -0.26247245109E+03  0.26247245109E+03  0.00000000000E+00 0. -1.
         23    2    1    2    0    0  0.12255389338E+03  0.33820114391E+03  0.33848950716E+03  0.50216928013E+03  0.90550366768E+02 0.  0.
        254    2    1    2    0    0 -0.12255389338E+03 -0.33820114391E+03  0.11102859316E+04  0.14715510608E+04  0.89628578262E+03 0.  0.
        -24    2    4    4    0    0  0.37588899295E+03 -0.11906775043E+03  0.59296614122E+03  0.71652124497E+03  0.79524748637E+02 0.  0.
         24    2    4    4    0    0 -0.49844288633E+03 -0.21913339348E+03  0.51731979034E+03  0.75502981581E+03  0.77366027480E+02 0.  0.
         13    1    3    3    0    0  0.29103225877E+01  0.30884463166E+01  0.32767981224E+02  0.33041626348E+02  0.00000000000E+00 0. -1.
        -13    1    3    3    0    0  0.11964357080E+03  0.33511269759E+03  0.30572152594E+03  0.46912765378E+03  0.00000000000E+00 0.  1.
          4    1    6    6  502    0 -0.30849339028E+03 -0.17279121916E+03  0.31285060300E+03  0.47212337059E+03  0.00000000000E+00 0. -1.
          1    1    5    5  503    0  0.27915196770E+03 -0.78512533260E+02  0.49097921256E+03  0.57021980509E+03  0.00000000000E+00 0. -1.
         -2    1    5    5    0  503  0.96737025248E+02 -0.40555217169E+02  0.10198692866E+03  0.14630143988E+03  0.00000000000E+00 0.  1.
         -3    1    6    6    0  502 -0.18994949606E+03 -0.46342174321E+02  0.20446918734E+03  0.28290644522E+03  0.00000000000E+00 0.  1.
<mgrwt>
<rscale>  0 0.13403812E+04</rscale>
<asrwt>0</asrwt>
<pdfrwt beam="1">  1        2 0.26326890E+00 0.13403812E+04</pdfrwt>
<pdfrwt beam="2">  1       -2 0.40380378E-01 0.13403812E+04</pdfrwt>
<totfact> 0.54845573E+01</totfact>
</mgrwt>
</event>
<event>
12    1  0.1467288E-007  0.1210889E+04  0.7818608E-02  0.9103378E-01
          2   -1    0    0  501    0  0.00000000000E+00  0.00000000000E+00  0.30848723371E+04  0.30848723371E+04  0.00000000000E+00 0. -1.
         -2   -1    0    0    0  501 -0.00000000000E+00 -0.00000000000E+00 -0.11882601995E+03  0.11882601995E+03  0.00000000000E+00 0.  1.
         23    2    1    2    0    0  0.16241634587E+03 -0.23678839080E+02  0.53551913150E+03  0.56837749477E+03  0.96604759379E+02 0.  0.
        254    2    1    2    0    0 -0.16241634587E+03  0.23678839080E+02  0.24305271857E+04  0.26353208623E+04  0.10052431995E+04 0.  0.
        -24    2    4    4    0    0 -0.56168652772E+02  0.21026070039E+03  0.23914976831E+04  0.24028870932E+04  0.85092505261E+02 0.  0.
         24    2    4    4    0    0 -0.10624769310E+03 -0.18658186131E+03  0.39029502559E+02  0.23243376914E+03  0.80004948016E+02 0.  0.
         13    1    3    3    0    0  0.11087749333E+03 -0.53821999560E+02  0.27915862346E+03  0.30515596539E+03  0.00000000000E+00 0.  1.
        -13    1    3    3    0    0  0.51538852536E+02  0.30143160480E+02  0.25636050804E+03  0.26322152937E+03  0.00000000000E+00 0. -1.
          4    1    6    6  502    0 -0.47598697519E+02 -0.15257691642E+03  0.15102005331E+02  0.16054102901E+03  0.00000000000E+00 0. -1.
          1    1    5    5  503    0 -0.55214444869E+02  0.54762218370E+02  0.73155745031E+03  0.73567916824E+03  0.00000000000E+00 0. -1.
         -2    1    5    5    0  503 -0.95420790347E+00  0.15549848202E+03  0.16599402328E+04  0.16672079249E+04  0.00000000000E+00 0.  1.
         -3    1    6    6    0  502 -0.58648995580E+02 -0.34004944884E+02  0.23927497228E+02  0.71892740125E+02  0.00000000000E+00 0.  1.
<mgrwt>
<rscale>  0 0.12108891E+04</rscale>
<asrwt>0</asrwt>
<pdfrwt beam="1">  1        2 0.47459568E+00 0.12108891E+04</pdfrwt>
<pdfrwt beam="2">  1       -2 0.18280928E-01 0.12108891E+04</pdfrwt>
<totfact> 0.38552899E+01</totfact>
</mgrwt>
</event>
<event>
12    1  0.1467288E-007  0.2049793E+04  0.7818608E-02  0.8583688E-01
         -2   -1    0    0    0  501 -0.00000000000E+00  0.00000000000E+00  0.45501093159E+03  0.45501093159E+03  0.00000000000E+00 0.  1.
          2   -1    0    0  501    0  0.00000000000E+00 -0.00000000000E+00 -0.23085432097E+04  0.23085432097E+04  0.00000000000E+00 0. -1.
         23    2    1    2    0    0  0.72209078861E+03  0.38319553210E+03 -0.64849393601E+03  0.10489340496E+04  0.10707162297E+03 0.  0.
        254    2    1    2    0    0 -0.72209078861E+03 -0.38319553210E+03 -0.12050383421E+04  0.17146200917E+04  0.90529041208E+03 0.  0.
        -24    2    4    4    0    0 -0.48513278282E+03  0.11548313318E+03 -0.15964469296E+03  0.52970123924E+03  0.80042512778E+02 0.  0.
         24    2    4    4    0    0 -0.23695800580E+03 -0.49867866528E+03 -0.10453936491E+04  0.11849188525E+04  0.79720120459E+02 0.  0.
         13    1    3    3    0    0  0.26207857591E+03  0.86315450378E+02 -0.19282859464E+03  0.33662799027E+03  0.00000000000E+00 0. -1.
        -13    1    3    3    0    0  0.46001221271E+03  0.29688008172E+03 -0.45566534137E+03  0.71230605928E+03  0.00000000000E+00 0.  1.
          4    1    6    6  502    0 -0.10887462909E+03 -0.18668111352E+03 -0.48310037287E+03  0.52923481865E+03  0.00000000000E+00 0. -1.
          3    1    5    5  503    0 -0.26840057094E+02  0.22757981405E+02 -0.24853441374E+02  0.43081410499E+02  0.00000000000E+00 0. -1.
         -4    1    5    5    0  503 -0.45829272572E+03  0.92725151778E+02 -0.13479125159E+03  0.48661982874E+03  0.00000000000E+00 0.  1.
         -3    1    6    6    0  502 -0.12808337671E+03 -0.31199755176E+03 -0.56229327624E+03  0.65568403381E+03  0.00000000000E+00 0.  1.
<mgrwt>
<rscale>  0 0.20497926E+04</rscale>
<asrwt>0</asrwt>
<pdfrwt beam="1">  1        2 0.35516049E+00 0.20497926E+04</pdfrwt>
<pdfrwt beam="2">  1       -2 0.70001682E-01 0.20497926E+04</pdfrwt>
<totfact> 0.77119172E+00</totfact>
</mgrwt>
</event>
<event>
12    1  0.1467288E-007  0.1223764E+04  0.7818608E-02  0.9092307E-01
         -2   -1    0    0    0  501 -0.00000000000E+00  0.00000000000E+00  0.21371448553E+03  0.21371448553E+03  0.00000000000E+00 0.  1.
          2   -1    0    0  501    0  0.00000000000E+00 -0.00000000000E+00 -0.17518678836E+04  0.17518678836E+04  0.00000000000E+00 0. -1.
         23    2    1    2    0    0  0.94276425516E+02 -0.24830446830E+03 -0.25393532772E+03  0.37917772908E+03  0.93538474358E+02 0.  0.
        254    2    1    2    0    0 -0.94276425516E+02  0.24830446830E+03 -0.12842180703E+04  0.15864046400E+04  0.89270402505E+03 0.  0.
        -24    2    4    4    0    0 -0.33396965670E+03 -0.13476468568E+03 -0.94891729487E+03  0.10180437519E+04  0.79194672371E+02 0.  0.
         24    2    4    4    0    0  0.23969323118E+03  0.38306915398E+03 -0.33530077547E+03  0.56836088816E+03  0.80079131795E+02 0.  0.
         13    1    3    3    0    0  0.38540416142E+02 -0.11686218679E+03 -0.18096746742E+03  0.21884094370E+03  0.00000000000E+00 0. -1.
        -13    1    3    3    0    0  0.55736009374E+02 -0.13144228151E+03 -0.72967860302E+02  0.16033678538E+03  0.00000000000E+00 0.  1.
          2    1    6    6  502    0  0.85811380454E+02  0.75420190210E+02 -0.97311012645E+02  0.15007075428E+03  0.00000000000E+00 0. -1.
          3    1    5    5  503    0 -0.13909360695E+03 -0.16814217159E+02 -0.39528577572E+03  0.41938120354E+03  0.00000000000E+00 0. -1.
         -4    1    5    5    0  503 -0.19487604974E+03 -0.11795046852E+03 -0.55363151915E+03  0.59866254834E+03  0.00000000000E+00 0.  1.
         -1    1    6    6    0  502  0.15388185073E+03  0.30764896377E+03 -0.23798976283E+03  0.41829013388E+03  0.00000000000E+00 0.  1.
<mgrwt>
<rscale>  0 0.12237639E+04</rscale>
<asrwt>0</asrwt>
<pdfrwt beam="1">  1        2 0.26951814E+00 0.12237639E+04</pdfrwt>
<pdfrwt beam="2">  1       -2 0.32879151E-01 0.12237639E+04</pdfrwt>
<totfact> 0.78024069E+01</totfact>
</mgrwt>
</event>
<event>
12    1  0.1467288E-007  0.2831422E+04  0.7818608E-02  0.8293579E-01
         -2   -1    0    0    0  501 -0.00000000000E+00  0.00000000000E+00  0.11559919001E+04  0.11559919001E+04  0.00000000000E+00 0. -1.
          2   -1    0    0  501    0  0.00000000000E+00 -0.00000000000E+00 -0.17337818484E+04  0.17337818484E+04  0.00000000000E+00 0.  1.
         23    2    1    2    0    0 -0.37219080261E+03  0.35767757225E+03 -0.14448137742E+04  0.15368448937E+04  0.89141157383E+02 0.  0.
        254    2    1    2    0    0  0.37219080261E+03 -0.35767757225E+03  0.86702382582E+03  0.13529288548E+04  0.90123633544E+03 0.  0.
        -24    2    4    4    0    0 -0.19620825084E+03  0.15999901500E+03  0.22466374672E+03  0.34762681444E+03  0.79203791109E+02 0.  0.
         24    2    4    4    0    0  0.56839905345E+03 -0.51767658725E+03  0.64236007910E+03  0.10053020403E+04  0.83301789591E+02 0.  0.
         13    1    3    3    0    0 -0.92590431535E+02  0.10371111521E+03 -0.28556695712E+03  0.31761213835E+03  0.00000000000E+00 0. -1.
        -13    1    3    3    0    0 -0.27960037107E+03  0.25396645704E+03 -0.11592468171E+04  0.12192327554E+04  0.00000000000E+00 0.  1.
          2    1    6    6  502    0  0.56299372964E+02 -0.30443753120E+02  0.32801944342E+02  0.71919462267E+02  0.00000000000E+00 0. -1.
          1    1    5    5  503    0 -0.24297984948E+02  0.48308663050E+02  0.80614964333E+02  0.97071579119E+02  0.00000000000E+00 0. -1.
         -2    1    5    5    0  503 -0.17191026589E+03  0.11169035195E+03  0.14404878239E+03  0.25055523532E+03  0.00000000000E+00 0.  1.
         -1    1    6    6    0  502  0.51209968048E+03 -0.48723283413E+03  0.60955813476E+03  0.93338257807E+03  0.00000000000E+00 0.  1.
<mgrwt>
<rscale>  0 0.28314221E+04</rscale>
<asrwt>0</asrwt>
<pdfrwt beam="1">  1        2 0.26673567E+00 0.28314221E+04</pdfrwt>
<pdfrwt beam="2">  1       -2 0.17784491E+00 0.28314221E+04</pdfrwt>
<totfact> 0.15300301E+00</totfact>
</mgrwt>
</event>
<event>
12    1  0.1467288E-007  0.1321599E+04  0.7818608E-02  0.9012610E-01
          2   -1    0    0  501    0  0.00000000000E+00  0.00000000000E+00  0.15429462675E+04  0.15429462675E+04  0.00000000000E+00 0. -1.
         -2   -1    0    0    0  501 -0.00000000000E+00 -0.00000000000E+00 -0.28300139061E+03  0.28300139061E+03  0.00000000000E+00 0.  1.
         23    2    1    2    0    0 -0.20845090644E+03 -0.25644659243E+03  0.49587069099E+03  0.60297519659E+03  0.92058190071E+02 0.  0.
        254    2    1    2    0    0  0.20845090644E+03  0.25644659243E+03  0.76407418586E+03  0.12229724615E+04  0.89589934974E+03 0.  0.
        -24    2    4    4    0    0  0.31934283220E+03 -0.22539559861E+03  0.14302290785E+03  0.42470207425E+03  0.84458743501E+02 0.  0.
         24    2    4    4    0    0 -0.11089192576E+03  0.48184219104E+03  0.62105127801E+03  0.79827038722E+03  0.84035736036E+02 0.  0.
         13    1    3    3    0    0 -0.10086274594E+03 -0.59283624116E+02  0.14411642980E+03  0.18562701028E+03  0.00000000000E+00 0.  1.
        -13    1    3    3    0    0 -0.10758816050E+03 -0.19716296831E+03  0.35175426119E+03  0.41734818631E+03  0.00000000000E+00 0. -1.
          2    1    6    6  502    0 -0.12500943037E+03  0.43150676622E+03  0.55582582927E+03  0.71468020782E+03  0.00000000000E+00 0. -1.
          3    1    5    5  503    0  0.30885707024E+03 -0.18917718281E+03  0.12928331206E+03  0.38457102219E+03  0.00000000000E+00 0. -1.
         -4    1    5    5    0  503  0.10485761964E+02 -0.36218415804E+02  0.13739595792E+02  0.40131052065E+02  0.00000000000E+00 0.  1.
         -1    1    6    6    0  502  0.14117504604E+02  0.50335424818E+02  0.65225448739E+02  0.83590179393E+02  0.00000000000E+00 0.  1.
<mgrwt>
<rscale>  0 0.13215989E+04</rscale>
<asrwt>0</asrwt>
<pdfrwt beam="1">  1        2 0.23737634E+00 0.13215989E+04</pdfrwt>
<pdfrwt beam="2">  1       -2 0.43538676E-01 0.13215989E+04</pdfrwt>
<totfact> 0.58756893E+01</totfact>
</mgrwt>
</event>
<event>
12    1  0.1467288E-007  0.1716275E+04  0.7818608E-02  0.8752136E-01
          2   -1    0    0  501    0  0.00000000000E+00  0.00000000000E+00  0.16619996565E+04  0.16619996565E+04  0.00000000000E+00 0. -1.
         -2   -1    0    0    0  501 -0.00000000000E+00 -0.00000000000E+00 -0.44308049313E+03  0.44308049313E+03  0.00000000000E+00 0.  1.
         23    2    1    2    0    0  0.18749640923E+03 -0.58872343521E+03  0.43571031455E+03  0.76140840922E+03  0.90272370003E+02 0.  0.
        254    2    1    2    0    0 -0.18749640923E+03  0.58872343521E+03  0.78320884879E+03  0.13436717404E+04  0.90015968496E+03 0.  0.
        -24    2    4    4    0    0 -0.54580519283E+03  0.32527394770E+03  0.43513392561E+03  0.77385241449E+03  0.76154951426E+02 0.  0.
         24    2    4    4    0    0  0.35830878360E+03  0.26344948751E+03  0.34807492318E+03  0.56981932589E+03  0.75809597911E+02 0.  0.
         13    1    3    3    0    0  0.30933629552E+02 -0.85171385012E+02  0.10615167782E+03  0.13956802272E+03  0.00000000000E+00 0. -1.
        -13    1    3    3    0    0  0.15656277968E+03 -0.50355205020E+03  0.32955863673E+03  0.62184038651E+03  0.00000000000E+00 0.  1.
          2    1    6    6  502    0  0.33905908556E+03  0.25327487229E+03  0.34820236478E+03  0.54804572006E+03  0.00000000000E+00 0. -1.
          1    1    5    5  503    0 -0.34738942481E+03  0.17779211662E+03  0.29904014807E+03  0.49164464744E+03  0.00000000000E+00 0. -1.
         -2    1    5    5    0  503 -0.19841576802E+03  0.14748183108E+03  0.13609377754E+03  0.28220776705E+03  0.00000000000E+00 0.  1.
         -1    1    6    6    0  502  0.19249698035E+02  0.10174615223E+02 -0.12744160420E+00  0.21773605827E+02  0.00000000000E+00 0.  1.
<mgrwt>
<rscale>  0 0.17162746E+04</rscale>
<asrwt>0</asrwt>
<pdfrwt beam="1">  1        2 0.25569225E+00 0.17162746E+04</pdfrwt>
<pdfrwt beam="2">  1       -2 0.68166231E-01 0.17162746E+04</pdfrwt>
<totfact> 0.19272443E+01</totfact>
</mgrwt>
</event>
<event>
12    1  0.1652892E-007  0.1725315E+04  0.7818608E-02  0.8747056E-01
          1   -1    0    0  501    0  0.00000000000E+00  0.00000000000E+00  0.15972522473E+04  0.15972522473E+04  0.00000000000E+00 0. -1.
         -1   -1    0    0    0  501 -0.00000000000E+00 -0.00000000000E+00 -0.46591149783E+03  0.46591149783E+03  0.00000000000E+00 0.  1.
         23    2    1    2    0    0 -0.24822556522E+03 -0.50387592797E+03  0.76185146932E+03  0.95094969645E+03  0.91546610280E+02 0.  0.
        254    2    1    2    0    0  0.24822556522E+03  0.50387592797E+03  0.36948928010E+03  0.11122140486E+04  0.88599711052E+03 0.  0.
        -24    2    4    4    0    0  0.11923277778E+03  0.86288006703E+02  0.59208155427E+03  0.61543285019E+03  0.80839042480E+02 0.  0.
         24    2    4    4    0    0  0.12899278745E+03  0.41758792126E+03 -0.22259227416E+03  0.49678119845E+03  0.78901377782E+02 0.  0.
         13    1    3    3    0    0 -0.36917647399E+02 -0.58715885477E+02  0.15063709975E+03  0.16583728085E+03  0.00000000000E+00 0.  1.
        -13    1    3    3    0    0 -0.21130791782E+03 -0.44516004249E+03  0.61121436957E+03  0.78511241560E+03  0.00000000000E+00 0. -1.
          2    1    6    6  502    0  0.11616569633E+03  0.29863460607E+03 -0.19099423773E+03  0.37303605160E+03  0.00000000000E+00 0. -1.
          1    1    5    5  503    0  0.49620632062E+02  0.84233391831E+02  0.36920349165E+03  0.38192759742E+03  0.00000000000E+00 0. -1.
         -2    1    5    5    0  503  0.69612145713E+02  0.20546148713E+01  0.22287806261E+03  0.23350525276E+03  0.00000000000E+00 0.  1.
         -1    1    6    6    0  502  0.12827091113E+02  0.11895331519E+03 -0.31598036430E+02  0.12374514684E+03  0.00000000000E+00 0.  1.
<mgrwt>
<rscale>  0 0.17253153E+04</rscale>
<asrwt>0</asrwt>
<pdfrwt beam="1">  1        1 0.24573111E+00 0.17253153E+04</pdfrwt>
<pdfrwt beam="2">  1       -1 0.71678693E-01 0.17253153E+04</pdfrwt>
<totfact> 0.10455747E+01</totfact>
</mgrwt>
</event>
<event>
12    1  0.1467288E-007  0.1297338E+04  0.7818608E-02  0.9031679E-01
         -2   -1    0    0    0  501 -0.00000000000E+00  0.00000000000E+00  0.12316918794E+04  0.12316918794E+04  0.00000000000E+00 0.  1.
          2   -1    0    0  501    0  0.00000000000E+00 -0.00000000000E+00 -0.34162048203E+03  0.34162048203E+03  0.00000000000E+00 0. -1.
         23    2    1    2    0    0 -0.23151542577E+03  0.33844158296E+02  0.50742996364E+03  0.56605129221E+03  0.90465894054E+02 0.  0.
        254    2    1    2    0    0  0.23151542577E+03 -0.33844158296E+02  0.38264143373E+03  0.10072610692E+04  0.90189554571E+03 0.  0.
        -24    2    4    4    0    0  0.77345458043E+02 -0.23177557977E+03  0.60822472135E+03  0.66064546118E+03  0.82540138444E+02 0.  0.
         24    2    4    4    0    0  0.15416996773E+03  0.19793142147E+03 -0.22558328762E+03  0.34661560806E+03  0.79431313332E+02 0.  0.
         13    1    3    3    0    0 -0.18834096250E+03  0.53572410429E+02  0.34354993692E+03  0.39543505215E+03  0.00000000000E+00 0. -1.
        -13    1    3    3    0    0 -0.43174463267E+02 -0.19728252133E+02  0.16388002673E+03  0.17061624006E+03  0.00000000000E+00 0.  1.
          2    1    6    6  502    0  0.63164762578E+02  0.10685805069E+03 -0.62924221203E+02  0.13916855910E+03  0.00000000000E+00 0. -1.
          1    1    5    5  503    0  0.37648379059E+02 -0.68998670602E+02  0.11146697268E+03  0.13639319261E+03  0.00000000000E+00 0. -1.
         -2    1    5    5    0  503  0.39697078984E+02 -0.16277690916E+03  0.49675774867E+03  0.52425226857E+03  0.00000000000E+00 0.  1.
         -1    1    6    6    0  502  0.91005205150E+02  0.91073370778E+02 -0.16265906642E+03  0.20744704895E+03  0.00000000000E+00 0.  1.
<mgrwt>
<rscale>  0 0.12973375E+04</rscale>
<asrwt>0</asrwt>
<pdfrwt beam="1">  1        2 0.52556998E-01 0.12973375E+04</pdfrwt>
<pdfrwt beam="2">  1       -2 0.18949106E+00 0.12973375E+04</pdfrwt>
<totfact> 0.14527247E+01</totfact>
</mgrwt>
</event>
<event>
12    1  0.1467288E-007  0.2219362E+04  0.7818608E-02  0.8510412E-01
          1   -1    0    0  501    0  0.00000000000E+00  0.00000000000E+00  0.29195245115E+04  0.29195245115E+04  0.00000000000E+00 0. -1.
         -1   -1    0    0    0  501 -0.00000000000E+00 -0.00000000000E+00 -0.42177832577E+03  0.42177832577E+03  0.00000000000E+00 0.  1.
         23    2    1    2    0    0 -0.39670938991E+03  0.58720208008E+03  0.19005549304E+04  0.20303548012E+04  0.89704807341E+02 0.  0.
        254    2    1    2    0    0  0.39670938991E+03 -0.58720208008E+03  0.59719125530E+03  0.13109480360E+04  0.92723391595E+03 0.  0.
        -24    2    4    4    0    0  0.31383049976E+03  0.65496196824E+02 -0.10395420029E+03  0.34612182719E+03  0.78832157947E+02 0.  0.
         24    2    4    4    0    0  0.82878890151E+02 -0.65269827690E+03  0.70114545559E+03  0.96482620884E+03  0.80004451567E+02 0.  0.
         11    1    3    3    0    0 -0.21358470085E+02  0.10033316991E+02  0.39251852035E+02  0.45799122070E+02  0.00000000000E+00 0.  1.
        -11    1    3    3    0    0 -0.37535091982E+03  0.57716876309E+03  0.18613030783E+04  0.19845556791E+04  0.00000000000E+00 0. -1.
          4    1    6    6  502    0  0.91699949482E+02 -0.42905646351E+03  0.45236911369E+03  0.63018738851E+03  0.00000000000E+00 0. -1.
          1    1    5    5  503    0  0.87969834155E+02  0.81260009791E+00 -0.61595291173E+02  0.10739335145E+03  0.00000000000E+00 0. -1.
         -2    1    5    5    0  503  0.22586066560E+03  0.64683596726E+02 -0.42358909115E+02  0.23872847575E+03  0.00000000000E+00 0.  1.
         -1    1    6    6    0  502 -0.88210593309E+01 -0.22364181339E+03  0.24877634190E+03  0.33463882033E+03  0.00000000000E+00 0.  1.
<mgrwt>
<rscale>  0 0.22193622E+04</rscale>
<asrwt>0</asrwt>
<pdfrwt beam="1">  1        1 0.44915760E+00 0.22193622E+04</pdfrwt>
<pdfrwt beam="2">  1       -1 0.64888975E-01 0.22193622E+04</pdfrwt>
<totfact> 0.14998965E+00</totfact>
</mgrwt>
</event>
<event>
12    1  0.1467288E-007  0.2052875E+04  0.7818608E-02  0.8582291E-01
          4   -1    0    0  501    0  0.00000000000E+00  0.00000000000E+00  0.62977328102E+03  0.62977328102E+03  0.00000000000E+00 0. -1.
         -4   -1    0    0    0  501 -0.00000000000E+00 -0.00000000000E+00 -0.16729411787E+04  0.16729411787E+04  0.00000000000E+00 0.  1.
         23    2    1    2    0    0  0.33974226346E+03  0.22959854390E+03  0.38375057373E+03  0.56891914684E+03  0.90907622697E+02 0.  0.
        254    2    1    2    0    0 -0.33974226346E+03 -0.22959854390E+03 -0.14269184714E+04  0.17337953129E+04  0.89543819774E+03 0.  0.
        -24    2    4    4    0    0 -0.19828486189E+03 -0.22410331096E+03 -0.12307259057E+02  0.30983326091E+03  0.79410329948E+02 0.  0.
         24    2    4    4    0    0 -0.14145740157E+03 -0.54952329467E+01 -0.14146112124E+04  0.14239620520E+04  0.80639006079E+02 0.  0.
         13    1    3    3    0    0  0.63607331411E+02  0.15063834791E+02  0.31443213272E+02  0.72536110929E+02  0.00000000000E+00 0.  1.
        -13    1    3    3    0    0  0.27613493205E+03  0.21453470911E+03  0.35230736046E+03  0.49638303591E+03  0.00000000000E+00 0. -1.
          2    1    6    6  502    0 -0.12903518261E+03  0.23604830433E+02 -0.11190873566E+04  0.11267492081E+04  0.00000000000E+00 0. -1.
          1    1    5    5  503    0 -0.99004242536E+02 -0.16806644876E+03  0.94930847962E+00  0.19506171440E+03  0.00000000000E+00 0. -1.
         -2    1    5    5    0  503 -0.99280619352E+02 -0.56036862194E+02 -0.13256567537E+02  0.11477154650E+03  0.00000000000E+00 0.  1.
         -1    1    6    6    0  502 -0.12422218956E+02 -0.29100063380E+02 -0.29552385579E+03  0.29721284386E+03  0.00000000000E+00 0.  1.
<mgrwt>
<rscale>  0 0.20528747E+04</rscale>
<asrwt>0</asrwt>
<pdfrwt beam="1">  1        4 0.96888198E-01 0.20528747E+04</pdfrwt>
<pdfrwt beam="2">  1       -4 0.25737556E+00 0.20528747E+04</pdfrwt>
<totfact> 0.93611011E-02</totfact>
</mgrwt>
</event>
<event>
12    1  0.1467288E-007  0.2036769E+04  0.7818608E-02  0.8589620E-01
         -2   -1    0    0    0  501 -0.00000000000E+00  0.00000000000E+00  0.49585146788E+03  0.49585146788E+03  0.00000000000E+00 0.  1.
          2   -1    0    0  501    0  0.00000000000E+00 -0.00000000000E+00 -0.20915677846E+04  0.20915677846E+04  0.00000000000E+00 0. -1.
         23    2    1    2    0    0 -0.33926852719E+02  0.61513575926E+03 -0.13203976737E+04  0.14598573410E+04  0.90500859988E+02 0.  0.
        254    2    1    2    0    0  0.33926852719E+02 -0.61513575926E+03 -0.27531864301E+03  0.11275619115E+04  0.90335622841E+03 0.  0.
        -24    2    4    4    0    0 -0.26051616547E+03  0.67077223039E+02 -0.25568148846E+03  0.37989391533E+03  0.81106948163E+02 0.  0.
         24    2    4    4    0    0  0.29444301819E+03 -0.68221298230E+03 -0.19637154553E+02  0.74766799616E+03  0.80688106170E+02 0.  0.
         11    1    3    3    0    0  0.15333758393E+02  0.32831352314E+03 -0.62861761993E+03  0.70935534517E+03  0.00000000000E+00 0.  1.
        -11    1    3    3    0    0 -0.49260611112E+02  0.28682223611E+03 -0.69178005375E+03  0.75050199580E+03  0.00000000000E+00 0. -1.
          4    1    6    6  502    0  0.96168946835E+01 -0.15966451951E+02  0.12395346075E+02  0.22384299309E+02  0.00000000000E+00 0. -1.
          1    1    5    5  503    0 -0.79805654292E+02  0.58642310193E+02 -0.75166728299E+02  0.12432980353E+03  0.00000000000E+00 0. -1.
         -2    1    5    5    0  503 -0.18071051118E+03  0.84349128461E+01 -0.18051476016E+03  0.25556411180E+03  0.00000000000E+00 0.  1.
         -3    1    6    6    0  502  0.28482612351E+03 -0.66624653034E+03 -0.32032500628E+02  0.72528369686E+03  0.00000000000E+00 0.  1.
<mgrwt>
<rscale>  0 0.20367690E+04</rscale>
<asrwt>0</asrwt>
<pdfrwt beam="1">  1        2 0.32177966E+00 0.20367690E+04</pdfrwt>
<pdfrwt beam="2">  1       -2 0.76284840E-01 0.20367690E+04</pdfrwt>
<totfact> 0.84597246E+00</totfact>
</mgrwt>
</event>
<event>
12    1  0.1467288E-007  0.2174866E+04  0.7818608E-02  0.8528963E-01
         -1   -1    0    0    0  501 -0.00000000000E+00  0.00000000000E+00  0.15217634841E+04  0.15217634841E+04  0.00000000000E+00 0.  1.
          1   -1    0    0  501    0  0.00000000000E+00 -0.00000000000E+00 -0.77706600995E+03  0.77706600995E+03  0.00000000000E+00 0. -1.
         23    2    1    2    0    0  0.50568097010E+03 -0.70699153420E+03  0.98455828918E+02  0.87949747802E+03  0.90950484618E+02 0.  0.
        254    2    1    2    0    0 -0.50568097010E+03  0.70699153420E+03  0.64624164522E+03  0.14193320160E+04  0.91723761083E+03 0.  0.
        -24    2    4    4    0    0 -0.66321360080E+02  0.22831647672E+03  0.71834830177E+03  0.76092129390E+03  0.80311870225E+02 0.  0.
         24    2    4    4    0    0 -0.43935961002E+03  0.47867505748E+03 -0.72106656556E+02  0.65841072212E+03  0.78349419332E+02 0.  0.
         11    1    3    3    0    0  0.31080042484E+02 -0.17114640123E+02 -0.47557560787E+01  0.35798005017E+02  0.00000000000E+00 0. -1.
        -11    1    3    3    0    0  0.47460092762E+03 -0.68987689408E+03  0.10321158500E+03  0.84369947301E+03  0.00000000000E+00 0.  1.
          2    1    6    6  502    0 -0.84834941620E+02  0.12724474975E+03 -0.40587864377E+02  0.15822632017E+03  0.00000000000E+00 0. -1.
          3    1    5    5  503    0 -0.66762444676E+02  0.92601557162E+02  0.29336637777E+03  0.31479533671E+03  0.00000000000E+00 0. -1.
         -4    1    5    5    0  503  0.44108459631E+00  0.13571491956E+03  0.42498192400E+03  0.44612595719E+03  0.00000000000E+00 0.  1.
         -1    1    6    6    0  502 -0.35452466840E+03  0.35143030773E+03 -0.31518792180E+02  0.50018440195E+03  0.00000000000E+00 0.  1.
<mgrwt>
<rscale>  0 0.21748661E+04</rscale>
<asrwt>0</asrwt>
<pdfrwt beam="1">  1        1 0.11954862E+00 0.21748661E+04</pdfrwt>
<pdfrwt beam="2">  1       -1 0.23411746E+00 0.21748661E+04</pdfrwt>
<totfact> 0.18759049E+00</totfact>
</mgrwt>
</event>
<event>
12    1  0.1467288E-007  0.1770061E+04  0.7818608E-02  0.8722385E-01
         -2   -1    0    0    0  501 -0.00000000000E+00  0.00000000000E+00  0.24186518812E+04  0.24186518812E+04  0.00000000000E+00 0.  1.
          2   -1    0    0  501    0  0.00000000000E+00 -0.00000000000E+00 -0.32384932703E+03  0.32384932703E+03  0.00000000000E+00 0. -1.
         23    2    1    2    0    0 -0.23756993255E+03  0.18807343192E+03  0.16621350809E+04  0.16919748856E+04  0.90966463806E+02 0.  0.
        254    2    1    2    0    0  0.23756993255E+03 -0.18807343192E+03  0.43266747326E+03  0.10505263227E+04  0.90807121062E+03 0.  0.
        -24    2    4    4    0    0  0.54642497814E+03 -0.25777960057E+02  0.41555597500E+03  0.69221086705E+03  0.84996212507E+02 0.  0.
         24    2    4    4    0    0 -0.30885504559E+03 -0.16229547187E+03  0.17111498259E+02  0.35831545562E+03  0.79786609056E+02 0.  0.
         13    1    3    3    0    0 -0.21407559798E+03  0.18331648256E+03  0.16114041099E+04  0.16358656729E+04  0.00000000000E+00 0.  1.
        -13    1    3    3    0    0 -0.23494334567E+02  0.47569493584E+01  0.50730971012E+02  0.56109212646E+02  0.00000000000E+00 0. -1.
          2    1    6    6  502    0 -0.29295417864E+03 -0.12863517695E+03  0.22302774324E+02  0.32072819220E+03  0.00000000000E+00 0. -1.
          1    1    5    5  503    0  0.47930828755E+03 -0.37974467484E+01  0.38692114055E+03  0.61600229230E+03  0.00000000000E+00 0. -1.
         -2    1    5    5    0  503  0.67116690591E+02 -0.21980513309E+02  0.28634834456E+02  0.76208574750E+02  0.00000000000E+00 0.  1.
         -3    1    6    6    0  502 -0.15900866955E+02 -0.33660294918E+02 -0.51912760643E+01  0.37587263416E+02  0.00000000000E+00 0.  1.
<mgrwt>
<rscale>  0 0.17700608E+04</rscale>
<asrwt>0</asrwt>
<pdfrwt beam="1">  1        2 0.49822975E-01 0.17700608E+04</pdfrwt>
<pdfrwt beam="2">  1       -2 0.37210028E+00 0.17700608E+04</pdfrwt>
<totfact> 0.10786963E+00</totfact>
</mgrwt>
</event>
<event>
12    1  0.1467288E-007  0.1661799E+04  0.7818608E-02  0.8783457E-01
          1   -1    0    0  501    0  0.00000000000E+00  0.00000000000E+00  0.10921714105E+04  0.10921714105E+04  0.00000000000E+00 0. -1.
         -1   -1    0    0    0  501 -0.00000000000E+00 -0.00000000000E+00 -0.63212961650E+03  0.63212961650E+03  0.00000000000E+00 0.  1.
         23    2    1    2    0    0 -0.34544638849E+03  0.42887017423E+02  0.62666744988E+03  0.72364400368E+03  0.98873898165E+02 0.  0.
        254    2    1    2    0    0  0.34544638849E+03 -0.42887017423E+02 -0.16662565585E+03  0.10006570233E+04  0.92324312377E+03 0.  0.
        -24    2    4    4    0    0 -0.29595430655E+03 -0.78526944462E+02  0.46470929382E+02  0.31934786808E+03  0.77897888237E+02 0.  0.
         24    2    4    4    0    0  0.64140069505E+03  0.35639927039E+02 -0.21309658523E+03  0.68130915527E+03  0.78147005106E+02 0.  0.
         13    1    3    3    0    0 -0.17263107796E+02 -0.53696503714E+01  0.97067415839E+02  0.98736676334E+02  0.00000000000E+00 0.  1.
        -13    1    3    3    0    0 -0.32818328070E+03  0.48256667795E+02  0.52960003404E+03  0.62490732735E+03  0.00000000000E+00 0. -1.
          2    1    6    6  502    0  0.20960828925E+03 -0.13552747393E+02 -0.41695686139E+02  0.21414444220E+03  0.00000000000E+00 0. -1.
          3    1    5    5  503    0 -0.11946417488E+01 -0.13128742629E+02 -0.26613133619E+01  0.13448927122E+02  0.00000000000E+00 0. -1.
         -4    1    5    5    0  503 -0.29475966481E+03 -0.65398201834E+02  0.49132242744E+02  0.30589894095E+03  0.00000000000E+00 0.  1.
         -1    1    6    6    0  502  0.43179240580E+03  0.49192674432E+02 -0.17140089909E+03  0.46716471307E+03  0.00000000000E+00 0.  1.
<mgrwt>
<rscale>  0 0.16617989E+04</rscale>
<asrwt>0</asrwt>
<pdfrwt beam="1">  1        1 0.16802637E+00 0.16617989E+04</pdfrwt>
<pdfrwt beam="2">  1       -1 0.97250711E-01 0.16617989E+04</pdfrwt>
<totfact> 0.12463385E+01</totfact>
</mgrwt>
</event>
<event>
12    1  0.1467288E-007  0.1654474E+04  0.7818608E-02  0.8787764E-01
         -2   -1    0    0    0  501 -0.00000000000E+00  0.00000000000E+00  0.13373545868E+04  0.13373545868E+04  0.00000000000E+00 0.  1.
          2   -1    0    0  501    0  0.00000000000E+00 -0.00000000000E+00 -0.51169775111E+03  0.51169775111E+03  0.00000000000E+00 0. -1.
         23    2    1    2    0    0 -0.47179383141E+03 -0.26040566676E+03  0.52144920922E+03  0.75542643893E+03  0.91429186787E+02 0.  0.
        254    2    1    2    0    0  0.47179383141E+03  0.26040566676E+03  0.30420762646E+03  0.10936258990E+04  0.90170660210E+03 0.  0.
        -24    2    4    4    0    0  0.21163692109E+03 -0.30902079599E+03  0.25596636742E+03  0.46059827759E+03  0.79674044384E+02 0.  0.
         24    2    4    4    0    0  0.26015691032E+03  0.56942646275E+03  0.48241259042E+02  0.63302762138E+03  0.80427830333E+02 0.  0.
         11    1    3    3    0    0 -0.43778524522E+02 -0.54657626058E+02  0.48418135971E+02  0.85137131656E+02  0.00000000000E+00 0.  1.
        -11    1    3    3    0    0 -0.42801530689E+03 -0.20574804070E+03  0.47303107325E+03  0.67028930727E+03  0.00000000000E+00 0. -1.
          4    1    6    6  502    0  0.21193270759E+03  0.52210329642E+03  0.38889541185E+02  0.56481830804E+03  0.00000000000E+00 0. -1.
          3    1    5    5  503    0  0.17238297996E+03 -0.29257384509E+03  0.21775399784E+03  0.40340073151E+03  0.00000000000E+00 0. -1.
         -4    1    5    5    0  503  0.39253941129E+02 -0.16446950893E+02  0.38212369587E+02  0.57197546078E+02  0.00000000000E+00 0.  1.
         -3    1    6    6    0  502  0.48224202724E+02  0.47323166326E+02  0.93517178569E+01  0.68209313340E+02  0.00000000000E+00 0.  1.
<mgrwt>
<rscale>  0 0.16544743E+04</rscale>
<asrwt>0</asrwt>
<pdfrwt beam="1">  1        2 0.78722731E-01 0.16544743E+04</pdfrwt>
<pdfrwt beam="2">  1       -2 0.20574686E+00 0.16544743E+04</pdfrwt>
<totfact> 0.69760838E+00</totfact>
</mgrwt>
</event>
<event>
12    1  0.1467288E-007  0.2117657E+04  0.7818608E-02  0.8553505E-01
         -1   -1    0    0    0  501 -0.00000000000E+00  0.00000000000E+00  0.11071220829E+04  0.11071220829E+04  0.00000000000E+00 0.  1.
          1   -1    0    0  501    0  0.00000000000E+00 -0.00000000000E+00 -0.10126419172E+04  0.10126419172E+04  0.00000000000E+00 0. -1.
         23    2    1    2    0    0 -0.32933994559E+03 -0.78506216984E+03  0.14568598286E+03  0.86836619477E+03  0.89710826255E+02 0.  0.
        254    2    1    2    0    0  0.32933994559E+03  0.78506216984E+03 -0.51205817158E+02  0.12513978054E+04  0.91574397149E+03 0.  0.
        -24    2    4    4    0    0  0.54520258492E+03  0.17213621378E+03 -0.13247203725E+03  0.59213041092E+03  0.78694651589E+02 0.  0.
         24    2    4    4    0    0 -0.21586263933E+03  0.61292595605E+03  0.81266220094E+02  0.65926739446E+03  0.75857710255E+02 0.  0.
         11    1    3    3    0    0 -0.29323966394E+03 -0.66225950967E+03  0.15260912456E+03  0.74018018316E+03  0.00000000000E+00 0. -1.
        -11    1    3    3    0    0 -0.36100281652E+02 -0.12280266017E+03 -0.69231417019E+01  0.12818601161E+03  0.00000000000E+00 0.  1.
          4    1    6    6  502    0 -0.18125011172E+03  0.43313851179E+03  0.79210997571E+02  0.47616694082E+03  0.00000000000E+00 0. -1.
          1    1    5    5  503    0  0.38211699057E+03  0.15185593591E+03 -0.74608550333E+02  0.41789957590E+03  0.00000000000E+00 0. -1.
         -4    1    5    5    0  503  0.16308559435E+03  0.20280277869E+02 -0.57863486918E+02  0.17423083503E+03  0.00000000000E+00 0.  1.
         -3    1    6    6    0  502 -0.34612527603E+02  0.17978744427E+03  0.20552225224E+01  0.18310045364E+03  0.00000000000E+00 0.  1.
<mgrwt>
<rscale>  0 0.21176574E+04</rscale>
<asrwt>0</asrwt>
<pdfrwt beam="1">  1        1 0.15579106E+00 0.21176574E+04</pdfrwt>
<pdfrwt beam="2">  1       -1 0.17032647E+00 0.21176574E+04</pdfrwt>
<totfact> 0.33237450E+00</totfact>
</mgrwt>
</event>
<event>
12    1  0.1467288E-007  0.2645291E+04  0.7818608E-02  0.8352978E-01
          2   -1    0    0  501    0  0.00000000000E+00  0.00000000000E+00  0.20473921830E+04  0.20473921830E+04  0.00000000000E+00 0. -1.
         -2   -1    0    0    0  501 -0.00000000000E+00 -0.00000000000E+00 -0.85444864483E+03  0.85444864483E+03  0.00000000000E+00 0.  1.
         23    2    1    2    0    0 -0.73529227649E+03  0.49151282867E+03  0.13751604131E+04  0.16372455744E+04  0.85248557950E+02 0.  0.
        254    2    1    2    0    0  0.73529227649E+03 -0.49151282867E+03 -0.18221687495E+03  0.12645952534E+04  0.88530140220E+03 0.  0.
        -24    2    4    4    0    0 -0.86280364852E+02  0.15759175552E+03 -0.70422448939E+02  0.20859538842E+03  0.79203863458E+02 0.  0.
         24    2    4    4    0    0  0.82157264134E+03 -0.64910458420E+03 -0.11179442602E+03  0.10559998650E+04  0.79494370085E+02 0.  0.
         11    1    3    3    0    0 -0.68626305799E+03  0.47814990811E+03  0.12738140888E+04  0.15238722559E+04  0.00000000000E+00 0. -1.
        -11    1    3    3    0    0 -0.49029218501E+02  0.13362920560E+02  0.10134632432E+03  0.11337331858E+03  0.00000000000E+00 0.  1.
          2    1    6    6  502    0  0.74471667020E+03 -0.57912147880E+03 -0.12332932846E+03  0.95141722149E+03  0.00000000000E+00 0. -1.
          3    1    5    5  503    0 -0.70004072572E+02  0.79907562336E+02 -0.60588882677E+01  0.10640723106E+03  0.00000000000E+00 0. -1.
         -4    1    5    5    0  503 -0.16276292280E+02  0.77684193189E+02 -0.64363560671E+02  0.10218815736E+03  0.00000000000E+00 0.  1.
         -1    1    6    6    0  502  0.76855971143E+02 -0.69983105397E+02  0.11534902444E+02  0.10458264347E+03  0.00000000000E+00 0.  1.
<mgrwt>
<rscale>  0 0.26452913E+04</rscale>
<asrwt>0</asrwt>
<pdfrwt beam="1">  1        2 0.31498341E+00 0.26452913E+04</pdfrwt>
<pdfrwt beam="2">  1       -2 0.13145364E+00 0.26452913E+04</pdfrwt>
<totfact> 0.23393494E+00</totfact>
</mgrwt>
</event>
<event>
12    1  0.1467288E-007  0.1316966E+04  0.7818608E-02  0.9016218E-01
         -2   -1    0    0    0  501 -0.00000000000E+00  0.00000000000E+00  0.17608240140E+04  0.17608240140E+04  0.00000000000E+00 0.  1.
          2   -1    0    0  501    0  0.00000000000E+00 -0.00000000000E+00 -0.24624810207E+03  0.24624810207E+03  0.00000000000E+00 0. -1.
         23    2    1    2    0    0 -0.30154832816E+03 -0.13221476345E+03  0.32290586613E+03  0.47674892561E+03  0.12086853104E+03 0.  0.
        254    2    1    2    0    0  0.30154832816E+03  0.13221476345E+03  0.11916700458E+04  0.15303231905E+04  0.90188659560E+03 0.  0.
        -24    2    4    4    0    0  0.17622492634E+03 -0.18964862386E+03  0.11405407370E+04  0.11722973862E+04  0.80163356528E+02 0.  0.
         24    2    4    4    0    0  0.12532340182E+03  0.32186338730E+03  0.51129308814E+02  0.35802580427E+03  0.79159807832E+02 0.  0.
         11    1    3    3    0    0 -0.18376135079E+03 -0.89367877588E+02  0.11635846137E+03  0.23514706700E+03  0.00000000000E+00 0. -1.
        -11    1    3    3    0    0 -0.11778697737E+03 -0.42846885859E+02  0.20654740477E+03  0.24160185861E+03  0.00000000000E+00 0.  1.
          4    1    6    6  502    0  0.15175103705E+02  0.14370297858E+03  0.12593049619E+02  0.14504969743E+03  0.00000000000E+00 0. -1.
          3    1    5    5  503    0  0.21540932119E+02 -0.43348755313E+02  0.35999070171E+03  0.36323054891E+03  0.00000000000E+00 0. -1.
         -4    1    5    5    0  503  0.15468399423E+03 -0.14629986854E+03  0.78055003531E+03  0.80906683731E+03  0.00000000000E+00 0.  1.
         -3    1    6    6    0  502  0.11014829811E+03  0.17816040872E+03  0.38536259195E+02  0.21297610684E+03  0.00000000000E+00 0.  1.
<mgrwt>
<rscale>  0 0.13169656E+04</rscale>
<asrwt>0</asrwt>
<pdfrwt beam="1">  1        2 0.37884325E-01 0.13169656E+04</pdfrwt>
<pdfrwt beam="2">  1       -2 0.27089599E+00 0.13169656E+04</pdfrwt>
<totfact> 0.64357691E+00</totfact>
</mgrwt>
</event>
<event>
12    1  0.1467288E-007  0.2709345E+04  0.7818608E-02  0.8331979E-01
         -2   -1    0    0    0  501 -0.00000000000E+00  0.00000000000E+00  0.86673330273E+03  0.86673330273E+03  0.00000000000E+00 0.  1.
          2   -1    0    0  501    0  0.00000000000E+00 -0.00000000000E+00 -0.21173030661E+04  0.21173030661E+04  0.00000000000E+00 0. -1.
         23    2    1    2    0    0  0.23838378242E+03  0.90600794265E+03  0.27111930246E+03  0.97937535356E+03  0.89404625870E+02 0.  0.
        254    2    1    2    0    0 -0.23838378242E+03 -0.90600794265E+03 -0.15216890659E+04  0.20046610153E+04  0.90854331391E+03 0.  0.
        -24    2    4    4    0    0 -0.23345375327E+03 -0.10301671072E+04 -0.98072986271E+03  0.14438198262E+04  0.83902938918E+02 0.  0.
         24    2    4    4    0    0 -0.49300291508E+01  0.12415916457E+03 -0.54095920317E+03  0.56084118913E+03  0.80412540050E+02 0.  0.
         11    1    3    3    0    0  0.12165177055E+02  0.76663214351E+02  0.47940157603E+02  0.91233210392E+02  0.00000000000E+00 0. -1.
        -11    1    3    3    0    0  0.22621860536E+03  0.82934472830E+03  0.22317914486E+03  0.88814214317E+03  0.00000000000E+00 0.  1.
          2    1    6    6  502    0  0.37249185230E+02  0.51085317072E+02 -0.21129726228E+03  0.22055326901E+03  0.00000000000E+00 0. -1.
          3    1    5    5  503    0 -0.10571697971E+03 -0.33919815858E+03 -0.36787287193E+03  0.51143124707E+03  0.00000000000E+00 0. -1.
         -2    1    5    5    0  503 -0.12773677355E+03 -0.69096894865E+03 -0.61285699077E+03  0.93238857911E+03  0.00000000000E+00 0.  1.
         -1    1    6    6    0  502 -0.42179214381E+02  0.73073847497E+02 -0.32966194089E+03  0.34028792013E+03  0.00000000000E+00 0.  1.
<mgrwt>
<rscale>  0 0.27093446E+04</rscale>
<asrwt>0</asrwt>
<pdfrwt beam="1">  1        2 0.32573893E+00 0.27093446E+04</pdfrwt>
<pdfrwt beam="2">  1       -2 0.13334359E+00 0.27093446E+04</pdfrwt>
<totfact> 0.20509436E+00</totfact>
</mgrwt>
</event>
<event>
12    1  0.1467288E-007  0.1125804E+04  0.7818608E-02  0.9180400E-01
          2   -1    0    0  501    0  0.00000000000E+00  0.00000000000E+00  0.15062315516E+04  0.15062315516E+04  0.00000000000E+00 0. -1.
         -2   -1    0    0    0  501 -0.00000000000E+00 -0.00000000000E+00 -0.21036517700E+03  0.21036517700E+03  0.00000000000E+00 0.  1.
         23    2    1    2    0    0  0.12970600603E+03  0.82421822721E+02  0.39619818325E+03  0.43451830607E+03  0.90642997723E+02 0.  0.
        254    2    1    2    0    0 -0.12970600603E+03 -0.82421822721E+02  0.89966819130E+03  0.12820784225E+04  0.90039170483E+03 0.  0.
        -24    2    4    4    0    0  0.20633106838E+03  0.15351656585E+03  0.81084889014E+03  0.85415076182E+03  0.77186498283E+02 0.  0.
         24    2    4    4    0    0 -0.33603707441E+03 -0.23593838857E+03  0.88819301160E+02  0.42792766067E+03  0.81519175191E+02 0.  0.
         13    1    3    3    0    0  0.93395708237E+02  0.24877533985E+02  0.30989906673E+03  0.32462144349E+03  0.00000000000E+00 0. -1.
        -13    1    3    3    0    0  0.36310297789E+02  0.57544288736E+02  0.86299116520E+02  0.10989686257E+03  0.00000000000E+00 0.  1.
          2    1    6    6  502    0 -0.21652183248E+03 -0.14366698335E+03  0.95363540031E+02  0.27679615390E+03  0.00000000000E+00 0. -1.
          1    1    5    5  503    0  0.14234521746E+03  0.12405950694E+03  0.67775313063E+03  0.70356394753E+03  0.00000000000E+00 0. -1.
         -2    1    5    5    0  503  0.63985850926E+02  0.29457058909E+02  0.13309575951E+03  0.15058681429E+03  0.00000000000E+00 0.  1.
         -1    1    6    6    0  502 -0.11951524193E+03 -0.92271405229E+02 -0.65442388710E+01  0.15113150677E+03  0.00000000000E+00 0.  1.
<mgrwt>
<rscale>  0 0.11258040E+04</rscale>
<asrwt>0</asrwt>
<pdfrwt beam="1">  1        2 0.23172792E+00 0.11258040E+04</pdfrwt>
<pdfrwt beam="2">  1       -2 0.32363874E-01 0.11258040E+04</pdfrwt>
<totfact> 0.11091427E+02</totfact>
</mgrwt>
</event>
<event>
12    1  0.1467288E-007  0.1943277E+04  0.7818608E-02  0.8633610E-01
          1   -1    0    0  501    0  0.00000000000E+00  0.00000000000E+00  0.40343448800E+03  0.40343448800E+03  0.00000000000E+00 0. -1.
         -1   -1    0    0    0  501 -0.00000000000E+00 -0.00000000000E+00 -0.23401108190E+04  0.23401108190E+04  0.00000000000E+00 0.  1.
         23    2    1    2    0    0 -0.36559887793E+03  0.35180336634E+03 -0.15627456212E+04  0.16453332410E+04  0.86714758870E+02 0.  0.
        254    2    1    2    0    0  0.36559887793E+03 -0.35180336634E+03 -0.37393070985E+03  0.10982120660E+04  0.89934277005E+03 0.  0.
        -24    2    4    4    0    0 -0.17571883756E+03  0.16977643018E+03 -0.38520818235E+01  0.25659457212E+03  0.78261036190E+02 0.  0.
         24    2    4    4    0    0  0.54131771550E+03 -0.52157979652E+03 -0.37007862803E+03  0.84161749389E+03  0.79318735801E+02 0.  0.
         13    1    3    3    0    0 -0.16684901196E+02  0.48017382476E+02 -0.12318977191E+03  0.13326580526E+03  0.00000000000E+00 0. -1.
        -13    1    3    3    0    0 -0.34891397674E+03  0.30378598386E+03 -0.14395558493E+04  0.15120674358E+04  0.00000000000E+00 0.  1.
          2    1    6    6  502    0  0.42908868307E+03 -0.45371436401E+03 -0.31401413036E+03  0.69898404568E+03  0.00000000000E+00 0. -1.
          3    1    5    5  503    0 -0.95425295953E+02  0.13767302786E+03 -0.19752411851E+02  0.16867130011E+03  0.00000000000E+00 0. -1.
         -4    1    5    5    0  503 -0.80293541610E+02  0.32103402323E+02  0.15900330028E+02  0.87923272004E+02  0.00000000000E+00 0.  1.
         -1    1    6    6    0  502  0.11222903243E+03 -0.67865432506E+02 -0.56064497663E+02  0.14263344821E+03  0.00000000000E+00 0.  1.
<mgrwt>
<rscale>  0 0.19432770E+04</rscale>
<asrwt>0</asrwt>
<pdfrwt beam="1">  1        1 0.62066845E-01 0.19432770E+04</pdfrwt>
<pdfrwt beam="2">  1       -1 0.36001705E+00 0.19432770E+04</pdfrwt>
<totfact> 0.73833157E-01</totfact>
</mgrwt>
</event>
<event>
12    1  0.1467288E-007  0.1504098E+04  0.7818608E-02  0.8881733E-01
          2   -1    0    0  501    0  0.00000000000E+00  0.00000000000E+00  0.22756804049E+04  0.22756804049E+04  0.00000000000E+00 0. -1.
         -2   -1    0    0    0  501 -0.00000000000E+00 -0.00000000000E+00 -0.24853109850E+03  0.24853109850E+03  0.00000000000E+00 0.  1.
         23    2    1    2    0    0 -0.20385231397E+01  0.19355120508E+03 -0.80554732340E+02  0.22863748752E+03  0.91212999262E+02 0.  0.
        254    2    1    2    0    0  0.20385231397E+01 -0.19355120508E+03  0.21077040387E+04  0.22955740159E+04  0.88869427978E+03 0.  0.
        -24    2    4    4    0    0 -0.40628426185E+03  0.46746962188E+02  0.11719427563E+04  0.12436341307E+04  0.76966532191E+02 0.  0.
         24    2    4    4    0    0  0.40832278499E+03 -0.24029816727E+03  0.93576128246E+03  0.10519398852E+04  0.80359432584E+02 0.  0.
         13    1    3    3    0    0 -0.38989315665E+02  0.14926812282E+03 -0.72292551510E+02  0.17037415364E+03  0.00000000000E+00 0.  1.
        -13    1    3    3    0    0  0.36950792526E+02  0.44283082263E+02 -0.82621808296E+01  0.58263333882E+02  0.00000000000E+00 0. -1.
          4    1    6    6  502    0  0.24388832743E+03 -0.15351853903E+03  0.48225997230E+03  0.56180436004E+03  0.00000000000E+00 0. -1.
          3    1    5    5  503    0 -0.16158963727E+03  0.54143165363E+02  0.52208839402E+03  0.54919849271E+03  0.00000000000E+00 0. -1.
         -4    1    5    5    0  503 -0.24469462458E+03 -0.73962031755E+01  0.64985436225E+03  0.69443563795E+03  0.00000000000E+00 0.  1.
         -1    1    6    6    0  502  0.16443445756E+03 -0.86779628237E+02  0.45350131016E+03  0.49013552516E+03  0.00000000000E+00 0.  1.
<mgrwt>
<rscale>  0 0.15040975E+04</rscale>
<asrwt>0</asrwt>
<pdfrwt beam="1">  1        2 0.35010466E+00 0.15040975E+04</pdfrwt>
<pdfrwt beam="2">  1       -2 0.38235555E-01 0.15040975E+04</pdfrwt>
<totfact> 0.29237719E+01</totfact>
</mgrwt>
</event>
<event>
12    1  0.1467288E-007  0.1089834E+04  0.7818608E-02  0.9215157E-01
          1   -1    0    0  501    0  0.00000000000E+00  0.00000000000E+00  0.66766124849E+03  0.66766124849E+03  0.00000000000E+00 0. -1.
         -1   -1    0    0    0  501 -0.00000000000E+00 -0.00000000000E+00 -0.44473850725E+03  0.44473850725E+03  0.00000000000E+00 0.  1.
         23    2    1    2    0    0 -0.82698409159E+02  0.74592693969E+02 -0.71095948612E+02  0.16030883151E+03  0.90781003965E+02 0.  0.
        254    2    1    2    0    0  0.82698409159E+02 -0.74592693969E+02  0.29401868985E+03  0.95209092423E+03  0.89868072258E+03 0.  0.
        -24    2    4    4    0    0 -0.35435409010E+03 -0.22788054745E+03  0.19316464381E+03  0.47133207804E+03  0.85702876832E+02 0.  0.
         24    2    4    4    0    0  0.43705249926E+03  0.15328785349E+03  0.10085404604E+03  0.48075884618E+03  0.80283724655E+02 0.  0.
         11    1    3    3    0    0  0.15963908102E+02  0.84407638617E+01 -0.29233628337E+02  0.34361284641E+02  0.00000000000E+00 0. -1.
        -11    1    3    3    0    0 -0.98662317260E+02  0.66151930107E+02 -0.41862320275E+02  0.12594754687E+03  0.00000000000E+00 0.  1.
          2    1    6    6  502    0  0.27283854640E+03  0.12352158560E+03  0.93319640895E+02  0.31369891598E+03  0.00000000000E+00 0. -1.
          3    1    5    5  503    0 -0.23018721848E+03 -0.16127241499E+03  0.84792941551E+02  0.29357246180E+03  0.00000000000E+00 0. -1.
         -4    1    5    5    0  503 -0.12416687162E+03 -0.66608132461E+02  0.10837170226E+03  0.17775961625E+03  0.00000000000E+00 0.  1.
         -1    1    6    6    0  502  0.16421395286E+03  0.29766267882E+02  0.75344051427E+01  0.16705993020E+03  0.00000000000E+00 0.  1.
<mgrwt>
<rscale>  0 0.10898342E+04</rscale>
<asrwt>0</asrwt>
<pdfrwt beam="1">  1        1 0.10271711E+00 0.10898342E+04</pdfrwt>
<pdfrwt beam="2">  1       -1 0.68421309E-01 0.10898342E+04</pdfrwt>
<totfact> 0.63109213E+01</totfact>
</mgrwt>
</event>
<event>
12    1  0.1467288E-007  0.2111526E+04  0.7818608E-02  0.8556183E-01
         -1   -1    0    0    0  501 -0.00000000000E+00  0.00000000000E+00  0.19603279275E+04  0.19603279275E+04  0.00000000000E+00 0. -1.
          1   -1    0    0  501    0  0.00000000000E+00 -0.00000000000E+00 -0.56859658319E+03  0.56859658319E+03  0.00000000000E+00 0.  1.
         23    2    1    2    0    0  0.64098768724E+03 -0.15772013860E+03  0.12344004840E+04  0.14031180887E+04  0.96202696370E+02 0.  0.
        254    2    1    2    0    0 -0.64098768724E+03  0.15772013860E+03  0.15733086039E+03  0.11258064220E+04  0.89830186622E+03 0.  0.
        -24    2    4    4    0    0 -0.66385929237E+03 -0.21953943917E+03 -0.12269706801E+02  0.70376270563E+03  0.78896607755E+02 0.  0.
         24    2    4    4    0    0  0.22871605131E+02  0.37725957777E+03  0.16960056719E+03  0.42204371636E+03  0.80676184799E+02 0.  0.
         13    1    3    3    0    0  0.61261640093E+03 -0.16400047088E+03  0.12054726271E+04  0.13621157307E+04  0.00000000000E+00 0. -1.
        -13    1    3    3    0    0  0.28371286310E+02  0.62803322772E+01  0.28927856828E+02  0.41002357994E+02  0.00000000000E+00 0.  1.
          4    1    6    6  502    0  0.51063545421E+02  0.29698791999E+03  0.13484519334E+03  0.33014017699E+03  0.00000000000E+00 0. -1.
          3    1    5    5  503    0 -0.58970915357E+03 -0.16775280978E+03 -0.65878578707E+01  0.61314051478E+03  0.00000000000E+00 0. -1.
         -4    1    5    5    0  503 -0.74150138801E+02 -0.51786629385E+02 -0.56818489305E+01  0.90622190850E+02  0.00000000000E+00 0.  1.
         -3    1    6    6    0  502 -0.28191940290E+02  0.80271657772E+02  0.34755373848E+02  0.91903539377E+02  0.00000000000E+00 0.  1.
<mgrwt>
<rscale>  0 0.21115262E+04</rscale>
<asrwt>0</asrwt>
<pdfrwt beam="1">  1        1 0.87476399E-01 0.21115262E+04</pdfrwt>
<pdfrwt beam="2">  1       -1 0.30158891E+00 0.21115262E+04</pdfrwt>
<totfact> 0.10969135E+00</totfact>
</mgrwt>
</event>
<event>
12    1  0.1467288E-007  0.1154055E+04  0.7818608E-02  0.9154050E-01
         -1   -1    0    0    0  501 -0.00000000000E+00  0.00000000000E+00  0.27449575212E+03  0.27449575212E+03  0.00000000000E+00 0.  1.
          1   -1    0    0  501    0  0.00000000000E+00 -0.00000000000E+00 -0.12129914264E+04  0.12129914264E+04  0.00000000000E+00 0. -1.
         23    2    1    2    0    0 -0.41296519141E+02 -0.99137508220E+02  0.47492253080E+02  0.14575923564E+03  0.86351564213E+02 0.  0.
        254    2    1    2    0    0  0.41296519141E+02  0.99137508220E+02 -0.98598792736E+03  0.13417279429E+04  0.90361940650E+03 0.  0.
        -24    2    4    4    0    0  0.18699079104E+03  0.45049062879E+03 -0.38253768902E+03  0.62419365626E+03  0.73316263118E+02 0.  0.
         24    2    4    4    0    0 -0.14569427190E+03 -0.35135312057E+03 -0.60345023834E+03  0.71753428663E+03  0.77636500009E+02 0.  0.
         11    1    3    3    0    0 -0.43130554160E+02 -0.60487220879E+01  0.24028575594E+02  0.49741372982E+02  0.00000000000E+00 0.  1.
        -11    1    3    3    0    0  0.18340350190E+01 -0.93088786132E+02  0.23463677485E+02  0.96017862656E+02  0.00000000000E+00 0. -1.
          4    1    6    6  502    0 -0.14684616380E+03 -0.32388110282E+03 -0.58435941593E+03  0.68406044439E+03  0.00000000000E+00 0. -1.
          1    1    5    5  503    0  0.13399436835E+03  0.23135556845E+03 -0.19456439280E+03  0.33065872550E+03  0.00000000000E+00 0. -1.
         -2    1    5    5    0  503  0.52996422692E+02  0.21913506034E+03 -0.18797329621E+03  0.29353493076E+03  0.00000000000E+00 0.  1.
         -3    1    6    6    0  502  0.11518918966E+01 -0.27472017747E+02 -0.19090822408E+02  0.33473842239E+02  0.00000000000E+00 0.  1.
<mgrwt>
<rscale>  0 0.11540554E+04</rscale>
<asrwt>0</asrwt>
<pdfrwt beam="1">  1        1 0.18661407E+00 0.11540554E+04</pdfrwt>
<pdfrwt beam="2">  1       -1 0.42230115E-01 0.11540554E+04</pdfrwt>
<totfact> 0.57182424E+01</totfact>
</mgrwt>
</event>
<event>
12    1  0.1467288E-007  0.2254986E+04  0.7818608E-02  0.8495884E-01
         -2   -1    0    0    0  501 -0.00000000000E+00  0.00000000000E+00  0.43507831148E+03  0.43507831148E+03  0.00000000000E+00 0.  1.
          2   -1    0    0  501    0  0.00000000000E+00 -0.00000000000E+00 -0.29218652413E+04  0.29218652413E+04  0.00000000000E+00 0. -1.
         23    2    1    2    0    0 -0.35356957134E+02  0.63157076976E+03 -0.18519000019E+01  0.63907735138E+03  0.91020216893E+02 0.  0.
        254    2    1    2    0    0  0.35356957134E+02 -0.63157076976E+03 -0.24849350298E+04  0.27178662014E+04  0.90097882029E+03 0.  0.
        -24    2    4    4    0    0 -0.10097109607E+03  0.17505347471E+03 -0.96903109398E+03  0.99309575183E+03  0.79868829653E+02 0.  0.
         24    2    4    4    0    0  0.13632805321E+03 -0.80662424447E+03 -0.15159039358E+04  0.17247704495E+04  0.87409102042E+02 0.  0.
         13    1    3    3    0    0  0.12438307986E+02  0.22475780316E+03  0.35022530945E+02  0.22780991915E+03  0.00000000000E+00 0. -1.
        -13    1    3    3    0    0 -0.47795265119E+02  0.40681296659E+03 -0.36874430947E+02  0.41126743223E+03  0.00000000000E+00 0.  1.
          4    1    6    6  502    0  0.77485753824E+02 -0.66295170758E+03 -0.12302685954E+04  0.13996677554E+04  0.00000000000E+00 0. -1.
          1    1    5    5  503    0 -0.63330429908E+02  0.47495197397E+02 -0.26330959805E+03  0.27495178041E+03  0.00000000000E+00 0. -1.
         -4    1    5    5    0  503 -0.37640666165E+02  0.12755827732E+03 -0.70572149594E+03  0.71814397142E+03  0.00000000000E+00 0.  1.
         -3    1    6    6    0  502  0.58842299383E+02 -0.14367253689E+03 -0.28563534036E+03  0.32510269411E+03  0.00000000000E+00 0.  1.
<mgrwt>
<rscale>  0 0.22549858E+04</rscale>
<asrwt>0</asrwt>
<pdfrwt beam="1">  1        2 0.44951771E+00 0.22549858E+04</pdfrwt>
<pdfrwt beam="2">  1       -2 0.66935127E-01 0.22549858E+04</pdfrwt>
<totfact> 0.36343098E+00</totfact>
</mgrwt>
</event>
<event>
12    1  0.1467288E-007  0.1729037E+04  0.7818608E-02  0.8744974E-01
         -2   -1    0    0    0  501 -0.00000000000E+00  0.00000000000E+00  0.36752294678E+03  0.36752294678E+03  0.00000000000E+00 0.  1.
          2   -1    0    0  501    0  0.00000000000E+00 -0.00000000000E+00 -0.20335940071E+04  0.20335940071E+04  0.00000000000E+00 0. -1.
         23    2    1    2    0    0 -0.82738993034E+02 -0.51980403173E+03 -0.10821089275E+04  0.12067508813E+04  0.90807412715E+02 0.  0.
        254    2    1    2    0    0  0.82738993034E+02  0.51980403173E+03 -0.58396213281E+03  0.11943660726E+04  0.89914213023E+03 0.  0.
        -24    2    4    4    0    0  0.32388141415E+03  0.26306047222E+02 -0.54333147324E+03  0.63783354634E+03  0.77661859825E+02 0.  0.
         24    2    4    4    0    0 -0.24114242112E+03  0.49349798451E+03 -0.40630659563E+02  0.55653252621E+03  0.79922926990E+02 0.  0.
         11    1    3    3    0    0 -0.26472727983E+02 -0.27479944373E+02 -0.65514101413E+02  0.75815896444E+02  0.00000000000E+00 0.  1.
        -11    1    3    3    0    0 -0.56266265051E+02 -0.49232408736E+03 -0.10165948261E+04  0.11309349849E+04  0.00000000000E+00 0. -1.
          2    1    6    6  502    0 -0.69815103275E+02  0.22688912433E+03 -0.31698330087E+02  0.23949448326E+03  0.00000000000E+00 0. -1.
          1    1    5    5  503    0  0.32574969505E+03  0.29713085401E+02 -0.52104031281E+03  0.61520625716E+03  0.00000000000E+00 0. -1.
         -2    1    5    5    0  503 -0.18682808963E+01 -0.34070381795E+01 -0.22291160427E+02  0.22627289185E+02  0.00000000000E+00 0.  1.
         -1    1    6    6    0  502 -0.17132731785E+03  0.26660886018E+03 -0.89323294763E+01  0.31703804295E+03  0.00000000000E+00 0.  1.
<mgrwt>
<rscale>  0 0.17290373E+04</rscale>
<asrwt>0</asrwt>
<pdfrwt beam="1">  1        2 0.31286062E+00 0.17290373E+04</pdfrwt>
<pdfrwt beam="2">  1       -2 0.56541991E-01 0.17290373E+04</pdfrwt>
<totfact> 0.17831578E+01</totfact>
</mgrwt>
</event>
<event>
12    1  0.1467288E-007  0.1623529E+04  0.7818608E-02  0.8806222E-01
          2   -1    0    0  501    0  0.00000000000E+00  0.00000000000E+00  0.14571771203E+04  0.14571771203E+04  0.00000000000E+00 0.  1.
         -2   -1    0    0    0  501 -0.00000000000E+00 -0.00000000000E+00 -0.45221804502E+03  0.45221804502E+03  0.00000000000E+00 0. -1.
         23    2    1    2    0    0 -0.50179168969E+00 -0.24471381136E+03  0.96151484477E+03  0.99635350276E+03  0.91238174532E+02 0.  0.
        254    2    1    2    0    0  0.50179168969E+00  0.24471381136E+03  0.43444230475E+02  0.91304166251E+03  0.87856278948E+03 0.  0.
        -24    2    4    4    0    0  0.33755275059E+02  0.52278431355E+03 -0.16541725327E+03  0.55478765827E+03  0.77353868704E+02 0.  0.
         24    2    4    4    0    0 -0.33253483369E+02 -0.27807050220E+03  0.20886148374E+03  0.35825400424E+03  0.79333560455E+02 0.  0.
         11    1    3    3    0    0 -0.10243666255E+02 -0.22807865608E+03  0.75046279681E+03  0.78442285501E+03  0.00000000000E+00 0.  1.
        -11    1    3    3    0    0  0.97418745649E+01 -0.16635155273E+02  0.21105204796E+03  0.21193064775E+03  0.00000000000E+00 0. -1.
          2    1    6    6  502    0 -0.40845606615E+01 -0.21458066417E+03  0.12232624218E+03  0.24703290185E+03  0.00000000000E+00 0. -1.
          3    1    5    5  503    0  0.57884607753E+02  0.33701930943E+03 -0.98322989634E+02  0.35580901201E+03  0.00000000000E+00 0. -1.
         -4    1    5    5    0  503 -0.24129332694E+02  0.18576500413E+03 -0.67094263632E+02  0.19897864626E+03  0.00000000000E+00 0.  1.
         -1    1    6    6    0  502 -0.29168922708E+02 -0.63489838032E+02  0.86535241559E+02  0.11122110239E+03  0.00000000000E+00 0.  1.
<mgrwt>
<rscale>  0 0.16235292E+04</rscale>
<asrwt>0</asrwt>
<pdfrwt beam="1">  1        2 0.22418109E+00 0.16235292E+04</pdfrwt>
<pdfrwt beam="2">  1       -2 0.69572007E-01 0.16235292E+04</pdfrwt>
<totfact> 0.24206091E+01</totfact>
</mgrwt>
</event>
<event>
12    1  0.1467288E-007  0.1215208E+04  0.7818608E-02  0.9099649E-01
          2   -1    0    0  501    0  0.00000000000E+00  0.00000000000E+00  0.48874209222E+03  0.48874209222E+03  0.00000000000E+00 0.  1.
         -2   -1    0    0    0  501 -0.00000000000E+00 -0.00000000000E+00 -0.75537256184E+03  0.75537256184E+03  0.00000000000E+00 0. -1.
         23    2    1    2    0    0 -0.13859421057E+03  0.13090908260E+03  0.12954274363E+03  0.24799239639E+03  0.91506082469E+02 0.  0.
        254    2    1    2    0    0  0.13859421057E+03 -0.13090908260E+03 -0.39617321324E+03  0.99612225768E+03  0.89384606854E+03 0.  0.
        -24    2    4    4    0    0 -0.68922774010E+02 -0.89566271975E+02 -0.64510068008E+03  0.65970919510E+03  0.79302388449E+02 0.  0.
         24    2    4    4    0    0  0.20751698458E+03 -0.41342810625E+02  0.24892746684E+03  0.33641306257E+03  0.80226791322E+02 0.  0.
         13    1    3    3    0    0 -0.12319185491E+03  0.57899871342E+02  0.73679445806E+02  0.15478142315E+03  0.00000000000E+00 0.  1.
        -13    1    3    3    0    0 -0.15402355657E+02  0.73009211258E+02  0.55863297821E+02  0.93210973237E+02  0.00000000000E+00 0. -1.
          4    1    6    6  502    0  0.79519807286E+02  0.20421234512E+02  0.69848893099E+02  0.10779283110E+03  0.00000000000E+00 0. -1.
          3    1    5    5  503    0 -0.20348284059E+02 -0.56638929276E+02 -0.15778848946E+03  0.16887637011E+03  0.00000000000E+00 0. -1.
         -4    1    5    5    0  503 -0.48574489951E+02 -0.32927342700E+02 -0.48731219062E+03  0.49083282500E+03  0.00000000000E+00 0.  1.
         -3    1    6    6    0  502  0.12799717729E+03 -0.61764045137E+02  0.17907857374E+03  0.22862023147E+03  0.00000000000E+00 0.  1.
<mgrwt>
<rscale>  0 0.12152076E+04</rscale>
<asrwt>0</asrwt>
<pdfrwt beam="1">  1        2 0.75191091E-01 0.12152076E+04</pdfrwt>
<pdfrwt beam="2">  1       -2 0.11621116E+00 0.12152076E+04</pdfrwt>
<totfact> 0.35816615E+01</totfact>
</mgrwt>
</event>
<event>
12    1  0.1467288E-007  0.3653107E+04  0.7818608E-02  0.8078434E-01
         -3   -1    0    0    0  501 -0.00000000000E+00  0.00000000000E+00  0.18571059814E+04  0.18571059814E+04  0.00000000000E+00 0.  1.
          3   -1    0    0  501    0  0.00000000000E+00 -0.00000000000E+00 -0.17965036314E+04  0.17965036314E+04  0.00000000000E+00 0. -1.
         23    2    1    2    0    0 -0.30856425525E+03 -0.16255694349E+04  0.43840874783E+03  0.17141693750E+04  0.92122357267E+02 0.  0.
        254    2    1    2    0    0  0.30856425525E+03  0.16255694349E+04 -0.37780639786E+03  0.19394402378E+04  0.93861753364E+03 0.  0.
        -24    2    4    4    0    0  0.40841101102E+02  0.13817540525E+04  0.34418393875E+02  0.13850297968E+04  0.78807710187E+02 0.  0.
         24    2    4    4    0    0  0.26772315414E+03  0.24381538239E+03 -0.41222479174E+03  0.55441044095E+03  0.79498617328E+02 0.  0.
         13    1    3    3    0    0 -0.16965746558E+03 -0.95254455081E+03  0.21066058434E+03  0.99020334210E+03  0.00000000000E+00 0. -1.
        -13    1    3    3    0    0 -0.13890678967E+03 -0.67302488405E+03  0.22774816349E+03  0.72396603287E+03  0.00000000000E+00 0.  1.
          2    1    6    6  502    0  0.99614576585E+02  0.10652297612E+03 -0.22301543592E+03  0.26646968490E+03  0.00000000000E+00 0. -1.
          1    1    5    5  503    0  0.14138463291E+02  0.12599229752E+03  0.23465823164E+02  0.12893641858E+03  0.00000000000E+00 0. -1.
         -2    1    5    5    0  503  0.26702637811E+02  0.12557617550E+04  0.10952570711E+02  0.12560933782E+04  0.00000000000E+00 0.  1.
         -1    1    6    6    0  502  0.16810857756E+03  0.13729240627E+03 -0.18920935582E+03  0.28794075605E+03  0.00000000000E+00 0.  1.
<mgrwt>
<rscale>  0 0.36531070E+04</rscale>
<asrwt>0</asrwt>
<pdfrwt beam="1">  1        3 0.27638517E+00 0.36531070E+04</pdfrwt>
<pdfrwt beam="2">  1       -3 0.28570861E+00 0.36531070E+04</pdfrwt>
<totfact> 0.50083759E-03</totfact>
</mgrwt>
</event>
<event>
12    1  0.1467288E-007  0.1718986E+04  0.7818608E-02  0.8750609E-01
          1   -1    0    0  501    0  0.00000000000E+00  0.00000000000E+00  0.90946266368E+03  0.90946266368E+03  0.00000000000E+00 0. -1.
         -1   -1    0    0    0  501 -0.00000000000E+00 -0.00000000000E+00 -0.81226927994E+03  0.81226927994E+03  0.00000000000E+00 0.  1.
         23    2    1    2    0    0  0.41916671516E+03 -0.39582752412E+03 -0.18399153174E+03  0.61203379679E+03  0.91391031951E+02 0.  0.
        254    2    1    2    0    0 -0.41916671516E+03  0.39582752412E+03  0.28118491547E+03  0.11096981468E+04  0.90553015214E+03 0.  0.
        -24    2    4    4    0    0 -0.60794070026E+03  0.54375721193E+03  0.19364689061E+03  0.84213032347E+03  0.80128415142E+02 0.  0.
         24    2    4    4    0    0  0.18877398511E+03 -0.14792968781E+03  0.87538024863E+02  0.26756782335E+03  0.80067623358E+02 0.  0.
         11    1    3    3    0    0  0.29643004616E+03 -0.32547157521E+03 -0.11705901571E+03  0.45552753121E+03  0.00000000000E+00 0.  1.
        -11    1    3    3    0    0  0.12273666900E+03 -0.70355948910E+02 -0.66932516028E+02  0.15650626558E+03  0.00000000000E+00 0. -1.
          2    1    6    6  502    0 -0.77504576279E+01 -0.78493082342E+01  0.59844812952E+00  0.11047143222E+02  0.00000000000E+00 0. -1.
          1    1    5    5  503    0 -0.57713252140E+02  0.87275621651E+02  0.24287683927E+02  0.10741389667E+03  0.00000000000E+00 0. -1.
         -2    1    5    5    0  503 -0.55022744812E+03  0.45648159028E+03  0.16935920668E+03  0.73471642681E+03  0.00000000000E+00 0.  1.
         -1    1    6    6    0  502  0.19652444273E+03 -0.14008037957E+03  0.86939576734E+02  0.25652068013E+03  0.00000000000E+00 0.  1.
<mgrwt>
<rscale>  0 0.17189864E+04</rscale>
<asrwt>0</asrwt>
<pdfrwt beam="1">  1        1 0.13991733E+00 0.17189864E+04</pdfrwt>
<pdfrwt beam="2">  1       -1 0.12496450E+00 0.17189864E+04</pdfrwt>
<totfact> 0.95125767E+00</totfact>
</mgrwt>
</event>
<event>
12    1  0.1467288E-007  0.1848337E+04  0.7818608E-02  0.8681008E-01
          2   -1    0    0  501    0  0.00000000000E+00  0.00000000000E+00  0.15898551533E+04  0.15898551533E+04  0.00000000000E+00 0. -1.
         -2   -1    0    0    0  501 -0.00000000000E+00 -0.00000000000E+00 -0.53721101169E+03  0.53721101169E+03  0.00000000000E+00 0.  1.
         23    2    1    2    0    0  0.19257982458E+03  0.57885152120E+03  0.12122803670E+01  0.61675526925E+03  0.90716702381E+02 0.  0.
        254    2    1    2    0    0 -0.19257982458E+03 -0.57885152120E+03  0.10514318612E+04  0.15103108957E+04  0.89631131339E+03 0.  0.
        -24    2    4    4    0    0 -0.51854070768E+03 -0.47145072358E+03  0.53546454383E+03  0.88562457446E+03  0.80363915356E+02 0.  0.
         24    2    4    4    0    0  0.32596088310E+03 -0.10740079762E+03  0.51596731736E+03  0.62468632124E+03  0.78900562267E+02 0.  0.
         11    1    3    3    0    0  0.15323332927E+00 -0.19641234342E+01  0.44699474512E+01  0.48848430409E+01  0.00000000000E+00 0. -1.
        -11    1    3    3    0    0  0.19242659125E+03  0.58081564463E+03 -0.32576670841E+01  0.61187042621E+03  0.00000000000E+00 0.  1.
          2    1    6    6  502    0  0.32598014965E+03 -0.95923783358E+02  0.50586620822E+03  0.60939728487E+03  0.00000000000E+00 0. -1.
          3    1    5    5  503    0 -0.47643072940E+03 -0.44875213918E+03  0.47588485891E+03  0.80921636246E+03  0.00000000000E+00 0. -1.
         -4    1    5    5    0  503 -0.42109978284E+02 -0.22698584399E+02  0.59579684925E+02  0.76408211997E+02  0.00000000000E+00 0.  1.
         -1    1    6    6    0  502 -0.19266552835E-01 -0.11477014261E+02  0.10101109135E+02  0.15289036376E+02  0.00000000000E+00 0.  1.
<mgrwt>
<rscale>  0 0.18483373E+04</rscale>
<asrwt>0</asrwt>
<pdfrwt beam="1">  1        2 0.24459310E+00 0.18483373E+04</pdfrwt>
<pdfrwt beam="2">  1       -2 0.82647848E-01 0.18483373E+04</pdfrwt>
<totfact> 0.13645830E+01</totfact>
</mgrwt>
</event>
<event>
12    1  0.1467288E-007  0.1874216E+04  0.7818608E-02  0.8667798E-01
         -1   -1    0    0    0  501 -0.00000000000E+00  0.00000000000E+00  0.64728609783E+03  0.64728609783E+03  0.00000000000E+00 0.  1.
          1   -1    0    0  501    0  0.00000000000E+00 -0.00000000000E+00 -0.13566970441E+04  0.13566970441E+04  0.00000000000E+00 0. -1.
         23    2    1    2    0    0 -0.45420247653E+03  0.94805427719E+02 -0.85954507874E+03  0.98106009451E+03  0.91505233984E+02 0.  0.
        254    2    1    2    0    0  0.45420247653E+03 -0.94805427719E+02  0.15013413245E+03  0.10229230474E+04  0.89919038275E+03 0.  0.
        -24    2    4    4    0    0  0.17968229243E+03 -0.25692238880E+03 -0.31635994249E+03  0.45250743458E+03  0.79903223069E+02 0.  0.
         24    2    4    4    0    0  0.27452018410E+03  0.16211696108E+03  0.46649407494E+03  0.57041561285E+03  0.78192128005E+02 0.  0.
         13    1    3    3    0    0 -0.10815571207E+03  0.27169339128E+02 -0.13366602062E+03  0.17407594926E+03  0.00000000000E+00 0. -1.
        -13    1    3    3    0    0 -0.34604676447E+03  0.67636088591E+02 -0.72587905812E+03  0.80698414526E+03  0.00000000000E+00 0.  1.
          2    1    6    6  502    0  0.19462577223E+03  0.13881092704E+03  0.38966541130E+03  0.45715073821E+03  0.00000000000E+00 0. -1.
          1    1    5    5  503    0  0.10342839144E+03 -0.98757803944E+02 -0.18171931219E+03  0.23124109587E+03  0.00000000000E+00 0. -1.
         -2    1    5    5    0  503  0.76253900991E+02 -0.15816458485E+03 -0.13464063030E+03  0.22126633871E+03  0.00000000000E+00 0.  1.
         -1    1    6    6    0  502  0.79894411872E+02  0.23306034034E+02  0.76828663644E+02  0.11326487464E+03  0.00000000000E+00 0.  1.
<mgrwt>
<rscale>  0 0.18742157E+04</rscale>
<asrwt>0</asrwt>
<pdfrwt beam="1">  1        1 0.20872262E+00 0.18742157E+04</pdfrwt>
<pdfrwt beam="2">  1       -1 0.99582478E-01 0.18742157E+04</pdfrwt>
<totfact> 0.74378455E+00</totfact>
</mgrwt>
</event>
<event>
12    1  0.1467288E-007  0.1864486E+04  0.7818608E-02  0.8672739E-01
         -2   -1    0    0    0  501 -0.00000000000E+00  0.00000000000E+00  0.41225871314E+03  0.41225871314E+03  0.00000000000E+00 0.  1.
          2   -1    0    0  501    0  0.00000000000E+00 -0.00000000000E+00 -0.21080862627E+04  0.21080862627E+04  0.00000000000E+00 0. -1.
         23    2    1    2    0    0 -0.63912532460E+03 -0.53317442459E+02 -0.10748669899E+04  0.12549064229E+04  0.90150730579E+02 0.  0.
        254    2    1    2    0    0  0.63912532460E+03  0.53317442459E+02 -0.62096055969E+03  0.12654385529E+04  0.89689396488E+03 0.  0.
        -24    2    4    4    0    0  0.75202368022E+03 -0.10989852056E+03 -0.70105768604E+03  0.10368564841E+04  0.77279939573E+02 0.  0.
         24    2    4    4    0    0 -0.11289835562E+03  0.16321596302E+03  0.80097126348E+02  0.22858206877E+03  0.80303942795E+02 0.  0.
         11    1    3    3    0    0 -0.98866777935E+02 -0.40737585367E+02 -0.19243319983E+03  0.22014705776E+03  0.00000000000E+00 0. -1.
        -11    1    3    3    0    0 -0.54025854667E+03 -0.12579857092E+02 -0.88243379003E+03  0.10347593652E+04  0.00000000000E+00 0.  1.
          2    1    6    6  502    0 -0.73628177124E+02  0.14817155220E+03  0.39448194821E+02  0.17009431920E+03  0.00000000000E+00 0. -1.
          1    1    5    5  503    0  0.62579530634E+03 -0.10420293714E+03 -0.61787333496E+03  0.88557635221E+03  0.00000000000E+00 0. -1.
         -2    1    5    5    0  503  0.12622837389E+03 -0.56955834246E+01 -0.83184351080E+02  0.15128013191E+03  0.00000000000E+00 0.  1.
         -3    1    6    6    0  502 -0.39270178497E+02  0.15044410819E+02  0.40648931527E+02  0.58487749575E+02  0.00000000000E+00 0.  1.
<mgrwt>
<rscale>  0 0.18644859E+04</rscale>
<asrwt>0</asrwt>
<pdfrwt beam="1">  1        2 0.32432096E+00 0.18644859E+04</pdfrwt>
<pdfrwt beam="2">  1       -2 0.63424417E-01 0.18644859E+04</pdfrwt>
<totfact> 0.12569056E+01</totfact>
</mgrwt>
</event>
<event>
12    1  0.1467288E-007  0.1077053E+04  0.7818608E-02  0.9227851E-01
          2   -1    0    0  501    0  0.00000000000E+00  0.00000000000E+00  0.11960221660E+04  0.11960221660E+04  0.00000000000E+00 0. -1.
         -2   -1    0    0    0  501 -0.00000000000E+00 -0.00000000000E+00 -0.24247947147E+03  0.24247947147E+03  0.00000000000E+00 0.  1.
         23    2    1    2    0    0 -0.52755923258E+00 -0.14396444926E+03  0.15058492414E+03  0.22981994391E+03  0.97032707236E+02 0.  0.
        254    2    1    2    0    0  0.52755923258E+00  0.14396444926E+03  0.80295777037E+03  0.12086816935E+04  0.89187679325E+03 0.  0.
        -24    2    4    4    0    0 -0.28017173663E+03  0.16610300581E+03 -0.19188664083E+02  0.33604114839E+03  0.80430330348E+02 0.  0.
         24    2    4    4    0    0  0.28069929586E+03 -0.22138556551E+02  0.82214643445E+03  0.87264054515E+03  0.79338206289E+02 0.  0.
         11    1    3    3    0    0 -0.26551345856E+01  0.11695403226E+02 -0.16207731691E+01  0.12102028837E+02  0.00000000000E+00 0. -1.
        -11    1    3    3    0    0  0.21275753530E+01 -0.15565985248E+03  0.15220569731E+03  0.21771791508E+03  0.00000000000E+00 0.  1.
          4    1    6    6  502    0  0.12967822761E+03 -0.38269268357E+02  0.30440401390E+03  0.33308074591E+03  0.00000000000E+00 0. -1.
          1    1    5    5  503    0 -0.16075269038E+03  0.67846478705E+02  0.22361978846E+02  0.17591085877E+03  0.00000000000E+00 0. -1.
         -2    1    5    5    0  503 -0.11941904625E+03  0.98256527103E+02 -0.41550642929E+02  0.16013028962E+03  0.00000000000E+00 0.  1.
         -3    1    6    6    0  502  0.15102106824E+03  0.16130711806E+02  0.51774242055E+03  0.53955979924E+03  0.00000000000E+00 0.  1.
<mgrwt>
<rscale>  0 0.10770531E+04</rscale>
<asrwt>0</asrwt>
<pdfrwt beam="1">  1        2 0.18400341E+00 0.10770531E+04</pdfrwt>
<pdfrwt beam="2">  1       -2 0.37304535E-01 0.10770531E+04</pdfrwt>
<totfact> 0.12816381E+02</totfact>
</mgrwt>
</event>
<event>
12    1  0.1467288E-007  0.1721319E+04  0.7818608E-02  0.8749298E-01
          2   -1    0    0  501    0  0.00000000000E+00  0.00000000000E+00  0.21265060433E+04  0.21265060433E+04  0.00000000000E+00 0. -1.
         -2   -1    0    0    0  501 -0.00000000000E+00 -0.00000000000E+00 -0.34833420671E+03  0.34833420671E+03  0.00000000000E+00 0.  1.
         23    2    1    2    0    0 -0.40909738750E+03 -0.10961730277E+03 -0.44832666661E+01  0.43298225957E+03  0.89871641236E+02 0.  0.
        254    2    1    2    0    0  0.40909738750E+03  0.10961730277E+03  0.17826551032E+04  0.20418579904E+04  0.90108168908E+03 0.  0.
        -24    2    4    4    0    0  0.57560708431E+03  0.98064730138E+02  0.58727720161E+03  0.83194806594E+03  0.79390591933E+02 0.  0.
         24    2    4    4    0    0 -0.16650969681E+03  0.11552572632E+02  0.11953779016E+04  0.12099099245E+04  0.84230378004E+02 0.  0.
         13    1    3    3    0    0 -0.19956914951E+03 -0.98364064941E+02  0.94123105771E+01  0.22269244778E+03  0.00000000000E+00 0. -1.
        -13    1    3    3    0    0 -0.20952823798E+03 -0.11253237829E+02 -0.13895577243E+02  0.21028981179E+03  0.00000000000E+00 0.  1.
          4    1    6    6  502    0 -0.26327684720E+02 -0.22019145813E+02  0.40840720089E+03  0.40984683908E+03  0.00000000000E+00 0. -1.
          3    1    5    5  503    0  0.99736776425E+02  0.44206626424E+02  0.88502079287E+02  0.14047871166E+03  0.00000000000E+00 0. -1.
         -4    1    5    5    0  503  0.47587030788E+03  0.53858103714E+02  0.49877512232E+03  0.69146935428E+03  0.00000000000E+00 0.  1.
         -3    1    6    6    0  502 -0.14018201209E+03  0.33571718445E+02  0.78697070071E+03  0.80006308537E+03  0.00000000000E+00 0.  1.
<mgrwt>
<rscale>  0 0.17213190E+04</rscale>
<asrwt>0</asrwt>
<pdfrwt beam="1">  1        2 0.32715477E+00 0.17213190E+04</pdfrwt>
<pdfrwt beam="2">  1       -2 0.53589879E-01 0.17213190E+04</pdfrwt>
<totfact> 0.17705604E+01</totfact>
</mgrwt>
</event>
<event>
12    1  0.1467288E-007  0.1959717E+04  0.7818608E-02  0.8625689E-01
          1   -1    0    0  501    0  0.00000000000E+00  0.00000000000E+00  0.11976588525E+04  0.11976588525E+04  0.00000000000E+00 0. -1.
         -1   -1    0    0    0  501 -0.00000000000E+00 -0.00000000000E+00 -0.80166660220E+03  0.80166660220E+03  0.00000000000E+00 0.  1.
         23    2    1    2    0    0  0.69451324991E+03 -0.11432953767E+02  0.50441703131E+03  0.86530172546E+03  0.10877117204E+03 0.  0.
        254    2    1    2    0    0 -0.69451324991E+03  0.11432953767E+02 -0.10842478098E+03  0.11340237293E+04  0.88981712654E+03 0.  0.
        -24    2    4    4    0    0 -0.61111969239E+03  0.39088667615E+03 -0.37127721973E+02  0.73066577425E+03  0.78957798222E+02 0.  0.
         24    2    4    4    0    0 -0.83393557520E+02 -0.37945372239E+03 -0.71297059004E+02  0.40335795502E+03  0.81699182274E+02 0.  0.
         13    1    3    3    0    0  0.41981512406E+03 -0.31820307124E+01  0.36893663065E+03  0.55889990262E+03  0.00000000000E+00 0. -1.
        -13    1    3    3    0    0  0.27469812585E+03 -0.82509230551E+01  0.13548040067E+03  0.30640182284E+03  0.00000000000E+00 0.  1.
          2    1    6    6  502    0 -0.60403346900E+02 -0.23341701899E+03 -0.45393803673E+01  0.24114865756E+03  0.00000000000E+00 0. -1.
          1    1    5    5  503    0 -0.93389738551E+02  0.61435233324E+02 -0.34530837591E+02  0.11699705084E+03  0.00000000000E+00 0. -1.
         -2    1    5    5    0  503 -0.51772995384E+03  0.32945144283E+03 -0.25968843817E+01  0.61366872341E+03  0.00000000000E+00 0.  1.
         -1    1    6    6    0  502 -0.22990210620E+02 -0.14603670340E+03 -0.66757678637E+02  0.16220929745E+03  0.00000000000E+00 0.  1.
<mgrwt>
<rscale>  0 0.19597174E+04</rscale>
<asrwt>0</asrwt>
<pdfrwt beam="1">  1        1 0.18425521E+00 0.19597174E+04</pdfrwt>
<pdfrwt beam="2">  1       -1 0.12333332E+00 0.19597174E+04</pdfrwt>
<totfact> 0.57787781E+00</totfact>
</mgrwt>
</event>
<event>
12    1  0.1467288E-007  0.1538335E+04  0.7818608E-02  0.8859353E-01
          2   -1    0    0  501    0  0.00000000000E+00  0.00000000000E+00  0.21695297724E+04  0.21695297724E+04  0.00000000000E+00 0. -1.
         -2   -1    0    0    0  501 -0.00000000000E+00 -0.00000000000E+00 -0.27269456097E+03  0.27269456097E+03  0.00000000000E+00 0.  1.
         23    2    1    2    0    0  0.27440028076E+03  0.15093847195E+02  0.12697583146E+04  0.13024900829E+04  0.93117668449E+02 0.  0.
        254    2    1    2    0    0 -0.27440028076E+03 -0.15093847195E+02  0.62707689678E+03  0.11397342505E+04  0.91117802261E+03 0.  0.
        -24    2    4    4    0    0 -0.47214016763E+03  0.19715357199E+02  0.30301695995E+01  0.47932502537E+03  0.80238798720E+02 0.  0.
         24    2    4    4    0    0  0.19773988687E+03 -0.34809204394E+02  0.62404672718E+03  0.66040922509E+03  0.79958009655E+02 0.  0.
         11    1    3    3    0    0  0.24227494996E+03  0.29321113453E+02  0.11978508808E+04  0.12224580204E+04  0.00000000000E+00 0. -1.
        -11    1    3    3    0    0  0.32125330794E+02 -0.14227266258E+02  0.71907433848E+02  0.80032062490E+02  0.00000000000E+00 0.  1.
          4    1    6    6  502    0  0.17148797642E+03 -0.23789587915E+02  0.59524026655E+03  0.61990728781E+03  0.00000000000E+00 0. -1.
          1    1    5    5  503    0 -0.46881901560E+03  0.11310757044E+02  0.79757812756E+01  0.46902325710E+03  0.00000000000E+00 0. -1.
         -2    1    5    5    0  503 -0.33211520227E+01  0.84046001552E+01 -0.49456116760E+01  0.10301768265E+02  0.00000000000E+00 0.  1.
         -3    1    6    6    0  502  0.26251910451E+02 -0.11019616479E+02  0.28806460624E+02  0.40501937279E+02  0.00000000000E+00 0.  1.
<mgrwt>
<rscale>  0 0.15383354E+04</rscale>
<asrwt>0</asrwt>
<pdfrwt beam="1">  1        2 0.33377380E+00 0.15383354E+04</pdfrwt>
<pdfrwt beam="2">  1       -2 0.41953011E-01 0.15383354E+04</pdfrwt>
<totfact> 0.27887998E+01</totfact>
</mgrwt>
</event>
<event>
12    1  0.1467288E-007  0.1180370E+04  0.7818608E-02  0.9130214E-01
         -1   -1    0    0    0  501 -0.00000000000E+00  0.00000000000E+00  0.24332852768E+03  0.24332852768E+03  0.00000000000E+00 0. -1.
          1   -1    0    0  501    0  0.00000000000E+00 -0.00000000000E+00 -0.14314744020E+04  0.14314744020E+04  0.00000000000E+00 0.  1.
         23    2    1    2    0    0 -0.50499996325E+02 -0.66176001448E+02  0.59943650128E+02  0.13749582215E+03  0.91555158895E+02 0.  0.
        254    2    1    2    0    0  0.50499996325E+02  0.66176001448E+02 -0.12480895244E+04  0.15373071075E+04  0.89367565091E+03 0.  0.
        -24    2    4    4    0    0 -0.99871161355E+02 -0.38641797917E+03 -0.66931334057E+03  0.78302938415E+03  0.76560858626E+02 0.  0.
         24    2    4    4    0    0  0.15037115768E+03  0.45259398062E+03 -0.57877618383E+03  0.75427772334E+03  0.80623920832E+02 0.  0.
         11    1    3    3    0    0  0.17565517894E+02  0.14293620073E+01 -0.85810521438E+01  0.19601656831E+02  0.00000000000E+00 0.  1.
        -11    1    3    3    0    0 -0.68065514219E+02 -0.67605363455E+02  0.68524702272E+02  0.11789416531E+03  0.00000000000E+00 0. -1.
          4    1    6    6  502    0  0.28977971767E+02  0.32847431502E+02 -0.31427843696E+02  0.53910907647E+02  0.00000000000E+00 0. -1.
          1    1    5    5  503    0 -0.46283512281E+02 -0.62385084647E+02 -0.11689292631E+03  0.14034962956E+03  0.00000000000E+00 0. -1.
         -2    1    5    5    0  503 -0.53587649073E+02 -0.32403289452E+03 -0.55242041426E+03  0.64267975459E+03  0.00000000000E+00 0.  1.
         -3    1    6    6    0  502  0.12139318591E+03  0.41974654912E+03 -0.54734834013E+03  0.70036681570E+03  0.00000000000E+00 0.  1.
<mgrwt>
<rscale>  0 0.11803704E+04</rscale>
<asrwt>0</asrwt>
<pdfrwt beam="1">  1        1 0.22022683E+00 0.11803704E+04</pdfrwt>
<pdfrwt beam="2">  1       -1 0.37435159E-01 0.11803704E+04</pdfrwt>
<totfact> 0.49721711E+01</totfact>
</mgrwt>
</event>
<event>
12    1  0.1467288E-007  0.2413466E+04  0.7818608E-02  0.8434479E-01
          1   -1    0    0  501    0  0.00000000000E+00  0.00000000000E+00  0.17762918937E+04  0.17762918937E+04  0.00000000000E+00 0. -1.
         -1   -1    0    0    0  501 -0.00000000000E+00 -0.00000000000E+00 -0.81980047969E+03  0.81980047969E+03  0.00000000000E+00 0.  1.
         23    2    1    2    0    0 -0.47425348046E+03 -0.59071087088E+03  0.11729651426E+04  0.13989653692E+04  0.86030121342E+02 0.  0.
        254    2    1    2    0    0  0.47425348046E+03  0.59071087088E+03 -0.21647372853E+03  0.11971270042E+04  0.90133040138E+03 0.  0.
        -24    2    4    4    0    0  0.64703446601E+03  0.12327038321E+03 -0.49086858229E+02  0.66564942974E+03  0.82646573330E+02 0.  0.
         24    2    4    4    0    0 -0.17278098556E+03  0.46744048767E+03 -0.16738687030E+03  0.53147757450E+03  0.78077969756E+02 0.  0.
         13    1    3    3    0    0 -0.23083303990E+03 -0.30423705612E+03  0.51449172625E+03  0.64073849190E+03  0.00000000000E+00 0.  1.
        -13    1    3    3    0    0 -0.24342044055E+03 -0.28647381476E+03  0.65847341632E+03  0.75822687728E+03  0.00000000000E+00 0. -1.
          4    1    6    6  502    0 -0.89673666988E+02  0.16152420446E+03 -0.88262605700E+02  0.20474794930E+03  0.00000000000E+00 0. -1.
          1    1    5    5  503    0 -0.32273920934E+00  0.58469303366E+01  0.40537742861E+00  0.58698454680E+01  0.00000000000E+00 0. -1.
         -2    1    5    5    0  503  0.64735720522E+03  0.11742345287E+03 -0.49492235658E+02  0.65977958428E+03  0.00000000000E+00 0.  1.
         -3    1    6    6    0  502 -0.83107318568E+02  0.30591628321E+03 -0.79124264599E+02  0.32672962520E+03  0.00000000000E+00 0.  1.
<mgrwt>
<rscale>  0 0.24134663E+04</rscale>
<asrwt>0</asrwt>
<pdfrwt beam="1">  1        1 0.27327567E+00 0.24134663E+04</pdfrwt>
<pdfrwt beam="2">  1       -1 0.12612315E+00 0.24134663E+04</pdfrwt>
<totfact> 0.20709957E+00</totfact>
</mgrwt>
</event>
<event>
12    1  0.1467288E-007  0.1947557E+04  0.7818608E-02  0.8631540E-01
         -2   -1    0    0    0  501 -0.00000000000E+00  0.00000000000E+00  0.12699137156E+04  0.12699137156E+04  0.00000000000E+00 0.  1.
          2   -1    0    0  501    0  0.00000000000E+00 -0.00000000000E+00 -0.74670014932E+03  0.74670014932E+03  0.00000000000E+00 0. -1.
         23    2    1    2    0    0 -0.89623121910E+02 -0.74324187533E+03  0.36955905067E+03  0.83948950263E+03  0.87908724583E+02 0.  0.
        254    2    1    2    0    0  0.89623121910E+02  0.74324187533E+03  0.15365451566E+03  0.11771243623E+04  0.89530512397E+03 0.  0.
        -24    2    4    4    0    0  0.29377387413E+03  0.73260475587E+03 -0.14503735352E+03  0.80644172735E+03  0.79370071424E+02 0.  0.
         24    2    4    4    0    0 -0.20415075222E+03  0.10637119458E+02  0.29869186919E+03  0.37068263499E+03  0.79988156786E+02 0.  0.
         13    1    3    3    0    0 -0.45439448770E+02 -0.30932846834E+03  0.10725693191E+03  0.33053425582E+03  0.00000000000E+00 0. -1.
        -13    1    3    3    0    0 -0.44183673140E+02 -0.43391340699E+03  0.26230211877E+03  0.50895524680E+03  0.00000000000E+00 0.  1.
          4    1    6    6  502    0 -0.29302497071E+02 -0.63042717489E+01  0.10500625026E+03  0.10920024162E+03  0.00000000000E+00 0. -1.
          3    1    5    5  503    0  0.51455601002E+02  0.72539232606E+02 -0.23276090411E+01  0.88966493162E+02  0.00000000000E+00 0. -1.
         -4    1    5    5    0  503  0.24231827313E+03  0.66006552327E+03 -0.14270974448E+03  0.71747523418E+03  0.00000000000E+00 0.  1.
         -3    1    6    6    0  502 -0.17484825515E+03  0.16941391207E+02  0.19368561893E+03  0.26148239337E+03  0.00000000000E+00 0.  1.
<mgrwt>
<rscale>  0 0.19475572E+04</rscale>
<asrwt>0</asrwt>
<pdfrwt beam="1">  1        2 0.11487695E+00 0.19475572E+04</pdfrwt>
<pdfrwt beam="2">  1       -2 0.19537134E+00 0.19475572E+04</pdfrwt>
<totfact> 0.50184652E+00</totfact>
</mgrwt>
</event>
<event>
12    1  0.1467288E-007  0.1590848E+04  0.7818608E-02  0.8826190E-01
          2   -1    0    0  501    0  0.00000000000E+00  0.00000000000E+00  0.15548995986E+04  0.15548995986E+04  0.00000000000E+00 0. -1.
         -2   -1    0    0    0  501 -0.00000000000E+00 -0.00000000000E+00 -0.40690702210E+03  0.40690702210E+03  0.00000000000E+00 0.  1.
         23    2    1    2    0    0  0.27405815764E+03 -0.43115908004E+03  0.60336664488E+03  0.79589455824E+03  0.91601384273E+02 0.  0.
        254    2    1    2    0    0 -0.27405815764E+03  0.43115908004E+03  0.54462593158E+03  0.11659120624E+04  0.89539237539E+03 0.  0.
        -24    2    4    4    0    0 -0.32255961697E+03  0.64506286201E+03  0.58113107780E+03  0.92966913095E+03  0.80128403259E+02 0.  0.
         24    2    4    4    0    0  0.48501459338E+02 -0.21390378197E+03 -0.36505146219E+02  0.23624293148E+03  0.79817776697E+02 0.  0.
         11    1    3    3    0    0  0.23336985331E+03 -0.30070491873E+03  0.41424491761E+03  0.56256891875E+03  0.00000000000E+00 0. -1.
        -11    1    3    3    0    0  0.40688304328E+02 -0.13045416131E+03  0.18912172727E+03  0.23332563948E+03  0.00000000000E+00 0.  1.
          4    1    6    6  502    0  0.61585766918E+02 -0.17822445430E+03 -0.79946921788E+01  0.18873441101E+03  0.00000000000E+00 0. -1.
          1    1    5    5  503    0 -0.16810987225E+03  0.36252456202E+03  0.27271622894E+03  0.48379657786E+03  0.00000000000E+00 0. -1.
         -2    1    5    5    0  503 -0.15444974472E+03  0.28253829999E+03  0.30841484886E+03  0.44587255310E+03  0.00000000000E+00 0.  1.
         -3    1    6    6    0  502 -0.13084307580E+02 -0.35679327672E+02 -0.28510454040E+02  0.47508520473E+02  0.00000000000E+00 0.  1.
<mgrwt>
<rscale>  0 0.15908483E+04</rscale>
<asrwt>0</asrwt>
<pdfrwt beam="1">  1        2 0.23921532E+00 0.15908483E+04</pdfrwt>
<pdfrwt beam="2">  1       -2 0.62601081E-01 0.15908483E+04</pdfrwt>
<totfact> 0.26840386E+01</totfact>
</mgrwt>
</event>
<event>
12    1  0.1467288E-007  0.2030837E+04  0.7818608E-02  0.8592338E-01
          2   -1    0    0  501    0  0.00000000000E+00  0.00000000000E+00  0.43863039837E+03  0.43863039837E+03  0.00000000000E+00 0.  1.
         -2   -1    0    0    0  501 -0.00000000000E+00 -0.00000000000E+00 -0.23506677394E+04  0.23506677394E+04  0.00000000000E+00 0. -1.
         23    2    1    2    0    0 -0.57698490907E+03 -0.11497788583E+03 -0.15258524224E+04  0.16380006391E+04  0.93214693393E+02 0.  0.
        254    2    1    2    0    0  0.57698490907E+03  0.11497788583E+03 -0.38618491863E+03  0.11512974987E+04  0.91116169787E+03 0.  0.
        -24    2    4    4    0    0  0.38694274005E+03  0.12122546541E+03 -0.67818429265E+03  0.79410741512E+03  0.79071830788E+02 0.  0.
         24    2    4    4    0    0  0.19004216903E+03 -0.62475795836E+01  0.29199937401E+03  0.35719008360E+03  0.78524283748E+02 0.  0.
         13    1    3    3    0    0 -0.25732155784E+03 -0.62815270811E+02 -0.81189526551E+03  0.85401057636E+03  0.00000000000E+00 0. -1.
        -13    1    3    3    0    0 -0.31966335123E+03 -0.52162615014E+02 -0.71395715691E+03  0.78399006271E+03  0.00000000000E+00 0.  1.
          2    1    6    6  502    0  0.13763166528E+03  0.10604907366E+02  0.14490577304E+03  0.20013151278E+03  0.00000000000E+00 0. -1.
          3    1    5    5  503    0  0.31076703908E+03  0.68693469806E+02 -0.55855473408E+03  0.64286727738E+03  0.00000000000E+00 0. -1.
         -4    1    5    5    0  503  0.76175700971E+02  0.52531995603E+02 -0.11962955857E+03  0.15124013774E+03  0.00000000000E+00 0.  1.
         -1    1    6    6    0  502  0.52410503742E+02 -0.16852486950E+02  0.14709360097E+03  0.15705857081E+03  0.00000000000E+00 0.  1.
<mgrwt>
<rscale>  0 0.20308366E+04</rscale>
<asrwt>0</asrwt>
<pdfrwt beam="1">  1        2 0.67481600E-01 0.20308366E+04</pdfrwt>
<pdfrwt beam="2">  1       -2 0.36164119E+00 0.20308366E+04</pdfrwt>
<totfact> 0.87341109E-01</totfact>
</mgrwt>
</event>
<event>
12    1  0.2219953E-007  0.1510518E+04  0.7818608E-02  0.8877489E-01
         -2   -1    0    0    0  501 -0.00000000000E+00  0.00000000000E+00  0.48300965138E+03  0.48300965138E+03  0.00000000000E+00 0.  1.
          2   -1    0    0  501    0  0.00000000000E+00 -0.00000000000E+00 -0.11809619391E+04  0.11809619391E+04  0.00000000000E+00 0. -1.
         23    2    1    2    0    0  0.43551306294E+02  0.99018657310E+02  0.28980918073E+03  0.32276787940E+03  0.92132144023E+02 0.  0.
        254    2    1    2    0    0 -0.43551306294E+02 -0.99018657310E+02 -0.98776146847E+03  0.13412037111E+04  0.90080700779E+03 0.  0.
        -24    2    4    4    0    0 -0.12272697273E+03  0.35976736742E+03 -0.66242291101E+03  0.76773854512E+03  0.78255301032E+02 0.  0.
         24    2    4    4    0    0  0.79175666438E+02 -0.45878602473E+03 -0.32533855746E+03  0.57346516597E+03  0.79143647719E+02 0.  0.
         13    1    3    3    0    0 -0.13198709353E+02  0.17596759222E+02  0.70533572919E+01  0.23099820622E+02  0.00000000000E+00 0. -1.
        -13    1    3    3    0    0  0.56750015647E+02  0.81421898088E+02  0.28275582344E+03  0.29966805878E+03  0.00000000000E+00 0.  1.
          2    1    6    6  502    0  0.78459864916E+02 -0.40125856623E+03 -0.25210029104E+03  0.48033211856E+03  0.00000000000E+00 0. -1.
          1    1    5    5  503    0 -0.96632215895E+02  0.24432957145E+03 -0.51959070080E+03  0.58224498366E+03  0.00000000000E+00 0. -1.
         -2    1    5    5    0  503 -0.26094756837E+02  0.11543779596E+03 -0.14283221021E+03  0.18549356147E+03  0.00000000000E+00 0.  1.
         -1    1    6    6    0  502  0.71580152201E+00 -0.57527458500E+02 -0.73238266419E+02  0.93133047417E+02  0.00000000000E+00 0.  1.
<mgrwt>
<rscale>  0 0.15105178E+04</rscale>
<asrwt>0</asrwt>
<pdfrwt beam="1">  1        2 0.18168645E+00 0.15105178E+04</pdfrwt>
<pdfrwt beam="2">  1       -2 0.74309177E-01 0.15105178E+04</pdfrwt>
<totfact> 0.30603017E+01</totfact>
</mgrwt>
</event>
<event>
12    1  0.1467288E-007  0.1548474E+04  0.7818608E-02  0.8852843E-01
         -2   -1    0    0    0  501 -0.00000000000E+00  0.00000000000E+00  0.41882782543E+03  0.41882782543E+03  0.00000000000E+00 0.  1.
          2   -1    0    0  501    0  0.00000000000E+00 -0.00000000000E+00 -0.14312386900E+04  0.14312386900E+04  0.00000000000E+00 0. -1.
         23    2    1    2    0    0 -0.20760224174E+03 -0.22348025425E+03 -0.81729645952E+03  0.87702466071E+03  0.90314107031E+02 0.  0.
        254    2    1    2    0    0  0.20760224174E+03  0.22348025425E+03 -0.19511440503E+03  0.97304185470E+03  0.90316039834E+03 0.  0.
        -24    2    4    4    0    0 -0.23281731259E+02 -0.75152065636E+02  0.31409969880E+03  0.33446762590E+03  0.83786037082E+02 0.  0.
         24    2    4    4    0    0  0.23088397300E+03  0.29863231989E+03 -0.50921410382E+03  0.63857422880E+03  0.77391024603E+02 0.  0.
         11    1    3    3    0    0 -0.87694681027E+02 -0.66506670969E+02 -0.40755684206E+03  0.42215645663E+03  0.00000000000E+00 0.  1.
        -11    1    3    3    0    0 -0.11990756072E+03 -0.15697358328E+03 -0.40973961746E+03  0.45486820408E+03  0.00000000000E+00 0. -1.
          4    1    6    6  502    0  0.10512503953E+02  0.39291963214E+02 -0.28829235527E+02  0.49854748356E+02  0.00000000000E+00 0. -1.
          3    1    5    5  503    0  0.22683529655E+02 -0.28902553011E+02  0.47731887684E+02  0.60234817091E+02  0.00000000000E+00 0. -1.
         -4    1    5    5    0  503 -0.45965260914E+02 -0.46249512625E+02  0.26636781111E+03  0.27423280881E+03  0.00000000000E+00 0.  1.
         -3    1    6    6    0  502  0.22037146905E+03  0.25934035667E+03 -0.48038486829E+03  0.58871948045E+03  0.00000000000E+00 0.  1.
<mgrwt>
<rscale>  0 0.15484736E+04</rscale>
<asrwt>0</asrwt>
<pdfrwt beam="1">  1        2 0.22019057E+00 0.15484736E+04</pdfrwt>
<pdfrwt beam="2">  1       -2 0.64435050E-01 0.15484736E+04</pdfrwt>
<totfact> 0.29738187E+01</totfact>
</mgrwt>
</event>
<event>
12    1  0.1467288E-007  0.3749904E+04  0.7818608E-02  0.8056992E-01
          2   -1    0    0  501    0  0.00000000000E+00  0.00000000000E+00  0.36756845467E+04  0.36756845467E+04  0.00000000000E+00 0. -1.
         -2   -1    0    0    0  501 -0.00000000000E+00 -0.00000000000E+00 -0.95640533757E+03  0.95640533757E+03  0.00000000000E+00 0.  1.
         23    2    1    2    0    0 -0.10219103429E+03  0.87938485542E+02 -0.89227428023E+03  0.90703685534E+03  0.91576640345E+02 0.  0.
        254    2    1    2    0    0  0.10219103429E+03 -0.87938485542E+02  0.36115534893E+04  0.37250530289E+04  0.90251054129E+03 0.  0.
        -24    2    4    4    0    0  0.90498590999E+02 -0.47429716654E+03  0.15375583881E+04  0.16136409284E+04  0.81261626227E+02 0.  0.
         24    2    4    4    0    0  0.11692443289E+02  0.38635868100E+03  0.20739951013E+04  0.21114121005E+04  0.84827086103E+02 0.  0.
         13    1    3    3    0    0  0.12743894277E+02  0.28109309698E+02 -0.24363159399E+03  0.24557869151E+03  0.00000000000E+00 0. -1.
        -13    1    3    3    0    0 -0.11493492857E+03  0.59829175844E+02 -0.64864268624E+03  0.66145816383E+03  0.00000000000E+00 0.  1.
          2    1    6    6  502    0  0.21713384837E+01  0.38479952755E+03  0.19898899252E+04  0.20267553640E+04  0.00000000000E+00 0. -1.
          3    1    5    5  503    0  0.10427213340E+03 -0.43914320049E+03  0.14376343236E+04  0.15068217801E+04  0.00000000000E+00 0. -1.
         -4    1    5    5    0  503 -0.13773542398E+02 -0.35153966048E+02  0.99924064415E+02  0.10681914832E+03  0.00000000000E+00 0.  1.
         -1    1    6    6    0  502  0.95211048056E+01  0.15591534480E+01  0.84105176095E+02  0.84656736543E+02  0.00000000000E+00 0.  1.
<mgrwt>
<rscale>  0 0.37499036E+04</rscale>
<asrwt>0</asrwt>
<pdfrwt beam="1">  1        2 0.56548992E+00 0.37499036E+04</pdfrwt>
<pdfrwt beam="2">  1       -2 0.14713928E+00 0.37499036E+04</pdfrwt>
<totfact> 0.15405807E-01</totfact>
</mgrwt>
</event>
<event>
12    1  0.1467288E-007  0.1529726E+04  0.7818608E-02  0.8864923E-01
          2   -1    0    0  501    0  0.00000000000E+00  0.00000000000E+00  0.83561289122E+03  0.83561289122E+03  0.00000000000E+00 0. -1.
         -2   -1    0    0    0  501 -0.00000000000E+00 -0.00000000000E+00 -0.70010351659E+03  0.70010351659E+03  0.00000000000E+00 0.  1.
         23    2    1    2    0    0  0.15511327412E+03 -0.34707177983E+03 -0.27114884396E+03  0.47537958306E+03  0.89135314256E+02 0.  0.
        254    2    1    2    0    0 -0.15511327412E+03  0.34707177983E+03  0.40665821858E+03  0.10603368248E+04  0.90245461217E+03 0.  0.
        -24    2    4    4    0    0  0.60384108341E+02  0.60188746299E+03  0.14440614984E+03  0.62703251056E+03  0.80011715038E+02 0.  0.
         24    2    4    4    0    0 -0.21549738246E+03 -0.25481568316E+03  0.26225206874E+03  0.43330431419E+03  0.87214258613E+02 0.  0.
         13    1    3    3    0    0  0.15321211093E+03 -0.32929762406E+03 -0.27678032223E+03  0.45663795606E+03  0.00000000000E+00 0.  1.
        -13    1    3    3    0    0  0.19011631902E+01 -0.17774155772E+02  0.56314782713E+01  0.18741626995E+02  0.00000000000E+00 0. -1.
          2    1    6    6  502    0 -0.36924731648E+01 -0.33043865865E+02  0.62578679500E+01  0.33833302242E+02  0.00000000000E+00 0. -1.
          3    1    5    5  503    0  0.18739251241E+02  0.45738611765E+03  0.13050245734E+03  0.47600852043E+03  0.00000000000E+00 0. -1.
         -4    1    5    5    0  503  0.41644857101E+02  0.14450134534E+03  0.13903692502E+02  0.15102399013E+03  0.00000000000E+00 0.  1.
         -1    1    6    6    0  502 -0.21180490930E+03 -0.22177181730E+03  0.25599420079E+03  0.39947101195E+03  0.00000000000E+00 0.  1.
<mgrwt>
<rscale>  0 0.15297262E+04</rscale>
<asrwt>0</asrwt>
<pdfrwt beam="1">  1        2 0.12855583E+00 0.15297262E+04</pdfrwt>
<pdfrwt beam="2">  1       -2 0.10770823E+00 0.15297262E+04</pdfrwt>
<totfact> 0.21654292E+01</totfact>
</mgrwt>
</event>
<event>
12    1  0.1467288E-007  0.1274793E+04  0.7818608E-02  0.9049796E-01
          1   -1    0    0  501    0  0.00000000000E+00  0.00000000000E+00  0.10862277080E+04  0.10862277080E+04  0.00000000000E+00 0. -1.
         -1   -1    0    0    0  501 -0.00000000000E+00 -0.00000000000E+00 -0.37402343070E+03  0.37402343070E+03  0.00000000000E+00 0.  1.
         23    2    1    2    0    0 -0.30991109061E+03  0.13143202209E+03  0.21245104516E+03  0.40816344050E+03  0.90236838687E+02 0.  0.
        254    2    1    2    0    0  0.30991109061E+03 -0.13143202209E+03  0.49975323212E+03  0.10520876982E+04  0.86244766284E+03 0.  0.
        -24    2    4    4    0    0  0.51767464874E+03 -0.30983046441E+03  0.20747844219E+03  0.64340103123E+03  0.83280396143E+02 0.  0.
         24    2    4    4    0    0 -0.20776355813E+03  0.17839844233E+03  0.29227478993E+03  0.40868666696E+03  0.81292918575E+02 0.  0.
         11    1    3    3    0    0 -0.28167759928E+02  0.73939820735E+00  0.50659782496E+02  0.57968810335E+02  0.00000000000E+00 0. -1.
        -11    1    3    3    0    0 -0.28174333069E+03  0.13069262388E+03  0.16179126266E+03  0.35019463017E+03  0.00000000000E+00 0.  1.
          4    1    6    6  502    0 -0.18670165778E+03  0.14650083162E+03  0.28303352595E+03  0.36936158368E+03  0.00000000000E+00 0. -1.
          3    1    5    5  503    0  0.44375644176E+03 -0.27431384315E+03  0.20735000350E+03  0.56139281087E+03  0.00000000000E+00 0. -1.
         -2    1    5    5    0  503  0.73918206984E+02 -0.35516621263E+02  0.12843869201E+00  0.82008220357E+02  0.00000000000E+00 0.  1.
         -3    1    6    6    0  502 -0.21061900348E+02  0.31897610707E+02  0.92412639744E+01  0.39325083280E+02  0.00000000000E+00 0.  1.
<mgrwt>
<rscale>  0 0.12747935E+04</rscale>
<asrwt>0</asrwt>
<pdfrwt beam="1">  1        1 0.16711195E+00 0.12747935E+04</pdfrwt>
<pdfrwt beam="2">  1       -1 0.57542067E-01 0.12747935E+04</pdfrwt>
<totfact> 0.39099491E+01</totfact>
</mgrwt>
</event>
<event>
12    1  0.2105335E-007  0.2853860E+04  0.7818608E-02  0.8286739E-01
          2   -1    0    0  501    0  0.00000000000E+00  0.00000000000E+00  0.11525083973E+04  0.11525083973E+04  0.00000000000E+00 0. -1.
         -2   -1    0    0    0  501 -0.00000000000E+00 -0.00000000000E+00 -0.17666940515E+04  0.17666940515E+04  0.00000000000E+00 0.  1.
         23    2    1    2    0    0 -0.99718116581E+02 -0.50761761669E+03 -0.14785609677E+04  0.15690273819E+04  0.89916864775E+02 0.  0.
        254    2    1    2    0    0  0.99718116581E+02  0.50761761669E+03  0.86437531348E+03  0.13501750670E+04  0.89900427213E+03 0.  0.
        -24    2    4    4    0    0 -0.37759550087E+03  0.35717154963E+03  0.50389767327E+03  0.72826188301E+03  0.79389085960E+02 0.  0.
         24    2    4    4    0    0  0.47731361746E+03  0.15044606706E+03  0.36047764022E+03  0.62191318394E+03  0.79809590697E+02 0.  0.
         11    1    3    3    0    0 -0.84017799344E+02 -0.50098758450E+03 -0.14342373411E+04  0.15215401083E+04  0.00000000000E+00 0.  1.
        -11    1    3    3    0    0 -0.15700317237E+02 -0.66300321855E+01 -0.44323626544E+02  0.47487273644E+02  0.00000000000E+00 0. -1.
          4    1    6    6  502    0  0.13552607011E+02  0.16075154056E+02  0.30683180533E+02  0.37195985029E+02  0.00000000000E+00 0. -1.
          1    1    5    5  503    0 -0.29048961580E+02  0.26908541589E+02  0.73257344073E+02  0.83273946946E+02  0.00000000000E+00 0. -1.
         -2    1    5    5    0  503 -0.34854653929E+03  0.33026300804E+03  0.43064032919E+03  0.64498793606E+03  0.00000000000E+00 0.  1.
         -3    1    6    6    0  502  0.46376101044E+03  0.13437091300E+03  0.32979445968E+03  0.58471719892E+03  0.00000000000E+00 0.  1.
<mgrwt>
<rscale>  0 0.28538604E+04</rscale>
<asrwt>0</asrwt>
<pdfrwt beam="1">  1        2 0.17730898E+00 0.28538604E+04</pdfrwt>
<pdfrwt beam="2">  1       -2 0.27179908E+00 0.28538604E+04</pdfrwt>
<totfact> 0.82823431E-01</totfact>
</mgrwt>
</event>
<event>
12    1  0.1467288E-007  0.1329661E+04  0.7818608E-02  0.9006369E-01
         -2   -1    0    0    0  501 -0.00000000000E+00  0.00000000000E+00  0.74812261771E+03  0.74812261771E+03  0.00000000000E+00 0.  1.
          2   -1    0    0  501    0  0.00000000000E+00 -0.00000000000E+00 -0.59081177964E+03  0.59081177964E+03  0.00000000000E+00 0. -1.
         23    2    1    2    0    0  0.42887029288E+02  0.31623702932E+03  0.19608614794E+03  0.38545282948E+03  0.90988737459E+02 0.  0.
        254    2    1    2    0    0 -0.42887029288E+02 -0.31623702932E+03 -0.38775309876E+02  0.95348156788E+03  0.89765161373E+03 0.  0.
        -24    2    4    4    0    0 -0.45948750171E+03 -0.22675036922E+03 -0.35995715756E+02  0.51991562911E+03  0.80449211764E+02 0.  0.
         24    2    4    4    0    0  0.41660047242E+03 -0.89486660099E+02 -0.27795941198E+01  0.43356593877E+03  0.80049242065E+02 0.  0.
         13    1    3    3    0    0 -0.97450359652E+01  0.12880703394E+03  0.37934515227E+02  0.13463003069E+03  0.00000000000E+00 0. -1.
        -13    1    3    3    0    0  0.52632065253E+02  0.18742999538E+03  0.15815163272E+03  0.25082279878E+03  0.00000000000E+00 0.  1.
          4    1    6    6  502    0  0.15981438886E+03 -0.73606838058E+02 -0.94335347995E+01  0.17620328338E+03  0.00000000000E+00 0. -1.
          1    1    5    5  503    0 -0.38020097782E+03 -0.16624753130E+03 -0.54360308782E+02  0.41850456194E+03  0.00000000000E+00 0. -1.
         -2    1    5    5    0  503 -0.79286523893E+02 -0.60502837920E+02  0.18364593026E+02  0.10141106717E+03  0.00000000000E+00 0.  1.
         -3    1    6    6    0  502  0.25678608356E+03 -0.15879822041E+02  0.66539406797E+01  0.25736265538E+03  0.00000000000E+00 0.  1.
<mgrwt>
<rscale>  0 0.13296611E+04</rscale>
<asrwt>0</asrwt>
<pdfrwt beam="1">  1        2 0.90894119E-01 0.13296611E+04</pdfrwt>
<pdfrwt beam="2">  1       -2 0.11509579E+00 0.13296611E+04</pdfrwt>
<totfact> 0.29082843E+01</totfact>
</mgrwt>
</event>
<event>
12    1  0.1467288E-007  0.2027304E+04  0.7818608E-02  0.8593960E-01
          2   -1    0    0  501    0  0.00000000000E+00  0.00000000000E+00  0.24374842428E+04  0.24374842428E+04  0.00000000000E+00 0. -1.
         -2   -1    0    0    0  501 -0.00000000000E+00 -0.00000000000E+00 -0.42153726981E+03  0.42153726981E+03  0.00000000000E+00 0.  1.
         23    2    1    2    0    0 -0.23943163218E+03 -0.30148822491E+03  0.18139217776E+04  0.18565794350E+04  0.91391064753E+02 0.  0.
        254    2    1    2    0    0  0.23943163218E+03  0.30148822491E+03  0.20202519533E+03  0.10024420776E+04  0.90324597047E+03 0.  0.
        -24    2    4    4    0    0 -0.10054116881E+03  0.48484777076E+03  0.31290688714E+03  0.59108834160E+03  0.79302081429E+02 0.  0.
         24    2    4    4    0    0  0.33997280099E+03 -0.18335954585E+03 -0.11088169181E+03  0.41135373601E+03  0.87834606406E+02 0.  0.
         11    1    3    3    0    0 -0.73546499578E+02 -0.16272547578E+03  0.76017287648E+03  0.78086584648E+03  0.00000000000E+00 0. -1.
        -11    1    3    3    0    0 -0.16588513260E+03 -0.13876274913E+03  0.10537489011E+04  0.10757135885E+04  0.00000000000E+00 0.  1.
          4    1    6    6  502    0  0.32946579818E+03 -0.17269927518E+03 -0.85182530173E+02  0.38161343696E+03  0.00000000000E+00 0. -1.
          3    1    5    5  503    0 -0.77763596275E+02  0.38848080755E+03  0.28551416283E+03  0.48834706093E+03  0.00000000000E+00 0. -1.
         -4    1    5    5    0  503 -0.22777572535E+02  0.96366963206E+02  0.27392724307E+02  0.10274128067E+03  0.00000000000E+00 0.  1.
         -3    1    6    6    0  502  0.10507002807E+02 -0.10660270672E+02 -0.25699161639E+02  0.29740299052E+02  0.00000000000E+00 0.  1.
<mgrwt>
<rscale>  0 0.20273041E+04</rscale>
<asrwt>0</asrwt>
<pdfrwt beam="1">  1        2 0.37499757E+00 0.20273041E+04</pdfrwt>
<pdfrwt beam="2">  1       -2 0.64851889E-01 0.20273041E+04</pdfrwt>
<totfact> 0.76966253E+00</totfact>
</mgrwt>
</event>
<event>
12    1  0.1467288E-007  0.1628945E+04  0.7818608E-02  0.8802961E-01
          2   -1    0    0  501    0  0.00000000000E+00  0.00000000000E+00  0.21657699027E+04  0.21657699027E+04  0.00000000000E+00 0. -1.
         -2   -1    0    0    0  501 -0.00000000000E+00 -0.00000000000E+00 -0.30629528674E+03  0.30629528674E+03  0.00000000000E+00 0.  1.
         23    2    1    2    0    0 -0.40233629476E+02  0.12813695458E+03  0.14853887558E+04  0.14944036655E+04  0.93940063402E+02 0.  0.
        254    2    1    2    0    0  0.40233629476E+02 -0.12813695458E+03  0.37408586016E+03  0.97766152395E+03  0.89322113755E+03 0.  0.
        -24    2    4    4    0    0 -0.87067669238E+02 -0.11032368419E+03 -0.27084645935E+03  0.31533181785E+03  0.79525194018E+02 0.  0.
         24    2    4    4    0    0  0.12730129871E+03 -0.17813270393E+02  0.64493231951E+03  0.66232970610E+03  0.78867037288E+02 0.  0.
         11    1    3    3    0    0 -0.34084017433E+02  0.13765833271E+03  0.14562350185E+04  0.14631240433E+04  0.00000000000E+00 0. -1.
        -11    1    3    3    0    0 -0.61496120435E+01 -0.95213781221E+01  0.29153737304E+02  0.31279622256E+02  0.00000000000E+00 0.  1.
          4    1    6    6  502    0  0.64169896831E+02  0.10703441822E+02  0.16397158932E+03  0.17640584296E+03  0.00000000000E+00 0. -1.
          1    1    5    5  503    0  0.81754540204E+01 -0.32122137633E+02 -0.29630457705E+02  0.44459349954E+02  0.00000000000E+00 0. -1.
         -2    1    5    5    0  503 -0.95243123258E+02 -0.78201546558E+02 -0.24121600165E+03  0.27087246789E+03  0.00000000000E+00 0.  1.
         -3    1    6    6    0  502  0.63131401883E+02 -0.28516712215E+02  0.48096073019E+03  0.48592386314E+03  0.00000000000E+00 0.  1.
<mgrwt>
<rscale>  0 0.16289446E+04</rscale>
<asrwt>0</asrwt>
<pdfrwt beam="1">  1        2 0.33319536E+00 0.16289446E+04</pdfrwt>
<pdfrwt beam="2">  1       -2 0.47122353E-01 0.16289446E+04</pdfrwt>
<totfact> 0.22058610E+01</totfact>
</mgrwt>
</event>
<event>
12    1  0.1467288E-007  0.2196280E+04  0.7818608E-02  0.8519978E-01
         -2   -1    0    0    0  501 -0.00000000000E+00  0.00000000000E+00  0.10845989037E+04  0.10845989037E+04  0.00000000000E+00 0.  1.
          2   -1    0    0  501    0  0.00000000000E+00 -0.00000000000E+00 -0.11118498785E+04  0.11118498785E+04  0.00000000000E+00 0. -1.
         23    2    1    2    0    0  0.60767339186E+03 -0.68061770061E+03  0.56299127931E+02  0.91829334779E+03  0.87095781987E+02 0.  0.
        254    2    1    2    0    0 -0.60767339186E+03  0.68061770061E+03 -0.83550102787E+02  0.12781554344E+04  0.89117522928E+03 0.  0.
        -24    2    4    4    0    0 -0.72686764879E+03  0.49379519854E+03 -0.32528364521E+03  0.94040841890E+03  0.79926638389E+02 0.  0.
         24    2    4    4    0    0  0.11919425694E+03  0.18682250207E+03  0.24173354242E+03  0.33774701551E+03  0.80796180534E+02 0.  0.
         13    1    3    3    0    0  0.64441733615E+02 -0.11667040797E+03  0.62485233012E+00  0.13328582659E+03  0.00000000000E+00 0. -1.
        -13    1    3    3    0    0  0.54323165824E+03 -0.56394729263E+03  0.55674275601E+02  0.78500752120E+03  0.00000000000E+00 0.  1.
          2    1    6    6  502    0  0.44237495351E+02  0.14823095687E+02  0.64862590778E+02  0.79898910150E+02  0.00000000000E+00 0. -1.
          3    1    5    5  503    0 -0.40512464758E+03  0.29979833742E+03 -0.15007556427E+03  0.52585900980E+03  0.00000000000E+00 0. -1.
         -4    1    5    5    0  503 -0.32174300122E+03  0.19399686111E+03 -0.17520808094E+03  0.41454940909E+03  0.00000000000E+00 0.  1.
         -1    1    6    6    0  502  0.74956761586E+02  0.17199940638E+03  0.17687095165E+03  0.25784810536E+03  0.00000000000E+00 0.  1.
<mgrwt>
<rscale>  0 0.21962797E+04</rscale>
<asrwt>0</asrwt>
<pdfrwt beam="1">  1        2 0.17105383E+00 0.21962797E+04</pdfrwt>
<pdfrwt beam="2">  1       -2 0.16686137E+00 0.21962797E+04</pdfrwt>
<totfact> 0.43962525E+00</totfact>
</mgrwt>
</event>
<event>
12    1  0.1467288E-007  0.1357125E+04  0.7818608E-02  0.8985452E-01
         -1   -1    0    0    0  501 -0.00000000000E+00  0.00000000000E+00  0.48504615735E+03  0.48504615735E+03  0.00000000000E+00 0.  1.
          1   -1    0    0  501    0  0.00000000000E+00 -0.00000000000E+00 -0.94928476851E+03  0.94928476851E+03  0.00000000000E+00 0. -1.
         23    2    1    2    0    0 -0.38174638845E+03 -0.56654641043E+02 -0.15830479786E+03  0.42689864086E+03  0.90785390336E+02 0.  0.
        254    2    1    2    0    0  0.38174638845E+03  0.56654641043E+02 -0.30593381331E+03  0.10074322850E+04  0.87885394537E+03 0.  0.
        -24    2    4    4    0    0  0.34102963450E+02 -0.37770437839E+03 -0.19871249261E+03  0.43550156438E+03  0.79695346689E+02 0.  0.
         24    2    4    4    0    0  0.34764342500E+03  0.43435901943E+03 -0.10722132070E+03  0.57193072062E+03  0.78004031107E+02 0.  0.
         13    1    3    3    0    0 -0.31432249276E+03 -0.51195254671E+02 -0.90390454558E+02  0.33104383068E+03  0.00000000000E+00 0.  1.
        -13    1    3    3    0    0 -0.67423895695E+02 -0.54593863717E+01 -0.67914343298E+02  0.95854810187E+02  0.00000000000E+00 0. -1.
          2    1    6    6  502    0  0.29086942867E+03  0.40277158891E+03 -0.95131088423E+02  0.50584572881E+03  0.00000000000E+00 0. -1.
          3    1    5    5  503    0  0.55277415435E+02 -0.33799955392E+03 -0.17371540622E+03  0.38402647496E+03  0.00000000000E+00 0. -1.
         -4    1    5    5    0  503 -0.21174451985E+02 -0.39704824470E+02 -0.24997086385E+02  0.51475089420E+02  0.00000000000E+00 0.  1.
         -1    1    6    6    0  502  0.56773996333E+02  0.31587430521E+02 -0.12090232276E+02  0.66084991814E+02  0.00000000000E+00 0.  1.
<mgrwt>
<rscale>  0 0.13571248E+04</rscale>
<asrwt>0</asrwt>
<pdfrwt beam="1">  1        1 0.14604381E+00 0.13571248E+04</pdfrwt>
<pdfrwt beam="2">  1       -1 0.74622487E-01 0.13571248E+04</pdfrwt>
<totfact> 0.29344692E+01</totfact>
</mgrwt>
</event>
<event>
12    1  0.1467288E-007  0.1596341E+04  0.7818608E-02  0.8822799E-01
         -1   -1    0    0    0  501 -0.00000000000E+00  0.00000000000E+00  0.95730649494E+03  0.95730649494E+03  0.00000000000E+00 0.  1.
          1   -1    0    0  501    0  0.00000000000E+00 -0.00000000000E+00 -0.66548793658E+03  0.66548793658E+03  0.00000000000E+00 0. -1.
         23    2    1    2    0    0 -0.37694660739E+03 -0.96124335688E+01  0.49821624157E+03  0.63172382625E+03  0.93136596401E+02 0.  0.
        254    2    1    2    0    0  0.37694660739E+03  0.96124335688E+01 -0.20639768320E+03  0.99107060528E+03  0.89299484730E+03 0.  0.
        -24    2    4    4    0    0  0.54016877830E+02 -0.37572480025E+03 -0.27757404930E+03  0.47663474140E+03  0.77758441639E+02 0.  0.
         24    2    4    4    0    0  0.32292972956E+03  0.38533723382E+03  0.71176366102E+02  0.51443586388E+03  0.82521445421E+02 0.  0.
         13    1    3    3    0    0 -0.20323978341E+03  0.40597302208E+02  0.25308764188E+03  0.32712062757E+03  0.00000000000E+00 0.  1.
        -13    1    3    3    0    0 -0.17370682398E+03 -0.50209735776E+02  0.24512859968E+03  0.30460319868E+03  0.00000000000E+00 0. -1.
          4    1    6    6  502    0  0.22139996594E+03  0.28509490866E+03  0.15560299769E+02  0.36130205478E+03  0.00000000000E+00 0. -1.
          3    1    5    5  503    0 -0.15962601698E+02 -0.60632157072E+02 -0.28178183627E+02  0.68739167559E+02  0.00000000000E+00 0. -1.
         -4    1    5    5    0  503  0.69979479528E+02 -0.31509264318E+03 -0.24939586568E+03  0.40789557384E+03  0.00000000000E+00 0.  1.
         -3    1    6    6    0  502  0.10152976362E+03  0.10024232515E+03  0.55616066332E+02  0.15313380910E+03  0.00000000000E+00 0.  1.
<mgrwt>
<rscale>  0 0.15963407E+04</rscale>
<asrwt>0</asrwt>
<pdfrwt beam="1">  1        1 0.10238276E+00 0.15963407E+04</pdfrwt>
<pdfrwt beam="2">  1       -1 0.14727792E+00 0.15963407E+04</pdfrwt>
<totfact> 0.10345466E+01</totfact>
</mgrwt>
</event>
<event>
12    1  0.1467288E-007  0.3507814E+04  0.7818608E-02  0.8111941E-01
         -1   -1    0    0    0  501 -0.00000000000E+00  0.00000000000E+00  0.15125173794E+04  0.15125173794E+04  0.00000000000E+00 0.  1.
          1   -1    0    0  501    0  0.00000000000E+00 -0.00000000000E+00 -0.20338205758E+04  0.20338205758E+04  0.00000000000E+00 0. -1.
         23    2    1    2    0    0  0.52536370565E+03  0.57807173534E+03 -0.16956654325E+04  0.18690455259E+04  0.88746631110E+02 0.  0.
        254    2    1    2    0    0 -0.52536370565E+03 -0.57807173534E+03  0.11743622362E+04  0.16772924293E+04  0.90774956742E+03 0.  0.
        -24    2    4    4    0    0  0.15128954293E+03 -0.29010309447E+03  0.66078987813E+02  0.34478094290E+03  0.86366282393E+02 0.  0.
         24    2    4    4    0    0 -0.67665324858E+03 -0.28796864088E+03  0.11082832484E+04  0.13325114864E+04  0.80681756312E+02 0.  0.
         13    1    3    3    0    0  0.91841695683E+02  0.58330418701E+02 -0.21149589147E+03  0.23783996073E+03  0.00000000000E+00 0.  1.
        -13    1    3    3    0    0  0.43352200996E+03  0.51974131664E+03 -0.14841695411E+04  0.16312055652E+04  0.00000000000E+00 0. -1.
          4    1    6    6  502    0 -0.29982658492E+02 -0.23159340279E+02  0.33718660529E+02  0.50717481407E+02  0.00000000000E+00 0. -1.
          3    1    5    5  503    0 -0.97743526516E+01 -0.55033780179E+01  0.41107524480E+01  0.11946690967E+02  0.00000000000E+00 0. -1.
         -4    1    5    5    0  503  0.16106389558E+03 -0.28459971645E+03  0.61968235365E+02  0.33283425193E+03  0.00000000000E+00 0.  1.
         -3    1    6    6    0  502 -0.64667059009E+03 -0.26480930060E+03  0.10745645879E+04  0.12817940050E+04  0.00000000000E+00 0.  1.
<mgrwt>
<rscale>  0 0.35078135E+04</rscale>
<asrwt>0</asrwt>
<pdfrwt beam="1">  1        1 0.31289547E+00 0.35078135E+04</pdfrwt>
<pdfrwt beam="2">  1       -1 0.23269498E+00 0.35078135E+04</pdfrwt>
<totfact> 0.20877576E-01</totfact>
</mgrwt>
</event>
<event>
12    1  0.1467288E-007  0.1772242E+04  0.7818608E-02  0.8721202E-01
          1   -1    0    0  501    0  0.00000000000E+00  0.00000000000E+00  0.86971864740E+03  0.86971864740E+03  0.00000000000E+00 0. -1.
         -1   -1    0    0    0  501 -0.00000000000E+00 -0.00000000000E+00 -0.90283265790E+03  0.90283265790E+03  0.00000000000E+00 0.  1.
         23    2    1    2    0    0 -0.65739298595E+03 -0.13122075842E+02 -0.27988344625E+02  0.66424545399E+03  0.90005271324E+02 0.  0.
        254    2    1    2    0    0  0.65739298595E+03  0.13122075842E+02 -0.51256658724E+01  0.11083058513E+04  0.89217591355E+03 0.  0.
        -24    2    4    4    0    0  0.68418816597E+03 -0.75587131039E+02  0.31833311742E+03  0.76265499532E+03  0.80497250990E+02 0.  0.
         24    2    4    4    0    0 -0.26795180018E+02  0.88709206881E+02 -0.32345878329E+03  0.34565085598E+03  0.79130428361E+02 0.  0.
         13    1    3    3    0    0 -0.63543155657E+03 -0.44059922606E+01 -0.11713196666E+02  0.63555477721E+03  0.00000000000E+00 0. -1.
        -13    1    3    3    0    0 -0.21961429376E+02 -0.87160835812E+01 -0.16275147960E+02  0.28690676784E+02  0.00000000000E+00 0.  1.
          2    1    6    6  502    0 -0.34782208509E+02  0.56176292206E+02 -0.29305736932E+03  0.30041338111E+03  0.00000000000E+00 0. -1.
          3    1    5    5  503    0  0.33510863757E+03 -0.19491734316E+02  0.19499159718E+03  0.38820027003E+03  0.00000000000E+00 0. -1.
         -4    1    5    5    0  503  0.34907952840E+03 -0.56095396723E+02  0.12334152024E+03  0.37445472529E+03  0.00000000000E+00 0.  1.
         -1    1    6    6    0  502  0.79870284911E+01  0.32532914675E+02 -0.30401413971E+02  0.45237474872E+02  0.00000000000E+00 0.  1.
<mgrwt>
<rscale>  0 0.17722420E+04</rscale>
<asrwt>0</asrwt>
<pdfrwt beam="1">  1        1 0.13380287E+00 0.17722420E+04</pdfrwt>
<pdfrwt beam="2">  1       -1 0.13889733E+00 0.17722420E+04</pdfrwt>
<totfact> 0.78037440E+00</totfact>
</mgrwt>
</event>
<event>
12    1  0.1467288E-007  0.1380539E+04  0.7818608E-02  0.8968027E-01
          2   -1    0    0  501    0  0.00000000000E+00  0.00000000000E+00  0.92635102624E+03  0.92635102624E+03  0.00000000000E+00 0.  1.
         -2   -1    0    0    0  501 -0.00000000000E+00 -0.00000000000E+00 -0.51435340226E+03  0.51435340226E+03  0.00000000000E+00 0. -1.
         23    2    1    2    0    0 -0.36207570259E+03 -0.12898849016E+03  0.19361875161E+03  0.44005069546E+03  0.91758098249E+02 0.  0.
        254    2    1    2    0    0  0.36207570259E+03  0.12898849016E+03  0.21837887237E+03  0.10006537330E+04  0.89770914920E+03 0.  0.
        -24    2    4    4    0    0  0.23780146900E+03  0.44918075184E+03 -0.10186525039E+03  0.52441674425E+03  0.79520474922E+02 0.  0.
         24    2    4    4    0    0  0.12427423359E+03 -0.32019226167E+03  0.32024412276E+03  0.47623698880E+03  0.79235104370E+02 0.  0.
         11    1    3    3    0    0 -0.40942224535E+02  0.73560929783E+01  0.43673451577E+02  0.60313748237E+02  0.00000000000E+00 0. -1.
        -11    1    3    3    0    0 -0.32113347806E+03 -0.13634458314E+03  0.14994530003E+03  0.37973694722E+03  0.00000000000E+00 0.  1.
          4    1    6    6  502    0 -0.19277238905E+01 -0.26488634862E+02  0.45266669952E+01  0.26941689077E+02  0.00000000000E+00 0. -1.
          3    1    5    5  503    0  0.12590035326E+03  0.15649292567E+03 -0.32182201533E+02  0.20341245987E+03  0.00000000000E+00 0. -1.
         -4    1    5    5    0  503  0.11190111574E+03  0.29268782616E+03 -0.69683048854E+02  0.32100428438E+03  0.00000000000E+00 0.  1.
         -3    1    6    6    0  502  0.12620195748E+03 -0.29370362681E+03  0.31571745576E+03  0.44929529972E+03  0.00000000000E+00 0.  1.
<mgrwt>
<rscale>  0 0.13805387E+04</rscale>
<asrwt>0</asrwt>
<pdfrwt beam="1">  1        2 0.14251554E+00 0.13805387E+04</pdfrwt>
<pdfrwt beam="2">  1       -2 0.79131293E-01 0.13805387E+04</pdfrwt>
<totfact> 0.38879064E+01</totfact>
</mgrwt>
</event>
<event>
12    1  0.1670607E-007  0.2440420E+04  0.7818608E-02  0.8424524E-01
          2   -1    0    0  501    0  0.00000000000E+00  0.00000000000E+00  0.36850247216E+04  0.36850247216E+04  0.00000000000E+00 0. -1.
         -2   -1    0    0    0  501 -0.00000000000E+00 -0.00000000000E+00 -0.40404420861E+03  0.40404420861E+03  0.00000000000E+00 0.  1.
         23    2    1    2    0    0 -0.31751831427E+02 -0.76389114063E+03  0.26025647073E+04  0.27141290023E+04  0.92818814262E+02 0.  0.
        254    2    1    2    0    0  0.31751831427E+02  0.76389114063E+03  0.67841580573E+03  0.13749399279E+04  0.91960532093E+03 0.  0.
        -24    2    4    4    0    0 -0.42081000667E+03  0.22270936037E+03  0.31966707585E+03  0.57948984886E+03  0.83312211799E+02 0.  0.
         24    2    4    4    0    0  0.45256183810E+03  0.54118178027E+03  0.35874872988E+03  0.79545007903E+03  0.79688395877E+02 0.  0.
         13    1    3    3    0    0 -0.51180115080E+02 -0.54788026358E+03  0.17542074070E+04  0.18384873712E+04  0.00000000000E+00 0. -1.
        -13    1    3    3    0    0  0.19428283653E+02 -0.21601087705E+03  0.84835730028E+03  0.87564163112E+03  0.00000000000E+00 0.  1.
          4    1    6    6  502    0  0.44254644994E+03  0.50186215829E+03  0.34320950942E+03  0.75200116598E+03  0.00000000000E+00 0. -1.
          3    1    5    5  503    0 -0.38114872136E+03  0.20616252271E+03  0.31608807490E+03  0.53636648354E+03  0.00000000000E+00 0. -1.
         -4    1    5    5    0  503 -0.39661285309E+02  0.16546837654E+02  0.35790009511E+01  0.43123365320E+02  0.00000000000E+00 0.  1.
         -3    1    6    6    0  502  0.10015388158E+02  0.39319621981E+02  0.15539220457E+02  0.43448913049E+02  0.00000000000E+00 0.  1.
<mgrwt>
<rscale>  0 0.24404204E+04</rscale>
<asrwt>0</asrwt>
<pdfrwt beam="1">  1        2 0.56692686E+00 0.24404204E+04</pdfrwt>
<pdfrwt beam="2">  1       -2 0.62160650E-01 0.24404204E+04</pdfrwt>
<totfact> 0.12923488E+00</totfact>
</mgrwt>
</event>
<event>
12    1  0.1467288E-007  0.1497696E+04  0.7818608E-02  0.8885987E-01
          2   -1    0    0  501    0  0.00000000000E+00  0.00000000000E+00  0.42623168590E+03  0.42623168590E+03  0.00000000000E+00 0. -1.
         -2   -1    0    0    0  501 -0.00000000000E+00 -0.00000000000E+00 -0.13156534270E+04  0.13156534270E+04  0.00000000000E+00 0.  1.
         23    2    1    2    0    0  0.48830289501E+02 -0.33007895484E+03 -0.72016974373E+03  0.79927610645E+03  0.94134589568E+02 0.  0.
        254    2    1    2    0    0 -0.48830289501E+02  0.33007895484E+03 -0.16925199733E+03  0.94260900640E+03  0.86517569704E+03 0.  0.
        -24    2    4    4    0    0  0.31008539320E+03 -0.10568823652E+03 -0.15752592923E+03  0.37242453907E+03  0.81010274072E+02 0.  0.
         24    2    4    4    0    0 -0.35891568270E+03  0.43576719135E+03 -0.11726068094E+02  0.57018446733E+03  0.79115824978E+02 0.  0.
         13    1    3    3    0    0  0.37718407780E+02 -0.21384004992E+03 -0.35756418678E+03  0.41833287332E+03  0.00000000000E+00 0.  1.
        -13    1    3    3    0    0  0.11111881720E+02 -0.11623890492E+03 -0.36260555695E+03  0.38094323313E+03  0.00000000000E+00 0. -1.
          2    1    6    6  502    0 -0.11083825585E+03  0.16747977479E+03 -0.35746423787E+02  0.20399117808E+03  0.00000000000E+00 0. -1.
          1    1    5    5  503    0  0.15243875620E+02 -0.13805731789E+02  0.79611907328E+01  0.22053447169E+02  0.00000000000E+00 0. -1.
         -2    1    5    5    0  503  0.29484151758E+03 -0.91882504727E+02 -0.16548711996E+03  0.35037109190E+03  0.00000000000E+00 0.  1.
         -1    1    6    6    0  502 -0.24807742685E+03  0.26828741657E+03  0.24020355693E+02  0.36619328925E+03  0.00000000000E+00 0.  1.
<mgrwt>
<rscale>  0 0.14976958E+04</rscale>
<asrwt>0</asrwt>
<pdfrwt beam="1">  1        2 0.65574106E-01 0.14976958E+04</pdfrwt>
<pdfrwt beam="2">  1       -2 0.20240822E+00 0.14976958E+04</pdfrwt>
<totfact> 0.91616364E+00</totfact>
</mgrwt>
</event>
<event>
12    1  0.1467288E-007  0.1352842E+04  0.7818608E-02  0.8988680E-01
          1   -1    0    0  501    0  0.00000000000E+00  0.00000000000E+00  0.49195525529E+03  0.49195525529E+03  0.00000000000E+00 0. -1.
         -1   -1    0    0    0  501 -0.00000000000E+00 -0.00000000000E+00 -0.93005437433E+03  0.93005437433E+03  0.00000000000E+00 0.  1.
         23    2    1    2    0    0 -0.28055223198E+03 -0.16320969121E+02  0.10096422630E+03  0.31590254062E+03  0.10307624011E+03 0.  0.
        254    2    1    2    0    0  0.28055223198E+03  0.16320969121E+02 -0.53906334533E+03  0.11061070890E+04  0.92407124896E+03 0.  0.
        -24    2    4    4    0    0  0.99853833703E+02  0.28922679558E+03  0.14095531788E+03  0.34638990305E+03  0.80589303914E+02 0.  0.
         24    2    4    4    0    0  0.18069839828E+03 -0.27290582646E+03 -0.68001866321E+03  0.75971718595E+03  0.87265795428E+02 0.  0.
         13    1    3    3    0    0 -0.28675472570E+03 -0.11671954634E+02  0.86928125112E+02  0.29986831471E+03  0.00000000000E+00 0. -1.
        -13    1    3    3    0    0  0.62024937131E+01 -0.46490144875E+01  0.14036101186E+02  0.16034225908E+02  0.00000000000E+00 0.  1.
          2    1    6    6  502    0  0.71379353466E+02 -0.41114456867E+02 -0.15800911647E+03  0.17819172695E+03  0.00000000000E+00 0. -1.
          3    1    5    5  503    0  0.63308160950E+02  0.10574245079E+03  0.23436544153E+02  0.12545381917E+03  0.00000000000E+00 0. -1.
         -4    1    5    5    0  503  0.36545672753E+02  0.18348434479E+03  0.11751877373E+03  0.22093608388E+03  0.00000000000E+00 0.  1.
         -1    1    6    6    0  502  0.10931904481E+03 -0.23179136960E+03 -0.52200954674E+03  0.58152545900E+03  0.00000000000E+00 0.  1.
<mgrwt>
<rscale>  0 0.13528417E+04</rscale>
<asrwt>0</asrwt>
<pdfrwt beam="1">  1        1 0.75685424E-01 0.13528417E+04</pdfrwt>
<pdfrwt beam="2">  1       -1 0.14308529E+00 0.13528417E+04</pdfrwt>
<totfact> 0.17558704E+01</totfact>
</mgrwt>
</event>
<event>
12    1  0.1467288E-007  0.1815853E+04  0.7818608E-02  0.8697914E-01
          1   -1    0    0  501    0  0.00000000000E+00  0.00000000000E+00  0.58979625219E+03  0.58979625219E+03  0.00000000000E+00 0. -1.
         -1   -1    0    0    0  501 -0.00000000000E+00 -0.00000000000E+00 -0.13976532868E+04  0.13976532868E+04  0.00000000000E+00 0.  1.
         23    2    1    2    0    0 -0.19254622060E+03 -0.48297577701E+03 -0.79323125698E+03  0.95304918139E+03  0.93526824261E+02 0.  0.
        254    2    1    2    0    0  0.19254622060E+03  0.48297577701E+03 -0.14625777638E+02  0.10344003576E+04  0.89410879551E+03 0.  0.
        -24    2    4    4    0    0  0.27421005838E+03  0.32561596709E+03  0.39152002327E+03  0.58375568583E+03  0.79157172608E+02 0.  0.
         24    2    4    4    0    0 -0.81663837781E+02  0.15735980993E+03 -0.40614580091E+03  0.45064467178E+03  0.81823691072E+02 0.  0.
         13    1    3    3    0    0 -0.13481590978E+03 -0.21355670534E+03 -0.39251088641E+03  0.46674039024E+03  0.00000000000E+00 0. -1.
        -13    1    3    3    0    0 -0.57730310818E+02 -0.26941907168E+03 -0.40072037056E+03  0.48630879115E+03  0.00000000000E+00 0.  1.
          4    1    6    6  502    0 -0.39193183619E+02  0.17320999148E+02 -0.51512078874E+02  0.67004603749E+02  0.00000000000E+00 0. -1.
          1    1    5    5  503    0  0.13621053853E+03  0.21231347843E+03  0.25779444619E+03  0.36067755741E+03  0.00000000000E+00 0. -1.
         -2    1    5    5    0  503  0.13799951985E+03  0.11330248865E+03  0.13372557709E+03  0.22307812843E+03  0.00000000000E+00 0.  1.
         -3    1    6    6    0  502 -0.42470654162E+02  0.14003881078E+03 -0.35463372204E+03  0.38364006803E+03  0.00000000000E+00 0.  1.
<mgrwt>
<rscale>  0 0.18158532E+04</rscale>
<asrwt>0</asrwt>
<pdfrwt beam="1">  1        1 0.90737885E-01 0.18158532E+04</pdfrwt>
<pdfrwt beam="2">  1       -1 0.21502358E+00 0.18158532E+04</pdfrwt>
<totfact> 0.39319427E+00</totfact>
</mgrwt>
</event>
<event>
12    1  0.1467288E-007  0.1117003E+04  0.7818608E-02  0.9188776E-01
         -2   -1    0    0    0  501 -0.00000000000E+00  0.00000000000E+00  0.14583865210E+03  0.14583865210E+03  0.00000000000E+00 0. -1.
          2   -1    0    0  501    0  0.00000000000E+00 -0.00000000000E+00 -0.21388308034E+04  0.21388308034E+04  0.00000000000E+00 0.  1.
         23    2    1    2    0    0 -0.10425815845E+03  0.11782364808E+03 -0.52840757304E+03  0.56079538282E+03  0.10259007014E+03 0.  0.
        254    2    1    2    0    0  0.10425815845E+03 -0.11782364808E+03 -0.14645845783E+04  0.17238740727E+04  0.89553428521E+03 0.  0.
        -24    2    4    4    0    0  0.28392171917E+03 -0.19392984902E+03 -0.13542691273E+03  0.37807456468E+03  0.79872390773E+02 0.  0.
         24    2    4    4    0    0 -0.17966356072E+03  0.76106200943E+02 -0.13291576655E+04  0.13457995080E+04  0.80281175084E+02 0.  0.
         13    1    3    3    0    0 -0.30770091775E+02  0.86893655440E+02 -0.16754289268E+03  0.19122742165E+03  0.00000000000E+00 0. -1.
        -13    1    3    3    0    0 -0.73488066671E+02  0.30929992642E+02 -0.36086468037E+03  0.36956796117E+03  0.00000000000E+00 0.  1.
          2    1    6    6  502    0 -0.14244422028E+03  0.60111684951E+02 -0.12123024818E+04  0.12221215479E+04  0.00000000000E+00 0. -1.
          1    1    5    5  503    0  0.28537503667E+03 -0.19383141976E+03 -0.12404763909E+03  0.36660243808E+03  0.00000000000E+00 0. -1.
         -2    1    5    5    0  503 -0.14533175013E+01 -0.98429262853E-01 -0.11379273647E+02  0.11472126604E+02  0.00000000000E+00 0.  1.
         -1    1    6    6    0  502 -0.37219340443E+02  0.15994515992E+02 -0.11685518372E+03  0.12367796007E+03  0.00000000000E+00 0.  1.
<mgrwt>
<rscale>  0 0.11170035E+04</rscale>
<asrwt>0</asrwt>
<pdfrwt beam="1">  1        2 0.32905089E+00 0.11170035E+04</pdfrwt>
<pdfrwt beam="2">  1       -2 0.22436716E-01 0.11170035E+04</pdfrwt>
<totfact> 0.96969073E+01</totfact>
</mgrwt>
</event>
<event>
12    1  0.1467288E-007  0.1373607E+04  0.7818608E-02  0.8973148E-01
         -2   -1    0    0    0  501 -0.00000000000E+00  0.00000000000E+00  0.18959096888E+03  0.18959096888E+03  0.00000000000E+00 0.  1.
          2   -1    0    0  501    0  0.00000000000E+00 -0.00000000000E+00 -0.24879828593E+04  0.24879828593E+04  0.00000000000E+00 0. -1.
         23    2    1    2    0    0 -0.12672276337E+03  0.65098196509E+02  0.34214133290E+02  0.17314054791E+03  0.92252959133E+02 0.  0.
        254    2    1    2    0    0  0.12672276337E+03 -0.65098196509E+02 -0.23326060237E+04  0.25044332803E+04  0.90046585697E+03 0.  0.
        -24    2    4    4    0    0 -0.18736729290E+03  0.14720650698E+03 -0.16320624765E+03  0.30063097897E+03  0.83465250838E+02 0.  0.
         24    2    4    4    0    0  0.31409005627E+03 -0.21230470349E+03 -0.21693997761E+04  0.22038023013E+04  0.81996001645E+02 0.  0.
         11    1    3    3    0    0 -0.92882592232E+02  0.18699218875E+02 -0.16921430204E+02  0.96245371454E+02  0.00000000000E+00 0. -1.
        -11    1    3    3    0    0 -0.33840171136E+02  0.46398977634E+02  0.51135563494E+02  0.76895176453E+02  0.00000000000E+00 0.  1.
          2    1    6    6  502    0  0.16224544337E+03 -0.14666463354E+03 -0.13835329695E+04  0.14007132384E+04  0.00000000000E+00 0. -1.
          1    1    5    5  503    0 -0.23839949683E+02  0.64168764606E+02 -0.35193450929E+02  0.76971114973E+02  0.00000000000E+00 0. -1.
         -2    1    5    5    0  503 -0.16352734322E+03  0.83037742378E+02 -0.12801279672E+03  0.22365986399E+03  0.00000000000E+00 0.  1.
         -1    1    6    6    0  502  0.15184461290E+03 -0.65640069954E+02 -0.78586680661E+03  0.80308906292E+03  0.00000000000E+00 0.  1.
<mgrwt>
<rscale>  0 0.13736070E+04</rscale>
<asrwt>0</asrwt>
<pdfrwt beam="1">  1        2 0.38276661E+00 0.13736070E+04</pdfrwt>
<pdfrwt beam="2">  1       -2 0.29167840E-01 0.13736070E+04</pdfrwt>
<totfact> 0.37420224E+01</totfact>
</mgrwt>
</event>
<event>
12    1  0.1467288E-007  0.2982095E+04  0.7818608E-02  0.8248862E-01
         -2   -1    0    0    0  501 -0.00000000000E+00  0.00000000000E+00  0.23395799357E+04  0.23395799357E+04  0.00000000000E+00 0.  1.
          2   -1    0    0  501    0  0.00000000000E+00 -0.00000000000E+00 -0.95026554477E+03  0.95026554477E+03  0.00000000000E+00 0. -1.
         23    2    1    2    0    0 -0.58074580088E+03  0.98706380654E+03  0.14286492359E+04  0.18330921747E+04  0.87336351011E+02 0.  0.
        254    2    1    2    0    0  0.58074580088E+03 -0.98706380654E+03 -0.39334844922E+02  0.14567533058E+04  0.89945668078E+03 0.  0.
        -24    2    4    4    0    0  0.10351237799E+03 -0.88986855216E+03 -0.22913731517E+03  0.92810037769E+03  0.79281456582E+02 0.  0.
         24    2    4    4    0    0  0.47723342288E+03 -0.97195254388E+02  0.18980247025E+03  0.52865292814E+03  0.79058733376E+02 0.  0.
         13    1    3    3    0    0 -0.57647123807E+03  0.98725146268E+03  0.14169837442E+04  0.18206667653E+04  0.00000000000E+00 0.  1.
        -13    1    3    3    0    0 -0.42745628089E+01 -0.18765613304E+00  0.11665491711E+02  0.12425409405E+02  0.00000000000E+00 0. -1.
          2    1    6    6  502    0  0.12351253270E+03 -0.60762126770E+02  0.59104811061E+02  0.14980240477E+03  0.00000000000E+00 0. -1.
          1    1    5    5  503    0  0.89029628647E+02 -0.69665117196E+03 -0.14638990220E+03  0.71741141170E+03  0.00000000000E+00 0. -1.
         -2    1    5    5    0  503  0.14482749347E+02 -0.19321738019E+03 -0.82747412970E+02  0.21068896599E+03  0.00000000000E+00 0.  1.
         -3    1    6    6    0  502  0.35372089018E+03 -0.36433127617E+02  0.13069765919E+03  0.37885052337E+03  0.00000000000E+00 0.  1.
<mgrwt>
<rscale>  0 0.29820947E+04</rscale>
<asrwt>0</asrwt>
<pdfrwt beam="1">  1        2 0.14619470E+00 0.29820947E+04</pdfrwt>
<pdfrwt beam="2">  1       -2 0.35993537E+00 0.29820947E+04</pdfrwt>
<totfact> 0.31306487E-01</totfact>
</mgrwt>
</event>
<event>
12    1  0.1467288E-007  0.1861283E+04  0.7818608E-02  0.8674372E-01
         -1   -1    0    0    0  501 -0.00000000000E+00  0.00000000000E+00  0.29263850486E+04  0.29263850486E+04  0.00000000000E+00 0.  1.
          1   -1    0    0  501    0  0.00000000000E+00 -0.00000000000E+00 -0.29596020319E+03  0.29596020319E+03  0.00000000000E+00 0. -1.
         23    2    1    2    0    0 -0.18953135626E+03  0.66941898561E+03  0.12658793358E+04  0.14473104700E+04  0.90626653830E+02 0.  0.
        254    2    1    2    0    0  0.18953135626E+03 -0.66941898561E+03  0.13645455095E+04  0.17750347818E+04  0.89706193517E+03 0.  0.
        -24    2    4    4    0    0 -0.31848166219E+03 -0.32256037014E+03  0.86077456897E+03  0.97595672280E+03  0.77992978324E+02 0.  0.
         24    2    4    4    0    0  0.50801301845E+03 -0.34685861547E+03  0.50377094057E+03  0.79907805895E+03  0.79702306701E+02 0.  0.
         13    1    3    3    0    0 -0.61306620788E+02  0.30984831419E+03  0.65071111599E+03  0.72331835040E+03  0.00000000000E+00 0.  1.
        -13    1    3    3    0    0 -0.12822473547E+03  0.35957067142E+03  0.61516821983E+03  0.72399211959E+03  0.00000000000E+00 0. -1.
          4    1    6    6  502    0  0.35533594967E+02 -0.53184740415E+02  0.51433759176E+02  0.82077308480E+02  0.00000000000E+00 0. -1.
          1    1    5    5  503    0 -0.75909934127E+02 -0.92376369684E+02  0.30136564860E+03  0.32421746704E+03  0.00000000000E+00 0. -1.
         -2    1    5    5    0  503 -0.24257172806E+03 -0.23018400046E+03  0.55940892037E+03  0.65173925576E+03  0.00000000000E+00 0.  1.
         -3    1    6    6    0  502  0.47247942348E+03 -0.29367387505E+03  0.45233718140E+03  0.71700075047E+03  0.00000000000E+00 0.  1.
<mgrwt>
<rscale>  0 0.18612829E+04</rscale>
<asrwt>0</asrwt>
<pdfrwt beam="1">  1        1 0.45532341E-01 0.18612829E+04</pdfrwt>
<pdfrwt beam="2">  1       -1 0.45021306E+00 0.18612829E+04</pdfrwt>
<totfact> 0.27056108E-01</totfact>
</mgrwt>
</event>
<event>
12    1  0.1467288E-007  0.1258627E+04  0.7818608E-02  0.9063033E-01
          2   -1    0    0  501    0  0.00000000000E+00  0.00000000000E+00  0.77953661593E+03  0.77953661593E+03  0.00000000000E+00 0.  1.
         -2   -1    0    0    0  501 -0.00000000000E+00 -0.00000000000E+00 -0.50803958145E+03  0.50803958145E+03  0.00000000000E+00 0. -1.
         23    2    1    2    0    0 -0.12742375934E+02  0.14748362903E+03  0.27454360898E+03  0.32483659117E+03  0.90723915001E+02 0.  0.
        254    2    1    2    0    0  0.12742375934E+02 -0.14748362903E+03 -0.30465744964E+01  0.96273960621E+03  0.95128569777E+03 0.  0.
        -24    2    4    4    0    0  0.35458885658E+02 -0.39203932840E+03 -0.34846904175E+03  0.53189434420E+03  0.80800697659E+02 0.  0.
         24    2    4    4    0    0 -0.22716509724E+02  0.24455569937E+03  0.34542246726E+03  0.43084526202E+03  0.77378478993E+02 0.  0.
         13    1    3    3    0    0  0.23522416999E+02  0.27520821323E+01  0.48751435462E+02  0.54199451262E+02  0.00000000000E+00 0. -1.
        -13    1    3    3    0    0 -0.36264792933E+02  0.14473154690E+03  0.22579217352E+03  0.27063713991E+03  0.00000000000E+00 0.  1.
          2    1    6    6  502    0  0.26043092623E+02  0.44512231406E+02  0.66262401598E+02  0.83965988850E+02  0.00000000000E+00 0. -1.
          1    1    5    5  503    0 -0.65833745369E+01 -0.19673926362E+01  0.40521568584E+00  0.68829974451E+01  0.00000000000E+00 0. -1.
         -2    1    5    5    0  503  0.42042260195E+02 -0.39007193577E+03 -0.34887425744E+03  0.52501134675E+03  0.00000000000E+00 0.  1.
         -1    1    6    6    0  502 -0.48759602348E+02  0.20004346796E+03  0.27916006566E+03  0.34687927317E+03  0.00000000000E+00 0.  1.
<mgrwt>
<rscale>  0 0.12586270E+04</rscale>
<asrwt>0</asrwt>
<pdfrwt beam="1">  1        2 0.11992871E+00 0.12586270E+04</pdfrwt>
<pdfrwt beam="2">  1       -2 0.78159935E-01 0.12586270E+04</pdfrwt>
<totfact> 0.51059678E+01</totfact>
</mgrwt>
</event>
<event>
12    1  0.1467288E-007  0.2019142E+04  0.7818608E-02  0.8597723E-01
         -2   -1    0    0    0  501 -0.00000000000E+00  0.00000000000E+00  0.74854753500E+03  0.74854753500E+03  0.00000000000E+00 0.  1.
          2   -1    0    0  501    0  0.00000000000E+00 -0.00000000000E+00 -0.13616149538E+04  0.13616149538E+04  0.00000000000E+00 0. -1.
         23    2    1    2    0    0 -0.61832913389E+02  0.14758880280E+03  0.57354509858E+03  0.60214150730E+03  0.89524582227E+02 0.  0.
        254    2    1    2    0    0  0.61832913389E+02 -0.14758880280E+03 -0.11866125174E+04  0.15080209815E+04  0.91677273647E+03 0.  0.
        -24    2    4    4    0    0  0.15183039870E+03  0.88693937425E+02 -0.12248098509E+04  0.12399735766E+04  0.80350577157E+02 0.  0.
         24    2    4    4    0    0 -0.89997485310E+02 -0.23628274022E+03  0.38197333497E+02  0.26804740493E+03  0.80382176607E+02 0.  0.
         13    1    3    3    0    0 -0.53613536334E+02  0.11440515286E+03  0.53873373163E+03  0.55335068797E+03  0.00000000000E+00 0.  1.
        -13    1    3    3    0    0 -0.82193770552E+01  0.33183649940E+02  0.34811366951E+02  0.48790819337E+02  0.00000000000E+00 0. -1.
          2    1    6    6  502    0 -0.90469677814E+02 -0.24116177514E+03  0.43054794791E+02  0.26114647183E+03  0.00000000000E+00 0. -1.
          1    1    5    5  503    0  0.68769747109E+02  0.82392304213E+02 -0.79001394370E+03  0.79727021840E+03  0.00000000000E+00 0. -1.
         -2    1    5    5    0  503  0.83060651590E+02  0.63016332118E+01 -0.43479590721E+03  0.44270335818E+03  0.00000000000E+00 0.  1.
         -1    1    6    6    0  502  0.47219250340E+00  0.48790349199E+01 -0.48574612938E+01  0.69009331058E+01  0.00000000000E+00 0.  1.
<mgrwt>
<rscale>  0 0.20191419E+04</rscale>
<asrwt>0</asrwt>
<pdfrwt beam="1">  1        2 0.20947922E+00 0.20191419E+04</pdfrwt>
<pdfrwt beam="2">  1       -2 0.11516116E+00 0.20191419E+04</pdfrwt>
<totfact> 0.83006290E+00</totfact>
</mgrwt>
</event>
<event>
12    1  0.1467288E-007  0.3279415E+04  0.7818608E-02  0.8168153E-01
         -2   -1    0    0    0  501 -0.00000000000E+00  0.00000000000E+00  0.90053801672E+03  0.90053801672E+03  0.00000000000E+00 0. -1.
          2   -1    0    0  501    0  0.00000000000E+00 -0.00000000000E+00 -0.29855934469E+04  0.29855934469E+04  0.00000000000E+00 0.  1.
         23    2    1    2    0    0  0.98214147953E+03  0.31954862628E+02 -0.23273837340E+04  0.25279302768E+04  0.89963548473E+02 0.  0.
        254    2    1    2    0    0 -0.98214147953E+03 -0.31954862628E+02  0.24232830385E+03  0.13582011868E+04  0.90573972967E+03 0.  0.
        -24    2    4    4    0    0 -0.11295216229E+04  0.79940476039E+02  0.21510801929E+03  0.11550569168E+04  0.75335547634E+02 0.  0.
         24    2    4    4    0    0  0.14738014338E+03 -0.11189533867E+03  0.27220284560E+02  0.20314427000E+03  0.79279108631E+02 0.  0.
         11    1    3    3    0    0  0.39377558114E+02  0.19349019026E+02 -0.98451339822E+02  0.10778517028E+03  0.00000000000E+00 0. -1.
        -11    1    3    3    0    0  0.94276392142E+03  0.12605843602E+02 -0.22289323942E+04  0.24201451065E+04  0.00000000000E+00 0.  1.
          2    1    6    6  502    0  0.15169722527E+03 -0.11874282708E+03  0.29111026572E+02  0.19483161706E+03  0.00000000000E+00 0. -1.
          3    1    5    5  503    0 -0.54465377753E+03  0.26532717878E+02  0.67262717693E+02  0.54943243050E+03  0.00000000000E+00 0. -1.
         -4    1    5    5    0  503 -0.58486784538E+03  0.53407758160E+02  0.14784530159E+03  0.60562448629E+03  0.00000000000E+00 0.  1.
         -1    1    6    6    0  502 -0.43170818920E+01  0.68474884113E+01 -0.18907420121E+01  0.83126529437E+01  0.00000000000E+00 0.  1.
<mgrwt>
<rscale>  0 0.32794148E+04</rscale>
<asrwt>0</asrwt>
<pdfrwt beam="1">  1        2 0.45932207E+00 0.32794148E+04</pdfrwt>
<pdfrwt beam="2">  1       -2 0.13854431E+00 0.32794148E+04</pdfrwt>
<totfact> 0.54847302E-01</totfact>
</mgrwt>
</event>
<event>
12    1  0.1467288E-007  0.1632872E+04  0.7818608E-02  0.8800604E-01
          1   -1    0    0  501    0  0.00000000000E+00  0.00000000000E+00  0.57742424224E+03  0.57742424224E+03  0.00000000000E+00 0. -1.
         -1   -1    0    0    0  501 -0.00000000000E+00 -0.00000000000E+00 -0.11543811848E+04  0.11543811848E+04  0.00000000000E+00 0.  1.
         23    2    1    2    0    0  0.40628709262E+03 -0.18884070308E+03 -0.55314284151E+03  0.71818691015E+03  0.95369922021E+02 0.  0.
        254    2    1    2    0    0 -0.40628709262E+03  0.18884070308E+03 -0.23814101095E+02  0.10136185169E+04  0.90891439294E+03 0.  0.
        -24    2    4    4    0    0 -0.46342478171E+02  0.14489996462E+03 -0.42998003808E+03  0.46331598783E+03  0.81457021839E+02 0.  0.
         24    2    4    4    0    0 -0.35994461445E+03  0.43940738460E+02  0.40616593698E+03  0.55030252910E+03  0.79819741943E+02 0.  0.
         11    1    3    3    0    0  0.34461867910E+03 -0.19009845593E+03 -0.50311710116E+03  0.63876934367E+03  0.00000000000E+00 0.  1.
        -11    1    3    3    0    0  0.61668413522E+02  0.12577528441E+01 -0.50025740352E+02  0.79417566484E+02  0.00000000000E+00 0. -1.
          2    1    6    6  502    0 -0.22522479860E+03  0.43137812230E+02  0.30615921289E+03  0.38251868502E+03  0.00000000000E+00 0. -1.
          1    1    5    5  503    0 -0.38031341763E+02  0.17074136345E+02 -0.73216079666E+02  0.84252616635E+02  0.00000000000E+00 0. -1.
         -2    1    5    5    0  503 -0.83111364078E+01  0.12782582828E+03 -0.35676395841E+03  0.37906337120E+03  0.00000000000E+00 0.  1.
         -1    1    6    6    0  502 -0.13471981585E+03  0.80292623046E+00  0.10000672409E+03  0.16778384408E+03  0.00000000000E+00 0.  1.
<mgrwt>
<rscale>  0 0.16328719E+04</rscale>
<asrwt>0</asrwt>
<pdfrwt beam="1">  1        1 0.88834501E-01 0.16328719E+04</pdfrwt>
<pdfrwt beam="2">  1       -1 0.17759710E+00 0.16328719E+04</pdfrwt>
<totfact> 0.75005073E+00</totfact>
</mgrwt>
</event>
<event>
12    1  0.1467288E-007  0.1319949E+04  0.7818608E-02  0.9013893E-01
          2   -1    0    0  501    0  0.00000000000E+00  0.00000000000E+00  0.20615287735E+04  0.20615287735E+04  0.00000000000E+00 0. -1.
         -2   -1    0    0    0  501 -0.00000000000E+00 -0.00000000000E+00 -0.21128331707E+03  0.21128331707E+03  0.00000000000E+00 0.  1.
         23    2    1    2    0    0 -0.44374585065E+02  0.13004864387E+03 -0.55300309954E+02  0.17381463012E+03  0.90948599723E+02 0.  0.
        254    2    1    2    0    0  0.44374585065E+02 -0.13004864387E+03  0.19055457664E+04  0.20989974605E+04  0.86936983939E+03 0.  0.
        -24    2    4    4    0    0  0.21951521230E+03  0.27548884555E+03  0.12734911771E+04  0.13237084401E+04  0.79644358684E+02 0.  0.
         24    2    4    4    0    0 -0.17514062724E+03 -0.40553748942E+03  0.63205458934E+03  0.77528902038E+03  0.80281794812E+02 0.  0.
         13    1    3    3    0    0 -0.37518674281E+01  0.58051328740E+02  0.20477542213E+02  0.61671411633E+02  0.00000000000E+00 0.  1.
        -13    1    3    3    0    0 -0.40622717637E+02  0.71997315128E+02 -0.75777852167E+02  0.11214321849E+03  0.00000000000E+00 0. -1.
          2    1    6    6  502    0 -0.10993051759E+03 -0.28310701156E+03  0.49187318971E+03  0.57807744589E+03  0.00000000000E+00 0. -1.
          1    1    5    5  503    0  0.22467020641E+03  0.26689396671E+03  0.12559836931E+04  0.13035352425E+04  0.00000000000E+00 0. -1.
         -2    1    5    5    0  503 -0.51549941073E+01  0.85948788356E+01  0.17507483979E+02  0.20173197608E+02  0.00000000000E+00 0.  1.
         -1    1    6    6    0  502 -0.65210109646E+02 -0.12243047786E+03  0.14018139963E+03  0.19721157449E+03  0.00000000000E+00 0.  1.
<mgrwt>
<rscale>  0 0.13199494E+04</rscale>
<asrwt>0</asrwt>
<pdfrwt beam="1">  1        2 0.31715826E+00 0.13199494E+04</pdfrwt>
<pdfrwt beam="2">  1       -2 0.32505127E-01 0.13199494E+04</pdfrwt>
<totfact> 0.53356743E+01</totfact>
</mgrwt>
</event>
<event>
12    1  0.1467288E-007  0.3090771E+04  0.7818608E-02  0.8218275E-01
         -2   -1    0    0    0  501 -0.00000000000E+00  0.00000000000E+00  0.83977389918E+03  0.83977389918E+03  0.00000000000E+00 0. -1.
          2   -1    0    0  501    0  0.00000000000E+00 -0.00000000000E+00 -0.28438802006E+04  0.28438802006E+04  0.00000000000E+00 0.  1.
         23    2    1    2    0    0 -0.10151113607E+04  0.69808965115E+03 -0.99884132086E+02  0.12392877241E+04  0.89872061913E+02 0.  0.
        254    2    1    2    0    0  0.10151113607E+04 -0.69808965115E+03 -0.19042221693E+04  0.24443663757E+04  0.91163845515E+03 0.  0.
        -24    2    4    4    0    0  0.99630357630E+03 -0.67541119988E+03 -0.19875036406E+04  0.23249492464E+04  0.80107251277E+02 0.  0.
         24    2    4    4    0    0  0.18807784397E+02 -0.22678451265E+02  0.83281471291E+02  0.11941712933E+03  0.80352986328E+02 0.  0.
         11    1    3    3    0    0 -0.42482922664E+03  0.29843493344E+03  0.20891835885E+01  0.51917978196E+03  0.00000000000E+00 0. -1.
        -11    1    3    3    0    0 -0.59028213405E+03  0.39965471771E+03 -0.10197331567E+03  0.72010794210E+03  0.00000000000E+00 0.  1.
          2    1    6    6  502    0 -0.50870688475E+01  0.17849308410E+01 -0.14690509239E+02  0.15648492237E+02  0.00000000000E+00 0. -1.
          3    1    5    5  503    0  0.44181473501E+02 -0.12142127582E+02 -0.82307097713E+02  0.94201338615E+02  0.00000000000E+00 0. -1.
         -4    1    5    5    0  503  0.95212210280E+03 -0.66326907230E+03 -0.19051965429E+04  0.22307479078E+04  0.00000000000E+00 0.  1.
         -1    1    6    6    0  502  0.23894853244E+02 -0.24463382106E+02  0.97971980530E+02  0.10376863710E+03  0.00000000000E+00 0.  1.
<mgrwt>
<rscale>  0 0.30907710E+04</rscale>
<asrwt>0</asrwt>
<pdfrwt beam="1">  1        2 0.43752002E+00 0.30907710E+04</pdfrwt>
<pdfrwt beam="2">  1       -2 0.12919599E+00 0.30907710E+04</pdfrwt>
<totfact> 0.81476608E-01</totfact>
</mgrwt>
</event>
<event>
12    1  0.1467288E-007  0.3073371E+04  0.7818608E-02  0.8223084E-01
         -1   -1    0    0    0  501 -0.00000000000E+00  0.00000000000E+00  0.13762957827E+04  0.13762957827E+04  0.00000000000E+00 0.  1.
          1   -1    0    0  501    0  0.00000000000E+00 -0.00000000000E+00 -0.17157661818E+04  0.17157661818E+04  0.00000000000E+00 0. -1.
         23    2    1    2    0    0  0.88989816049E+03 -0.46780480765E+03  0.83425194112E+03  0.13096633876E+04  0.92096762026E+02 0.  0.
        254    2    1    2    0    0 -0.88989816049E+03  0.46780480765E+03 -0.11737223403E+04  0.17823985769E+04  0.88800927955E+03 0.  0.
        -24    2    4    4    0    0 -0.49079997572E+03  0.19981627309E+03 -0.11787089308E+04  0.12949749518E+04  0.82427077752E+02 0.  0.
         24    2    4    4    0    0 -0.39909818477E+03  0.26798853456E+03  0.49865904823E+01  0.48742362505E+03  0.80372311336E+02 0.  0.
         13    1    3    3    0    0  0.83239928379E+03 -0.43793857250E+03  0.74774918551E+03  0.12015854549E+04  0.00000000000E+00 0.  1.
        -13    1    3    3    0    0  0.57498876699E+02 -0.29866235143E+02  0.86502755610E+02  0.10807793277E+03  0.00000000000E+00 0. -1.
          4    1    6    6  502    0 -0.24858029792E+03  0.15152190418E+03 -0.34178166511E+02  0.29311976908E+03  0.00000000000E+00 0. -1.
          1    1    5    5  503    0 -0.49050951431E+03  0.20454899236E+03 -0.11657705541E+04  0.12811950901E+04  0.00000000000E+00 0. -1.
         -4    1    5    5    0  503 -0.29046141132E+00 -0.47327192734E+01 -0.12938376647E+02  0.13779861749E+02  0.00000000000E+00 0.  1.
         -3    1    6    6    0  502 -0.15051788685E+03  0.11646663038E+03  0.39164756994E+02  0.19430385597E+03  0.00000000000E+00 0.  1.
<mgrwt>
<rscale>  0 0.30733706E+04</rscale>
<asrwt>0</asrwt>
<pdfrwt beam="1">  1        1 0.26396403E+00 0.30733706E+04</pdfrwt>
<pdfrwt beam="2">  1       -1 0.21173781E+00 0.30733706E+04</pdfrwt>
<totfact> 0.49199793E-01</totfact>
</mgrwt>
</event>
<event>
12    1  0.1467288E-007  0.2465516E+04  0.7818608E-02  0.8415375E-01
          2   -1    0    0  501    0  0.00000000000E+00  0.00000000000E+00  0.21847503951E+04  0.21847503951E+04  0.00000000000E+00 0. -1.
         -2   -1    0    0    0  501 -0.00000000000E+00 -0.00000000000E+00 -0.69559084631E+03  0.69559084631E+03  0.00000000000E+00 0.  1.
         23    2    1    2    0    0 -0.47594034945E+03  0.68798039027E+03  0.14172525593E+04  0.16482514903E+04  0.91060007593E+02 0.  0.
        254    2    1    2    0    0  0.47594034945E+03 -0.68798039027E+03  0.71906989513E+02  0.12320897511E+04  0.90168636783E+03 0.  0.
        -24    2    4    4    0    0 -0.27618548862E+02 -0.71099834723E+03  0.88116228735E+02  0.72151852948E+03  0.80889335641E+02 0.  0.
         24    2    4    4    0    0  0.50355889831E+03  0.23017956959E+02 -0.16209239222E+02  0.51057122159E+03  0.79491147093E+02 0.  0.
         11    1    3    3    0    0 -0.37030450614E+03  0.58132822650E+03  0.11163828679E+04  0.13120132019E+04  0.00000000000E+00 0.  1.
        -11    1    3    3    0    0 -0.10563584331E+03  0.10665216377E+03  0.30086969132E+03  0.33623828839E+03  0.00000000000E+00 0. -1.
          4    1    6    6  502    0  0.79094576483E+01  0.12135232945E+02 -0.17599094100E+01  0.14591801809E+02  0.00000000000E+00 0. -1.
          1    1    5    5  503    0  0.11458480823E+02 -0.53464719122E+03  0.51777283906E+02  0.53727069805E+03  0.00000000000E+00 0. -1.
         -2    1    5    5    0  503 -0.39077029685E+02 -0.17635115601E+03  0.36338944830E+02  0.18424783143E+03  0.00000000000E+00 0.  1.
         -3    1    6    6    0  502  0.49564944066E+03  0.10882724014E+02 -0.14449329812E+02  0.49597941978E+03  0.00000000000E+00 0.  1.
<mgrwt>
<rscale>  0 0.24655161E+04</rscale>
<asrwt>0</asrwt>
<pdfrwt beam="1">  1        2 0.33611544E+00 0.24655161E+04</pdfrwt>
<pdfrwt beam="2">  1       -2 0.10701398E+00 0.24655161E+04</pdfrwt>
<totfact> 0.33075911E+00</totfact>
</mgrwt>
</event>
<event>
12    1  0.1467288E-007  0.2039535E+04  0.7818608E-02  0.8588357E-01
         -1   -1    0    0    0  501 -0.00000000000E+00  0.00000000000E+00  0.49576400246E+03  0.49576400246E+03  0.00000000000E+00 0.  1.
          1   -1    0    0  501    0  0.00000000000E+00 -0.00000000000E+00 -0.20976218443E+04  0.20976218443E+04  0.00000000000E+00 0. -1.
         23    2    1    2    0    0 -0.71167500914E+02 -0.63432556876E+02  0.38688588841E+03  0.40885423152E+03  0.91611077515E+02 0.  0.
        254    2    1    2    0    0  0.71167500914E+02  0.63432556876E+02 -0.19887437302E+04  0.21845316152E+04  0.89888166679E+03 0.  0.
        -24    2    4    4    0    0 -0.24211076271E+03  0.25437099735E+03 -0.16180095773E+04  0.16575097009E+04  0.77853649190E+02 0.  0.
         24    2    4    4    0    0  0.31327826362E+03 -0.19093844048E+03 -0.37073415298E+03  0.52702191435E+03  0.75548180039E+02 0.  0.
         11    1    3    3    0    0 -0.33394746147E+02 -0.62045808412E+02  0.34628985343E+03  0.35338584296E+03  0.00000000000E+00 0.  1.
        -11    1    3    3    0    0 -0.37772754767E+02 -0.13867484641E+01  0.40596034976E+02  0.55468388563E+02  0.00000000000E+00 0. -1.
          2    1    6    6  502    0  0.25057548067E+03 -0.18328445171E+03 -0.29329713025E+03  0.42708836130E+03  0.00000000000E+00 0. -1.
          1    1    5    5  503    0 -0.94955644705E+02  0.70333107167E+02 -0.69037729681E+03  0.70041711314E+03  0.00000000000E+00 0. -1.
         -2    1    5    5    0  503 -0.14715511800E+03  0.18403789019E+03 -0.92763228045E+03  0.95709258774E+03  0.00000000000E+00 0.  1.
         -1    1    6    6    0  502  0.62702782957E+02 -0.76539887693E+01 -0.77437022736E+02  0.99933553048E+02  0.00000000000E+00 0.  1.
<mgrwt>
<rscale>  0 0.20395347E+04</rscale>
<asrwt>0</asrwt>
<pdfrwt beam="1">  1        1 0.32271105E+00 0.20395347E+04</pdfrwt>
<pdfrwt beam="2">  1       -1 0.76271386E-01 0.20395347E+04</pdfrwt>
<totfact> 0.40812287E+00</totfact>
</mgrwt>
</event>
<event>
12    1  0.1467288E-007  0.1359317E+04  0.7818608E-02  0.8983805E-01
         -2   -1    0    0    0  501 -0.00000000000E+00  0.00000000000E+00  0.90709027763E+03  0.90709027763E+03  0.00000000000E+00 0. -1.
          2   -1    0    0  501    0  0.00000000000E+00 -0.00000000000E+00 -0.50924987385E+03  0.50924987385E+03  0.00000000000E+00 0.  1.
         23    2    1    2    0    0  0.18943721064E+03  0.28457218311E+03  0.24623721534E+03  0.43127541129E+03  0.92184217677E+02 0.  0.
        254    2    1    2    0    0 -0.18943721064E+03 -0.28457218311E+03  0.15160318845E+03  0.98506474019E+03  0.91131840289E+03 0.  0.
        -24    2    4    4    0    0  0.16645766177E+03 -0.44955016405E+03  0.28405200255E+03  0.56291485631E+03  0.79900514033E+02 0.  0.
         24    2    4    4    0    0 -0.35589487241E+03  0.16497798094E+03 -0.13244881410E+03  0.42214988389E+03  0.82395034459E+02 0.  0.
         11    1    3    3    0    0  0.68735489649E+02  0.12870127259E+03  0.53032286924E+02  0.15524499528E+03  0.00000000000E+00 0.  1.
        -11    1    3    3    0    0  0.12070172099E+03  0.15587091052E+03  0.19320492841E+03  0.27603041600E+03  0.00000000000E+00 0. -1.
          4    1    6    6  502    0 -0.52329281799E+02  0.17822221133E+02  0.96040651038E+01  0.56109031057E+02  0.00000000000E+00 0. -1.
          1    1    5    5  503    0  0.11123936458E+02 -0.38562645038E+02  0.53065288469E+02  0.66533783861E+02  0.00000000000E+00 0. -1.
         -2    1    5    5    0  503  0.15533372531E+03 -0.41098751901E+03  0.23098671408E+03  0.49638107245E+03  0.00000000000E+00 0.  1.
         -3    1    6    6    0  502 -0.30356559061E+03  0.14715575981E+03 -0.14205287920E+03  0.36604085283E+03  0.00000000000E+00 0.  1.
<mgrwt>
<rscale>  0 0.13593169E+04</rscale>
<asrwt>0</asrwt>
<pdfrwt beam="1">  1        2 0.78346134E-01 0.13593169E+04</pdfrwt>
<pdfrwt beam="2">  1       -2 0.13955235E+00 0.13593169E+04</pdfrwt>
<totfact> 0.21293716E+01</totfact>
</mgrwt>
</event>
<event>
12    1  0.1467288E-007  0.3819119E+04  0.7818608E-02  0.8042064E-01
          1   -1    0    0  501    0  0.00000000000E+00  0.00000000000E+00  0.16729759369E+04  0.16729759369E+04  0.00000000000E+00 0. -1.
         -1   -1    0    0    0  501 -0.00000000000E+00 -0.00000000000E+00 -0.21795999656E+04  0.21795999656E+04  0.00000000000E+00 0.  1.
         23    2    1    2    0    0 -0.34739167578E+03 -0.71214995159E+03  0.13910211313E+04  0.16034011278E+04  0.90093612510E+02 0.  0.
        254    2    1    2    0    0  0.34739167578E+03  0.71214995159E+03 -0.18976451600E+04  0.22491747747E+04  0.91098380003E+03 0.  0.
        -24    2    4    4    0    0 -0.28869722713E+01  0.34172052818E+03 -0.16320147298E+04  0.16692194257E+04  0.77718457167E+02 0.  0.
         24    2    4    4    0    0  0.35027864805E+03  0.37042942341E+03 -0.26563043011E+03  0.57995534900E+03  0.76652413065E+02 0.  0.
         11    1    3    3    0    0 -0.22816081641E+03 -0.43244822641E+03  0.93828913751E+03  0.10580431618E+04  0.00000000000E+00 0. -1.
        -11    1    3    3    0    0 -0.11923085937E+03 -0.27970172518E+03  0.45273199378E+03  0.54535796601E+03  0.00000000000E+00 0.  1.
          4    1    6    6  502    0  0.12717540477E+03  0.90216349900E+02 -0.10077693005E+03  0.18565711136E+03  0.00000000000E+00 0. -1.
          1    1    5    5  503    0  0.12129358762E+02  0.26730152894E+02 -0.73960289724E+02  0.79572274529E+02  0.00000000000E+00 0. -1.
         -2    1    5    5    0  503 -0.15016331033E+02  0.31499037529E+03 -0.15580544401E+04  0.15896471511E+04  0.00000000000E+00 0.  1.
         -3    1    6    6    0  502  0.22310324328E+03  0.28021307351E+03 -0.16485350007E+03  0.39429823764E+03  0.00000000000E+00 0.  1.
<mgrwt>
<rscale>  0 0.38191194E+04</rscale>
<asrwt>0</asrwt>
<pdfrwt beam="1">  1        1 0.25738091E+00 0.38191194E+04</pdfrwt>
<pdfrwt beam="2">  1       -1 0.33532307E+00 0.38191194E+04</pdfrwt>
<totfact> 0.76710495E-02</totfact>
</mgrwt>
</event>
<event>
12    1  0.1467288E-007  0.1339052E+04  0.7818608E-02  0.8999157E-01
          2   -1    0    0  501    0  0.00000000000E+00  0.00000000000E+00  0.18194603221E+04  0.18194603221E+04  0.00000000000E+00 0. -1.
         -2   -1    0    0    0  501 -0.00000000000E+00 -0.00000000000E+00 -0.24637271124E+03  0.24637271124E+03  0.00000000000E+00 0.  1.
         23    2    1    2    0    0  0.14332549876E+03  0.25207575588E+03  0.78164051637E+03  0.83900919393E+03  0.94287567470E+02 0.  0.
        254    2    1    2    0    0 -0.14332549876E+03 -0.25207575588E+03  0.79144709454E+03  0.12268238395E+04  0.89141676241E+03 0.  0.
        -24    2    4    4    0    0 -0.28701319720E+03 -0.15101345423E+03 -0.72340466438E+02  0.34173307279E+03  0.79791673894E+02 0.  0.
         24    2    4    4    0    0  0.14368769844E+03 -0.10106230165E+03  0.86378756098E+03  0.88509076666E+03  0.79981068011E+02 0.  0.
         13    1    3    3    0    0  0.57315076528E+02  0.37938415826E+02  0.12013531118E+03  0.13840821646E+03  0.00000000000E+00 0.  1.
        -13    1    3    3    0    0  0.86010422232E+02  0.21413734006E+03  0.66150520519E+03  0.70060097747E+03  0.00000000000E+00 0. -1.
          2    1    6    6  502    0  0.10323479019E+03 -0.36953098883E+02  0.38386844459E+03  0.39922166296E+03  0.00000000000E+00 0. -1.
          1    1    5    5  503    0 -0.22849915814E+03 -0.13221543231E+03 -0.27024701706E+02  0.26537354863E+03  0.00000000000E+00 0. -1.
         -2    1    5    5    0  503 -0.58514039061E+02 -0.18798021927E+02 -0.45315764732E+02  0.76359524153E+02  0.00000000000E+00 0.  1.
         -1    1    6    6    0  502  0.40452908258E+02 -0.64109202767E+02  0.47991911638E+03  0.48586910370E+03  0.00000000000E+00 0.  1.
<mgrwt>
<rscale>  0 0.13390525E+04</rscale>
<asrwt>0</asrwt>
<pdfrwt beam="1">  1        2 0.27991696E+00 0.13390525E+04</pdfrwt>
<pdfrwt beam="2">  1       -2 0.37903495E-01 0.13390525E+04</pdfrwt>
<totfact> 0.54056404E+01</totfact>
</mgrwt>
</event>
<event>
12    1  0.1467288E-007  0.2641209E+04  0.7818608E-02  0.8354337E-01
          2   -1    0    0  501    0  0.00000000000E+00  0.00000000000E+00  0.20807316931E+04  0.20807316931E+04  0.00000000000E+00 0. -1.
         -2   -1    0    0    0  501 -0.00000000000E+00 -0.00000000000E+00 -0.83816507872E+03  0.83816507872E+03  0.00000000000E+00 0.  1.
         23    2    1    2    0    0 -0.10497871715E+04 -0.50187818352E+03  0.48755876145E+03  0.12644778972E+04  0.85182100271E+02 0.  0.
        254    2    1    2    0    0  0.10497871715E+04  0.50187818352E+03  0.75500785296E+03  0.16544188746E+04  0.90173728896E+03 0.  0.
        -24    2    4    4    0    0  0.97019347848E+03  0.71625139172E+03  0.51998872147E+03  0.13156833581E+04  0.79642868423E+02 0.  0.
         24    2    4    4    0    0  0.79593692986E+02 -0.21437320820E+03  0.23501913150E+03  0.33873551656E+03  0.84951336967E+02 0.  0.
         11    1    3    3    0    0 -0.99568596507E+03 -0.49487690215E+03  0.47031076617E+03  0.12072638097E+04  0.00000000000E+00 0.  1.
        -11    1    3    3    0    0 -0.54101206394E+02 -0.70012813678E+01  0.17247995282E+02  0.57214087560E+02  0.00000000000E+00 0. -1.
          4    1    6    6  502    0 -0.76538641111E+01 -0.10059635637E+02 -0.31584983829E+01  0.13028968379E+02  0.00000000000E+00 0. -1.
          1    1    5    5  503    0  0.10554053971E+03  0.68642261245E+02  0.80400863966E+02  0.14938160689E+03  0.00000000000E+00 0. -1.
         -2    1    5    5    0  503  0.86465293877E+03  0.64760913047E+03  0.43958785750E+03  0.11663017512E+04  0.00000000000E+00 0.  1.
         -3    1    6    6    0  502  0.87247557097E+02 -0.20431357256E+03  0.23817762988E+03  0.32570654818E+03  0.00000000000E+00 0.  1.
<mgrwt>
<rscale>  0 0.26412093E+04</rscale>
<asrwt>0</asrwt>
<pdfrwt beam="1">  1        2 0.32011257E+00 0.26412093E+04</pdfrwt>
<pdfrwt beam="2">  1       -2 0.12894847E+00 0.26412093E+04</pdfrwt>
<totfact> 0.23540144E+00</totfact>
</mgrwt>
</event>
<event>
12    1  0.1467288E-007  0.1191805E+04  0.7818608E-02  0.9120060E-01
          1   -1    0    0  501    0  0.00000000000E+00  0.00000000000E+00  0.13085176906E+04  0.13085176906E+04  0.00000000000E+00 0. -1.
         -1   -1    0    0    0  501 -0.00000000000E+00 -0.00000000000E+00 -0.27137547291E+03  0.27137547291E+03  0.00000000000E+00 0.  1.
         23    2    1    2    0    0  0.18113738572E+03 -0.11627304574E+03  0.68403543005E+02  0.24313050984E+03  0.90017922942E+02 0.  0.
        254    2    1    2    0    0 -0.18113738572E+03  0.11627304574E+03  0.96873867465E+03  0.13367626536E+04  0.89562804707E+03 0.  0.
        -24    2    4    4    0    0  0.21818159780E+03  0.35828856005E+03  0.31896531558E+03  0.53273748768E+03  0.78079807627E+02 0.  0.
         24    2    4    4    0    0 -0.39931898352E+03 -0.24201551431E+03  0.64977335907E+03  0.80402516595E+03  0.78891631678E+02 0.  0.
         11    1    3    3    0    0  0.36667424604E+02 -0.55067842910E+02 -0.11348182079E+02  0.67124873083E+02  0.00000000000E+00 0.  1.
        -11    1    3    3    0    0  0.14446996111E+03 -0.61205202830E+02  0.79751725084E+02  0.17600563676E+03  0.00000000000E+00 0. -1.
          4    1    6    6  502    0 -0.16789822695E+03 -0.83519400738E+02  0.32193603130E+03  0.37256960848E+03  0.00000000000E+00 0. -1.
          3    1    5    5  503    0  0.33992820921E+02  0.54189920683E+02  0.87919147989E+02  0.10872826661E+03  0.00000000000E+00 0. -1.
         -4    1    5    5    0  503  0.18418877688E+03  0.30409863937E+03  0.23104616759E+03  0.42400922107E+03  0.00000000000E+00 0.  1.
         -3    1    6    6    0  502 -0.23142075657E+03 -0.15849611357E+03  0.32783732777E+03  0.43145555747E+03  0.00000000000E+00 0.  1.
<mgrwt>
<rscale>  0 0.11918047E+04</rscale>
<asrwt>0</asrwt>
<pdfrwt beam="1">  1        1 0.20131041E+00 0.11918047E+04</pdfrwt>
<pdfrwt beam="2">  1       -1 0.41750074E-01 0.11918047E+04</pdfrwt>
<totfact> 0.49703621E+01</totfact>
</mgrwt>
</event>
<event>
12    1  0.1467288E-007  0.1155784E+04  0.7818608E-02  0.9152464E-01
          3   -1    0    0  501    0  0.00000000000E+00  0.00000000000E+00  0.79015821111E+03  0.79015821111E+03  0.00000000000E+00 0. -1.
         -3   -1    0    0    0  501 -0.00000000000E+00 -0.00000000000E+00 -0.42264863871E+03  0.42264863871E+03  0.00000000000E+00 0.  1.
         23    2    1    2    0    0 -0.18446763250E+03  0.40949629546E+02  0.29030220260E+03  0.35809752005E+03  0.90847594550E+02 0.  0.
        254    2    1    2    0    0  0.18446763250E+03 -0.40949629546E+02  0.77207369797E+02  0.85470932977E+03  0.82997703633E+03 0.  0.
        -24    2    4    4    0    0 -0.28887042493E+03 -0.13946566069E+03  0.14298413371E+03  0.35999777092E+03  0.79102083834E+02 0.  0.
         24    2    4    4    0    0  0.47333805743E+03  0.98516031140E+02 -0.65776763918E+02  0.49471155885E+03  0.81600360184E+02 0.  0.
         11    1    3    3    0    0 -0.29189890226E+02  0.30140315503E+02  0.20695550725E+02  0.46784550119E+02  0.00000000000E+00 0.  1.
        -11    1    3    3    0    0 -0.15527774228E+03  0.10809314043E+02  0.26960665187E+03  0.31131296994E+03  0.00000000000E+00 0. -1.
          4    1    6    6  502    0  0.42048157967E+03  0.11210899900E+03 -0.50852524382E+02  0.43813144801E+03  0.00000000000E+00 0. -1.
          1    1    5    5  503    0 -0.13319312533E+03 -0.78627504293E+02  0.10957051270E+03  0.18954785760E+03  0.00000000000E+00 0. -1.
         -2    1    5    5    0  503 -0.15567729960E+03 -0.60838156393E+02  0.33413621015E+02  0.17044991333E+03  0.00000000000E+00 0.  1.
         -3    1    6    6    0  502  0.52856477757E+02 -0.13592967865E+02 -0.14924239536E+02  0.56580110834E+02  0.00000000000E+00 0.  1.
<mgrwt>
<rscale>  0 0.11557842E+04</rscale>
<asrwt>0</asrwt>
<pdfrwt beam="1">  1        3 0.12156280E+00 0.11557842E+04</pdfrwt>
<pdfrwt beam="2">  1       -3 0.65022868E-01 0.11557842E+04</pdfrwt>
<totfact> 0.32575250E+00</totfact>
</mgrwt>
</event>
<event>
12    1  0.1467288E-007  0.1576324E+04  0.7818608E-02  0.8835227E-01
          2   -1    0    0  501    0  0.00000000000E+00  0.00000000000E+00  0.11654375065E+04  0.11654375065E+04  0.00000000000E+00 0.  1.
         -2   -1    0    0    0  501 -0.00000000000E+00 -0.00000000000E+00 -0.53301786422E+03  0.53301786422E+03  0.00000000000E+00 0. -1.
         23    2    1    2    0    0 -0.34021381986E+03 -0.31662534453E+01  0.64518219418E+03  0.73507480213E+03  0.91210923966E+02 0.  0.
        254    2    1    2    0    0  0.34021381986E+03  0.31662534453E+01 -0.12762551910E+02  0.96338056859E+03  0.90121238830E+03 0.  0.
        -24    2    4    4    0    0  0.31814345883E+03  0.42285521782E+03  0.15687023585E+02  0.53429282601E+03  0.72117581667E+02 0.  0.
         24    2    4    4    0    0  0.22070361031E+02 -0.41968896437E+03 -0.28449575495E+02  0.42908774258E+03  0.81737291570E+02 0.  0.
         11    1    3    3    0    0 -0.29961227361E+03 -0.20519350501E+02  0.60471920529E+03  0.67518432705E+03  0.00000000000E+00 0.  1.
        -11    1    3    3    0    0 -0.40601546253E+02  0.17353097056E+02  0.40462988887E+02  0.59890475079E+02  0.00000000000E+00 0. -1.
          4    1    6    6  502    0 -0.16892689791E+02 -0.24812274883E+03 -0.43645167560E+02  0.25249784575E+03  0.00000000000E+00 0. -1.
          1    1    5    5  503    0  0.15775728747E+03  0.23277970853E+03  0.41536023140E+02  0.28425164146E+03  0.00000000000E+00 0. -1.
         -2    1    5    5    0  503  0.16038617136E+03  0.19007550928E+03 -0.25848999556E+02  0.25004118455E+03  0.00000000000E+00 0.  1.
         -3    1    6    6    0  502  0.38963050822E+02 -0.17156621554E+03  0.15195592065E+02  0.17658989683E+03  0.00000000000E+00 0.  1.
<mgrwt>
<rscale>  0 0.15763236E+04</rscale>
<asrwt>0</asrwt>
<pdfrwt beam="1">  1        2 0.17929808E+00 0.15763236E+04</pdfrwt>
<pdfrwt beam="2">  1       -2 0.82002749E-01 0.15763236E+04</pdfrwt>
<totfact> 0.24956912E+01</totfact>
</mgrwt>
</event>
<event>
12    1  0.1467288E-007  0.5823626E+04  0.7818608E-02  0.7712663E-01
          2   -1    0    0  501    0  0.00000000000E+00  0.00000000000E+00  0.26073844949E+04  0.26073844949E+04  0.00000000000E+00 0.  1.
         -2   -1    0    0    0  501 -0.00000000000E+00 -0.00000000000E+00 -0.32517858724E+04  0.32517858724E+04  0.00000000000E+00 0. -1.
         23    2    1    2    0    0 -0.94730848421E+03 -0.22479588469E+04  0.11495012877E+04  0.26982418174E+04  0.91887721367E+02 0.  0.
        254    2    1    2    0    0  0.94730848421E+03  0.22479588469E+04 -0.17939026651E+04  0.31609285499E+04  0.90701167805E+03 0.  0.
        -24    2    4    4    0    0  0.70343866806E+02  0.10481746008E+04 -0.10856670630E+04  0.15128257182E+04  0.79689577499E+02 0.  0.
         24    2    4    4    0    0  0.87696461741E+03  0.11997842461E+04 -0.70823560218E+03  0.16481028317E+04  0.78077514611E+02 0.  0.
         11    1    3    3    0    0 -0.59331616866E+03 -0.14941632449E+04  0.72633188648E+03  0.17641161775E+04  0.00000000000E+00 0. -1.
        -11    1    3    3    0    0 -0.35399231555E+03 -0.75379560201E+03  0.42316940119E+03  0.93412563993E+03  0.00000000000E+00 0.  1.
          4    1    6    6  502    0  0.25594883719E+03  0.29406008463E+03 -0.17557257844E+03  0.42755920167E+03  0.00000000000E+00 0. -1.
          3    1    5    5  503    0 -0.63378321469E+01  0.33276686769E+02 -0.52955669674E+02  0.62863415031E+02  0.00000000000E+00 0. -1.
         -4    1    5    5    0  503  0.76681698953E+02  0.10148979140E+04 -0.10327113933E+04  0.14499623032E+04  0.00000000000E+00 0.  1.
         -3    1    6    6    0  502  0.62101578022E+03  0.90572416149E+03 -0.53266302374E+03  0.12205436300E+04  0.00000000000E+00 0.  1.
<mgrwt>
<rscale>  0 0.58236264E+04</rscale>
<asrwt>0</asrwt>
<pdfrwt beam="1">  1        2 0.40113608E+00 0.58236264E+04</pdfrwt>
<pdfrwt beam="2">  1       -2 0.50027474E+00 0.58236264E+04</pdfrwt>
<totfact> 0.34145532E-03</totfact>
</mgrwt>
</event>
<event>
12    1  0.1467288E-007  0.2961472E+04  0.7818608E-02  0.8254819E-01
         -2   -1    0    0    0  501 -0.00000000000E+00  0.00000000000E+00  0.20347602364E+04  0.20347602364E+04  0.00000000000E+00 0.  1.
          2   -1    0    0  501    0  0.00000000000E+00 -0.00000000000E+00 -0.10775614686E+04  0.10775614686E+04  0.00000000000E+00 0. -1.
         23    2    1    2    0    0 -0.11309494791E+04 -0.73917735715E+02  0.11905819441E+04  0.16463824534E+04  0.92624302886E+02 0.  0.
        254    2    1    2    0    0  0.11309494791E+04  0.73917735715E+02 -0.23338317633E+03  0.14659392516E+04  0.89999979240E+03 0.  0.
        -24    2    4    4    0    0  0.72504755234E+03 -0.24823534078E+03  0.18838262922E+03  0.79290212360E+03  0.76753013405E+02 0.  0.
         24    2    4    4    0    0  0.40590192676E+03  0.32215307649E+03 -0.42176580555E+03  0.67303712795E+03  0.80954320571E+02 0.  0.
         11    1    3    3    0    0 -0.10023965477E+04 -0.36277405850E+02  0.10584824374E+04  0.14582523648E+04  0.00000000000E+00 0.  1.
        -11    1    3    3    0    0 -0.12855293140E+03 -0.37640329865E+02  0.13209950667E+03  0.18813008868E+03  0.00000000000E+00 0. -1.
          2    1    6    6  502    0  0.40344175931E+03  0.30419285044E+03 -0.39828897406E+03  0.64337597894E+03  0.00000000000E+00 0. -1.
          3    1    5    5  503    0  0.69897663472E+03 -0.25336349106E+03  0.17900052943E+03  0.76472386129E+03  0.00000000000E+00 0. -1.
         -4    1    5    5    0  503  0.26070917615E+02  0.51281502873E+01  0.93820997858E+01  0.28178262314E+02  0.00000000000E+00 0.  1.
         -1    1    6    6    0  502  0.24601674502E+01  0.17960226049E+02 -0.23476831487E+02  0.29661149005E+02  0.00000000000E+00 0.  1.
<mgrwt>
<rscale>  0 0.29614721E+04</rscale>
<asrwt>0</asrwt>
<pdfrwt beam="1">  1        2 0.16577869E+00 0.29614721E+04</pdfrwt>
<pdfrwt beam="2">  1       -2 0.31304004E+00 0.29614721E+04</pdfrwt>
<totfact> 0.51056080E-01</totfact>
</mgrwt>
</event>
<event>
12    1  0.1467288E-007  0.1569853E+04  0.7818608E-02  0.8839286E-01
          2   -1    0    0  501    0  0.00000000000E+00  0.00000000000E+00  0.16618262444E+04  0.16618262444E+04  0.00000000000E+00 0. -1.
         -2   -1    0    0    0  501 -0.00000000000E+00 -0.00000000000E+00 -0.37074242394E+03  0.37074242394E+03  0.00000000000E+00 0.  1.
         23    2    1    2    0    0  0.24847798930E+03 -0.30860436947E+03  0.89315829213E+03  0.98124110080E+03  0.90135426240E+02 0.  0.
        254    2    1    2    0    0 -0.24847798930E+03  0.30860436947E+03  0.39792552836E+03  0.10513275676E+04  0.88880085520E+03 0.  0.
        -24    2    4    4    0    0 -0.47882518385E+03  0.87877772076E+02  0.50565615554E+03  0.70658874792E+03  0.81138471380E+02 0.  0.
         24    2    4    4    0    0  0.23034719455E+03  0.22072659740E+03 -0.10773062718E+03  0.34473881966E+03  0.73884402344E+02 0.  0.
         13    1    3    3    0    0  0.24677988219E+02 -0.19259287817E+02  0.28274707573E+02  0.42182725826E+02  0.00000000000E+00 0.  1.
        -13    1    3    3    0    0  0.22380000108E+03 -0.28934508165E+03  0.86488358456E+03  0.93905837497E+03  0.00000000000E+00 0. -1.
          4    1    6    6  502    0  0.12670739000E+03  0.16667792670E+03 -0.83257020296E+02  0.22531760996E+03  0.00000000000E+00 0. -1.
          3    1    5    5  503    0 -0.20238657974E+03  0.58563950400E+02  0.16969684040E+03  0.27053111020E+03  0.00000000000E+00 0. -1.
         -4    1    5    5    0  503 -0.27643860411E+03  0.29313821675E+02  0.33595931514E+03  0.43605763772E+03  0.00000000000E+00 0.  1.
         -3    1    6    6    0  502  0.10363980455E+03  0.54048670697E+02 -0.24473606884E+02  0.11942120970E+03  0.00000000000E+00 0.  1.
<mgrwt>
<rscale>  0 0.15698528E+04</rscale>
<asrwt>0</asrwt>
<pdfrwt beam="1">  1        2 0.25566557E+00 0.15698528E+04</pdfrwt>
<pdfrwt beam="2">  1       -2 0.57037297E-01 0.15698528E+04</pdfrwt>
<totfact> 0.28519624E+01</totfact>
</mgrwt>
</event>
<event>
12    1  0.1467288E-007  0.1588669E+04  0.7818608E-02  0.8827539E-01
         -1   -1    0    0    0  501 -0.00000000000E+00  0.00000000000E+00  0.11023304740E+04  0.11023304740E+04  0.00000000000E+00 0.  1.
          1   -1    0    0  501    0  0.00000000000E+00 -0.00000000000E+00 -0.57239394417E+03  0.57239394417E+03  0.00000000000E+00 0. -1.
         23    2    1    2    0    0 -0.45736602439E+03 -0.13114056304E+03 -0.72809035439E+02  0.49023942754E+03  0.93016198237E+02 0.  0.
        254    2    1    2    0    0  0.45736602439E+03  0.13114056304E+03  0.60274556526E+03  0.11844849906E+04  0.90184308447E+03 0.  0.
        -24    2    4    4    0    0  0.30033683631E+03  0.28075411067E+03 -0.11176482834E+03  0.43344672584E+03  0.79747108923E+02 0.  0.
         24    2    4    4    0    0  0.15702918808E+03 -0.14961354762E+03  0.71451039360E+03  0.75103826478E+03  0.80566699435E+02 0.  0.
         13    1    3    3    0    0 -0.25855189453E+03 -0.27072365184E+02 -0.28742814931E+02  0.26154950685E+03  0.00000000000E+00 0.  1.
        -13    1    3    3    0    0 -0.19881412985E+03 -0.10406819786E+03 -0.44066220508E+02  0.22868992069E+03  0.00000000000E+00 0. -1.
          4    1    6    6  502    0  0.28029061291E+02 -0.47158749927E+02  0.92142482205E+02  0.10723718104E+03  0.00000000000E+00 0. -1.
          1    1    5    5  503    0  0.31433943423E+02  0.26561388956E+02 -0.38249696984E+02  0.56183979049E+02  0.00000000000E+00 0. -1.
         -2    1    5    5    0  503  0.26890289289E+03  0.25419272171E+03 -0.73515131358E+02  0.37726274679E+03  0.00000000000E+00 0.  1.
         -3    1    6    6    0  502  0.12900012678E+03 -0.10245479769E+03  0.62236791140E+03  0.64380108374E+03  0.00000000000E+00 0.  1.
<mgrwt>
<rscale>  0 0.15886690E+04</rscale>
<asrwt>0</asrwt>
<pdfrwt beam="1">  1        1 0.88060607E-01 0.15886690E+04</pdfrwt>
<pdfrwt beam="2">  1       -1 0.16958930E+00 0.15886690E+04</pdfrwt>
<totfact> 0.87211703E+00</totfact>
</mgrwt>
</event>
<event>
12    1  0.1467288E-007  0.1073000E+04  0.7818608E-02  0.9231915E-01
         -1   -1    0    0    0  501 -0.00000000000E+00  0.00000000000E+00  0.47709502510E+03  0.47709502510E+03  0.00000000000E+00 0.  1.
          1   -1    0    0  501    0  0.00000000000E+00 -0.00000000000E+00 -0.60330143936E+03  0.60330143936E+03  0.00000000000E+00 0. -1.
         23    2    1    2    0    0  0.46781333693E+02  0.12186629923E+03  0.26679883609E+00  0.15943277882E+03  0.91536067814E+02 0.  0.
        254    2    1    2    0    0 -0.46781333693E+02 -0.12186629923E+03 -0.12647321309E+03  0.92096368563E+03  0.90285034671E+03 0.  0.
        -24    2    4    4    0    0 -0.66094673416E+02 -0.50741196718E+03 -0.69259323978E+02  0.52245245914E+03  0.79525516715E+02 0.  0.
         24    2    4    4    0    0  0.19313339723E+02  0.38554566795E+03 -0.57213889115E+02  0.39851122649E+03  0.80742190741E+02 0.  0.
         13    1    3    3    0    0  0.17244890479E+02 -0.11983965099E+02 -0.70913067211E+01  0.22165024208E+02  0.00000000000E+00 0. -1.
        -13    1    3    3    0    0  0.29536443214E+02  0.13385026433E+03  0.73581055572E+01  0.13726775462E+03  0.00000000000E+00 0.  1.
          2    1    6    6  502    0  0.11973901552E+02  0.32880008751E+03 -0.77108784945E+02  0.33793288769E+03  0.00000000000E+00 0. -1.
          3    1    5    5  503    0 -0.16886280807E+02 -0.33015069229E+03 -0.16156692771E+02  0.33097683427E+03  0.00000000000E+00 0. -1.
         -4    1    5    5    0  503 -0.49208392609E+02 -0.17726127489E+03 -0.53102631207E+02  0.19147562488E+03  0.00000000000E+00 0.  1.
         -1    1    6    6    0  502  0.73394381706E+01  0.56745580436E+02  0.19894895830E+02  0.60578338800E+02  0.00000000000E+00 0.  1.
<mgrwt>
<rscale>  0 0.10729997E+04</rscale>
<asrwt>0</asrwt>
<pdfrwt beam="1">  1        1 0.92815606E-01 0.10729997E+04</pdfrwt>
<pdfrwt beam="2">  1       -1 0.73399234E-01 0.10729997E+04</pdfrwt>
<totfact> 0.63464770E+01</totfact>
</mgrwt>
</event>
<event>
12    1  0.1467288E-007  0.1668094E+04  0.7818608E-02  0.8779774E-01
         -1   -1    0    0    0  501 -0.00000000000E+00  0.00000000000E+00  0.83156634461E+03  0.83156634461E+03  0.00000000000E+00 0.  1.
          1   -1    0    0  501    0  0.00000000000E+00 -0.00000000000E+00 -0.83653494532E+03  0.83653494532E+03  0.00000000000E+00 0. -1.
         23    2    1    2    0    0 -0.34914293484E+03  0.36336100140E+02  0.46129502909E+03  0.58680038607E+03  0.91216709613E+02 0.  0.
        254    2    1    2    0    0  0.34914293484E+03 -0.36336100140E+02 -0.46626362981E+03  0.10813009039E+04  0.91026851592E+03 0.  0.
        -24    2    4    4    0    0  0.56626780793E+02  0.18521033923E+03 -0.63670451220E+03  0.67028368517E+03  0.79863137212E+02 0.  0.
         24    2    4    4    0    0  0.29251615405E+03 -0.22154643937E+03  0.17044088239E+03  0.41101721869E+03  0.72363903254E+02 0.  0.
         13    1    3    3    0    0 -0.90424398541E+02  0.32069607045E+02  0.74661818096E+02  0.12157063226E+03  0.00000000000E+00 0. -1.
        -13    1    3    3    0    0 -0.25871853630E+03  0.42664930953E+01  0.38663321099E+03  0.46522975381E+03  0.00000000000E+00 0.  1.
          2    1    6    6  502    0  0.25274621271E+02 -0.15576802268E+02  0.38768213432E+02  0.48830498891E+02  0.00000000000E+00 0. -1.
          1    1    5    5  503    0  0.39528128204E+02  0.28333546701E+02 -0.20353134616E+03  0.20926125216E+03  0.00000000000E+00 0. -1.
         -2    1    5    5    0  503  0.17098652590E+02  0.15687679253E+03 -0.43317316604E+03  0.46102243300E+03  0.00000000000E+00 0.  1.
         -1    1    6    6    0  502  0.26724153277E+03 -0.20596963710E+03  0.13167266896E+03  0.36218671980E+03  0.00000000000E+00 0.  1.
<mgrwt>
<rscale>  0 0.16680939E+04</rscale>
<asrwt>0</asrwt>
<pdfrwt beam="1">  1        1 0.12869768E+00 0.16680939E+04</pdfrwt>
<pdfrwt beam="2">  1       -1 0.12793328E+00 0.16680939E+04</pdfrwt>
<totfact> 0.10362176E+01</totfact>
</mgrwt>
</event>
<event>
12    1  0.1467288E-007  0.1932030E+04  0.7818608E-02  0.8639075E-01
         -1   -1    0    0    0  501 -0.00000000000E+00  0.00000000000E+00  0.11093665930E+04  0.11093665930E+04  0.00000000000E+00 0.  1.
          1   -1    0    0  501    0  0.00000000000E+00 -0.00000000000E+00 -0.84118680402E+03  0.84118680402E+03  0.00000000000E+00 0. -1.
         23    2    1    2    0    0  0.20490397296E+02 -0.45437273731E+03 -0.49247587719E+03  0.67668238594E+03  0.92152705002E+02 0.  0.
        254    2    1    2    0    0 -0.20490397296E+02  0.45437273731E+03  0.76065566620E+03  0.12738710111E+04  0.91502779720E+03 0.  0.
        -24    2    4    4    0    0  0.39961726070E+03  0.29291026795E+03  0.61555184984E+03  0.79434270487E+03  0.81153390722E+02 0.  0.
         24    2    4    4    0    0 -0.42010765800E+03  0.16146246936E+03  0.14510381636E+03  0.47952830624E+03  0.79572015436E+02 0.  0.
         11    1    3    3    0    0  0.34083379853E+02 -0.38860253239E+03 -0.37355857367E+03  0.54011074135E+03  0.00000000000E+00 0. -1.
        -11    1    3    3    0    0 -0.13592982556E+02 -0.65770204923E+02 -0.11891730351E+03  0.13657164459E+03  0.00000000000E+00 0.  1.
          2    1    6    6  502    0 -0.13991235020E+03  0.63181152881E+02  0.11569605929E+02  0.15395187429E+03  0.00000000000E+00 0. -1.
          3    1    5    5  503    0  0.43126606016E+02  0.25423014948E+02  0.10700263290E+03  0.11813465742E+03  0.00000000000E+00 0. -1.
         -4    1    5    5    0  503  0.35649065469E+03  0.26748725300E+03  0.50854921694E+03  0.67620804746E+03  0.00000000000E+00 0.  1.
         -1    1    6    6    0  502 -0.28019530780E+03  0.98281316483E+02  0.13353421043E+03  0.32557643194E+03  0.00000000000E+00 0.  1.
<mgrwt>
<rscale>  0 0.19320295E+04</rscale>
<asrwt>0</asrwt>
<pdfrwt beam="1">  1        1 0.12941335E+00 0.19320295E+04</pdfrwt>
<pdfrwt beam="2">  1       -1 0.17067178E+00 0.19320295E+04</pdfrwt>
<totfact> 0.46250518E+00</totfact>
</mgrwt>
</event>
<event>
12    1  0.1467288E-007  0.2187972E+04  0.7818608E-02  0.8523451E-01
          1   -1    0    0  501    0  0.00000000000E+00  0.00000000000E+00  0.18162568772E+04  0.18162568772E+04  0.00000000000E+00 0. -1.
         -1   -1    0    0    0  501 -0.00000000000E+00 -0.00000000000E+00 -0.65894062602E+03  0.65894062602E+03  0.00000000000E+00 0.  1.
         23    2    1    2    0    0  0.10921748050E+03  0.61570142379E+03 -0.26630671536E+03  0.68589963672E+03  0.92316540828E+02 0.  0.
        254    2    1    2    0    0 -0.10921748050E+03 -0.61570142379E+03  0.14236229665E+04  0.17892978665E+04  0.88536309098E+03 0.  0.
        -24    2    4    4    0    0  0.33266073348E+03 -0.89158118424E+02  0.26644773980E+03  0.44104166127E+03  0.70078636182E+02 0.  0.
         24    2    4    4    0    0 -0.44187821399E+03 -0.52654330537E+03  0.11571752267E+04  0.13482562052E+04  0.78968861678E+02 0.  0.
         11    1    3    3    0    0  0.95891224796E+01  0.27907155440E+03 -0.14369983796E+03  0.31404223788E+03  0.00000000000E+00 0. -1.
        -11    1    3    3    0    0  0.99628358024E+02  0.33662986939E+03 -0.12260687740E+03  0.37185739884E+03  0.00000000000E+00 0.  1.
          4    1    6    6  502    0 -0.20687368060E+03 -0.30215547729E+03  0.58080278109E+03  0.68660507040E+03  0.00000000000E+00 0. -1.
          3    1    5    5  503    0  0.28432476079E+03 -0.49658662066E+02  0.22699607274E+03  0.36719718048E+03  0.00000000000E+00 0. -1.
         -4    1    5    5    0  503  0.48335972697E+02 -0.39499456358E+02  0.39451667060E+02  0.73844480789E+02  0.00000000000E+00 0.  1.
         -3    1    6    6    0  502 -0.23500453339E+03 -0.22438782807E+03  0.57637244565E+03  0.66165113482E+03  0.00000000000E+00 0.  1.
<mgrwt>
<rscale>  0 0.21879721E+04</rscale>
<asrwt>0</asrwt>
<pdfrwt beam="1">  1        1 0.27942413E+00 0.21879721E+04</pdfrwt>
<pdfrwt beam="2">  1       -1 0.10137548E+00 0.21879721E+04</pdfrwt>
<totfact> 0.33475723E+00</totfact>
</mgrwt>
</event>
<event>
12    1  0.1467288E-007  0.1525756E+04  0.7818608E-02  0.8867504E-01
          1   -1    0    0  501    0  0.00000000000E+00  0.00000000000E+00  0.18488291814E+04  0.18488291814E+04  0.00000000000E+00 0.  1.
         -1   -1    0    0    0  501 -0.00000000000E+00 -0.00000000000E+00 -0.31478470007E+03  0.31478470007E+03  0.00000000000E+00 0. -1.
         23    2    1    2    0    0  0.30638011486E+03 -0.11528953492E+03  0.10285569963E+04  0.10831799245E+04  0.90492003048E+02 0.  0.
        254    2    1    2    0    0 -0.30638011486E+03  0.11528953492E+03  0.50548748503E+03  0.10804339569E+04  0.89702814122E+03 0.  0.
        -24    2    4    4    0    0  0.28011667631E+03 -0.57481338426E+02  0.31965967912E+03  0.43636108933E+03  0.80369354924E+02 0.  0.
         24    2    4    4    0    0 -0.58649679117E+03  0.17277087335E+03  0.18582780592E+03  0.64407286762E+03  0.80433976725E+02 0.  0.
         13    1    3    3    0    0  0.11340704981E+03 -0.84985145502E+02  0.36795349136E+03  0.39430116118E+03  0.00000000000E+00 0. -1.
        -13    1    3    3    0    0  0.19297306505E+03 -0.30304389418E+02  0.66060350495E+03  0.68887876336E+03  0.00000000000E+00 0.  1.
          2    1    6    6  502    0 -0.57231238408E+03  0.17466666775E+03  0.19209409719E+03  0.62845051673E+03  0.00000000000E+00 0. -1.
          1    1    5    5  503    0  0.26895573740E+03 -0.50648345141E+02  0.32249374965E+03  0.42297123083E+03  0.00000000000E+00 0. -1.
         -2    1    5    5    0  503  0.11160938919E+02 -0.68329932851E+01 -0.28340705391E+01  0.13389858499E+02  0.00000000000E+00 0.  1.
         -1    1    6    6    0  502 -0.14184407090E+02 -0.18957944022E+01 -0.62662912759E+01  0.15622350888E+02  0.00000000000E+00 0.  1.
<mgrwt>
<rscale>  0 0.15257564E+04</rscale>
<asrwt>0</asrwt>
<pdfrwt beam="1">  1        1 0.28443525E+00 0.15257564E+04</pdfrwt>
<pdfrwt beam="2">  1       -1 0.48428416E-01 0.15257564E+04</pdfrwt>
<totfact> 0.15543662E+01</totfact>
</mgrwt>
</event>
<event>
12    1  0.1467288E-007  0.1254939E+04  0.7818608E-02  0.9066082E-01
         -1   -1    0    0    0  501 -0.00000000000E+00  0.00000000000E+00  0.39363470254E+03  0.39363470254E+03  0.00000000000E+00 0.  1.
          1   -1    0    0  501    0  0.00000000000E+00 -0.00000000000E+00 -0.10002119552E+04  0.10002119552E+04  0.00000000000E+00 0. -1.
         23    2    1    2    0    0  0.24800785648E+02 -0.12166087363E+03  0.14975402150E+03  0.21571030767E+03  0.93210636391E+02 0.  0.
        254    2    1    2    0    0 -0.24800785648E+02  0.12166087363E+03 -0.75633127418E+03  0.11781363501E+04  0.89473561232E+03 0.  0.
        -24    2    4    4    0    0 -0.28772547760E+03 -0.17924531194E+03 -0.35752192500E+02  0.34939276275E+03  0.76695834816E+02 0.  0.
         24    2    4    4    0    0  0.26292469196E+03  0.30090618557E+03 -0.72057908168E+03  0.82874358734E+03  0.88925780541E+02 0.  0.
         11    1    3    3    0    0  0.59717245476E+02 -0.67090982645E+02  0.96658229295E+02  0.13194757539E+03  0.00000000000E+00 0. -1.
        -11    1    3    3    0    0 -0.34916459828E+02 -0.54569890990E+02  0.53095792204E+02  0.83762732282E+02  0.00000000000E+00 0.  1.
          2    1    6    6  502    0  0.21810962798E+03  0.27653003623E+03 -0.57287830864E+03  0.67248065196E+03  0.00000000000E+00 0. -1.
          3    1    5    5  503    0 -0.13776721514E+03 -0.13002365317E+03 -0.26642872342E+02  0.19130028384E+03  0.00000000000E+00 0. -1.
         -4    1    5    5    0  503 -0.14995826246E+03 -0.49221658766E+02 -0.91093201583E+01  0.15809247890E+03  0.00000000000E+00 0.  1.
         -1    1    6    6    0  502  0.44815063980E+02  0.24376149346E+02 -0.14770077304E+03  0.15626293538E+03  0.00000000000E+00 0.  1.
<mgrwt>
<rscale>  0 0.12549393E+04</rscale>
<asrwt>0</asrwt>
<pdfrwt beam="1">  1        1 0.15387876E+00 0.12549393E+04</pdfrwt>
<pdfrwt beam="2">  1       -1 0.60559186E-01 0.12549393E+04</pdfrwt>
<totfact> 0.41230310E+01</totfact>
</mgrwt>
</event>
<event>
12    1  0.1467288E-007  0.1455068E+04  0.7818608E-02  0.8914895E-01
         -1   -1    0    0    0  501 -0.00000000000E+00  0.00000000000E+00  0.41779614138E+03  0.41779614138E+03  0.00000000000E+00 0.  1.
          1   -1    0    0  501    0  0.00000000000E+00 -0.00000000000E+00 -0.12668992243E+04  0.12668992243E+04  0.00000000000E+00 0. -1.
         23    2    1    2    0    0 -0.47853619604E+03  0.34016565343E+02 -0.25780253609E+03  0.55223139165E+03  0.91341910801E+02 0.  0.
        254    2    1    2    0    0  0.47853619604E+03 -0.34016565343E+02 -0.59130054681E+03  0.11324639740E+04  0.83826266654E+03 0.  0.
        -24    2    4    4    0    0  0.20419435709E+03  0.38062168420E+03 -0.39851303793E+03  0.59317014005E+03  0.80436134321E+02 0.  0.
         24    2    4    4    0    0  0.27434183895E+03 -0.41463824954E+03 -0.19278750888E+03  0.53929383395E+03  0.80513931565E+02 0.  0.
         13    1    3    3    0    0 -0.53081760700E+02  0.25308541249E+02 -0.56221276142E+02  0.81357405749E+02  0.00000000000E+00 0.  1.
        -13    1    3    3    0    0 -0.42545443534E+03  0.87080240942E+01 -0.20158125995E+03  0.47087398590E+03  0.00000000000E+00 0. -1.
          4    1    6    6  502    0  0.17426018700E+03 -0.21708218675E+03 -0.74249290887E+02  0.28810457437E+03  0.00000000000E+00 0. -1.
          3    1    5    5  503    0  0.29819872211E+01  0.21585175021E+02 -0.23621055349E+01  0.21917836824E+02  0.00000000000E+00 0. -1.
         -4    1    5    5    0  503  0.20121236987E+03  0.35903650918E+03 -0.39615093239E+03  0.57125230323E+03  0.00000000000E+00 0.  1.
         -3    1    6    6    0  502  0.10008165195E+03 -0.19755606279E+03 -0.11853821799E+03  0.25118925957E+03  0.00000000000E+00 0.  1.
<mgrwt>
<rscale>  0 0.14550678E+04</rscale>
<asrwt>0</asrwt>
<pdfrwt beam="1">  1        1 0.19490757E+00 0.14550678E+04</pdfrwt>
<pdfrwt beam="2">  1       -1 0.64276330E-01 0.14550678E+04</pdfrwt>
<totfact> 0.22767518E+01</totfact>
</mgrwt>
</event>
<event>
12    1  0.1467288E-007  0.1227052E+04  0.7818608E-02  0.9089502E-01
         -2   -1    0    0    0  501 -0.00000000000E+00  0.00000000000E+00  0.19904565554E+04  0.19904565554E+04  0.00000000000E+00 0.  1.
          2   -1    0    0  501    0  0.00000000000E+00 -0.00000000000E+00 -0.18910939256E+03  0.18910939256E+03  0.00000000000E+00 0. -1.
         23    2    1    2    0    0 -0.22474173277E+03  0.16112536808E+03  0.40371189605E+03  0.49771698645E+03  0.90932243465E+02 0.  0.
        254    2    1    2    0    0  0.22474173277E+03 -0.16112536808E+03  0.13976352668E+04  0.16818489615E+04  0.89373450180E+03 0.  0.
        -24    2    4    4    0    0  0.48374552437E+03  0.12724184398E+03  0.10001759409E+04  0.11211546939E+04  0.80222912465E+02 0.  0.
         24    2    4    4    0    0 -0.25900379160E+03 -0.28836721206E+03  0.39745932587E+03  0.56069426760E+03  0.78520907683E+02 0.  0.
         13    1    3    3    0    0 -0.75918930352E+02  0.68339035759E+02  0.80750213792E+02  0.13020946518E+03  0.00000000000E+00 0. -1.
        -13    1    3    3    0    0 -0.14882280242E+03  0.92786332321E+02  0.32296168226E+03  0.36750752128E+03  0.00000000000E+00 0.  1.
          4    1    6    6  502    0 -0.19982555640E+03 -0.17522197161E+03  0.29430649975E+03  0.39654672880E+03  0.00000000000E+00 0. -1.
          3    1    5    5  503    0  0.41362380173E+03  0.90371898227E+02  0.88866075171E+03  0.98436256581E+03  0.00000000000E+00 0. -1.
         -4    1    5    5    0  503  0.70121722642E+02  0.36869945756E+02  0.11151518922E+03  0.13679212811E+03  0.00000000000E+00 0.  1.
         -3    1    6    6    0  502 -0.59178235199E+02 -0.11314524045E+03  0.10315282612E+03  0.16414753880E+03  0.00000000000E+00 0.  1.
<mgrwt>
<rscale>  0 0.12270518E+04</rscale>
<asrwt>0</asrwt>
<pdfrwt beam="1">  1        2 0.29093754E-01 0.12270518E+04</pdfrwt>
<pdfrwt beam="2">  1       -2 0.30622407E+00 0.12270518E+04</pdfrwt>
<totfact> 0.53324471E+00</totfact>
</mgrwt>
</event>
<event>
12    1  0.1467288E-007  0.1802277E+04  0.7818608E-02  0.8705089E-01
         -2   -1    0    0    0  501 -0.00000000000E+00  0.00000000000E+00  0.51566137916E+03  0.51566137916E+03  0.00000000000E+00 0.  1.
          2   -1    0    0  501    0  0.00000000000E+00 -0.00000000000E+00 -0.15747756830E+04  0.15747756830E+04  0.00000000000E+00 0. -1.
         23    2    1    2    0    0  0.16115176159E+03 -0.65414512768E+03 -0.38827570619E+03  0.78297201262E+03  0.91713740443E+02 0.  0.
        254    2    1    2    0    0 -0.16115176159E+03  0.65414512768E+03 -0.67083859764E+03  0.13074650495E+04  0.89753255838E+03 0.  0.
        -24    2    4    4    0    0 -0.58593027336E+00  0.78254958702E+03 -0.73599842346E+03  0.10771656630E+04  0.78790777839E+02 0.  0.
         24    2    4    4    0    0 -0.16056583132E+03 -0.12840445934E+03  0.65159825820E+02  0.23029938658E+03  0.80764554062E+02 0.  0.
         11    1    3    3    0    0  0.60067767337E+02 -0.35770181660E+03 -0.16588443324E+03  0.39884379332E+03  0.00000000000E+00 0.  1.
        -11    1    3    3    0    0  0.10108399425E+03 -0.29644331108E+03 -0.22239127296E+03  0.38412821930E+03  0.00000000000E+00 0. -1.
          4    1    6    6  502    0 -0.66831668871E+02 -0.55036113139E+02 -0.13501636422E+02  0.87622713377E+02  0.00000000000E+00 0. -1.
          3    1    5    5  503    0  0.33405655405E+02  0.21549407785E+03 -0.21900240212E+03  0.30905612361E+03  0.00000000000E+00 0. -1.
         -4    1    5    5    0  503 -0.33991585679E+02  0.56705550917E+03 -0.51699602134E+03  0.76810953936E+03  0.00000000000E+00 0.  1.
         -3    1    6    6    0  502 -0.93734162447E+02 -0.73368346197E+02  0.78661462242E+02  0.14267667320E+03  0.00000000000E+00 0.  1.
<mgrwt>
<rscale>  0 0.18022774E+04</rscale>
<asrwt>0</asrwt>
<pdfrwt beam="1">  1        2 0.24227318E+00 0.18022774E+04</pdfrwt>
<pdfrwt beam="2">  1       -2 0.79332521E-01 0.18022774E+04</pdfrwt>
<totfact> 0.15317245E+01</totfact>
</mgrwt>
</event>
<event>
12    1  0.1467288E-007  0.1361469E+04  0.7818608E-02  0.8982191E-01
         -1   -1    0    0    0  501 -0.00000000000E+00  0.00000000000E+00  0.10190273235E+04  0.10190273235E+04  0.00000000000E+00 0.  1.
          1   -1    0    0  501    0  0.00000000000E+00 -0.00000000000E+00 -0.45474695400E+03  0.45474695400E+03  0.00000000000E+00 0. -1.
         23    2    1    2    0    0  0.10916370452E+03  0.30485004622E+03  0.36867257695E+03  0.50041957528E+03  0.98234501371E+02 0.  0.
        254    2    1    2    0    0 -0.10916370452E+03 -0.30485004622E+03  0.19560779252E+03  0.97335470219E+03  0.89683147955E+03 0.  0.
        -24    2    4    4    0    0 -0.23170711547E+03 -0.22345338955E+02 -0.29797314262E+03  0.38616806776E+03  0.78423729199E+02 0.  0.
         24    2    4    4    0    0  0.12254341095E+03 -0.28250470727E+03  0.49358093514E+03  0.58718663443E+03  0.79625416296E+02 0.  0.
         11    1    3    3    0    0  0.60421986991E+02  0.16796337323E+03  0.12935418182E+03  0.22044277174E+03  0.00000000000E+00 0.  1.
        -11    1    3    3    0    0  0.48741717530E+02  0.13688667300E+03  0.23931839514E+03  0.27997680354E+03  0.00000000000E+00 0. -1.
          4    1    6    6  502    0 -0.63814853588E+01  0.35255798760E+00  0.17266184823E+02  0.18411105097E+02  0.00000000000E+00 0. -1.
          1    1    5    5  503    0 -0.77581910317E+02  0.28203545467E+02 -0.85355145469E+02  0.11874297303E+03  0.00000000000E+00 0. -1.
         -2    1    5    5    0  503 -0.15412520515E+03 -0.50548884422E+02 -0.21261799715E+03  0.26742509473E+03  0.00000000000E+00 0.  1.
         -3    1    6    6    0  502  0.12892489631E+03 -0.28285726526E+03  0.47631475031E+03  0.56877552933E+03  0.00000000000E+00 0.  1.
<mgrwt>
<rscale>  0 0.13614692E+04</rscale>
<asrwt>0</asrwt>
<pdfrwt beam="1">  1        1 0.69961070E-01 0.13614692E+04</pdfrwt>
<pdfrwt beam="2">  1       -1 0.15677343E+00 0.13614692E+04</pdfrwt>
<totfact> 0.15267881E+01</totfact>
</mgrwt>
</event>
<event>
12    1  0.1467288E-007  0.1348582E+04  0.7818608E-02  0.8991902E-01
          2   -1    0    0  501    0  0.00000000000E+00  0.00000000000E+00  0.12703037671E+04  0.12703037671E+04  0.00000000000E+00 0. -1.
         -2   -1    0    0    0  501 -0.00000000000E+00 -0.00000000000E+00 -0.35792084006E+03  0.35792084006E+03  0.00000000000E+00 0.  1.
         23    2    1    2    0    0 -0.33129854301E+03 -0.13491079177E+03  0.18876395205E+03  0.41461143063E+03  0.91165577251E+02 0.  0.
        254    2    1    2    0    0  0.33129854301E+03  0.13491079177E+03  0.72361897501E+03  0.12136131765E+04  0.90624106890E+03 0.  0.
        -24    2    4    4    0    0 -0.81678281086E+02  0.39627199639E+03  0.11208927331E+03  0.42698328759E+03  0.77768155214E+02 0.  0.
         24    2    4    4    0    0  0.41297682410E+03 -0.26136120462E+03  0.61152970170E+03  0.78662988896E+03  0.77191123946E+02 0.  0.
         11    1    3    3    0    0 -0.30176564626E+03 -0.14354591675E+03  0.18885615035E+03  0.38384186979E+03  0.00000000000E+00 0. -1.
        -11    1    3    3    0    0 -0.29532896746E+02  0.86351249741E+01 -0.92198298355E-01  0.30769560837E+02  0.00000000000E+00 0.  1.
          2    1    6    6  502    0  0.33505592035E+03 -0.21087436603E+03  0.44226755363E+03  0.59357481163E+03  0.00000000000E+00 0. -1.
          1    1    5    5  503    0 -0.61840909519E+02  0.35160083742E+03  0.12169639459E+03  0.37717033211E+03  0.00000000000E+00 0. -1.
         -2    1    5    5    0  503 -0.19837371566E+02  0.44671158967E+02 -0.96071212867E+01  0.49812955479E+02  0.00000000000E+00 0.  1.
         -1    1    6    6    0  502  0.77920903748E+02 -0.50486838592E+02  0.16926214807E+03  0.19305507732E+03  0.00000000000E+00 0.  1.
<mgrwt>
<rscale>  0 0.13485818E+04</rscale>
<asrwt>0</asrwt>
<pdfrwt beam="1">  1        2 0.19543135E+00 0.13485818E+04</pdfrwt>
<pdfrwt beam="2">  1       -2 0.55064745E-01 0.13485818E+04</pdfrwt>
<totfact> 0.52124363E+01</totfact>
</mgrwt>
</event>
<event>
12    1  0.1467288E-007  0.1596912E+04  0.7818608E-02  0.8822447E-01
         -2   -1    0    0    0  501 -0.00000000000E+00  0.00000000000E+00  0.25478480441E+04  0.25478480441E+04  0.00000000000E+00 0.  1.
          2   -1    0    0  501    0  0.00000000000E+00 -0.00000000000E+00 -0.25022369085E+03  0.25022369085E+03  0.00000000000E+00 0. -1.
         23    2    1    2    0    0 -0.16032383004E+03  0.12331411541E+03 -0.87996855516E+02  0.24162286760E+03  0.98630938500E+02 0.  0.
        254    2    1    2    0    0  0.16032383004E+03 -0.12331411541E+03  0.23856212088E+04  0.25564488674E+04  0.89628798839E+03 0.  0.
        -24    2    4    4    0    0  0.52093529354E+03  0.63558063218E+01  0.13281021436E+04  0.14289155063E+04  0.80809924235E+02 0.  0.
         24    2    4    4    0    0 -0.36061146350E+03 -0.12966992173E+03  0.10575190652E+04  0.11275333611E+04  0.78294258975E+02 0.  0.
         11    1    3    3    0    0 -0.11661604510E+02  0.10867222105E+02  0.20483266413E+02  0.25954840376E+02  0.00000000000E+00 0.  1.
        -11    1    3    3    0    0 -0.14866222553E+03  0.11244689330E+03 -0.10848012193E+03  0.21566802723E+03  0.00000000000E+00 0. -1.
          2    1    6    6  502    0 -0.60778708127E+02 -0.44531928496E+02  0.27748112825E+03  0.28752899080E+03  0.00000000000E+00 0. -1.
          1    1    5    5  503    0  0.96093600245E+02  0.66582210561E+00  0.16922090397E+03  0.19460251198E+03  0.00000000000E+00 0. -1.
         -2    1    5    5    0  503  0.42484169330E+03  0.56899842162E+01  0.11588812396E+04  0.12343129943E+04  0.00000000000E+00 0.  1.
         -1    1    6    6    0  502 -0.29983275537E+03 -0.85137993231E+02  0.78003793696E+03  0.84000437034E+03  0.00000000000E+00 0.  1.
<mgrwt>
<rscale>  0 0.15969119E+04</rscale>
<asrwt>0</asrwt>
<pdfrwt beam="1">  1        2 0.38495954E-01 0.15969119E+04</pdfrwt>
<pdfrwt beam="2">  1       -2 0.39197661E+00 0.15969119E+04</pdfrwt>
<totfact> 0.10879688E+00</totfact>
</mgrwt>
</event>
<event>
12    1  0.1467288E-007  0.1171953E+04  0.7818608E-02  0.9137767E-01
          1   -1    0    0  501    0  0.00000000000E+00  0.00000000000E+00  0.27221122929E+03  0.27221122929E+03  0.00000000000E+00 0. -1.
         -1   -1    0    0    0  501 -0.00000000000E+00 -0.00000000000E+00 -0.12614043252E+04  0.12614043252E+04  0.00000000000E+00 0.  1.
         23    2    1    2    0    0 -0.73811046700E+02  0.36659779091E+02 -0.46851606118E+03  0.48413801020E+03  0.89946113437E+02 0.  0.
        254    2    1    2    0    0  0.73811046700E+02 -0.36659779091E+02 -0.52067703477E+03  0.10494775443E+04  0.90747260647E+03 0.  0.
        -24    2    4    4    0    0  0.44767774526E+01  0.34861645628E+03  0.40892552894E+02  0.36026192869E+03  0.81012229056E+02 0.  0.
         24    2    4    4    0    0  0.69334269247E+02 -0.38527623537E+03 -0.56156958766E+03  0.68921561563E+03  0.80079614155E+02 0.  0.
         11    1    3    3    0    0 -0.68279135718E+02  0.87084367941E+01 -0.15831619311E+03  0.17263225146E+03  0.00000000000E+00 0. -1.
        -11    1    3    3    0    0 -0.55319109820E+01  0.27951342297E+02 -0.31019986807E+03  0.31150575874E+03  0.00000000000E+00 0.  1.
          2    1    6    6  502    0  0.57106964416E+02 -0.17796368455E+03 -0.32062920201E+03  0.37112715286E+03  0.00000000000E+00 0. -1.
          1    1    5    5  503    0 -0.63364667939E+01  0.22746255383E+03  0.64155547552E+02  0.23642186550E+03  0.00000000000E+00 0. -1.
         -2    1    5    5    0  503  0.10813244247E+02  0.12115390246E+03 -0.23262994657E+02  0.12384006319E+03  0.00000000000E+00 0.  1.
         -1    1    6    6    0  502  0.12227304831E+02 -0.20731255082E+03 -0.24094038565E+03  0.31808846277E+03  0.00000000000E+00 0.  1.
<mgrwt>
<rscale>  0 0.11719529E+04</rscale>
<asrwt>0</asrwt>
<pdfrwt beam="1">  1        1 0.41878650E-01 0.11719529E+04</pdfrwt>
<pdfrwt beam="2">  1       -1 0.19406220E+00 0.11719529E+04</pdfrwt>
<totfact> 0.16339748E+01</totfact>
</mgrwt>
</event>
<event>
12    1  0.1467288E-007  0.2415443E+04  0.7818608E-02  0.8433744E-01
         -1   -1    0    0    0  501 -0.00000000000E+00  0.00000000000E+00  0.91682002940E+03  0.91682002940E+03  0.00000000000E+00 0.  1.
          1   -1    0    0  501    0  0.00000000000E+00 -0.00000000000E+00 -0.15909242326E+04  0.15909242326E+04  0.00000000000E+00 0. -1.
         23    2    1    2    0    0 -0.64814921339E+03  0.62309682276E+03  0.24030069078E+03  0.93512120160E+03  0.91434054639E+02 0.  0.
        254    2    1    2    0    0  0.64814921339E+03 -0.62309682276E+03 -0.91440489397E+03  0.15726230604E+04  0.91030760001E+03 0.  0.
        -24    2    4    4    0    0 -0.32634800577E+02 -0.21194323950E+03 -0.71288116968E+03  0.74879215077E+03  0.80654547235E+02 0.  0.
         24    2    4    4    0    0  0.68078401397E+03 -0.41115358326E+03 -0.20152372429E+03  0.82383090963E+03  0.74641901843E+02 0.  0.
         13    1    3    3    0    0 -0.14259753331E+03  0.89038417966E+02  0.36824550756E+02  0.17209864590E+03  0.00000000000E+00 0. -1.
        -13    1    3    3    0    0 -0.50555168007E+03  0.53405840479E+03  0.20347614002E+03  0.76302255570E+03  0.00000000000E+00 0.  1.
          2    1    6    6  502    0  0.56776095158E+03 -0.37371394620E+03 -0.16924237482E+03  0.70046955191E+03  0.00000000000E+00 0. -1.
          1    1    5    5  503    0 -0.39218768278E+02 -0.12840576797E+03 -0.54321150227E+03  0.55955776219E+03  0.00000000000E+00 0. -1.
         -2    1    5    5    0  503  0.65839677008E+01 -0.83537471527E+02 -0.16966966741E+03  0.18923438858E+03  0.00000000000E+00 0.  1.
         -1    1    6    6    0  502  0.11302306238E+03 -0.37439637062E+02 -0.32281349468E+02  0.12336135771E+03  0.00000000000E+00 0.  1.
<mgrwt>
<rscale>  0 0.24154430E+04</rscale>
<asrwt>0</asrwt>
<pdfrwt beam="1">  1        1 0.24475757E+00 0.24154430E+04</pdfrwt>
<pdfrwt beam="2">  1       -1 0.14104924E+00 0.24154430E+04</pdfrwt>
<totfact> 0.20823116E+00</totfact>
</mgrwt>
</event>
<event>
12    1  0.1467288E-007  0.1295693E+04  0.7818608E-02  0.9032988E-01
          2   -1    0    0  501    0  0.00000000000E+00  0.00000000000E+00  0.13132312733E+04  0.13132312733E+04  0.00000000000E+00 0. -1.
         -2   -1    0    0    0  501 -0.00000000000E+00 -0.00000000000E+00 -0.31959716565E+03  0.31959716565E+03  0.00000000000E+00 0.  1.
         23    2    1    2    0    0  0.40334429281E+02 -0.18668078829E+02 -0.18865756332E+03  0.21489784339E+03  0.92811871795E+02 0.  0.
        254    2    1    2    0    0 -0.40334429281E+02  0.18668078829E+02  0.11822916709E+04  0.14179305955E+04  0.78149741855E+03 0.  0.
        -24    2    4    4    0    0 -0.63811301614E+02  0.23944624432E+03  0.55547583926E+02  0.26676913894E+03  0.81693655041E+02 0.  0.
         24    2    4    4    0    0  0.23476872333E+02 -0.22077816550E+03  0.11267440870E+04  0.11511614566E+04  0.79538038884E+02 0.  0.
         13    1    3    3    0    0 -0.12553639244E+01  0.12977275495E+02  0.52620675320E+01  0.14059693189E+02  0.00000000000E+00 0. -1.
        -13    1    3    3    0    0  0.41589793205E+02 -0.31645354324E+02 -0.19391963085E+03  0.20083815020E+03  0.00000000000E+00 0.  1.
          2    1    6    6  502    0  0.38599992365E+02 -0.20357548429E+03  0.10716206627E+04  0.10914686354E+04  0.00000000000E+00 0. -1.
          3    1    5    5  503    0 -0.58538207545E+02  0.13118065008E+03  0.65582207809E+02  0.15791171799E+03  0.00000000000E+00 0. -1.
         -4    1    5    5    0  503 -0.52730940685E+01  0.10826559424E+03 -0.10034623883E+02  0.10885742094E+03  0.00000000000E+00 0.  1.
         -1    1    6    6    0  502 -0.15123120032E+02 -0.17202681211E+02  0.55123424272E+02  0.59692821208E+02  0.00000000000E+00 0.  1.
<mgrwt>
<rscale>  0 0.12956929E+04</rscale>
<asrwt>0</asrwt>
<pdfrwt beam="1">  1        2 0.20203558E+00 0.12956929E+04</pdfrwt>
<pdfrwt beam="2">  1       -2 0.49168795E-01 0.12956929E+04</pdfrwt>
<totfact> 0.62334752E+01</totfact>
</mgrwt>
</event>
<event>
12    1  0.1467288E-007  0.2262438E+04  0.7818608E-02  0.8492880E-01
         -2   -1    0    0    0  501 -0.00000000000E+00  0.00000000000E+00  0.42146056991E+03  0.42146056991E+03  0.00000000000E+00 0.  1.
          2   -1    0    0  501    0  0.00000000000E+00 -0.00000000000E+00 -0.30362420489E+04  0.30362420489E+04  0.00000000000E+00 0. -1.
         23    2    1    2    0    0  0.12028296355E+03 -0.94184783966E+03 -0.10613548644E+04  0.14264526377E+04  0.82143988876E+02 0.  0.
        254    2    1    2    0    0 -0.12028296355E+03  0.94184783966E+03 -0.15534266146E+04  0.20312499811E+04  0.90072020883E+03 0.  0.
        -24    2    4    4    0    0  0.21185729397E+03  0.14228343079E+03 -0.19761689034E+02  0.26825635354E+03  0.80267422868E+02 0.  0.
         24    2    4    4    0    0 -0.33214025752E+03  0.79956440887E+03 -0.15336649255E+04  0.17629936276E+04  0.79987702249E+02 0.  0.
         13    1    3    3    0    0  0.87785111464E+02 -0.75621661998E+03 -0.80118884095E+03  0.11052028597E+04  0.00000000000E+00 0.  1.
        -13    1    3    3    0    0  0.32497852088E+02 -0.18563121968E+03 -0.26016602345E+03  0.32124977800E+03  0.00000000000E+00 0. -1.
          2    1    6    6  502    0 -0.31286170384E+03  0.70047350247E+03 -0.13853274394E+04  0.15835648669E+04  0.00000000000E+00 0. -1.
          3    1    5    5  503    0  0.13499481102E+03  0.65379871330E+02  0.22364374131E+02  0.15165187704E+03  0.00000000000E+00 0. -1.
         -4    1    5    5    0  503  0.76862482949E+02  0.76903559460E+02 -0.42126063165E+02  0.11660447650E+03  0.00000000000E+00 0.  1.
         -1    1    6    6    0  502 -0.19278553683E+02  0.99090906404E+02 -0.14833748618E+03  0.17942876071E+03  0.00000000000E+00 0.  1.
<mgrwt>
<rscale>  0 0.22624379E+04</rscale>
<asrwt>0</asrwt>
<pdfrwt beam="1">  1        2 0.46711417E+00 0.22624379E+04</pdfrwt>
<pdfrwt beam="2">  1       -2 0.64840087E-01 0.22624379E+04</pdfrwt>
<totfact> 0.33008120E+00</totfact>
</mgrwt>
</event>
<event>
12    1  0.1467288E-007  0.1894349E+04  0.7818608E-02  0.8657674E-01
          1   -1    0    0  501    0  0.00000000000E+00  0.00000000000E+00  0.16594091184E+04  0.16594091184E+04  0.00000000000E+00 0. -1.
         -1   -1    0    0    0  501 -0.00000000000E+00 -0.00000000000E+00 -0.54063778655E+03  0.54063778655E+03  0.00000000000E+00 0.  1.
         23    2    1    2    0    0  0.43648243587E+03  0.53561379874E+03  0.16239686837E+03  0.71810266321E+03  0.10908544279E+03 0.  0.
        254    2    1    2    0    0 -0.43648243587E+03 -0.53561379874E+03  0.95637446353E+03  0.14819442418E+04  0.89672044864E+03 0.  0.
        -24    2    4    4    0    0 -0.62240651659E+03 -0.31896468342E+03  0.95399921210E+03  0.11857195387E+04  0.81780110885E+02 0.  0.
         24    2    4    4    0    0  0.18592408072E+03 -0.21664911532E+03  0.23752514254E+01  0.29622470310E+03  0.78986264278E+02 0.  0.
         13    1    3    3    0    0  0.43009640844E+03  0.52542884918E+03  0.17446571063E+03  0.70106824225E+03  0.00000000000E+00 0.  1.
        -13    1    3    3    0    0  0.63860274347E+01  0.10184949567E+02 -0.12068842266E+02  0.17034420968E+02  0.00000000000E+00 0. -1.
          4    1    6    6  502    0  0.13740079215E+03 -0.15940284499E+03  0.36834481971E+02  0.21364696051E+03  0.00000000000E+00 0. -1.
          1    1    5    5  503    0 -0.46268151716E+03 -0.19752405965E+03  0.66341560397E+03  0.83259245976E+03  0.00000000000E+00 0. -1.
         -2    1    5    5    0  503 -0.15972499943E+03 -0.12144062378E+03  0.29058360813E+03  0.35312707891E+03  0.00000000000E+00 0.  1.
         -3    1    6    6    0  502  0.48523288574E+02 -0.57246270332E+02 -0.34459230546E+02  0.82577742587E+02  0.00000000000E+00 0.  1.
<mgrwt>
<rscale>  0 0.18943487E+04</rscale>
<asrwt>0</asrwt>
<pdfrwt beam="1">  1        1 0.25529371E+00 0.18943487E+04</pdfrwt>
<pdfrwt beam="2">  1       -1 0.83175045E-01 0.18943487E+04</pdfrwt>
<totfact> 0.68234920E+00</totfact>
</mgrwt>
</event>
<event>
12    1  0.1467288E-007  0.1874910E+04  0.7818608E-02  0.8667447E-01
          1   -1    0    0  501    0  0.00000000000E+00  0.00000000000E+00  0.18223327235E+04  0.18223327235E+04  0.00000000000E+00 0. -1.
         -1   -1    0    0    0  501 -0.00000000000E+00 -0.00000000000E+00 -0.48225082118E+03  0.48225082118E+03  0.00000000000E+00 0.  1.
         23    2    1    2    0    0 -0.67839374427E+03 -0.18037458540E+03  0.71110586121E+03  0.10032934948E+04  0.90405904325E+02 0.  0.
        254    2    1    2    0    0  0.67839374427E+03  0.18037458540E+03  0.62897604106E+03  0.13012900498E+04  0.89721339169E+03 0.  0.
        -24    2    4    4    0    0  0.12990829427E+03  0.14091285891E+03 -0.20952102930E+03  0.29532470218E+03  0.81148131647E+02 0.  0.
         24    2    4    4    0    0  0.54848545001E+03  0.39461726490E+02  0.83849707036E+03  0.10059653477E+04  0.80594211712E+02 0.  0.
         13    1    3    3    0    0 -0.11704700920E+03 -0.50388120425E+02  0.89583248464E+02  0.15576945608E+03  0.00000000000E+00 0. -1.
        -13    1    3    3    0    0 -0.56134673508E+03 -0.12998646498E+03  0.62152261275E+03  0.84752403873E+03  0.00000000000E+00 0.  1.
          2    1    6    6  502    0  0.33857261669E+03 -0.96552922936E+01  0.47605144582E+03  0.58425133333E+03  0.00000000000E+00 0. -1.
          1    1    5    5  503    0  0.18465523276E+02  0.71177190225E+02 -0.10055385191E+03  0.12457224848E+03  0.00000000000E+00 0. -1.
         -2    1    5    5    0  503  0.11144277099E+03  0.69735668689E+02 -0.10896717739E+03  0.17075245369E+03  0.00000000000E+00 0.  1.
         -1    1    6    6    0  502  0.20991283332E+03  0.49117018784E+02  0.36244562454E+03  0.42171401432E+03  0.00000000000E+00 0.  1.
<mgrwt>
<rscale>  0 0.18749095E+04</rscale>
<asrwt>0</asrwt>
<pdfrwt beam="1">  1        1 0.28035888E+00 0.18749095E+04</pdfrwt>
<pdfrwt beam="2">  1       -1 0.74192435E-01 0.18749095E+04</pdfrwt>
<totfact> 0.67454873E+00</totfact>
</mgrwt>
</event>
<event>
12    1  0.1467288E-007  0.1354257E+04  0.7818608E-02  0.8987612E-01
         -1   -1    0    0    0  501 -0.00000000000E+00  0.00000000000E+00  0.70021710608E+03  0.70021710608E+03  0.00000000000E+00 0.  1.
          1   -1    0    0  501    0  0.00000000000E+00 -0.00000000000E+00 -0.65480116302E+03  0.65480116302E+03  0.00000000000E+00 0. -1.
         23    2    1    2    0    0  0.29260632461E+02  0.23961345069E+03 -0.26616395851E+03  0.36990624169E+03  0.87844091840E+02 0.  0.
        254    2    1    2    0    0 -0.29260632461E+02 -0.23961345069E+03  0.31157990157E+03  0.98511202741E+03  0.90282494489E+03 0.  0.
        -24    2    4    4    0    0 -0.16098440736E+03  0.80206117248E+02  0.53175573133E+03  0.56693038634E+03  0.79353037100E+02 0.  0.
         24    2    4    4    0    0  0.13172377490E+03 -0.31981956794E+03 -0.22017582976E+03  0.41818164107E+03  0.82236123502E+02 0.  0.
         13    1    3    3    0    0  0.87332819294E+01  0.20011347334E+03 -0.25453357832E+03  0.32389661146E+03  0.00000000000E+00 0. -1.
        -13    1    3    3    0    0  0.20527350531E+02  0.39499977347E+02 -0.11630380186E+02  0.46009630226E+02  0.00000000000E+00 0.  1.
          2    1    6    6  502    0  0.13818913965E+03 -0.25623600019E+03 -0.17190367337E+03  0.33808874431E+03  0.00000000000E+00 0. -1.
          3    1    5    5  503    0 -0.16258289906E+03  0.61407503451E+02  0.50592644834E+03  0.53494453140E+03  0.00000000000E+00 0. -1.
         -4    1    5    5    0  503  0.15984916998E+01  0.18798613797E+02  0.25829282990E+02  0.31985854939E+02  0.00000000000E+00 0.  1.
         -1    1    6    6    0  502 -0.64653647538E+01 -0.63583567747E+02 -0.48272156390E+02  0.80092896760E+02  0.00000000000E+00 0.  1.
<mgrwt>
<rscale>  0 0.13542570E+04</rscale>
<asrwt>0</asrwt>
<pdfrwt beam="1">  1        1 0.10073864E+00 0.13542570E+04</pdfrwt>
<pdfrwt beam="2">  1       -1 0.10772571E+00 0.13542570E+04</pdfrwt>
<totfact> 0.23644689E+01</totfact>
</mgrwt>
</event>
<event>
12    1  0.1467288E-007  0.1523888E+04  0.7818608E-02  0.8868721E-01
         -2   -1    0    0    0  501 -0.00000000000E+00  0.00000000000E+00  0.93417199936E+03  0.93417199936E+03  0.00000000000E+00 0.  1.
          2   -1    0    0  501    0  0.00000000000E+00 -0.00000000000E+00 -0.62146844267E+03  0.62146844267E+03  0.00000000000E+00 0. -1.
         23    2    1    2    0    0  0.30511986920E+03  0.98259442481E+02 -0.27896038697E+03  0.43485128051E+03  0.92323810805E+02 0.  0.
        254    2    1    2    0    0 -0.30511986920E+03 -0.98259442481E+02  0.59166394366E+03  0.11207891615E+04  0.89629742260E+03 0.  0.
        -24    2    4    4    0    0 -0.10345627446E+03  0.27439402897E+03 -0.87834140868E+02  0.31600023910E+03  0.78396625858E+02 0.  0.
         24    2    4    4    0    0 -0.20166359474E+03 -0.37265347145E+03  0.67949808453E+03  0.80478892243E+03  0.80179470976E+02 0.  0.
         11    1    3    3    0    0  0.44578552553E+02  0.50903645816E+02 -0.43040808822E+02  0.80193140163E+02  0.00000000000E+00 0.  1.
        -11    1    3    3    0    0  0.26054131664E+03  0.47355796665E+02 -0.23591957815E+03  0.35465814034E+03  0.00000000000E+00 0. -1.
          4    1    6    6  502    0 -0.13578451003E+03 -0.18239011634E+03  0.40341147439E+03  0.46308142413E+03  0.00000000000E+00 0. -1.
          3    1    5    5  503    0  0.34035114220E+01  0.84821968904E+02 -0.36543990761E+02  0.92421932242E+02  0.00000000000E+00 0. -1.
         -4    1    5    5    0  503 -0.10685978588E+03  0.18957206007E+03 -0.51290150108E+02  0.22357830685E+03  0.00000000000E+00 0.  1.
         -3    1    6    6    0  502 -0.65879084703E+02 -0.19026335511E+03  0.27608661014E+03  0.34170749831E+03  0.00000000000E+00 0.  1.
<mgrwt>
<rscale>  0 0.15238877E+04</rscale>
<asrwt>0</asrwt>
<pdfrwt beam="1">  1        2 0.95610530E-01 0.15238877E+04</pdfrwt>
<pdfrwt beam="2">  1       -2 0.14371877E+00 0.15238877E+04</pdfrwt>
<totfact> 0.15361683E+01</totfact>
</mgrwt>
</event>
<event>
12    1  0.1467288E-007  0.1236750E+04  0.7818608E-02  0.9081284E-01
         -2   -1    0    0    0  501 -0.00000000000E+00  0.00000000000E+00  0.16097607261E+03  0.16097607261E+03  0.00000000000E+00 0.  1.
          2   -1    0    0  501    0  0.00000000000E+00 -0.00000000000E+00 -0.23754310693E+04  0.23754310693E+04  0.00000000000E+00 0. -1.
         23    2    1    2    0    0  0.19761138101E+02  0.25108983932E+02 -0.99907574326E+03  0.10039208263E+04  0.93186485150E+02 0.  0.
        254    2    1    2    0    0 -0.19761138101E+02 -0.25108983932E+02 -0.12153792534E+04  0.15324863156E+04  0.93292369155E+03 0.  0.
        -24    2    4    4    0    0  0.32884249662E+03  0.12136272167E+03 -0.10550497505E+04  0.11144871953E+04  0.78009196967E+02 0.  0.
         24    2    4    4    0    0 -0.34860363472E+03 -0.14647170561E+03 -0.16032950297E+03  0.41799912029E+03  0.77712678226E+02 0.  0.
         13    1    3    3    0    0  0.15111786670E+00  0.50536391551E+02 -0.84627087178E+03  0.84777847232E+03  0.00000000000E+00 0. -1.
        -13    1    3    3    0    0  0.19610020235E+02 -0.25427407619E+02 -0.15280487148E+03  0.15614235396E+03  0.00000000000E+00 0.  1.
          4    1    6    6  502    0 -0.12757192102E+03 -0.92310376528E+02 -0.50930344527E+02  0.16549834030E+03  0.00000000000E+00 0. -1.
          3    1    5    5  503    0  0.18576835212E+03  0.10914816517E+03 -0.64157947527E+03  0.67679201066E+03  0.00000000000E+00 0. -1.
         -4    1    5    5    0  503  0.14307414450E+03  0.12214556509E+02 -0.41347027522E+03  0.43769518469E+03  0.00000000000E+00 0.  1.
         -3    1    6    6    0  502 -0.22103171370E+03 -0.54161329078E+02 -0.10939915844E+03  0.25250077999E+03  0.00000000000E+00 0.  1.
<mgrwt>
<rscale>  0 0.12367499E+04</rscale>
<asrwt>0</asrwt>
<pdfrwt beam="1">  1        2 0.36545092E+00 0.12367499E+04</pdfrwt>
<pdfrwt beam="2">  1       -2 0.24765550E-01 0.12367499E+04</pdfrwt>
<totfact> 0.59244410E+01</totfact>
</mgrwt>
</event>
<event>
12    1  0.1467288E-007  0.1946238E+04  0.7818608E-02  0.8632177E-01
          1   -1    0    0  501    0  0.00000000000E+00  0.00000000000E+00  0.90887759421E+03  0.90887759421E+03  0.00000000000E+00 0. -1.
         -1   -1    0    0    0  501 -0.00000000000E+00 -0.00000000000E+00 -0.10419014346E+04  0.10419014346E+04  0.00000000000E+00 0.  1.
         23    2    1    2    0    0 -0.53312043501E+03  0.13973242621E+03 -0.58200554896E+03  0.80676977616E+03  0.91675861338E+02 0.  0.
        254    2    1    2    0    0  0.53312043501E+03 -0.13973242621E+03  0.44898170854E+03  0.11440092527E+04  0.89634259434E+03 0.  0.
        -24    2    4    4    0    0 -0.60070775060E+02  0.13490683042E+03 -0.17083336116E+03  0.23974470726E+03  0.80530344992E+02 0.  0.
         24    2    4    4    0    0  0.59319121007E+03 -0.27463925663E+03  0.61981506971E+03  0.90426454541E+03  0.78874041690E+02 0.  0.
         13    1    3    3    0    0 -0.49492598078E+02  0.41161875132E+02 -0.81203332132E+02  0.10362334861E+03  0.00000000000E+00 0. -1.
        -13    1    3    3    0    0 -0.48362783693E+03  0.98570551080E+02 -0.50080221683E+03  0.70314642755E+03  0.00000000000E+00 0.  1.
          2    1    6    6  502    0  0.23647141048E+03 -0.12591778270E+03  0.20525997794E+03  0.33749914744E+03  0.00000000000E+00 0. -1.
          1    1    5    5  503    0  0.17980452631E+01  0.26274843748E+02  0.20284486853E+01  0.26414295085E+02  0.00000000000E+00 0. -1.
         -2    1    5    5    0  503 -0.61868820323E+02  0.10863198667E+03 -0.17286180985E+03  0.21333041218E+03  0.00000000000E+00 0.  1.
         -1    1    6    6    0  502  0.35671979959E+03 -0.14872147393E+03  0.41455509176E+03  0.56676539797E+03  0.00000000000E+00 0.  1.
<mgrwt>
<rscale>  0 0.19462383E+04</rscale>
<asrwt>0</asrwt>
<pdfrwt beam="1">  1        1 0.13982732E+00 0.19462383E+04</pdfrwt>
<pdfrwt beam="2">  1       -1 0.16029253E+00 0.19462383E+04</pdfrwt>
<totfact> 0.48488692E+00</totfact>
</mgrwt>
</event>
<event>
12    1  0.1467288E-007  0.1648324E+04  0.7818608E-02  0.8791399E-01
         -2   -1    0    0    0  501 -0.00000000000E+00  0.00000000000E+00  0.22249865186E+03  0.22249865186E+03  0.00000000000E+00 0. -1.
          2   -1    0    0  501    0  0.00000000000E+00 -0.00000000000E+00 -0.30527943254E+04  0.30527943254E+04  0.00000000000E+00 0.  1.
         23    2    1    2    0    0 -0.27664130072E+02 -0.33133583228E+03 -0.19354755930E+04  0.19659219685E+04  0.90745124614E+02 0.  0.
        254    2    1    2    0    0  0.27664130072E+02  0.33133583228E+03 -0.89482008053E+03  0.13093710087E+04  0.89621466400E+03 0.  0.
        -24    2    4    4    0    0 -0.10705826637E+03 -0.25803967496E+03 -0.51366953052E+03  0.59021612116E+03  0.80328929096E+02 0.  0.
         24    2    4    4    0    0  0.13472239644E+03  0.58937550724E+03 -0.38115055002E+03  0.71915488750E+03  0.79964978630E+02 0.  0.
         13    1    3    3    0    0  0.11505002254E+02 -0.30123458058E+02 -0.35937747645E+03  0.36082122773E+03  0.00000000000E+00 0. -1.
        -13    1    3    3    0    0 -0.39169132326E+02 -0.30121237422E+03 -0.15760981165E+04  0.16051007408E+04  0.00000000000E+00 0.  1.
          4    1    6    6  502    0  0.13563428693E+03  0.57771136552E+03 -0.38436151967E+03  0.70702253107E+03  0.00000000000E+00 0. -1.
          1    1    5    5  503    0 -0.10724078669E+03 -0.18499293987E+03 -0.33792491833E+03  0.39989526699E+03  0.00000000000E+00 0. -1.
         -2    1    5    5    0  503  0.18252032618E+00 -0.73046735090E+02 -0.17574461219E+03  0.19032085418E+03  0.00000000000E+00 0.  1.
         -3    1    6    6    0  502 -0.91189049623E+00  0.11664141722E+02  0.32109696582E+01  0.12132356430E+02  0.00000000000E+00 0.  1.
<mgrwt>
<rscale>  0 0.16483235E+04</rscale>
<asrwt>0</asrwt>
<pdfrwt beam="1">  1        2 0.46966064E+00 0.16483235E+04</pdfrwt>
<pdfrwt beam="2">  1       -2 0.34230563E-01 0.16483235E+04</pdfrwt>
<totfact> 0.12388502E+01</totfact>
</mgrwt>
</event>
<event>
12    1  0.1467288E-007  0.1525220E+04  0.7818608E-02  0.8867853E-01
          2   -1    0    0  501    0  0.00000000000E+00  0.00000000000E+00  0.14966714402E+04  0.14966714402E+04  0.00000000000E+00 0. -1.
         -2   -1    0    0    0  501 -0.00000000000E+00 -0.00000000000E+00 -0.38857821465E+03  0.38857821465E+03  0.00000000000E+00 0.  1.
         23    2    1    2    0    0  0.12745323071E+03  0.56412034377E+02  0.95820342252E+03  0.97259383376E+03  0.91423863997E+02 0.  0.
        254    2    1    2    0    0 -0.12745323071E+03 -0.56412034377E+02  0.14988980303E+03  0.91265582108E+03  0.88940825893E+03 0.  0.
        -24    2    4    4    0    0  0.17650091629E+02 -0.43916572842E+03 -0.51182457846E+02  0.44938278244E+03  0.78403943811E+02 0.  0.
         24    2    4    4    0    0 -0.14510332234E+03  0.38275369405E+03  0.20107226087E+03  0.46327303864E+03  0.81464653553E+02 0.  0.
         13    1    3    3    0    0  0.46402787648E+02 -0.23875626476E+02  0.26964799404E+03  0.27465124236E+03  0.00000000000E+00 0.  1.
        -13    1    3    3    0    0  0.81050443066E+02  0.80287660853E+02  0.68855542848E+03  0.69794259140E+03  0.00000000000E+00 0. -1.
          4    1    6    6  502    0 -0.11339309904E+03  0.33512929762E+03  0.19922020759E+03  0.40602750171E+03  0.00000000000E+00 0. -1.
          3    1    5    5  503    0  0.12073404720E+02 -0.38145053200E+03 -0.70833583838E+02  0.38815933850E+03  0.00000000000E+00 0. -1.
         -4    1    5    5    0  503  0.55766869092E+01 -0.57715196422E+02  0.19651125992E+02  0.61223443938E+02  0.00000000000E+00 0.  1.
         -3    1    6    6    0  502 -0.31710223308E+02  0.47624396427E+02  0.18520532812E+01  0.57245536932E+02  0.00000000000E+00 0.  1.
<mgrwt>
<rscale>  0 0.15252199E+04</rscale>
<asrwt>0</asrwt>
<pdfrwt beam="1">  1        2 0.23025714E+00 0.15252199E+04</pdfrwt>
<pdfrwt beam="2">  1       -2 0.59781265E-01 0.15252199E+04</pdfrwt>
<totfact> 0.32085187E+01</totfact>
</mgrwt>
</event>
<event>
12    1  0.1467288E-007  0.1653037E+04  0.7818608E-02  0.8788612E-01
         -2   -1    0    0    0  501 -0.00000000000E+00  0.00000000000E+00  0.47296237503E+03  0.47296237503E+03  0.00000000000E+00 0.  1.
          2   -1    0    0  501    0  0.00000000000E+00 -0.00000000000E+00 -0.14443698677E+04  0.14443698677E+04  0.00000000000E+00 0. -1.
         23    2    1    2    0    0 -0.18825151992E+03 -0.11760620450E+03  0.28375217233E+03  0.37154846780E+03  0.90901675104E+02 0.  0.
        254    2    1    2    0    0  0.18825151992E+03  0.11760620450E+03 -0.12551596650E+04  0.15457837750E+04  0.87450090917E+03 0.  0.
        -24    2    4    4    0    0 -0.23353934784E+03 -0.47608753249E+02 -0.97565636547E+03  0.10075182727E+04  0.79878069770E+02 0.  0.
         24    2    4    4    0    0  0.42179086776E+03  0.16521495775E+03 -0.27950329954E+03  0.53826550222E+03  0.80025858559E+02 0.  0.
         13    1    3    3    0    0 -0.34966824051E+02 -0.68471896766E+02  0.11503338373E+03  0.13836097283E+03  0.00000000000E+00 0. -1.
        -13    1    3    3    0    0 -0.15328469587E+03 -0.49134307735E+02  0.16871878859E+03  0.23318749497E+03  0.00000000000E+00 0.  1.
          2    1    6    6  502    0  0.26198632546E+03  0.10144768376E+03 -0.12685556910E+03  0.30825444471E+03  0.00000000000E+00 0. -1.
          3    1    5    5  503    0 -0.13297547144E+03  0.66213300050E+01 -0.61290703930E+03  0.62720120921E+03  0.00000000000E+00 0. -1.
         -4    1    5    5    0  503 -0.10056387639E+03 -0.54230083254E+02 -0.36274932618E+03  0.38031706352E+03  0.00000000000E+00 0.  1.
         -3    1    6    6    0  502  0.15980454229E+03  0.63767273990E+02 -0.15264773044E+03  0.23001105751E+03  0.00000000000E+00 0.  1.
<mgrwt>
<rscale>  0 0.16530367E+04</rscale>
<asrwt>0</asrwt>
<pdfrwt beam="1">  1        2 0.22221075E+00 0.16530367E+04</pdfrwt>
<pdfrwt beam="2">  1       -2 0.72763442E-01 0.16530367E+04</pdfrwt>
<totfact> 0.22258199E+01</totfact>
</mgrwt>
</event>
<event>
12    1  0.1467288E-007  0.1965145E+04  0.7818608E-02  0.8623092E-01
         -2   -1    0    0    0  501 -0.00000000000E+00  0.00000000000E+00  0.73412197857E+03  0.73412197857E+03  0.00000000000E+00 0. -1.
          2   -1    0    0  501    0  0.00000000000E+00 -0.00000000000E+00 -0.13151068830E+04  0.13151068830E+04  0.00000000000E+00 0.  1.
         23    2    1    2    0    0 -0.35156391652E+03  0.48493718889E+02  0.48797020151E+03  0.61026724555E+03  0.91445969034E+02 0.  0.
        254    2    1    2    0    0  0.35156391652E+03 -0.48493718889E+02 -0.10689551059E+04  0.14389616160E+04  0.89554267666E+03 0.  0.
        -24    2    4    4    0    0 -0.24598567908E+03 -0.12552054529E+03 -0.62055787890E+03  0.68374060849E+03  0.78388628249E+02 0.  0.
         24    2    4    4    0    0  0.59754959560E+03  0.77026826397E+02 -0.44839722705E+03  0.75522100754E+03  0.79372827940E+02 0.  0.
         11    1    3    3    0    0 -0.31286666407E+03  0.65262748852E+02  0.39444547431E+03  0.50767313113E+03  0.00000000000E+00 0. -1.
        -11    1    3    3    0    0 -0.38697252445E+02 -0.16769029963E+02  0.93524727207E+02  0.10259411441E+03  0.00000000000E+00 0.  1.
          4    1    6    6  502    0  0.14180347704E+03 -0.10857945003E+02 -0.84447959225E+02  0.16540126628E+03  0.00000000000E+00 0. -1.
          1    1    5    5  503    0 -0.52332249646E+02 -0.84653959157E+01 -0.65064002262E+02  0.83926465858E+02  0.00000000000E+00 0. -1.
         -2    1    5    5    0  503 -0.19365342944E+03 -0.11705514937E+03 -0.55549387663E+03  0.59981414263E+03  0.00000000000E+00 0.  1.
         -3    1    6    6    0  502  0.45574611856E+03  0.87884771400E+02 -0.36394926783E+03  0.58981974126E+03  0.00000000000E+00 0.  1.
<mgrwt>
<rscale>  0 0.19651452E+04</rscale>
<asrwt>0</asrwt>
<pdfrwt beam="1">  1        2 0.20232414E+00 0.19651452E+04</pdfrwt>
<pdfrwt beam="2">  1       -2 0.11294184E+00 0.19651452E+04</pdfrwt>
<totfact> 0.93019472E+00</totfact>
</mgrwt>
</event>
<event>
12    1  0.1467288E-007  0.2158989E+04  0.7818608E-02  0.8535694E-01
         -2   -1    0    0    0  501 -0.00000000000E+00  0.00000000000E+00  0.50367170662E+03  0.50367170662E+03  0.00000000000E+00 0.  1.
          2   -1    0    0  501    0  0.00000000000E+00 -0.00000000000E+00 -0.23136271386E+04  0.23136271386E+04  0.00000000000E+00 0. -1.
         23    2    1    2    0    0 -0.87294395300E+03  0.16759925312E+03 -0.78915160569E+03  0.11923776198E+04  0.94252197425E+02 0.  0.
        254    2    1    2    0    0  0.87294395300E+03 -0.16759925312E+03 -0.10208038263E+04  0.16249212255E+04  0.89900382778E+03 0.  0.
        -24    2    4    4    0    0  0.66356844157E+03 -0.96312510892E+02 -0.11002685154E+03  0.68429356629E+03  0.80948134063E+02 0.  0.
         24    2    4    4    0    0  0.20937551143E+03 -0.71286742231E+02 -0.91077697479E+03  0.94062765917E+03  0.79660473106E+02 0.  0.
         13    1    3    3    0    0 -0.36019355891E+03  0.46402571636E+02 -0.26848491123E+03  0.45163784839E+03  0.00000000000E+00 0.  1.
        -13    1    3    3    0    0 -0.51275039408E+03  0.12119668149E+03 -0.52066669446E+03  0.74073977141E+03  0.00000000000E+00 0. -1.
          4    1    6    6  502    0  0.15159408501E+03 -0.60200467554E+02 -0.78504499058E+03  0.80181076329E+03  0.00000000000E+00 0. -1.
          3    1    5    5  503    0  0.57448687780E+03 -0.10446496851E+03 -0.11321875508E+03  0.59478280818E+03  0.00000000000E+00 0. -1.
         -4    1    5    5    0  503  0.89081563773E+02  0.81524576169E+01  0.31919035411E+01  0.89510758111E+02  0.00000000000E+00 0.  1.
         -3    1    6    6    0  502  0.57781426420E+02 -0.11086274677E+02 -0.12573198421E+03  0.13881689587E+03  0.00000000000E+00 0.  1.
<mgrwt>
<rscale>  0 0.21589891E+04</rscale>
<asrwt>0</asrwt>
<pdfrwt beam="1">  1        2 0.35594263E+00 0.21589891E+04</pdfrwt>
<pdfrwt beam="2">  1       -2 0.77487957E-01 0.21589891E+04</pdfrwt>
<totfact> 0.60645275E+00</totfact>
</mgrwt>
</event>
<event>
12    1  0.1467288E-007  0.1145836E+04  0.7818608E-02  0.9161633E-01
         -1   -1    0    0    0  501 -0.00000000000E+00  0.00000000000E+00  0.16975311279E+03  0.16975311279E+03  0.00000000000E+00 0.  1.
          1   -1    0    0  501    0  0.00000000000E+00 -0.00000000000E+00 -0.19336035439E+04  0.19336035439E+04  0.00000000000E+00 0. -1.
         23    2    1    2    0    0  0.12066350316E+03  0.16094998878E+03 -0.40466361093E+03  0.46103030189E+03  0.91278263381E+02 0.  0.
        254    2    1    2    0    0 -0.12066350316E+03 -0.16094998878E+03 -0.13591868201E+04  0.16423263548E+04  0.89965685882E+03 0.  0.
        -24    2    4    4    0    0  0.10923562406E+02 -0.50911077882E+03 -0.59056554286E+03  0.78382982932E+03  0.79425635627E+02 0.  0.
         24    2    4    4    0    0 -0.13158706556E+03  0.34816079004E+03 -0.76862127729E+03  0.85849652545E+03  0.87786814289E+02 0.  0.
         11    1    3    3    0    0  0.10166030419E+03  0.12685134120E+03 -0.22746336174E+03  0.27958122459E+03  0.00000000000E+00 0. -1.
        -11    1    3    3    0    0  0.19003198971E+02  0.34098647581E+02 -0.17720024919E+03  0.18144907730E+03  0.00000000000E+00 0.  1.
          2    1    6    6  502    0 -0.91864305678E+02  0.31990223266E+03 -0.65025719899E+03  0.73048676508E+03  0.00000000000E+00 0. -1.
          1    1    5    5  503    0 -0.10595050051E+02 -0.38982271924E+03 -0.49063483872E+03  0.62673483427E+03  0.00000000000E+00 0. -1.
         -2    1    5    5    0  503  0.21518612457E+02 -0.11928805958E+03 -0.99930704139E+02  0.15709499505E+03  0.00000000000E+00 0.  1.
         -1    1    6    6    0  502 -0.39722759887E+02  0.28258557376E+02 -0.11836407829E+03  0.12800976036E+03  0.00000000000E+00 0.  1.
<mgrwt>
<rscale>  0 0.11458363E+04</rscale>
<asrwt>0</asrwt>
<pdfrwt beam="1">  1        1 0.29747747E+00 0.11458363E+04</pdfrwt>
<pdfrwt beam="2">  1       -1 0.26115864E-01 0.11458363E+04</pdfrwt>
<totfact> 0.42749810E+01</totfact>
</mgrwt>
</event>
<event>
12    1  0.1467288E-007  0.1246031E+04  0.7818608E-02  0.9073493E-01
          1   -1    0    0  501    0  0.00000000000E+00  0.00000000000E+00  0.29503031953E+04  0.29503031953E+04  0.00000000000E+00 0. -1.
         -1   -1    0    0    0  501 -0.00000000000E+00 -0.00000000000E+00 -0.13156221310E+03  0.13156221310E+03  0.00000000000E+00 0.  1.
         23    2    1    2    0    0  0.11566901953E+03  0.85223508486E+02  0.61960767971E+02  0.18006322642E+03  0.89113749006E+02 0.  0.
        254    2    1    2    0    0 -0.11566901953E+03 -0.85223508486E+02  0.27567802142E+04  0.29018021820E+04  0.89441398989E+03 0.  0.
        -24    2    4    4    0    0 -0.44004161778E+03 -0.63591462619E+01  0.81212517352E+03  0.92712538248E+03  0.79605987586E+02 0.  0.
         24    2    4    4    0    0  0.32437259825E+03 -0.78864362224E+02  0.19446550407E+04  0.19746767995E+04  0.78918090511E+02 0.  0.
         11    1    3    3    0    0  0.11085718786E+02 -0.18484873667E+02  0.48540708606E+01  0.22094019992E+02  0.00000000000E+00 0. -1.
        -11    1    3    3    0    0  0.10458330075E+03  0.10370838215E+03  0.57106697110E+02  0.15796920643E+03  0.00000000000E+00 0.  1.
          2    1    6    6  502    0  0.93891510240E+02  0.11506287261E+02  0.47709886303E+03  0.48638599430E+03  0.00000000000E+00 0. -1.
          3    1    5    5  503    0 -0.13120590978E+03  0.17352508428E+02  0.31115325082E+03  0.33813081168E+03  0.00000000000E+00 0. -1.
         -4    1    5    5    0  503 -0.30883570800E+03 -0.23711654690E+02  0.50097192270E+03  0.58899457080E+03  0.00000000000E+00 0.  1.
         -1    1    6    6    0  502  0.23048108801E+03 -0.90370649485E+02  0.14675561776E+04  0.14882908052E+04  0.00000000000E+00 0.  1.
<mgrwt>
<rscale>  0 0.12460312E+04</rscale>
<asrwt>0</asrwt>
<pdfrwt beam="1">  1        1 0.45389275E+00 0.12460312E+04</pdfrwt>
<pdfrwt beam="2">  1       -1 0.20240343E-01 0.12460312E+04</pdfrwt>
<totfact> 0.12989450E+01</totfact>
</mgrwt>
</event>
<event>
12    1  0.1467288E-007  0.2775306E+04  0.7818608E-02  0.8310976E-01
          2   -1    0    0  501    0  0.00000000000E+00  0.00000000000E+00  0.18880328148E+04  0.18880328148E+04  0.00000000000E+00 0.  1.
         -2   -1    0    0    0  501 -0.00000000000E+00 -0.00000000000E+00 -0.10198877012E+04  0.10198877012E+04  0.00000000000E+00 0. -1.
         23    2    1    2    0    0  0.25047744297E+02 -0.12324446947E+04  0.39817772695E+03  0.12986604486E+04  0.91794027615E+02 0.  0.
        254    2    1    2    0    0 -0.25047744297E+02  0.12324446947E+04  0.46996738663E+03  0.16092600674E+04  0.92157544730E+03 0.  0.
        -24    2    4    4    0    0 -0.10687660501E+03  0.92579838204E+01 -0.17526315769E+03  0.22161399546E+03  0.82989575130E+02 0.  0.
         24    2    4    4    0    0  0.81828860713E+02  0.12231867109E+04  0.64523054431E+03  0.13876460720E+04  0.79733766629E+02 0.  0.
         13    1    3    3    0    0 -0.16769883891E+02 -0.24099942523E+03  0.10917505221E+03  0.26510591090E+03  0.00000000000E+00 0. -1.
        -13    1    3    3    0    0  0.41817628188E+02 -0.99144526950E+03  0.28900267474E+03  0.10335545377E+04  0.00000000000E+00 0.  1.
          2    1    6    6  502    0  0.42123749495E+02  0.19774584884E+03  0.11340426344E+03  0.23181535318E+03  0.00000000000E+00 0. -1.
          3    1    5    5  503    0 -0.28170202688E+02  0.13260393259E+02 -0.19166262334E+01  0.31194098881E+02  0.00000000000E+00 0. -1.
         -4    1    5    5    0  503 -0.78706402322E+02 -0.40024094388E+01 -0.17334653145E+03  0.19041989658E+03  0.00000000000E+00 0.  1.
         -1    1    6    6    0  502  0.39705111219E+02  0.10254408621E+04  0.53182628087E+03  0.11558307188E+04  0.00000000000E+00 0.  1.
<mgrwt>
<rscale>  0 0.27753064E+04</rscale>
<asrwt>0</asrwt>
<pdfrwt beam="1">  1        2 0.29046659E+00 0.27753064E+04</pdfrwt>
<pdfrwt beam="2">  1       -2 0.15690580E+00 0.27753064E+04</pdfrwt>
<totfact> 0.17859128E+00</totfact>
</mgrwt>
</event>
<event>
12    1  0.1467288E-007  0.1367108E+04  0.7818608E-02  0.8977978E-01
          2   -1    0    0  501    0  0.00000000000E+00  0.00000000000E+00  0.21009171807E+04  0.21009171807E+04  0.00000000000E+00 0. -1.
         -2   -1    0    0    0  501 -0.00000000000E+00 -0.00000000000E+00 -0.22240095654E+03  0.22240095654E+03  0.00000000000E+00 0.  1.
         23    2    1    2    0    0 -0.16064797837E+03 -0.34691422672E+03  0.60941443362E+03  0.72506356223E+03  0.90409975782E+02 0.  0.
        254    2    1    2    0    0  0.16064797837E+03  0.34691422672E+03  0.12691017905E+04  0.15982545750E+04  0.89310754006E+03 0.  0.
        -24    2    4    4    0    0  0.31879957467E+03  0.12564491102E+03  0.12661076015E+04  0.13139626111E+04  0.77778353108E+02 0.  0.
         24    2    4    4    0    0 -0.15815159630E+03  0.22126931570E+03  0.29941889694E+01  0.28429196388E+03  0.82709842702E+02 0.  0.
         13    1    3    3    0    0 -0.56136308314E+02 -0.66083614918E+02  0.19744242900E+03  0.21564285762E+03  0.00000000000E+00 0.  1.
        -13    1    3    3    0    0 -0.10451167006E+03 -0.28083061180E+03  0.41197200462E+03  0.50942070462E+03  0.00000000000E+00 0. -1.
          4    1    6    6  502    0 -0.73256687372E+02  0.89852980000E+02  0.41560888729E+02  0.12315603002E+03  0.00000000000E+00 0. -1.
          3    1    5    5  503    0  0.57480931446E+01  0.78298932408E+01  0.94522360754E+01  0.13553323201E+02  0.00000000000E+00 0. -1.
         -2    1    5    5    0  503  0.31305148153E+03  0.11781501778E+03  0.12566553654E+04  0.13004092879E+04  0.00000000000E+00 0.  1.
         -3    1    6    6    0  502 -0.84894908926E+02  0.13141633570E+03 -0.38566699760E+02  0.16113593386E+03  0.00000000000E+00 0.  1.
<mgrwt>
<rscale>  0 0.13671079E+04</rscale>
<asrwt>0</asrwt>
<pdfrwt beam="1">  1        2 0.32321801E+00 0.13671079E+04</pdfrwt>
<pdfrwt beam="2">  1       -2 0.34215533E-01 0.13671079E+04</pdfrwt>
<totfact> 0.45859766E+01</totfact>
</mgrwt>
</event>
<event>
12    1  0.1467288E-007  0.1708827E+04  0.7818608E-02  0.8756346E-01
         -1   -1    0    0    0  501 -0.00000000000E+00  0.00000000000E+00  0.82079303430E+03  0.82079303430E+03  0.00000000000E+00 0.  1.
          1   -1    0    0  501    0  0.00000000000E+00 -0.00000000000E+00 -0.88941093977E+03  0.88941093977E+03  0.00000000000E+00 0. -1.
         23    2    1    2    0    0 -0.25777583492E+03  0.22276205374E+03  0.48942904970E+03  0.60349241715E+03  0.92687589327E+02 0.  0.
        254    2    1    2    0    0  0.25777583492E+03 -0.22276205374E+03 -0.55804695517E+03  0.11067115569E+04  0.89292930985E+03 0.  0.
        -24    2    4    4    0    0 -0.27345131176E+03  0.13043245914E+03 -0.18222021786E+03  0.36201132653E+03  0.77844373201E+02 0.  0.
         24    2    4    4    0    0  0.53122714668E+03 -0.35319451288E+03 -0.37582673731E+03  0.74470023039E+03  0.79900258889E+02 0.  0.
         11    1    3    3    0    0 -0.25659978265E+02  0.51459176426E+02  0.13334481152E+03  0.14521473783E+03  0.00000000000E+00 0. -1.
        -11    1    3    3    0    0 -0.23211585666E+03  0.17130287731E+03  0.35608423818E+03  0.45827767932E+03  0.00000000000E+00 0.  1.
          2    1    6    6  502    0  0.51578207102E+03 -0.34289733869E+03 -0.37862934362E+03  0.72592693125E+03  0.00000000000E+00 0. -1.
          1    1    5    5  503    0 -0.13886126654E+03  0.95611844091E+02 -0.66889833479E+02  0.18137895660E+03  0.00000000000E+00 0. -1.
         -2    1    5    5    0  503 -0.13459004522E+03  0.34820615054E+02 -0.11533038438E+03  0.18063236992E+03  0.00000000000E+00 0.  1.
         -1    1    6    6    0  502  0.15445075656E+02 -0.10297174192E+02  0.28026063122E+01  0.18773299137E+02  0.00000000000E+00 0.  1.
<mgrwt>
<rscale>  0 0.17088269E+04</rscale>
<asrwt>0</asrwt>
<pdfrwt beam="1">  1        1 0.13683245E+00 0.17088269E+04</pdfrwt>
<pdfrwt beam="2">  1       -1 0.12627585E+00 0.17088269E+04</pdfrwt>
<totfact> 0.96344293E+00</totfact>
</mgrwt>
</event>
<event>
12    1  0.1467288E-007  0.1560440E+04  0.7818608E-02  0.8845227E-01
          2   -1    0    0  501    0  0.00000000000E+00  0.00000000000E+00  0.18294386416E+04  0.18294386416E+04  0.00000000000E+00 0. -1.
         -2   -1    0    0    0  501 -0.00000000000E+00 -0.00000000000E+00 -0.33274857176E+03  0.33274857176E+03  0.00000000000E+00 0.  1.
         23    2    1    2    0    0 -0.95160943313E+02  0.36705688694E+03  0.99183588916E+03  0.10657607411E+04  0.91220408190E+02 0.  0.
        254    2    1    2    0    0  0.95160943313E+02 -0.36705688694E+03  0.50485418071E+03  0.10964264723E+04  0.89637430908E+03 0.  0.
        -24    2    4    4    0    0  0.89427697429E+02  0.26081479719E+03  0.33478675375E+03  0.44105682651E+03  0.80170332567E+02 0.  0.
         24    2    4    4    0    0  0.57332458837E+01 -0.62787168413E+03  0.17006742696E+03  0.65536964579E+03  0.79565828527E+02 0.  0.
         11    1    3    3    0    0 -0.78150859184E+02  0.13474139983E+03  0.35539005025E+03  0.38802691844E+03  0.00000000000E+00 0.  1.
        -11    1    3    3    0    0 -0.17010084128E+02  0.23231548710E+03  0.63644583891E+03  0.67773382266E+03  0.00000000000E+00 0. -1.
          4    1    6    6  502    0 -0.37191389843E+00  0.16306792811E+01 -0.21332912683E+01  0.27107870630E+01  0.00000000000E+00 0. -1.
          3    1    5    5  503    0  0.42607982765E+02  0.32562898924E+02  0.73251607243E+02  0.90783151219E+02  0.00000000000E+00 0. -1.
         -4    1    5    5    0  503  0.46819714664E+02  0.22825189827E+03  0.26153514650E+03  0.35027367529E+03  0.00000000000E+00 0.  1.
         -3    1    6    6    0  502  0.61051597821E+01 -0.62950236341E+03  0.17220071823E+03  0.65265885872E+03  0.00000000000E+00 0.  1.
<mgrwt>
<rscale>  0 0.15604398E+04</rscale>
<asrwt>0</asrwt>
<pdfrwt beam="1">  1        2 0.28145209E+00 0.15604398E+04</pdfrwt>
<pdfrwt beam="2">  1       -2 0.51192089E-01 0.15604398E+04</pdfrwt>
<totfact> 0.28821513E+01</totfact>
</mgrwt>
</event>
<event>
12    1  0.1467288E-007  0.1632726E+04  0.7818608E-02  0.8800692E-01
          2   -1    0    0  501    0  0.00000000000E+00  0.00000000000E+00  0.14560385371E+04  0.14560385371E+04  0.00000000000E+00 0.  1.
         -2   -1    0    0    0  501 -0.00000000000E+00 -0.00000000000E+00 -0.45771347727E+03  0.45771347727E+03  0.00000000000E+00 0. -1.
         23    2    1    2    0    0 -0.26344884906E+03 -0.23889370445E+03 -0.16967064993E+03  0.40442067254E+03  0.91062905932E+02 0.  0.
        254    2    1    2    0    0  0.26344884906E+03  0.23889370445E+03  0.11679957098E+04  0.15093313419E+04  0.88735090202E+03 0.  0.
        -24    2    4    4    0    0  0.45060481393E+03  0.83582022199E+02  0.11633175026E+04  0.12529652677E+04  0.81139986759E+02 0.  0.
         24    2    4    4    0    0 -0.18715596487E+03  0.15531168225E+03  0.46782072203E+01  0.25636607417E+03  0.80948159558E+02 0.  0.
         11    1    3    3    0    0 -0.15904092681E+03 -0.15696810035E+03 -0.15265152429E+03  0.27062056240E+03  0.00000000000E+00 0.  1.
        -11    1    3    3    0    0 -0.10440792226E+03 -0.81925604097E+02 -0.17019125640E+02  0.13380011014E+03  0.00000000000E+00 0. -1.
          2    1    6    6  502    0 -0.64695605087E+02  0.99822456564E+01 -0.77311679771E+01  0.65916139937E+02  0.00000000000E+00 0. -1.
          3    1    5    5  503    0  0.86922938868E+02  0.33928394149E+02  0.16880314927E+03  0.19287622050E+03  0.00000000000E+00 0. -1.
         -4    1    5    5    0  503  0.36368187506E+03  0.49653628050E+02  0.99451435332E+03  0.10600890472E+04  0.00000000000E+00 0.  1.
         -1    1    6    6    0  502 -0.12246035978E+03  0.14532943659E+03  0.12409375197E+02  0.19044993423E+03  0.00000000000E+00 0.  1.
<mgrwt>
<rscale>  0 0.16327259E+04</rscale>
<asrwt>0</asrwt>
<pdfrwt beam="1">  1        2 0.22400593E+00 0.16327259E+04</pdfrwt>
<pdfrwt beam="2">  1       -2 0.70417459E-01 0.16327259E+04</pdfrwt>
<totfact> 0.23593741E+01</totfact>
</mgrwt>
</event>
<event>
12    1  0.1467288E-007  0.1712679E+04  0.7818608E-02  0.8754166E-01
         -1   -1    0    0    0  501 -0.00000000000E+00  0.00000000000E+00  0.65308331032E+03  0.65308331032E+03  0.00000000000E+00 0.  1.
          1   -1    0    0  501    0  0.00000000000E+00 -0.00000000000E+00 -0.11228546366E+04  0.11228546366E+04  0.00000000000E+00 0. -1.
         23    2    1    2    0    0 -0.21822749805E+03 -0.57473298608E+03 -0.50896118113E+02  0.62363191927E+03  0.91570244607E+02 0.  0.
        254    2    1    2    0    0  0.21822749805E+03  0.57473298608E+03 -0.41887520821E+03  0.11523060277E+04  0.88000653135E+03 0.  0.
        -24    2    4    4    0    0  0.17836641222E+01 -0.22250622971E+03 -0.38840532325E+02  0.23894214069E+03  0.77926606029E+02 0.  0.
         24    2    4    4    0    0  0.21644383393E+03  0.79723921579E+03 -0.38003467589E+03  0.91336388701E+03  0.85842499801E+02 0.  0.
         13    1    3    3    0    0 -0.93779977206E+02 -0.32993990228E+03  0.65767244763E+01  0.34307182418E+03  0.00000000000E+00 0. -1.
        -13    1    3    3    0    0 -0.12444752085E+03 -0.24479308380E+03 -0.57472842589E+02  0.28056009509E+03  0.00000000000E+00 0.  1.
          2    1    6    6  502    0  0.60029929677E+02  0.17646937116E+03 -0.49325192769E+02  0.19281599014E+03  0.00000000000E+00 0. -1.
          1    1    5    5  503    0  0.14389722882E+02 -0.10870074613E+03 -0.56066968141E+02  0.12315202496E+03  0.00000000000E+00 0. -1.
         -2    1    5    5    0  503 -0.12606058760E+02 -0.11380548358E+03  0.17226435816E+02  0.11579011573E+03  0.00000000000E+00 0.  1.
         -1    1    6    6    0  502  0.15641390425E+03  0.62076984464E+03 -0.33070948312E+03  0.72054789687E+03  0.00000000000E+00 0.  1.
<mgrwt>
<rscale>  0 0.17126793E+04</rscale>
<asrwt>0</asrwt>
<pdfrwt beam="1">  1        1 0.17274686E+00 0.17126793E+04</pdfrwt>
<pdfrwt beam="2">  1       -1 0.10047436E+00 0.17126793E+04</pdfrwt>
<totfact> 0.10924449E+01</totfact>
</mgrwt>
</event>
<event>
12    1  0.1467288E-007  0.1836898E+04  0.7818608E-02  0.8686920E-01
         -2   -1    0    0    0  501 -0.00000000000E+00  0.00000000000E+00  0.90920368293E+03  0.90920368293E+03  0.00000000000E+00 0.  1.
          2   -1    0    0  501    0  0.00000000000E+00 -0.00000000000E+00 -0.92778808714E+03  0.92778808714E+03  0.00000000000E+00 0. -1.
         23    2    1    2    0    0 -0.54536616275E+03 -0.51344291638E+02 -0.42245480151E+03  0.70080209928E+03  0.11222760478E+03 0.  0.
        254    2    1    2    0    0  0.54536616275E+03  0.51344291638E+02  0.40387039730E+03  0.11361896708E+04  0.90981052007E+03 0.  0.
        -24    2    4    4    0    0 -0.41699865365E+02 -0.33795506634E+03  0.17704324419E+03  0.39162627241E+03  0.77937932276E+02 0.  0.
         24    2    4    4    0    0  0.58706602812E+03  0.38929935798E+03  0.22682715311E+03  0.74456339838E+03  0.81997471454E+02 0.  0.
         11    1    3    3    0    0 -0.53179583047E+03 -0.30747519832E+02 -0.41427577408E+03  0.67481599883E+03  0.00000000000E+00 0. -1.
        -11    1    3    3    0    0 -0.13570332284E+02 -0.20596771806E+02 -0.81790274314E+01  0.25986100455E+02  0.00000000000E+00 0.  1.
          4    1    6    6  502    0  0.56436832810E+03  0.36086888146E+03  0.22945936322E+03  0.70808866588E+03  0.00000000000E+00 0. -1.
          3    1    5    5  503    0 -0.64330912303E+02 -0.22000089989E+03  0.11525437173E+03  0.25655882841E+03  0.00000000000E+00 0. -1.
         -4    1    5    5    0  503  0.22631046937E+02 -0.11795416645E+03  0.61788872459E+02  0.13506744400E+03  0.00000000000E+00 0.  1.
         -3    1    6    6    0  502  0.22697700015E+02  0.28430476517E+02 -0.26322101144E+01  0.36474732501E+02  0.00000000000E+00 0.  1.
<mgrwt>
<rscale>  0 0.18368978E+04</rscale>
<asrwt>0</asrwt>
<pdfrwt beam="1">  1        2 0.14273663E+00 0.18368978E+04</pdfrwt>
<pdfrwt beam="2">  1       -2 0.13987749E+00 0.18368978E+04</pdfrwt>
<totfact> 0.95157969E+00</totfact>
</mgrwt>
</event>
<event>
12    1  0.1467288E-007  0.1214042E+04  0.7818608E-02  0.9100653E-01
         -3   -1    0    0    0  501 -0.00000000000E+00  0.00000000000E+00  0.41774168016E+03  0.41774168016E+03  0.00000000000E+00 0.  1.
          3   -1    0    0  501    0  0.00000000000E+00 -0.00000000000E+00 -0.88206362522E+03  0.88206362522E+03  0.00000000000E+00 0. -1.
         23    2    1    2    0    0 -0.17172213999E+03 -0.16761205991E+03 -0.51372636293E+00  0.26388980709E+03  0.10979649530E+03 0.  0.
        254    2    1    2    0    0  0.17172213999E+03  0.16761205991E+03 -0.46380821870E+03  0.10359154983E+04  0.89466226023E+03 0.  0.
        -24    2    4    4    0    0  0.33255607024E+03 -0.75796377145E+02  0.12685686377E+03  0.37231223220E+03  0.78645430363E+02 0.  0.
         24    2    4    4    0    0 -0.16083393025E+03  0.24340843706E+03 -0.59066508247E+03  0.66360326610E+03  0.79804979660E+02 0.  0.
         13    1    3    3    0    0 -0.16520059841E+03 -0.10097819475E+03 -0.18680030821E+02  0.19451677841E+03  0.00000000000E+00 0. -1.
        -13    1    3    3    0    0 -0.65215415812E+01 -0.66633865163E+02  0.18166304458E+02  0.69373028684E+02  0.00000000000E+00 0.  1.
          2    1    6    6  502    0 -0.14213664596E+03  0.16000028911E+03 -0.37762802514E+03  0.43405742018E+03  0.00000000000E+00 0. -1.
          3    1    5    5  503    0  0.18977279071E+03 -0.22886488728E+02  0.34543551328E+02  0.19424407429E+03  0.00000000000E+00 0. -1.
         -4    1    5    5    0  503  0.14278327953E+03 -0.52909888417E+02  0.92313312439E+02  0.17806815791E+03  0.00000000000E+00 0.  1.
         -1    1    6    6    0  502 -0.18697284285E+02  0.83408147945E+02 -0.21303705733E+03  0.22954584592E+03  0.00000000000E+00 0.  1.
<mgrwt>
<rscale>  0 0.12140424E+04</rscale>
<asrwt>0</asrwt>
<pdfrwt beam="1">  1        3 0.13570210E+00 0.12140424E+04</pdfrwt>
<pdfrwt beam="2">  1       -3 0.64267951E-01 0.12140424E+04</pdfrwt>
<totfact> 0.25335941E+00</totfact>
</mgrwt>
</event>
<event>
12    1  0.1467288E-007  0.1407842E+04  0.7818608E-02  0.8948161E-01
         -2   -1    0    0    0  501 -0.00000000000E+00  0.00000000000E+00  0.70766464648E+03  0.70766464648E+03  0.00000000000E+00 0.  1.
          2   -1    0    0  501    0  0.00000000000E+00 -0.00000000000E+00 -0.70019754436E+03  0.70019754436E+03  0.00000000000E+00 0. -1.
         23    2    1    2    0    0  0.39735176308E+03  0.94793691290E+02  0.98249000625E+02  0.42986820722E+03  0.90882022032E+02 0.  0.
        254    2    1    2    0    0 -0.39735176308E+03 -0.94793691290E+02 -0.90781898497E+02  0.97799398362E+03  0.88394378292E+03 0.  0.
        -24    2    4    4    0    0  0.10421924383E+03 -0.47110713450E+02  0.30306385022E+03  0.33364451229E+03  0.79936807330E+02 0.  0.
         24    2    4    4    0    0 -0.50157100691E+03 -0.47682977840E+02 -0.39384574872E+03  0.64434947132E+03  0.78896299415E+02 0.  0.
         11    1    3    3    0    0  0.21799850512E+03  0.75018710224E+02  0.14671015905E+02  0.23101167466E+03  0.00000000000E+00 0. -1.
        -11    1    3    3    0    0  0.17935325795E+03  0.19774981066E+02  0.83577984720E+02  0.19885653257E+03  0.00000000000E+00 0.  1.
          2    1    6    6  502    0 -0.28123735635E+02  0.82793432298E+01 -0.44588844771E+02  0.53363443558E+02  0.00000000000E+00 0. -1.
          3    1    5    5  503    0 -0.49549610062E+01 -0.28163784373E+02  0.68291916128E+02  0.74037397288E+02  0.00000000000E+00 0. -1.
         -4    1    5    5    0  503  0.10917420484E+03 -0.18946929077E+02  0.23477193409E+03  0.25960711501E+03  0.00000000000E+00 0.  1.
         -1    1    6    6    0  502 -0.47344727128E+03 -0.55962321070E+02 -0.34925690395E+03  0.59098602776E+03  0.00000000000E+00 0.  1.
<mgrwt>
<rscale>  0 0.14078424E+04</rscale>
<asrwt>0</asrwt>
<pdfrwt beam="1">  1        2 0.10772270E+00 0.14078424E+04</pdfrwt>
<pdfrwt beam="2">  1       -2 0.10887148E+00 0.14078424E+04</pdfrwt>
<totfact> 0.26841466E+01</totfact>
</mgrwt>
</event>
<event>
12    1  0.1467288E-007  0.3345022E+04  0.7818608E-02  0.8151533E-01
          2   -1    0    0  501    0  0.00000000000E+00  0.00000000000E+00  0.25964571133E+04  0.25964571133E+04  0.00000000000E+00 0.  1.
         -2   -1    0    0    0  501 -0.00000000000E+00 -0.00000000000E+00 -0.10773501439E+04  0.10773501439E+04  0.00000000000E+00 0. -1.
         23    2    1    2    0    0 -0.46632936864E+03 -0.14425830358E+04  0.11168373846E+04  0.18854859170E+04  0.96033869755E+02 0.  0.
        254    2    1    2    0    0  0.46632936864E+03  0.14425830358E+04  0.40226958476E+03  0.17883213402E+04  0.85893160480E+03 0.  0.
        -24    2    4    4    0    0  0.33411838875E+03  0.13185523277E+04  0.61736217355E+03  0.14958945078E+04  0.79680528035E+02 0.  0.
         24    2    4    4    0    0  0.13221097989E+03  0.12403070808E+03 -0.21509258879E+03  0.29242683238E+03  0.79907889409E+02 0.  0.
         11    1    3    3    0    0 -0.95258589733E+02 -0.43644801502E+03  0.32422382257E+03  0.55198021328E+03  0.00000000000E+00 0. -1.
        -11    1    3    3    0    0 -0.37107077891E+03 -0.10061350208E+04  0.79261356206E+03  0.13335057037E+04  0.00000000000E+00 0.  1.
          2    1    6    6  502    0  0.10233981296E+03  0.68538400209E+02 -0.90637939439E+02  0.15292542524E+03  0.00000000000E+00 0. -1.
          3    1    5    5  503    0  0.20551399443E+02  0.15716624082E+03  0.53114507688E+02  0.16716679754E+03  0.00000000000E+00 0. -1.
         -4    1    5    5    0  503  0.31356698931E+03  0.11613860869E+04  0.56424766586E+03  0.13287277103E+04  0.00000000000E+00 0.  1.
         -1    1    6    6    0  502  0.29871166932E+02  0.55492307869E+02 -0.12445464935E+03  0.13950140713E+03  0.00000000000E+00 0.  1.
<mgrwt>
<rscale>  0 0.33450222E+04</rscale>
<asrwt>0</asrwt>
<pdfrwt beam="1">  1        2 0.39945494E+00 0.33450222E+04</pdfrwt>
<pdfrwt beam="2">  1       -2 0.16574618E+00 0.33450222E+04</pdfrwt>
<totfact> 0.58169295E-01</totfact>
</mgrwt>
</event>
<event>
12    1  0.1467288E-007  0.1293457E+04  0.7818608E-02  0.9034770E-01
          2   -1    0    0  501    0  0.00000000000E+00  0.00000000000E+00  0.31709704118E+04  0.31709704118E+04  0.00000000000E+00 0. -1.
         -2   -1    0    0    0  501 -0.00000000000E+00 -0.00000000000E+00 -0.13190215401E+03  0.13190215401E+03  0.00000000000E+00 0.  1.
         23    2    1    2    0    0 -0.11005773408E+03  0.22797913105E+03  0.30760214026E+03  0.40907233118E+03  0.92918816299E+02 0.  0.
        254    2    1    2    0    0  0.11005773408E+03 -0.22797913105E+03  0.27314661175E+04  0.28938002346E+04  0.92145833203E+03 0.  0.
        -24    2    4    4    0    0 -0.18866632790E+03  0.60953688459E+02  0.22188476514E+04  0.22291214958E+04  0.79921257985E+02 0.  0.
         24    2    4    4    0    0  0.29872406197E+03 -0.28893281950E+03  0.51261846612E+03  0.66467873882E+03  0.79384473564E+02 0.  0.
         11    1    3    3    0    0 -0.50544643168E+01  0.63764772363E+02  0.13217119027E+03  0.14683568143E+03  0.00000000000E+00 0. -1.
        -11    1    3    3    0    0 -0.10500326976E+03  0.16421435868E+03  0.17543095000E+03  0.26223664976E+03  0.00000000000E+00 0.  1.
          4    1    6    6  502    0  0.18227536367E+03 -0.13360048959E+03  0.31472486170E+03  0.38745985287E+03  0.00000000000E+00 0. -1.
          3    1    5    5  503    0 -0.14034454932E+03  0.15020678536E+02  0.12403092332E+04  0.12483145466E+04  0.00000000000E+00 0. -1.
         -4    1    5    5    0  503 -0.48321778574E+02  0.45933009922E+02  0.97853841820E+03  0.98080694919E+03  0.00000000000E+00 0.  1.
         -3    1    6    6    0  502  0.11644869830E+03 -0.15533232991E+03  0.19789360443E+03  0.27721888595E+03  0.00000000000E+00 0.  1.
<mgrwt>
<rscale>  0 0.12934571E+04</rscale>
<asrwt>0</asrwt>
<pdfrwt beam="1">  1        2 0.48784155E+00 0.12934571E+04</pdfrwt>
<pdfrwt beam="2">  1       -2 0.20292641E-01 0.12934571E+04</pdfrwt>
<totfact> 0.28078463E+01</totfact>
</mgrwt>
</event>
<event>
12    1  0.1467288E-007  0.1671485E+04  0.7818608E-02  0.8777797E-01
         -2   -1    0    0    0  501 -0.00000000000E+00  0.00000000000E+00  0.18501489801E+03  0.18501489801E+03  0.00000000000E+00 0.  1.
          2   -1    0    0  501    0  0.00000000000E+00 -0.00000000000E+00 -0.37751861371E+04  0.37751861371E+04  0.00000000000E+00 0. -1.
         23    2    1    2    0    0 -0.26718281398E+01  0.52502547054E+02  0.11083054555E+03  0.15361332344E+03  0.92466140811E+02 0.  0.
        254    2    1    2    0    0  0.26718281398E+01 -0.52502547054E+02 -0.37010017847E+04  0.38065877117E+04  0.88878126706E+03 0.  0.
        -24    2    4    4    0    0  0.89605041398E+01  0.13204747449E+03 -0.35499403909E+04  0.35533281718E+04  0.80916569849E+02 0.  0.
         24    2    4    4    0    0 -0.62886760000E+01 -0.18455002154E+03 -0.15106139374E+03  0.25325953990E+03  0.84985833953E+02 0.  0.
         13    1    3    3    0    0 -0.14638457327E+02  0.75146269935E+02  0.99660819237E+02  0.12567229292E+03  0.00000000000E+00 0.  1.
        -13    1    3    3    0    0  0.11966629187E+02 -0.22643722881E+02  0.11169726316E+02  0.27941030510E+02  0.00000000000E+00 0. -1.
          2    1    6    6  502    0  0.32671135084E+02 -0.90611443964E+02 -0.10218593927E+03  0.14042721613E+03  0.00000000000E+00 0. -1.
          3    1    5    5  503    0 -0.25440013523E+02  0.11292233219E+03 -0.26276238558E+04  0.26301721949E+04  0.00000000000E+00 0. -1.
         -4    1    5    5    0  503  0.34400517663E+02  0.19125142301E+02 -0.92231653516E+03  0.92315597691E+03  0.00000000000E+00 0.  1.
         -1    1    6    6    0  502 -0.38959811084E+02 -0.93938577578E+02 -0.48875454469E+02  0.11283232377E+03  0.00000000000E+00 0.  1.
<mgrwt>
<rscale>  0 0.16714852E+04</rscale>
<asrwt>0</asrwt>
<pdfrwt beam="1">  1        2 0.58079784E+00 0.16714852E+04</pdfrwt>
<pdfrwt beam="2">  1       -2 0.28463832E-01 0.16714852E+04</pdfrwt>
<totfact> 0.56107718E+00</totfact>
</mgrwt>
</event>
<event>
12    1  0.1467288E-007  0.2506533E+04  0.7818608E-02  0.8400662E-01
          1   -1    0    0  501    0  0.00000000000E+00  0.00000000000E+00  0.16476529851E+04  0.16476529851E+04  0.00000000000E+00 0. -1.
         -1   -1    0    0    0  501 -0.00000000000E+00 -0.00000000000E+00 -0.95328133340E+03  0.95328133340E+03  0.00000000000E+00 0.  1.
         23    2    1    2    0    0 -0.94937988558E+03 -0.52537112095E+03  0.17964260025E+03  0.11035335173E+04  0.90431068805E+02 0.  0.
        254    2    1    2    0    0  0.94937988558E+03  0.52537112095E+03  0.51472905147E+03  0.14974008012E+04  0.89438592400E+03 0.  0.
        -24    2    4    4    0    0  0.14076803310E+03 -0.14618222000E+03 -0.13738705310E+03  0.25779636755E+03  0.79993025793E+02 0.  0.
         24    2    4    4    0    0  0.80861185248E+03  0.67155334095E+03  0.65211610457E+03  0.12396044336E+04  0.80788119881E+02 0.  0.
         11    1    3    3    0    0 -0.13771497308E+03 -0.10678592192E+03  0.91058437429E+01  0.17450376306E+03  0.00000000000E+00 0. -1.
        -11    1    3    3    0    0 -0.81166491249E+03 -0.41858519903E+03  0.17053675650E+03  0.92902975428E+03  0.00000000000E+00 0.  1.
          2    1    6    6  502    0  0.93777432352E+02  0.75152212781E+02  0.45766720729E+02  0.12859492459E+03  0.00000000000E+00 0. -1.
          1    1    5    5  503    0  0.13491452176E+02 -0.13690716120E+02  0.10542436229E+02  0.21922544363E+02  0.00000000000E+00 0. -1.
         -2    1    5    5    0  503  0.12727658092E+03 -0.13249150388E+03 -0.14792948933E+03  0.23587382318E+03  0.00000000000E+00 0.  1.
         -1    1    6    6    0  502  0.71483442013E+03  0.59640112817E+03  0.60634938384E+03  0.11110095090E+04  0.00000000000E+00 0.  1.
<mgrwt>
<rscale>  0 0.25065329E+04</rscale>
<asrwt>0</asrwt>
<pdfrwt beam="1">  1        1 0.25348507E+00 0.25065329E+04</pdfrwt>
<pdfrwt beam="2">  1       -1 0.14665867E+00 0.25065329E+04</pdfrwt>
<totfact> 0.17033297E+00</totfact>
</mgrwt>
</event>
<event>
12    1  0.1467288E-007  0.1736837E+04  0.7818608E-02  0.8740629E-01
          2   -1    0    0  501    0  0.00000000000E+00  0.00000000000E+00  0.12895546502E+04  0.12895546502E+04  0.00000000000E+00 0. -1.
         -2   -1    0    0    0  501 -0.00000000000E+00 -0.00000000000E+00 -0.58481504328E+03  0.58481504328E+03  0.00000000000E+00 0.  1.
         23    2    1    2    0    0  0.61445227893E+03 -0.60255253276E+02  0.93074891007E+02  0.63059015141E+03  0.88310277407E+02 0.  0.
        254    2    1    2    0    0 -0.61445227893E+03  0.60255253276E+02  0.61166471591E+03  0.12437795421E+04  0.88975925166E+03 0.  0.
        -24    2    4    4    0    0  0.15839440703E+03  0.45880214829E+02 -0.81700282488E+02  0.20240803370E+03  0.84263240226E+02 0.  0.
         24    2    4    4    0    0 -0.77284668596E+03  0.14375038448E+02  0.69336499840E+03  0.10413715084E+04  0.78746147137E+02 0.  0.
         13    1    3    3    0    0  0.17717414039E+03 -0.57910937658E+02  0.27409196756E+02  0.18840280463E+03  0.00000000000E+00 0. -1.
        -13    1    3    3    0    0  0.43727813853E+03 -0.23443156186E+01  0.65665694251E+02  0.44218734678E+03  0.00000000000E+00 0.  1.
          4    1    6    6  502    0 -0.43072309831E+03 -0.54685335259E+01  0.33657512445E+03  0.54665812596E+03  0.00000000000E+00 0. -1.
          1    1    5    5  503    0  0.89208219276E+02  0.53724383083E+02 -0.82370393523E+02  0.13277536463E+03  0.00000000000E+00 0. -1.
         -2    1    5    5    0  503  0.69186187758E+02 -0.78441682539E+01  0.67011103481E+00  0.69632669063E+02  0.00000000000E+00 0.  1.
         -3    1    6    6    0  502 -0.34212358765E+03  0.19843571973E+02  0.35678987395E+03  0.49471338240E+03  0.00000000000E+00 0.  1.
<mgrwt>
<rscale>  0 0.17368373E+04</rscale>
<asrwt>0</asrwt>
<pdfrwt beam="1">  1        2 0.19839302E+00 0.17368373E+04</pdfrwt>
<pdfrwt beam="2">  1       -2 0.89971545E-01 0.17368373E+04</pdfrwt>
<totfact> 0.16825263E+01</totfact>
</mgrwt>
</event>
<event>
12    1  0.1467288E-007  0.1401918E+04  0.7818608E-02  0.8952432E-01
         -2   -1    0    0    0  501 -0.00000000000E+00  0.00000000000E+00  0.32007295276E+03  0.32007295276E+03  0.00000000000E+00 0.  1.
          2   -1    0    0  501    0  0.00000000000E+00 -0.00000000000E+00 -0.15350975980E+04  0.15350975980E+04  0.00000000000E+00 0. -1.
         23    2    1    2    0    0  0.18814992193E+03  0.29118862179E+03 -0.91452082188E+02  0.36877989575E+03  0.86278164069E+02 0.  0.
        254    2    1    2    0    0 -0.18814992193E+03 -0.29118862179E+03 -0.11235725630E+04  0.14863906550E+04  0.90925830666E+03 0.  0.
        -24    2    4    4    0    0  0.81753868627E+02 -0.54551836447E+03 -0.46293816935E+03  0.72457641772E+03  0.80157691242E+02 0.  0.
         24    2    4    4    0    0 -0.26990379056E+03  0.25432974268E+03 -0.66063439366E+03  0.76181423724E+03  0.79946580983E+02 0.  0.
         11    1    3    3    0    0  0.14875199492E+03  0.17969907497E+03 -0.91369067558E+02  0.25053387006E+03  0.00000000000E+00 0. -1.
        -11    1    3    3    0    0  0.39397927004E+02  0.11148954681E+03 -0.83014629431E-01  0.11824602569E+03  0.00000000000E+00 0.  1.
          4    1    6    6  502    0 -0.33128600588E+02  0.14786822207E+02 -0.30854370250E+02  0.47625061169E+02  0.00000000000E+00 0. -1.
          1    1    5    5  503    0  0.40490873425E+02 -0.11731152258E+03 -0.13701562669E+03  0.18486423699E+03  0.00000000000E+00 0. -1.
         -2    1    5    5    0  503  0.41262995202E+02 -0.42820684188E+03 -0.32592254266E+03  0.53971218072E+03  0.00000000000E+00 0.  1.
         -3    1    6    6    0  502 -0.23677518997E+03  0.23954292047E+03 -0.62978002341E+03  0.71418917607E+03  0.00000000000E+00 0.  1.
<mgrwt>
<rscale>  0 0.14019176E+04</rscale>
<asrwt>0</asrwt>
<pdfrwt beam="1">  1        2 0.23616886E+00 0.14019176E+04</pdfrwt>
<pdfrwt beam="2">  1       -2 0.49241993E-01 0.14019176E+04</pdfrwt>
<totfact> 0.46067856E+01</totfact>
</mgrwt>
</event>
<event>
12    1  0.1467288E-007  0.1550134E+04  0.7818608E-02  0.8851782E-01
          2   -1    0    0  501    0  0.00000000000E+00  0.00000000000E+00  0.23243156160E+03  0.23243156160E+03  0.00000000000E+00 0. -1.
         -2   -1    0    0    0  501 -0.00000000000E+00 -0.00000000000E+00 -0.25845414834E+04  0.25845414834E+04  0.00000000000E+00 0.  1.
         23    2    1    2    0    0  0.22588227705E+03  0.37111333960E+03 -0.36073397238E+03  0.57210207499E+03  0.91781651065E+02 0.  0.
        254    2    1    2    0    0 -0.22588227705E+03 -0.37111333960E+03 -0.19913759494E+04  0.22448709700E+04  0.94080794330E+03 0.  0.
        -24    2    4    4    0    0 -0.56324389851E+02 -0.90318343248E+02  0.73305223664E+02  0.15281596363E+03  0.81542767340E+02 0.  0.
         24    2    4    4    0    0 -0.16955788720E+03 -0.28079499635E+03 -0.20646811731E+04  0.20920550064E+04  0.78677164042E+02 0.  0.
         13    1    3    3    0    0  0.10220010472E+03  0.15307271116E+03 -0.96268065645E+02  0.20771051194E+03  0.00000000000E+00 0.  1.
        -13    1    3    3    0    0  0.12368217233E+03  0.21804062844E+03 -0.26446590673E+03  0.36439156305E+03  0.00000000000E+00 0. -1.
          4    1    6    6  502    0 -0.88234481548E+02 -0.19909325181E+03 -0.11838623991E+04  0.12037248966E+04  0.00000000000E+00 0. -1.
          1    1    5    5  503    0  0.11202929953E+02 -0.50322752177E+02  0.11260007939E+02  0.52769999100E+02  0.00000000000E+00 0. -1.
         -2    1    5    5    0  503 -0.67527319804E+02 -0.39995591071E+02  0.62045215725E+02  0.10004596453E+03  0.00000000000E+00 0.  1.
         -3    1    6    6    0  502 -0.81323405652E+02 -0.81701744540E+02 -0.88081877403E+03  0.88833010985E+03  0.00000000000E+00 0.  1.
<mgrwt>
<rscale>  0 0.15501342E+04</rscale>
<asrwt>0</asrwt>
<pdfrwt beam="1">  1        2 0.35758702E-01 0.15501342E+04</pdfrwt>
<pdfrwt beam="2">  1       -2 0.39762176E+00 0.15501342E+04</pdfrwt>
<totfact> 0.10906571E+00</totfact>
</mgrwt>
</event>
<event>
12    1  0.1467288E-007  0.1626379E+04  0.7818608E-02  0.8804504E-01
         -2   -1    0    0    0  501 -0.00000000000E+00  0.00000000000E+00  0.15867442286E+04  0.15867442286E+04  0.00000000000E+00 0.  1.
          2   -1    0    0  501    0  0.00000000000E+00 -0.00000000000E+00 -0.41675080573E+03  0.41675080573E+03  0.00000000000E+00 0. -1.
         23    2    1    2    0    0 -0.14739133906E+03  0.52598882149E+03  0.32226632325E+03  0.64072283281E+03  0.91003946154E+02 0.  0.
        254    2    1    2    0    0  0.14739133906E+03 -0.52598882149E+03  0.84772709960E+03  0.13627722015E+04  0.91657972411E+03 0.  0.
        -24    2    4    4    0    0  0.79145852235E+02 -0.33595557069E+03  0.10233137418E+04  0.10829107054E+04  0.79964806169E+02 0.  0.
         24    2    4    4    0    0  0.68245486822E+02 -0.19003325080E+03 -0.17558664221E+03  0.27986149614E+03  0.81986006243E+02 0.  0.
         11    1    3    3    0    0 -0.30161555983E+02  0.33020225425E+02  0.43497051020E+02  0.62386282097E+02  0.00000000000E+00 0.  1.
        -11    1    3    3    0    0 -0.11722978307E+03  0.49296859606E+03  0.27876927223E+03  0.57833655071E+03  0.00000000000E+00 0. -1.
          2    1    6    6  502    0  0.52058670903E+02 -0.36954723455E+02 -0.56290780197E+02  0.85114092470E+02  0.00000000000E+00 0. -1.
          1    1    5    5  503    0 -0.12540597578E+02 -0.17574180874E+02  0.89323522772E+02  0.91895648110E+02  0.00000000000E+00 0. -1.
         -2    1    5    5    0  503  0.91686449813E+02 -0.31838138981E+03  0.93399021903E+03  0.99101505726E+03  0.00000000000E+00 0.  1.
         -1    1    6    6    0  502  0.16186815919E+02 -0.15307852735E+03 -0.11929586201E+03  0.19474740367E+03  0.00000000000E+00 0.  1.
<mgrwt>
<rscale>  0 0.16263787E+04</rscale>
<asrwt>0</asrwt>
<pdfrwt beam="1">  1        2 0.64115509E-01 0.16263787E+04</pdfrwt>
<pdfrwt beam="2">  1       -2 0.24411449E+00 0.16263787E+04</pdfrwt>
<totfact> 0.50749898E+00</totfact>
</mgrwt>
</event>
<event>
12    1  0.1467288E-007  0.2406077E+04  0.7818608E-02  0.8437232E-01
          2   -1    0    0  501    0  0.00000000000E+00  0.00000000000E+00  0.27092579645E+04  0.27092579645E+04  0.00000000000E+00 0. -1.
         -2   -1    0    0    0  501 -0.00000000000E+00 -0.00000000000E+00 -0.53420572391E+03  0.53420572391E+03  0.00000000000E+00 0.  1.
         23    2    1    2    0    0 -0.83936841104E+03  0.35912247294E+02  0.11738683547E+03  0.85289109386E+03  0.88399829637E+02 0.  0.
        254    2    1    2    0    0  0.83936841104E+03 -0.35912247294E+02  0.20576654051E+04  0.23905725945E+04  0.88035299253E+03 0.  0.
        -24    2    4    4    0    0  0.67480556957E+03  0.31917624248E+03  0.16830204244E+04  0.18428393011E+04  0.79138550977E+02 0.  0.
         24    2    4    4    0    0  0.16456284147E+03 -0.35508848977E+03  0.37464498076E+03  0.54773329349E+03  0.80524125755E+02 0.  0.
         11    1    3    3    0    0 -0.16028941574E+03  0.34945182559E+02  0.19263471367E+01  0.16406575937E+03  0.00000000000E+00 0. -1.
        -11    1    3    3    0    0 -0.67907899530E+03  0.96706473491E+00  0.11546048834E+03  0.68882533449E+03  0.00000000000E+00 0.  1.
          4    1    6    6  502    0  0.87766205960E+02 -0.17095051516E+03  0.23809696708E+03  0.30596919988E+03  0.00000000000E+00 0. -1.
          1    1    5    5  503    0  0.19035159330E+03  0.11323703459E+03  0.42868472376E+03  0.48252144767E+03  0.00000000000E+00 0. -1.
         -2    1    5    5    0  503  0.48445397627E+03  0.20593920789E+03  0.12543357006E+04  0.13603178534E+04  0.00000000000E+00 0.  1.
         -3    1    6    6    0  502  0.76796635506E+02 -0.18413797461E+03  0.13654801368E+03  0.24176409361E+03  0.00000000000E+00 0.  1.
<mgrwt>
<rscale>  0 0.24060766E+04</rscale>
<asrwt>0</asrwt>
<pdfrwt beam="1">  1        2 0.41680891E+00 0.24060766E+04</pdfrwt>
<pdfrwt beam="2">  1       -2 0.82185498E-01 0.24060766E+04</pdfrwt>
<totfact> 0.30652386E+00</totfact>
</mgrwt>
</event>
<event>
12    1  0.1667321E-007  0.1631791E+04  0.7818608E-02  0.8801252E-01
          1   -1    0    0  501    0  0.00000000000E+00  0.00000000000E+00  0.61164755308E+03  0.61164755308E+03  0.00000000000E+00 0. -1.
         -1   -1    0    0    0  501 -0.00000000000E+00 -0.00000000000E+00 -0.10883485465E+04  0.10883485465E+04  0.00000000000E+00 0.  1.
         23    2    1    2    0    0 -0.52482146750E+03 -0.17165663083E+02  0.81711731304E+02  0.53932167925E+03  0.91971919302E+02 0.  0.
        254    2    1    2    0    0  0.52482146750E+03  0.17165663083E+02 -0.55841272477E+03  0.11606744204E+04  0.87155499321E+03 0.  0.
        -24    2    4    4    0    0  0.33286918245E+03 -0.33129257575E+03 -0.58464206027E+03  0.75421065574E+03  0.80440731104E+02 0.  0.
         24    2    4    4    0    0  0.19195228506E+03  0.34845823883E+03  0.26229335507E+02  0.40646376464E+03  0.79094816364E+02 0.  0.
         11    1    3    3    0    0 -0.45867332568E+03 -0.15647532688E+02  0.39057835908E+02  0.46059915275E+03  0.00000000000E+00 0. -1.
        -11    1    3    3    0    0 -0.66148141822E+02 -0.15181303953E+01  0.42653895396E+02  0.78722526502E+02  0.00000000000E+00 0.  1.
          2    1    6    6  502    0  0.18316530347E+03  0.34905586242E+03  0.18310296268E+02  0.39461980492E+03  0.00000000000E+00 0. -1.
          3    1    5    5  503    0  0.27397057540E+03 -0.27802421283E+03 -0.43251723015E+03  0.58260492058E+03  0.00000000000E+00 0. -1.
         -4    1    5    5    0  503  0.58898607048E+02 -0.53268362913E+02 -0.15212483012E+03  0.17160573516E+03  0.00000000000E+00 0.  1.
         -1    1    6    6    0  502  0.87869815844E+01 -0.59762359030E+00  0.79190392393E+01  0.11843959718E+02  0.00000000000E+00 0.  1.
<mgrwt>
<rscale>  0 0.16317913E+04</rscale>
<asrwt>0</asrwt>
<pdfrwt beam="1">  1        1 0.94099623E-01 0.16317913E+04</pdfrwt>
<pdfrwt beam="2">  1       -1 0.16743824E+00 0.16317913E+04</pdfrwt>
<totfact> 0.81918258E+00</totfact>
</mgrwt>
</event>
<event>
12    1  0.1467288E-007  0.2388083E+04  0.7818608E-02  0.8443979E-01
         -1   -1    0    0    0  501 -0.00000000000E+00  0.00000000000E+00  0.80742963686E+03  0.80742963686E+03  0.00000000000E+00 0.  1.
          1   -1    0    0  501    0  0.00000000000E+00 -0.00000000000E+00 -0.17657697161E+04  0.17657697161E+04  0.00000000000E+00 0. -1.
         23    2    1    2    0    0  0.62129389562E+03 -0.21734338807E+03 -0.12173356926E+04  0.13872450090E+04  0.96427555080E+02 0.  0.
        254    2    1    2    0    0 -0.62129389562E+03  0.21734338807E+03  0.25899561331E+03  0.11859543440E+04  0.95192684872E+03 0.  0.
        -24    2    4    4    0    0 -0.59590645462E+03 -0.90579308193E+01 -0.22758425373E+03  0.64263298206E+03  0.77433896434E+02 0.  0.
         24    2    4    4    0    0 -0.25387441000E+02  0.22640131889E+03  0.48657986704E+03  0.54332136196E+03  0.80845878039E+02 0.  0.
         13    1    3    3    0    0  0.46369264619E+03 -0.17004809553E+03 -0.99289682827E+03  0.11089505564E+04  0.00000000000E+00 0. -1.
        -13    1    3    3    0    0  0.15760124943E+03 -0.47295292542E+02 -0.22443886430E+03  0.27829445256E+03  0.00000000000E+00 0.  1.
          2    1    6    6  502    0  0.23067557569E+02  0.10798271040E+03  0.18079669559E+03  0.21184858530E+03  0.00000000000E+00 0. -1.
          1    1    5    5  503    0 -0.58415457412E+03  0.73442571327E+00 -0.21382895993E+03  0.62206103394E+03  0.00000000000E+00 0. -1.
         -2    1    5    5    0  503 -0.11751880503E+02 -0.97923565326E+01 -0.13755293806E+02  0.20571948121E+02  0.00000000000E+00 0.  1.
         -1    1    6    6    0  502 -0.48454998568E+02  0.11841860849E+03  0.30578317146E+03  0.33147277666E+03  0.00000000000E+00 0.  1.
<mgrwt>
<rscale>  0 0.23880827E+04</rscale>
<asrwt>0</asrwt>
<pdfrwt beam="1">  1        1 0.27165688E+00 0.23880827E+04</pdfrwt>
<pdfrwt beam="2">  1       -1 0.12421995E+00 0.23880827E+04</pdfrwt>
<totfact> 0.21915959E+00</totfact>
</mgrwt>
</event>
<event>
12    1  0.1467288E-007  0.1219582E+04  0.7818608E-02  0.9095887E-01
         -2   -1    0    0    0  501 -0.00000000000E+00  0.00000000000E+00  0.20799136522E+03  0.20799136522E+03  0.00000000000E+00 0. -1.
          2   -1    0    0  501    0  0.00000000000E+00 -0.00000000000E+00 -0.17877919648E+04  0.17877919648E+04  0.00000000000E+00 0.  1.
         23    2    1    2    0    0  0.20625692029E+03 -0.62069535584E+01 -0.82964512602E+02  0.24045550169E+03  0.91407300046E+02 0.  0.
        254    2    1    2    0    0 -0.20625692029E+03  0.62069535584E+01 -0.14968360869E+04  0.17553278283E+04  0.89335159382E+03 0.  0.
        -24    2    4    4    0    0  0.74415422612E+02  0.33040147408E+03 -0.23482681003E+03  0.41948161655E+03  0.78220244957E+02 0.  0.
         24    2    4    4    0    0 -0.28067234290E+03 -0.32419452052E+03 -0.12620092769E+04  0.13358462117E+04  0.89099019111E+02 0.  0.
         13    1    3    3    0    0  0.17780187375E+03 -0.36110234578E+02 -0.51640766325E+02  0.18863781195E+03  0.00000000000E+00 0. -1.
        -13    1    3    3    0    0  0.28455046541E+02  0.29903281020E+02 -0.31323746277E+02  0.51817689742E+02  0.00000000000E+00 0.  1.
          4    1    6    6  502    0 -0.19445619532E+03 -0.15760972882E+03 -0.70805726774E+03  0.75099875694E+03  0.00000000000E+00 0. -1.
          3    1    5    5  503    0  0.61298008136E+02  0.10979871894E+03 -0.71218526258E+02  0.14451741405E+03  0.00000000000E+00 0. -1.
         -4    1    5    5    0  503  0.13117414476E+02  0.22060275514E+03 -0.16360828377E+03  0.27496420250E+03  0.00000000000E+00 0.  1.
         -3    1    6    6    0  502 -0.86216147586E+02 -0.16658479170E+03 -0.55395200917E+03  0.58484745480E+03  0.00000000000E+00 0.  1.
<mgrwt>
<rscale>  0 0.12195824E+04</rscale>
<asrwt>0</asrwt>
<pdfrwt beam="1">  1        2 0.27504492E+00 0.12195824E+04</pdfrwt>
<pdfrwt beam="2">  1       -2 0.31998671E-01 0.12195824E+04</pdfrwt>
<totfact> 0.78479166E+01</totfact>
</mgrwt>
</event>
<event>
12    1  0.1467288E-007  0.1679034E+04  0.7818608E-02  0.8773413E-01
          2   -1    0    0  501    0  0.00000000000E+00  0.00000000000E+00  0.30117330743E+04  0.30117330743E+04  0.00000000000E+00 0. -1.
         -2   -1    0    0    0  501 -0.00000000000E+00 -0.00000000000E+00 -0.23401440309E+03  0.23401440309E+03  0.00000000000E+00 0.  1.
         23    2    1    2    0    0 -0.45251786720E+03 -0.27943765860E+03  0.49554126392E+03  0.73322051914E+03  0.95882012195E+02 0.  0.
        254    2    1    2    0    0  0.45251786720E+03  0.27943765860E+03  0.22821774073E+04  0.25125269583E+04  0.90642163059E+03 0.  0.
        -24    2    4    4    0    0  0.10379979783E+02  0.52148748911E+03  0.13555935673E+04  0.14546761591E+04  0.79949126345E+02 0.  0.
         24    2    4    4    0    0  0.44213788741E+03 -0.24204983051E+03  0.92658383999E+03  0.10578507992E+04  0.80104112503E+02 0.  0.
         11    1    3    3    0    0 -0.24891970884E+03 -0.19758747100E+03  0.25358992578E+03  0.40658293201E+03  0.00000000000E+00 0. -1.
        -11    1    3    3    0    0 -0.20359815836E+03 -0.81850187592E+02  0.24195133814E+03  0.32663758712E+03  0.00000000000E+00 0.  1.
          2    1    6    6  502    0  0.59083331706E+02 -0.53678188888E+02  0.19710707250E+03  0.21265790857E+03  0.00000000000E+00 0. -1.
          3    1    5    5  503    0  0.52677818894E+01  0.61573297616E+01  0.56765726298E+02  0.57341171229E+02  0.00000000000E+00 0. -1.
         -4    1    5    5    0  503  0.51121978933E+01  0.51533015934E+03  0.12988278410E+04  0.13973349879E+04  0.00000000000E+00 0.  1.
         -1    1    6    6    0  502  0.38305455571E+03 -0.18837164162E+03  0.72947676749E+03  0.84519289061E+03  0.00000000000E+00 0.  1.
<mgrwt>
<rscale>  0 0.16790341E+04</rscale>
<asrwt>0</asrwt>
<pdfrwt beam="1">  1        2 0.46334352E+00 0.16790341E+04</pdfrwt>
<pdfrwt beam="2">  1       -2 0.36002218E-01 0.16790341E+04</pdfrwt>
<totfact> 0.11901055E+01</totfact>
</mgrwt>
</event>
<event>
12    1  0.1467288E-007  0.1821902E+04  0.7818608E-02  0.8694738E-01
          2   -1    0    0  501    0  0.00000000000E+00  0.00000000000E+00  0.17092774475E+04  0.17092774475E+04  0.00000000000E+00 0. -1.
         -2   -1    0    0    0  501 -0.00000000000E+00 -0.00000000000E+00 -0.48548700857E+03  0.48548700857E+03  0.00000000000E+00 0.  1.
         23    2    1    2    0    0  0.66815059489E+03 -0.96224092066E+02  0.33328743747E+03  0.75854484919E+03  0.92873456421E+02 0.  0.
        254    2    1    2    0    0 -0.66815059489E+03  0.96224092066E+02  0.89050300148E+03  0.14362196069E+04  0.90224546009E+03 0.  0.
        -24    2    4    4    0    0 -0.19528263312E+02 -0.28403421485E+03  0.40248531437E+02  0.29840437555E+03  0.79802498655E+02 0.  0.
         24    2    4    4    0    0 -0.64862233158E+03  0.38025830692E+03  0.85025447004E+03  0.11378152313E+04  0.79896982838E+02 0.  0.
         11    1    3    3    0    0  0.11464911744E+03  0.80280077279E+01  0.85344605359E+02  0.14315226405E+03  0.00000000000E+00 0. -1.
        -11    1    3    3    0    0  0.55350147745E+03 -0.10425209979E+03  0.24794283211E+03  0.61539258514E+03  0.00000000000E+00 0.  1.
          4    1    6    6  502    0 -0.31371395103E+03  0.22658600368E+03  0.45883193057E+03  0.60023695375E+03  0.00000000000E+00 0. -1.
          3    1    5    5  503    0 -0.29734320400E+02 -0.23224471925E+03  0.60560486133E+02  0.24184563654E+03  0.00000000000E+00 0. -1.
         -4    1    5    5    0  503  0.10206057088E+02 -0.51789495598E+02 -0.20311954695E+02  0.56558739016E+02  0.00000000000E+00 0.  1.
         -3    1    6    6    0  502 -0.33490838055E+03  0.15367230323E+03  0.39142253947E+03  0.53757827760E+03  0.00000000000E+00 0.  1.
<mgrwt>
<rscale>  0 0.18219023E+04</rscale>
<asrwt>0</asrwt>
<pdfrwt beam="1">  1        2 0.26296576E+00 0.18219023E+04</pdfrwt>
<pdfrwt beam="2">  1       -2 0.74690310E-01 0.18219023E+04</pdfrwt>
<totfact> 0.14716720E+01</totfact>
</mgrwt>
</event>
<event>
12    1  0.1467288E-007  0.1812733E+04  0.7818608E-02  0.8699558E-01
         -2   -1    0    0    0  501 -0.00000000000E+00  0.00000000000E+00  0.65547853364E+03  0.65547853364E+03  0.00000000000E+00 0.  1.
          2   -1    0    0  501    0  0.00000000000E+00 -0.00000000000E+00 -0.12532827655E+04  0.12532827655E+04  0.00000000000E+00 0. -1.
         23    2    1    2    0    0 -0.16407836002E+03  0.21583694729E+03  0.42408577762E+03  0.51111775231E+03  0.88799290024E+02 0.  0.
        254    2    1    2    0    0  0.16407836002E+03 -0.21583694729E+03 -0.10218900094E+04  0.13976435468E+04  0.91413401448E+03 0.  0.
        -24    2    4    4    0    0 -0.23170349139E+02  0.19439822762E+03 -0.89895506070E+03  0.92350570907E+03  0.80094054287E+02 0.  0.
         24    2    4    4    0    0  0.18724870916E+03 -0.41023517491E+03 -0.12293494874E+03  0.47413783772E+03  0.79616014214E+02 0.  0.
         13    1    3    3    0    0 -0.73458827781E+01  0.22786301488E+02  0.60152368911E+01  0.24685230486E+02  0.00000000000E+00 0. -1.
        -13    1    3    3    0    0 -0.15673247725E+03  0.19305064580E+03  0.41807054073E+03  0.48643252183E+03  0.00000000000E+00 0.  1.
          2    1    6    6  502    0  0.13308198392E+03 -0.35904784503E+03 -0.94807035897E+02  0.39448009268E+03  0.00000000000E+00 0. -1.
          1    1    5    5  503    0  0.15544466471E+02  0.11696062612E+03 -0.39786522023E+03  0.41499174928E+03  0.00000000000E+00 0. -1.
         -2    1    5    5    0  503 -0.38714815611E+02  0.77437601505E+02 -0.50108984047E+03  0.50851395979E+03  0.00000000000E+00 0.  1.
         -1    1    6    6    0  502  0.54166725249E+02 -0.51187329883E+02 -0.28127912844E+02  0.79657745045E+02  0.00000000000E+00 0.  1.
<mgrwt>
<rscale>  0 0.18127327E+04</rscale>
<asrwt>0</asrwt>
<pdfrwt beam="1">  1        2 0.19281273E+00 0.18127327E+04</pdfrwt>
<pdfrwt beam="2">  1       -2 0.10084285E+00 0.18127327E+04</pdfrwt>
<totfact> 0.13448783E+01</totfact>
</mgrwt>
</event>
<event>
12    1  0.1467288E-007  0.2988971E+04  0.7818608E-02  0.8246887E-01
         -1   -1    0    0    0  501 -0.00000000000E+00  0.00000000000E+00  0.11083687105E+04  0.11083687105E+04  0.00000000000E+00 0.  1.
          1   -1    0    0  501    0  0.00000000000E+00 -0.00000000000E+00 -0.20151118651E+04  0.20151118651E+04  0.00000000000E+00 0. -1.
         23    2    1    2    0    0 -0.67967353440E+03  0.82373695354E+03 -0.12885206237E+04  0.16759396418E+04  0.89384579863E+02 0.  0.
        254    2    1    2    0    0  0.67967353440E+03 -0.82373695354E+03  0.38177746914E+03  0.14475409339E+04  0.89951211070E+03 0.  0.
        -24    2    4    4    0    0  0.30720661026E+03 -0.70609925491E+03 -0.14494895289E+03  0.78767405847E+03  0.80424898407E+02 0.  0.
         24    2    4    4    0    0  0.37246692414E+03 -0.11763769863E+03  0.52672642203E+03  0.65986687539E+03  0.73575348157E+02 0.  0.
         13    1    3    3    0    0 -0.17644339297E+03  0.27397926789E+03 -0.36878678596E+03  0.49213880527E+03  0.00000000000E+00 0. -1.
        -13    1    3    3    0    0 -0.50323014143E+03  0.54975768565E+03 -0.91973383774E+03  0.11838008365E+04  0.00000000000E+00 0.  1.
          4    1    6    6  502    0  0.26029685331E+03 -0.11418194187E+03  0.39822998783E+03  0.48926382546E+03  0.00000000000E+00 0. -1.
          1    1    5    5  503    0  0.28981126483E+03 -0.69488308540E+03 -0.14611371911E+03  0.76694347283E+03  0.00000000000E+00 0. -1.
         -2    1    5    5    0  503  0.17395345427E+02 -0.11216169503E+02  0.11647662208E+01  0.20730585645E+02  0.00000000000E+00 0.  1.
         -3    1    6    6    0  502  0.11217007084E+03 -0.34557567601E+01  0.12849643420E+03  0.17060304994E+03  0.00000000000E+00 0.  1.
<mgrwt>
<rscale>  0 0.29889710E+04</rscale>
<asrwt>0</asrwt>
<pdfrwt beam="1">  1        1 0.31001721E+00 0.29889710E+04</pdfrwt>
<pdfrwt beam="2">  1       -1 0.17051827E+00 0.29889710E+04</pdfrwt>
<totfact> 0.60470813E-01</totfact>
</mgrwt>
</event>
<event>
12    1  0.1467288E-007  0.2167355E+04  0.7818608E-02  0.8532140E-01
          1   -1    0    0  501    0  0.00000000000E+00  0.00000000000E+00  0.62128184723E+03  0.62128184723E+03  0.00000000000E+00 0. -1.
         -1   -1    0    0    0  501 -0.00000000000E+00 -0.00000000000E+00 -0.18902160236E+04  0.18902160236E+04  0.00000000000E+00 0.  1.
         23    2    1    2    0    0 -0.16036036827E+03  0.44277545744E+03  0.35211151329E+03  0.59548023127E+03  0.94067181414E+02 0.  0.
        254    2    1    2    0    0  0.16036036827E+03 -0.44277545744E+03 -0.16210456897E+04  0.19160176396E+04  0.90640438753E+03 0.  0.
        -24    2    4    4    0    0  0.22484733400E+03 -0.24802488128E+03 -0.72107560807E+02  0.35147772808E+03  0.79148137499E+02 0.  0.
         24    2    4    4    0    0 -0.64486965736E+02 -0.19475057616E+03 -0.15489381289E+04  0.15645399115E+04  0.80557134579E+02 0.  0.
         11    1    3    3    0    0 -0.47868905051E+02  0.26617594453E+03  0.18648007556E+03  0.32850553131E+03  0.00000000000E+00 0.  1.
        -11    1    3    3    0    0 -0.11249146322E+03  0.17659951291E+03  0.16563143773E+03  0.26697469997E+03  0.00000000000E+00 0. -1.
          4    1    6    6  502    0 -0.76427573372E+01 -0.13039596194E+03 -0.10726648704E+04  0.10805884706E+04  0.00000000000E+00 0. -1.
          3    1    5    5  503    0  0.41836030562E+00 -0.33068625010E+02 -0.37431713299E+01  0.33282432559E+02  0.00000000000E+00 0. -1.
         -4    1    5    5    0  503  0.22442897370E+03 -0.21495625627E+03 -0.68364389477E+02  0.31819529552E+03  0.00000000000E+00 0.  1.
         -3    1    6    6    0  502 -0.56844208399E+02 -0.64354614222E+02 -0.47627325851E+03  0.48395144093E+03  0.00000000000E+00 0.  1.
<mgrwt>
<rscale>  0 0.21673550E+04</rscale>
<asrwt>0</asrwt>
<pdfrwt beam="1">  1        1 0.95581824E-01 0.21673550E+04</pdfrwt>
<pdfrwt beam="2">  1       -1 0.29080246E+00 0.21673550E+04</pdfrwt>
<totfact> 0.11279469E+00</totfact>
</mgrwt>
</event>
<event>
12    1  0.1467288E-007  0.1336863E+04  0.7818608E-02  0.9000833E-01
          2   -1    0    0  501    0  0.00000000000E+00  0.00000000000E+00  0.15017547613E+04  0.15017547613E+04  0.00000000000E+00 0. -1.
         -2   -1    0    0    0  501 -0.00000000000E+00 -0.00000000000E+00 -0.29751901055E+03  0.29751901055E+03  0.00000000000E+00 0.  1.
         23    2    1    2    0    0 -0.35603023042E+02 -0.16287187434E+03 -0.92732989339E+02  0.21182087056E+03  0.92053523521E+02 0.  0.
        254    2    1    2    0    0  0.35603023042E+02  0.16287187434E+03  0.12969687401E+04  0.15874529013E+04  0.90004665341E+03 0.  0.
        -24    2    4    4    0    0  0.14244563222E+02 -0.29594054738E+03  0.97127486485E+03  0.10185597577E+04  0.79406559397E+02 0.  0.
         24    2    4    4    0    0  0.21358459820E+02  0.45881242173E+03  0.32569387521E+03  0.56889314360E+03  0.81227374345E+02 0.  0.
         11    1    3    3    0    0  0.80787558313E+01  0.53103601954E+01  0.65660982938E+01  0.11686738980E+02  0.00000000000E+00 0. -1.
        -11    1    3    3    0    0 -0.43681778873E+02 -0.16818223454E+03 -0.99299087633E+02  0.20013413158E+03  0.00000000000E+00 0.  1.
          2    1    6    6  502    0 -0.89397600504E+01  0.84144633685E+02  0.97753016838E+02  0.12928994930E+03  0.00000000000E+00 0. -1.
          3    1    5    5  503    0 -0.18261280845E+02 -0.28002254239E+02  0.16361148395E+03  0.16699197077E+03  0.00000000000E+00 0. -1.
         -2    1    5    5    0  503  0.32505844068E+02 -0.26793829315E+03  0.80766338090E+03  0.85156778689E+03  0.00000000000E+00 0.  1.
         -1    1    6    6    0  502  0.30298219870E+02  0.37466778804E+03  0.22794085838E+03  0.43960319430E+03  0.00000000000E+00 0.  1.
<mgrwt>
<rscale>  0 0.13368629E+04</rscale>
<asrwt>0</asrwt>
<pdfrwt beam="1">  1        2 0.23103919E+00 0.13368629E+04</pdfrwt>
<pdfrwt beam="2">  1       -2 0.45772156E-01 0.13368629E+04</pdfrwt>
<totfact> 0.56024625E+01</totfact>
</mgrwt>
</event>
<event>
12    1  0.1467288E-007  0.1131158E+04  0.7818608E-02  0.9175344E-01
          1   -1    0    0  501    0  0.00000000000E+00  0.00000000000E+00  0.11115323095E+04  0.11115323095E+04  0.00000000000E+00 0. -1.
         -1   -1    0    0    0  501 -0.00000000000E+00 -0.00000000000E+00 -0.28778270560E+03  0.28778270560E+03  0.00000000000E+00 0.  1.
         23    2    1    2    0    0 -0.51316809713E+02  0.81619383850E+02 -0.45062657934E+02  0.13442104442E+03  0.82117204430E+02 0.  0.
        254    2    1    2    0    0  0.51316809713E+02 -0.81619383850E+02  0.86881226179E+03  0.12648939706E+04  0.91423567638E+03 0.  0.
        -24    2    4    4    0    0  0.34052979346E+03  0.21348372825E+03  0.70132403957E+03  0.81224988735E+03  0.79741009317E+02 0.  0.
         24    2    4    4    0    0 -0.28921298375E+03 -0.29510311210E+03  0.16748822223E+03  0.45264408330E+03  0.78130434661E+02 0.  0.
         13    1    3    3    0    0  0.35923456914E+01 -0.94792335844E+01  0.10348422639E+02  0.14486223387E+02  0.00000000000E+00 0. -1.
        -13    1    3    3    0    0 -0.54909155404E+02  0.91098617434E+02 -0.55411080572E+02  0.11993482103E+03  0.00000000000E+00 0.  1.
          4    1    6    6  502    0 -0.25493318388E+03 -0.28799966245E+03  0.16138073228E+03  0.41710726986E+03  0.00000000000E+00 0. -1.
          3    1    5    5  503    0  0.16973448108E+03  0.12880466549E+03  0.30020696947E+03  0.36813674149E+03  0.00000000000E+00 0. -1.
         -4    1    5    5    0  503  0.17079531239E+03  0.84679062761E+02  0.40111707010E+03  0.44411314587E+03  0.00000000000E+00 0.  1.
         -3    1    6    6    0  502 -0.34279799872E+02 -0.71034496441E+01  0.61074899451E+01  0.35536813441E+02  0.00000000000E+00 0.  1.
<mgrwt>
<rscale>  0 0.11311583E+04</rscale>
<asrwt>0</asrwt>
<pdfrwt beam="1">  1        1 0.17100497E+00 0.11311583E+04</pdfrwt>
<pdfrwt beam="2">  1       -1 0.44274263E-01 0.11311583E+04</pdfrwt>
<totfact> 0.62358095E+01</totfact>
</mgrwt>
</event>
<event>
12    1  0.1467288E-007  0.2221405E+04  0.7818608E-02  0.8509571E-01
         -2   -1    0    0    0  501 -0.00000000000E+00  0.00000000000E+00  0.68799579261E+03  0.68799579261E+03  0.00000000000E+00 0.  1.
          2   -1    0    0  501    0  0.00000000000E+00 -0.00000000000E+00 -0.17931215456E+04  0.17931215456E+04  0.00000000000E+00 0. -1.
         23    2    1    2    0    0  0.88037769631E+03  0.11323026080E+03 -0.16486589312E+03  0.90591893681E+03  0.74982512867E+02 0.  0.
        254    2    1    2    0    0 -0.88037769631E+03 -0.11323026080E+03 -0.94025985983E+03  0.15751984014E+04  0.89959736520E+03 0.  0.
        -24    2    4    4    0    0 -0.18534540472E+03 -0.24685320325E+03 -0.78422452535E+03  0.84629100265E+03  0.76882585822E+02 0.  0.
         24    2    4    4    0    0 -0.69503229159E+03  0.13362294245E+03 -0.15603533449E+03  0.72890739870E+03  0.77678781976E+02 0.  0.
         13    1    3    3    0    0  0.50934306740E+03  0.62453804467E+02 -0.13275645282E+03  0.53005199157E+03  0.00000000000E+00 0. -1.
        -13    1    3    3    0    0  0.37103462891E+03  0.50776456335E+02 -0.32109440295E+02  0.37586694524E+03  0.00000000000E+00 0.  1.
          2    1    6    6  502    0 -0.45078963631E+03  0.70429917164E+02 -0.65842636569E+02  0.46098473102E+03  0.00000000000E+00 0. -1.
          3    1    5    5  503    0 -0.14829446078E+03 -0.13938519059E+03 -0.53348852233E+03  0.57098991402E+03  0.00000000000E+00 0. -1.
         -4    1    5    5    0  503 -0.37050943944E+02 -0.10746801266E+03 -0.25073600302E+03  0.27530108863E+03  0.00000000000E+00 0.  1.
         -1    1    6    6    0  502 -0.24424265528E+03  0.63193025285E+02 -0.90192697919E+02  0.26792266769E+03  0.00000000000E+00 0.  1.
<mgrwt>
<rscale>  0 0.22214050E+04</rscale>
<asrwt>0</asrwt>
<pdfrwt beam="1">  1        2 0.27586486E+00 0.22214050E+04</pdfrwt>
<pdfrwt beam="2">  1       -2 0.10584551E+00 0.22214050E+04</pdfrwt>
<totfact> 0.57272331E+00</totfact>
</mgrwt>
</event>
<event>
12    1  0.1467288E-007  0.1127257E+04  0.7818608E-02  0.9179025E-01
         -2   -1    0    0    0  501 -0.00000000000E+00  0.00000000000E+00  0.15319976356E+03  0.15319976356E+03  0.00000000000E+00 0.  1.
          2   -1    0    0  501    0  0.00000000000E+00 -0.00000000000E+00 -0.20736145623E+04  0.20736145623E+04  0.00000000000E+00 0. -1.
         23    2    1    2    0    0 -0.61036340531E+02 -0.96180214622E+01 -0.46948319606E+01  0.10916884843E+03  0.89876887002E+02 0.  0.
        254    2    1    2    0    0  0.61036340531E+02  0.96180214622E+01 -0.19157199667E+04  0.21176454774E+04  0.90034517589E+03 0.  0.
        -24    2    4    4    0    0 -0.11814084270E+03 -0.11195723626E+03 -0.18758379823E+04  0.18845508633E+04  0.79196836644E+02 0.  0.
         24    2    4    4    0    0  0.17917718323E+03  0.12157525773E+03 -0.39881984431E+02  0.23309461411E+03  0.76534437769E+02 0.  0.
         13    1    3    3    0    0 -0.34521398084E+02 -0.47295332915E+02 -0.17922661690E+02  0.61235588046E+02  0.00000000000E+00 0. -1.
        -13    1    3    3    0    0 -0.26514942447E+02  0.37677311453E+02  0.13227829730E+02  0.47933260380E+02  0.00000000000E+00 0.  1.
          4    1    6    6  502    0  0.17958203954E+03  0.95734058476E+02 -0.31529335553E+02  0.20593401341E+03  0.00000000000E+00 0. -1.
          3    1    5    5  503    0 -0.10974773774E+03 -0.77275388691E+02 -0.16897501621E+04  0.16950727601E+04  0.00000000000E+00 0. -1.
         -4    1    5    5    0  503 -0.83931049643E+01 -0.34681847574E+02 -0.18608782023E+03  0.18947810322E+03  0.00000000000E+00 0.  1.
         -3    1    6    6    0  502 -0.40485631042E+00  0.25841199251E+02 -0.83526488779E+01  0.27160600705E+02  0.00000000000E+00 0.  1.
<mgrwt>
<rscale>  0 0.11272573E+04</rscale>
<asrwt>0</asrwt>
<pdfrwt beam="1">  1        2 0.31901761E+00 0.11272573E+04</pdfrwt>
<pdfrwt beam="2">  1       -2 0.23569196E-01 0.11272573E+04</pdfrwt>
<totfact> 0.96413050E+01</totfact>
</mgrwt>
</event>
<event>
12    1  0.1467288E-007  0.2553130E+04  0.7818608E-02  0.8384298E-01
          2   -1    0    0  501    0  0.00000000000E+00  0.00000000000E+00  0.19159076343E+04  0.19159076343E+04  0.00000000000E+00 0. -1.
         -2   -1    0    0    0  501 -0.00000000000E+00 -0.00000000000E+00 -0.85057267312E+03  0.85057267312E+03  0.00000000000E+00 0.  1.
         23    2    1    2    0    0 -0.34899232232E+03 -0.24357932480E+03 -0.64784318740E+03  0.78018898782E+03  0.88699113518E+02 0.  0.
        254    2    1    2    0    0  0.34899232232E+03  0.24357932480E+03  0.17131781486E+04  0.19862913196E+04  0.91063017139E+03 0.  0.
        -24    2    4    4    0    0 -0.80607450044E+02  0.47415029300E+03  0.63508156436E+03  0.80048012249E+03  0.78254531857E+02 0.  0.
         24    2    4    4    0    0  0.42959977237E+03 -0.23057096820E+03  0.10780965843E+04  0.11858111971E+04  0.78339099382E+02 0.  0.
         11    1    3    3    0    0 -0.34704878166E+03 -0.21963328555E+03 -0.61165963882E+03  0.73675582844E+03  0.00000000000E+00 0.  1.
        -11    1    3    3    0    0 -0.19435406675E+01 -0.23946039250E+02 -0.36183548579E+02  0.43433159381E+02  0.00000000000E+00 0. -1.
          4    1    6    6  502    0  0.69212116300E+02 -0.69322598654E+02  0.24644894750E+03  0.26520373951E+03  0.00000000000E+00 0. -1.
          3    1    5    5  503    0 -0.23412002277E+02  0.69347171775E+02  0.58658915184E+02  0.93797763376E+02  0.00000000000E+00 0. -1.
         -4    1    5    5    0  503 -0.57195447768E+02  0.40480312122E+03  0.57642264918E+03  0.70668235911E+03  0.00000000000E+00 0.  1.
         -3    1    6    6    0  502  0.36038765607E+03 -0.16124836955E+03  0.83164763677E+03  0.92060745764E+03  0.00000000000E+00 0.  1.
<mgrwt>
<rscale>  0 0.25531304E+04</rscale>
<asrwt>0</asrwt>
<pdfrwt beam="1">  1        2 0.29475502E+00 0.25531304E+04</pdfrwt>
<pdfrwt beam="2">  1       -2 0.13085734E+00 0.25531304E+04</pdfrwt>
<totfact> 0.28222226E+00</totfact>
</mgrwt>
</event>
<event>
12    1  0.1467288E-007  0.1777692E+04  0.7818608E-02  0.8718253E-01
         -2   -1    0    0    0  501 -0.00000000000E+00  0.00000000000E+00  0.29449971315E+03  0.29449971315E+03  0.00000000000E+00 0.  1.
          2   -1    0    0  501    0  0.00000000000E+00 -0.00000000000E+00 -0.26826757665E+04  0.26826757665E+04  0.00000000000E+00 0. -1.
         23    2    1    2    0    0  0.45084411268E+02  0.65656200168E+03 -0.95357087908E+03  0.11620460323E+04  0.89147594335E+02 0.  0.
        254    2    1    2    0    0 -0.45084411268E+02 -0.65656200168E+03 -0.14346051743E+04  0.18151294474E+04  0.89637974007E+03 0.  0.
        -24    2    4    4    0    0 -0.28686980218E+02 -0.33789819692E+03 -0.52670106823E+01  0.34831883918E+03  0.79373408688E+02 0.  0.
         24    2    4    4    0    0 -0.16397431050E+02 -0.31866380475E+03 -0.14293381636E+04  0.14668106082E+04  0.81916287316E+02 0.  0.
         11    1    3    3    0    0  0.44508809600E+02  0.65697750397E+03 -0.95525355671E+03  0.11602197346E+04  0.00000000000E+00 0. -1.
        -11    1    3    3    0    0  0.57560166769E+00 -0.41550229456E+00  0.16826776300E+01  0.18262977422E+01  0.00000000000E+00 0.  1.
          4    1    6    6  502    0 -0.96363888255E+01 -0.32104088620E+03 -0.13757252243E+04  0.14127207804E+04  0.00000000000E+00 0. -1.
          1    1    5    5  503    0 -0.11976567273E+02 -0.32918836445E+03 -0.39681961644E+01  0.32943005940E+03  0.00000000000E+00 0. -1.
         -2    1    5    5    0  503 -0.16710412945E+02 -0.87098324731E+01 -0.12988145179E+01  0.18888779782E+02  0.00000000000E+00 0.  1.
         -3    1    6    6    0  502 -0.67610422241E+01  0.23770814485E+01 -0.53612939333E+02  0.54089827806E+02  0.00000000000E+00 0.  1.
<mgrwt>
<rscale>  0 0.17776920E+04</rscale>
<asrwt>0</asrwt>
<pdfrwt beam="1">  1        2 0.41271935E+00 0.17776920E+04</pdfrwt>
<pdfrwt beam="2">  1       -2 0.45307648E-01 0.17776920E+04</pdfrwt>
<totfact> 0.11905974E+01</totfact>
</mgrwt>
</event>
<event>
12    1  0.1467288E-007  0.1139168E+04  0.7818608E-02  0.9167835E-01
         -2   -1    0    0    0  501 -0.00000000000E+00  0.00000000000E+00  0.92951501695E+03  0.92951501695E+03  0.00000000000E+00 0.  1.
          2   -1    0    0  501    0  0.00000000000E+00 -0.00000000000E+00 -0.34902688637E+03  0.34902688637E+03  0.00000000000E+00 0. -1.
         23    2    1    2    0    0  0.80783406338E+02  0.17100442357E+02 -0.91189687534E+02  0.15441788894E+03  0.93332424401E+02 0.  0.
        254    2    1    2    0    0 -0.80783406338E+02 -0.17100442357E+02  0.67167781812E+03  0.11241240144E+04  0.89759975740E+03 0.  0.
        -24    2    4    4    0    0 -0.50982603865E+02  0.17789535112E+03 -0.16513261305E+03  0.26042711633E+03  0.79419904199E+02 0.  0.
         24    2    4    4    0    0 -0.29800802473E+02 -0.19499579347E+03  0.83681043117E+03  0.86369689805E+03  0.82517796210E+02 0.  0.
         11    1    3    3    0    0  0.78817046299E+02  0.33566474828E+02 -0.29602880758E+02  0.90637550545E+02  0.00000000000E+00 0. -1.
        -11    1    3    3    0    0  0.19663600391E+01 -0.16466032472E+02 -0.61586806777E+02  0.63780338397E+02  0.00000000000E+00 0.  1.
          4    1    6    6  502    0  0.25698039512E+02 -0.48678911996E+02  0.27750919562E+03  0.28291585208E+03  0.00000000000E+00 0. -1.
          1    1    5    5  503    0 -0.50753810588E+02  0.18499745656E+03 -0.16543411688E+03  0.25331493294E+03  0.00000000000E+00 0. -1.
         -2    1    5    5    0  503 -0.22879327685E+00 -0.71021054421E+01  0.30150382864E+00  0.71121833942E+01  0.00000000000E+00 0.  1.
         -3    1    6    6    0  502 -0.55498841985E+02 -0.14631688148E+03  0.55930123555E+03  0.58078104597E+03  0.00000000000E+00 0.  1.
<mgrwt>
<rscale>  0 0.11391676E+04</rscale>
<asrwt>0</asrwt>
<pdfrwt beam="1">  1        2 0.53696444E-01 0.11391676E+04</pdfrwt>
<pdfrwt beam="2">  1       -2 0.14300231E+00 0.11391676E+04</pdfrwt>
<totfact> 0.31171720E+01</totfact>
</mgrwt>
</event>
<event>
12    1  0.1467288E-007  0.2150915E+04  0.7818608E-02  0.8539141E-01
          1   -1    0    0  501    0  0.00000000000E+00  0.00000000000E+00  0.81101131714E+03  0.81101131714E+03  0.00000000000E+00 0. -1.
         -1   -1    0    0    0  501 -0.00000000000E+00 -0.00000000000E+00 -0.14261319084E+04  0.14261319084E+04  0.00000000000E+00 0.  1.
         23    2    1    2    0    0 -0.28796603680E+03 -0.14488179858E+02  0.61580908524E+03  0.68520128570E+03  0.84531809147E+02 0.  0.
        254    2    1    2    0    0  0.28796603680E+03  0.14488179858E+02 -0.12309296765E+04  0.15519419398E+04  0.90011197660E+03 0.  0.
        -24    2    4    4    0    0  0.54130372610E+03  0.23294346506E+03 -0.68795631247E+03  0.90934132959E+03  0.79657918810E+02 0.  0.
         24    2    4    4    0    0 -0.25333768930E+03 -0.21845528520E+03 -0.54297336400E+03  0.64260061022E+03  0.78821150639E+02 0.  0.
         13    1    3    3    0    0 -0.26237125003E+03 -0.51501876376E+01  0.48358709950E+03  0.55020149043E+03  0.00000000000E+00 0. -1.
        -13    1    3    3    0    0 -0.25594786767E+02 -0.93379922209E+01  0.13222198575E+03  0.13499979527E+03  0.00000000000E+00 0.  1.
          2    1    6    6  502    0 -0.11867113452E+03 -0.59563351259E+02 -0.17369626343E+03  0.21863445042E+03  0.00000000000E+00 0. -1.
          1    1    5    5  503    0  0.41967203670E+02  0.30931740777E+01 -0.75043593261E+02  0.86036938575E+02  0.00000000000E+00 0. -1.
         -2    1    5    5    0  503  0.49933652243E+03  0.22985029098E+03 -0.61291271921E+03  0.82330439101E+03  0.00000000000E+00 0.  1.
         -1    1    6    6    0  502 -0.13466655478E+03 -0.15889193394E+03 -0.36927710057E+03  0.42396615980E+03  0.00000000000E+00 0.  1.
<mgrwt>
<rscale>  0 0.21509153E+04</rscale>
<asrwt>0</asrwt>
<pdfrwt beam="1">  1        1 0.12477097E+00 0.21509153E+04</pdfrwt>
<pdfrwt beam="2">  1       -1 0.21940491E+00 0.21509153E+04</pdfrwt>
<totfact> 0.21991480E+00</totfact>
</mgrwt>
</event>
<event>
12    1  0.1467288E-007  0.1329471E+04  0.7818608E-02  0.9006515E-01
          2   -1    0    0  501    0  0.00000000000E+00  0.00000000000E+00  0.40297300615E+04  0.40297300615E+04  0.00000000000E+00 0. -1.
         -2   -1    0    0    0  501 -0.00000000000E+00 -0.00000000000E+00 -0.10965336496E+03  0.10965336496E+03  0.00000000000E+00 0.  1.
         23    2    1    2    0    0 -0.21776097894E+03  0.83642572755E+01  0.19028555650E+04  0.19176108936E+04  0.94246661316E+02 0.  0.
        254    2    1    2    0    0  0.21776097894E+03 -0.83642572755E+01  0.20172211315E+04  0.22217725328E+04  0.90531888834E+03 0.  0.
        -24    2    4    4    0    0  0.67464956966E+02  0.10153113360E+02 -0.71178615317E+02  0.12638826072E+03  0.79075856239E+02 0.  0.
         24    2    4    4    0    0  0.15029602197E+03 -0.18517370635E+02  0.20883997468E+04  0.20953842721E+04  0.79309256340E+02 0.  0.
         11    1    3    3    0    0 -0.38145774821E+01 -0.19724969906E+02  0.11033590609E+03  0.11215006737E+03  0.00000000000E+00 0.  1.
        -11    1    3    3    0    0 -0.21394640145E+03  0.28089227182E+02  0.17925196590E+04  0.18054608262E+04  0.00000000000E+00 0. -1.
          2    1    6    6  502    0  0.85000148311E+02 -0.49273437669E+02  0.11224513717E+04  0.11267430846E+04  0.00000000000E+00 0. -1.
          3    1    5    5  503    0  0.89589037970E+01  0.28424694093E+02 -0.55698578614E+02  0.63170854444E+02  0.00000000000E+00 0. -1.
         -4    1    5    5    0  503  0.58506053170E+02 -0.18271580733E+02 -0.15480036703E+02  0.63217406276E+02  0.00000000000E+00 0.  1.
         -1    1    6    6    0  502  0.65295873658E+02  0.30756067034E+02  0.96594837504E+03  0.96864118745E+03  0.00000000000E+00 0.  1.
<mgrwt>
<rscale>  0 0.13294713E+04</rscale>
<asrwt>0</asrwt>
<pdfrwt beam="1">  1        2 0.61995836E+00 0.13294713E+04</pdfrwt>
<pdfrwt beam="2">  1       -2 0.16869752E-01 0.13294713E+04</pdfrwt>
<totfact> 0.93975021E+00</totfact>
</mgrwt>
</event>
<event>
12    1  0.1467288E-007  0.3238211E+04  0.7818608E-02  0.8178798E-01
         -2   -1    0    0    0  501 -0.00000000000E+00  0.00000000000E+00  0.13360506093E+04  0.13360506093E+04  0.00000000000E+00 0.  1.
          2   -1    0    0  501    0  0.00000000000E+00 -0.00000000000E+00 -0.19621282231E+04  0.19621282231E+04  0.00000000000E+00 0. -1.
         23    2    1    2    0    0  0.12172005549E+04  0.59791613430E+03 -0.91792829669E+03  0.16403392173E+04  0.95076260999E+02 0.  0.
        254    2    1    2    0    0 -0.12172005549E+04 -0.59791613430E+03  0.29185068285E+03  0.16578396151E+04  0.90784055538E+03 0.  0.
        -24    2    4    4    0    0 -0.70524143398E+03  0.13774511609E+03  0.21958088940E+03  0.75528626218E+03  0.76826906965E+02 0.  0.
         24    2    4    4    0    0 -0.51195912091E+03 -0.73566125038E+03  0.72269793451E+02  0.90255335297E+03  0.77974451656E+02 0.  0.
         11    1    3    3    0    0  0.94480709326E+03  0.50602884736E+03 -0.73507527711E+03  0.12996389117E+04  0.00000000000E+00 0. -1.
        -11    1    3    3    0    0  0.27239346164E+03  0.91887286933E+02 -0.18285301958E+03  0.34070030556E+03  0.00000000000E+00 0.  1.
          4    1    6    6  502    0 -0.11677232996E+02 -0.40053317500E+02  0.12910606566E+02  0.43672757814E+02  0.00000000000E+00 0. -1.
          3    1    5    5  503    0 -0.18895674448E+03  0.48855321230E+02  0.93681428985E+02  0.21648950051E+03  0.00000000000E+00 0. -1.
         -4    1    5    5    0  503 -0.51628468951E+03  0.88889794858E+02  0.12589946041E+03  0.53879676166E+03  0.00000000000E+00 0.  1.
         -3    1    6    6    0  502 -0.50028188792E+03 -0.69560793288E+03  0.59359186885E+02  0.85888059516E+03  0.00000000000E+00 0.  1.
<mgrwt>
<rscale>  0 0.32382110E+04</rscale>
<asrwt>0</asrwt>
<pdfrwt beam="1">  1        2 0.30186588E+00 0.32382110E+04</pdfrwt>
<pdfrwt beam="2">  1       -2 0.20554625E+00 0.32382110E+04</pdfrwt>
<totfact> 0.72037819E-01</totfact>
</mgrwt>
</event>
<event>
12    1  0.1467288E-007  0.1381965E+04  0.7818608E-02  0.8966977E-01
         -2   -1    0    0    0  501 -0.00000000000E+00  0.00000000000E+00  0.17481463669E+04  0.17481463669E+04  0.00000000000E+00 0.  1.
          2   -1    0    0  501    0  0.00000000000E+00 -0.00000000000E+00 -0.27312186441E+03  0.27312186441E+03  0.00000000000E+00 0. -1.
         23    2    1    2    0    0 -0.12983802000E+03  0.24614558091E+03  0.24226585434E+02  0.29393125493E+03  0.91449968544E+02 0.  0.
        254    2    1    2    0    0  0.12983802000E+03 -0.24614558091E+03  0.14507979171E+04  0.17273369764E+04  0.89522783435E+03 0.  0.
        -24    2    4    4    0    0  0.19159666256E+02  0.15710604800E+03  0.12395968242E+04  0.12521847357E+04  0.79479069738E+02 0.  0.
         24    2    4    4    0    0  0.11067835375E+03 -0.40325162891E+03  0.21120109282E+03  0.47515224068E+03  0.79386245741E+02 0.  0.
         13    1    3    3    0    0  0.23090191541E+01 -0.64254210428E+01 -0.32419498093E+01  0.75582963423E+01  0.00000000000E+00 0.  1.
        -13    1    3    3    0    0 -0.13214703916E+03  0.25257100195E+03  0.27468535243E+02  0.28637295859E+03  0.00000000000E+00 0. -1.
          2    1    6    6  502    0  0.61756254219E+02 -0.16950349912E+03  0.13203829056E+03  0.22356068823E+03  0.00000000000E+00 0. -1.
          1    1    5    5  503    0  0.82319618624E+01 -0.48405819141E+01  0.24511516759E+02  0.26306099734E+02  0.00000000000E+00 0. -1.
         -2    1    5    5    0  503  0.10927704393E+02  0.16194662992E+03  0.12150853075E+04  0.12258786360E+04  0.00000000000E+00 0.  1.
         -1    1    6    6    0  502  0.48922099528E+02 -0.23374812979E+03  0.79162802253E+02  0.25159155245E+03  0.00000000000E+00 0.  1.
<mgrwt>
<rscale>  0 0.13819653E+04</rscale>
<asrwt>0</asrwt>
<pdfrwt beam="1">  1        2 0.42018749E-01 0.13819653E+04</pdfrwt>
<pdfrwt beam="2">  1       -2 0.26894559E+00 0.13819653E+04</pdfrwt>
<totfact> 0.58596751E+00</totfact>
</mgrwt>
</event>
<event>
12    1  0.1467288E-007  0.1620385E+04  0.7818608E-02  0.8808122E-01
          1   -1    0    0  501    0  0.00000000000E+00  0.00000000000E+00  0.86603664077E+03  0.86603664077E+03  0.00000000000E+00 0. -1.
         -1   -1    0    0    0  501 -0.00000000000E+00 -0.00000000000E+00 -0.75794950028E+03  0.75794950028E+03  0.00000000000E+00 0.  1.
         23    2    1    2    0    0  0.45111168997E+03 -0.26093342821E+03 -0.14847720929E+03  0.54941676571E+03  0.90693384406E+02 0.  0.
        254    2    1    2    0    0 -0.45111168997E+03  0.26093342821E+03  0.25656434978E+03  0.10745693753E+04  0.90403875252E+03 0.  0.
        -24    2    4    4    0    0 -0.68369100610E+03  0.16381425949E+03  0.18202601604E+01  0.70750720338E+03  0.79338679439E+02 0.  0.
         24    2    4    4    0    0  0.23257931613E+03  0.97119168724E+02  0.25474408962E+03  0.36706217196E+03  0.79465814447E+02 0.  0.
         11    1    3    3    0    0  0.39694555834E+03 -0.26052814583E+03 -0.13312102222E+03  0.49311448733E+03  0.00000000000E+00 0.  1.
        -11    1    3    3    0    0  0.54166131628E+02 -0.40528238492E+00 -0.15356187069E+02  0.56302278379E+02  0.00000000000E+00 0. -1.
          4    1    6    6  502    0  0.66291510654E+02  0.44556480547E+02  0.13024263090E+03  0.15278411975E+03  0.00000000000E+00 0. -1.
          1    1    5    5  503    0 -0.56700117736E+03  0.16518122410E+03 -0.52521262271E+01  0.59059525629E+03  0.00000000000E+00 0. -1.
         -2    1    5    5    0  503 -0.11668982873E+03 -0.13669646079E+01  0.70723863875E+01  0.11691194708E+03  0.00000000000E+00 0.  1.
         -1    1    6    6    0  502  0.16628780547E+03  0.52562688177E+02  0.12450145872E+03  0.21427805221E+03  0.00000000000E+00 0.  1.
<mgrwt>
<rscale>  0 0.16203852E+04</rscale>
<asrwt>0</asrwt>
<pdfrwt beam="1">  1        1 0.13323641E+00 0.16203852E+04</pdfrwt>
<pdfrwt beam="2">  1       -1 0.11660762E+00 0.16203852E+04</pdfrwt>
<totfact> 0.12349455E+01</totfact>
</mgrwt>
</event>
<event>
12    1  0.1467288E-007  0.1244353E+04  0.7818608E-02  0.9074896E-01
         -2   -1    0    0    0  501 -0.00000000000E+00  0.00000000000E+00  0.10430812968E+03  0.10430812968E+03  0.00000000000E+00 0.  1.
          2   -1    0    0  501    0  0.00000000000E+00 -0.00000000000E+00 -0.37111556292E+04  0.37111556292E+04  0.00000000000E+00 0. -1.
         23    2    1    2    0    0  0.16720712198E+03  0.15834787549E+03 -0.32670046634E+03  0.40993168481E+03  0.90986373632E+02 0.  0.
        254    2    1    2    0    0 -0.16720712198E+03 -0.15834787549E+03 -0.32801470332E+04  0.34055320741E+04  0.88614438836E+03 0.  0.
        -24    2    4    4    0    0 -0.31502053060E+03  0.28159745403E+03 -0.18742104203E+04  0.19229164951E+04  0.80050527499E+02 0.  0.
         24    2    4    4    0    0  0.14781340862E+03 -0.43994532952E+03 -0.14059366129E+04  0.14826155790E+04  0.78041647341E+02 0.  0.
         11    1    3    3    0    0  0.12347545717E+03  0.55489544399E+02 -0.19146081597E+03  0.23448352205E+03  0.00000000000E+00 0. -1.
        -11    1    3    3    0    0  0.43731664812E+02  0.10285833109E+03 -0.13523965037E+03  0.17544816275E+03  0.00000000000E+00 0.  1.
          2    1    6    6  502    0  0.94233338285E+02 -0.18541487170E+03 -0.70186540781E+03  0.73203391135E+03  0.00000000000E+00 0. -1.
          1    1    5    5  503    0 -0.27178659647E+03  0.26891021504E+03 -0.17337230917E+04  0.17753806398E+04  0.00000000000E+00 0. -1.
         -2    1    5    5    0  503 -0.43233934129E+02  0.12687238993E+02 -0.14048732862E+03  0.14753585529E+03  0.00000000000E+00 0.  1.
         -1    1    6    6    0  502  0.53580070332E+02 -0.25453045783E+03 -0.70407120513E+03  0.75058166764E+03  0.00000000000E+00 0.  1.
<mgrwt>
<rscale>  0 0.12443532E+04</rscale>
<asrwt>0</asrwt>
<pdfrwt beam="1">  1        2 0.57094706E+00 0.12443532E+04</pdfrwt>
<pdfrwt beam="2">  1       -2 0.16047403E-01 0.12443532E+04</pdfrwt>
<totfact> 0.18154216E+01</totfact>
</mgrwt>
</event>
<event>
12    1  0.1467288E-007  0.2382170E+04  0.7818608E-02  0.8446209E-01
         -1   -1    0    0    0  501 -0.00000000000E+00  0.00000000000E+00  0.64816440927E+03  0.64816440927E+03  0.00000000000E+00 0.  1.
          1   -1    0    0  501    0  0.00000000000E+00 -0.00000000000E+00 -0.21887704134E+04  0.21887704134E+04  0.00000000000E+00 0. -1.
         23    2    1    2    0    0  0.92191740667E+03 -0.36727035114E+03 -0.90247931409E+03  0.13445433345E+04  0.92242346650E+02 0.  0.
        254    2    1    2    0    0 -0.92191740667E+03  0.36727035114E+03 -0.63812669003E+03  0.14923914881E+04  0.91389685729E+03 0.  0.
        -24    2    4    4    0    0 -0.69941920661E+03  0.57432550957E+03 -0.72869567096E+03  0.11653104167E+04  0.88960490606E+02 0.  0.
         24    2    4    4    0    0 -0.22249820006E+03 -0.20705515843E+03  0.90568980927E+02  0.32708107142E+03  0.80012494735E+02 0.  0.
         11    1    3    3    0    0  0.16133990665E+03 -0.41062125326E+02 -0.11642928447E+03  0.20315620073E+03  0.00000000000E+00 0.  1.
        -11    1    3    3    0    0  0.76057750002E+03 -0.32620822581E+03 -0.78605002963E+03  0.11413871338E+04  0.00000000000E+00 0. -1.
          2    1    6    6  502    0 -0.14854299444E+02 -0.53108124980E+02  0.79823095621E+01  0.55721094900E+02  0.00000000000E+00 0. -1.
          3    1    5    5  503    0 -0.26775499476E+03  0.26689656134E+03 -0.27214431511E+03  0.46582082384E+03  0.00000000000E+00 0. -1.
         -4    1    5    5    0  503 -0.43166421185E+03  0.30742894823E+03 -0.45655135584E+03  0.69948959286E+03  0.00000000000E+00 0.  1.
         -1    1    6    6    0  502 -0.20764390062E+03 -0.15394703345E+03  0.82586671365E+02  0.27135997652E+03  0.00000000000E+00 0.  1.
<mgrwt>
<rscale>  0 0.23821697E+04</rscale>
<asrwt>0</asrwt>
<pdfrwt beam="1">  1        1 0.33673391E+00 0.23821697E+04</pdfrwt>
<pdfrwt beam="2">  1       -1 0.99717601E-01 0.23821697E+04</pdfrwt>
<totfact> 0.19086206E+00</totfact>
</mgrwt>
</event>
<event>
12    1  0.1467288E-007  0.1787160E+04  0.7818608E-02  0.8713157E-01
          2   -1    0    0  501    0  0.00000000000E+00  0.00000000000E+00  0.33222480452E+04  0.33222480452E+04  0.00000000000E+00 0. -1.
         -2   -1    0    0    0  501 -0.00000000000E+00 -0.00000000000E+00 -0.24034498267E+03  0.24034498267E+03  0.00000000000E+00 0.  1.
         23    2    1    2    0    0  0.24470358638E+03 -0.41119641099E+03  0.20687657327E+04  0.21252999578E+04  0.90254752229E+02 0.  0.
        254    2    1    2    0    0 -0.24470358638E+03  0.41119641099E+03  0.10131373299E+04  0.14372930701E+04  0.90022318709E+03 0.  0.
        -24    2    4    4    0    0 -0.98443885082E+02  0.43576615541E+03  0.11398970226E+04  0.12266205633E+04  0.75162779912E+02 0.  0.
         24    2    4    4    0    0 -0.14625970129E+03 -0.24569744420E+02 -0.12675969268E+03  0.21067250683E+03  0.79494105947E+02 0.  0.
         13    1    3    3    0    0 -0.62494142986E+01 -0.29291836516E+02  0.13038312389E+03  0.13377901876E+03  0.00000000000E+00 0.  1.
        -13    1    3    3    0    0  0.25095300068E+03 -0.38190457448E+03  0.19383826088E+04  0.19915209390E+04  0.00000000000E+00 0. -1.
          2    1    6    6  502    0  0.51397712277E+01 -0.47377903855E+01  0.53173291548E+01  0.87828181895E+01  0.00000000000E+00 0. -1.
          3    1    5    5  503    0 -0.30649398534E+02  0.34898823504E+02  0.12038900103E+03  0.12903807609E+03  0.00000000000E+00 0. -1.
         -4    1    5    5    0  503 -0.67794486548E+02  0.40086733191E+03  0.10195080215E+04  0.10975824872E+04  0.00000000000E+00 0.  1.
         -1    1    6    6    0  502 -0.15139947252E+03 -0.19831954034E+02 -0.13207702184E+03  0.20188968864E+03  0.00000000000E+00 0.  1.
<mgrwt>
<rscale>  0 0.17871605E+04</rscale>
<asrwt>0</asrwt>
<pdfrwt beam="1">  1        2 0.51111505E+00 0.17871605E+04</pdfrwt>
<pdfrwt beam="2">  1       -2 0.36976154E-01 0.17871605E+04</pdfrwt>
<totfact> 0.70572750E+00</totfact>
</mgrwt>
</event>
<event>
12    1  0.1467288E-007  0.1308182E+04  0.7818608E-02  0.9023102E-01
          1   -1    0    0  501    0  0.00000000000E+00  0.00000000000E+00  0.35706570465E+03  0.35706570465E+03  0.00000000000E+00 0. -1.
         -1   -1    0    0    0  501 -0.00000000000E+00 -0.00000000000E+00 -0.11981976312E+04  0.11981976312E+04  0.00000000000E+00 0.  1.
         23    2    1    2    0    0 -0.26876253432E+03  0.20250968194E+03 -0.19005855660E+03  0.39711543940E+03  0.91295926174E+02 0.  0.
        254    2    1    2    0    0  0.26876253432E+03 -0.20250968194E+03 -0.65107336991E+03  0.11581478964E+04  0.89675333610E+03 0.  0.
        -24    2    4    4    0    0 -0.25328309974E+03 -0.13098650121E+02 -0.51680453539E+03  0.58121120358E+03  0.79972696079E+02 0.  0.
         24    2    4    4    0    0  0.52204563406E+03 -0.18941103182E+03 -0.13426883452E+03  0.57693669283E+03  0.80122684612E+02 0.  0.
         11    1    3    3    0    0 -0.25106106135E+03  0.19600857436E+03 -0.14840111501E+03  0.35138854376E+03  0.00000000000E+00 0.  1.
        -11    1    3    3    0    0 -0.17701472971E+02  0.65011075841E+01 -0.41657441586E+02  0.45726895638E+02  0.00000000000E+00 0. -1.
          4    1    6    6  502    0  0.31310475892E+03 -0.12598520534E+03 -0.11968740448E+03  0.35809487125E+03  0.00000000000E+00 0. -1.
          1    1    5    5  503    0 -0.15700267902E+03 -0.16506942188E+02 -0.23253626531E+03  0.28106126564E+03  0.00000000000E+00 0. -1.
         -2    1    5    5    0  503 -0.96280420715E+02  0.34082920665E+01 -0.28426827009E+03  0.30014993794E+03  0.00000000000E+00 0.  1.
         -3    1    6    6    0  502  0.20894087514E+03 -0.63425826484E+02 -0.14581430033E+02  0.21884182158E+03  0.00000000000E+00 0.  1.
<mgrwt>
<rscale>  0 0.13081824E+04</rscale>
<asrwt>0</asrwt>
<pdfrwt beam="1">  1        1 0.54933184E-01 0.13081824E+04</pdfrwt>
<pdfrwt beam="2">  1       -1 0.18433810E+00 0.13081824E+04</pdfrwt>
<totfact> 0.13270531E+01</totfact>
</mgrwt>
</event>
<event>
12    1  0.2102186E-007  0.1712277E+04  0.7818608E-02  0.8754393E-01
          1   -1    0    0  501    0  0.00000000000E+00  0.00000000000E+00  0.15866189190E+04  0.15866189190E+04  0.00000000000E+00 0. -1.
         -1   -1    0    0    0  501 -0.00000000000E+00 -0.00000000000E+00 -0.46197159254E+03  0.46197159254E+03  0.00000000000E+00 0.  1.
         23    2    1    2    0    0  0.27866052374E+03 -0.33423075609E+03 -0.11152049441E+03  0.45777314420E+03  0.88076926998E+02 0.  0.
        254    2    1    2    0    0 -0.27866052374E+03  0.33423075609E+03  0.12361678208E+04  0.15908173673E+04  0.90179106727E+03 0.  0.
        -24    2    4    4    0    0  0.99119236016E+01 -0.23544752172E+03  0.70248312798E+02  0.25903565605E+03  0.81430116913E+02 0.  0.
         24    2    4    4    0    0 -0.28857244734E+03  0.56967827781E+03  0.11659195080E+04  0.13317817112E+04  0.80416600253E+02 0.  0.
         11    1    3    3    0    0  0.25506706781E+03 -0.25672999277E+03 -0.78642496634E+02  0.37034327393E+03  0.00000000000E+00 0.  1.
        -11    1    3    3    0    0  0.23593455934E+02 -0.77500763313E+02 -0.32877997780E+02  0.87429870267E+02  0.00000000000E+00 0. -1.
          4    1    6    6  502    0 -0.52875188320E+01  0.34024745786E+02  0.98725745454E+02  0.10455818474E+03  0.00000000000E+00 0. -1.
          1    1    5    5  503    0  0.12484640394E+01 -0.97884563574E+01  0.27477557752E+02  0.29195696949E+02  0.00000000000E+00 0. -1.
         -2    1    5    5    0  503  0.86634595622E+01 -0.22565906537E+03  0.42770755046E+02  0.22983995910E+03  0.00000000000E+00 0.  1.
         -3    1    6    6    0  502 -0.28328492851E+03  0.53565353203E+03  0.10671937626E+04  0.12272235265E+04  0.00000000000E+00 0.  1.
<mgrwt>
<rscale>  0 0.17122767E+04</rscale>
<asrwt>0</asrwt>
<pdfrwt beam="1">  1        1 0.24409522E+00 0.17122767E+04</pdfrwt>
<pdfrwt beam="2">  1       -1 0.71072553E-01 0.17122767E+04</pdfrwt>
<totfact> 0.10833564E+01</totfact>
</mgrwt>
</event>
<event>
12    1  0.1467288E-007  0.1295432E+04  0.7818608E-02  0.9033196E-01
          1   -1    0    0  501    0  0.00000000000E+00  0.00000000000E+00  0.24727138743E+03  0.24727138743E+03  0.00000000000E+00 0. -1.
         -1   -1    0    0    0  501 -0.00000000000E+00 -0.00000000000E+00 -0.16966621073E+04  0.16966621073E+04  0.00000000000E+00 0.  1.
         23    2    1    2    0    0  0.26997442466E+03 -0.11226933356E+03 -0.16146047384E+03  0.34648896269E+03  0.92165738869E+02 0.  0.
        254    2    1    2    0    0 -0.26997442466E+03  0.11226933356E+03 -0.12879302460E+04  0.15974445320E+04  0.89865127889E+03 0.  0.
        -24    2    4    4    0    0 -0.46060010153E+03  0.32936733475E+03 -0.11118585747E+04  0.12501518894E+04  0.77556184270E+02 0.  0.
         24    2    4    4    0    0  0.19062567687E+03 -0.21709800118E+03 -0.17607167134E+03  0.34729264264E+03  0.78366162239E+02 0.  0.
         11    1    3    3    0    0  0.20467219998E+03 -0.68125046156E+02 -0.15836915183E+03  0.26760515617E+03  0.00000000000E+00 0. -1.
        -11    1    3    3    0    0  0.65302224684E+02 -0.44144287408E+02 -0.30913220165E+01  0.78883806521E+02  0.00000000000E+00 0.  1.
          2    1    6    6  502    0  0.13373641716E+03 -0.18341619916E+03 -0.16411356011E+03  0.28010746509E+03  0.00000000000E+00 0. -1.
          1    1    5    5  503    0 -0.10387098179E+03  0.70797806801E+02 -0.18194333472E+03  0.22114449429E+03  0.00000000000E+00 0. -1.
         -2    1    5    5    0  503 -0.35672911974E+03  0.25856952794E+03 -0.92991523993E+03  0.10290073951E+04  0.00000000000E+00 0.  1.
         -1    1    6    6    0  502  0.56889259708E+02 -0.33681802024E+02 -0.11958111228E+02  0.67185177546E+02  0.00000000000E+00 0.  1.
<mgrwt>
<rscale>  0 0.12954320E+04</rscale>
<asrwt>0</asrwt>
<pdfrwt beam="1">  1        1 0.38041751E-01 0.12954320E+04</pdfrwt>
<pdfrwt beam="2">  1       -1 0.26102495E+00 0.12954320E+04</pdfrwt>
<totfact> 0.65659131E+00</totfact>
</mgrwt>
</event>
<event>
12    1  0.1467288E-007  0.1914580E+04  0.7818608E-02  0.8647633E-01
         -2   -1    0    0    0  501 -0.00000000000E+00  0.00000000000E+00  0.10239884374E+04  0.10239884374E+04  0.00000000000E+00 0. -1.
          2   -1    0    0  501    0  0.00000000000E+00 -0.00000000000E+00 -0.89493617949E+03  0.89493617949E+03  0.00000000000E+00 0.  1.
         23    2    1    2    0    0  0.31507815143E+03  0.62472917405E+03  0.32763556774E+03  0.77848704081E+03  0.95583602385E+02 0.  0.
        254    2    1    2    0    0 -0.31507815143E+03 -0.62472917405E+03 -0.19858330983E+03  0.11404375761E+04  0.87840864726E+03 0.  0.
        -24    2    4    4    0    0 -0.12928619756E+03 -0.31219213686E+03  0.33900004830E+03  0.48660138302E+03  0.87641440027E+02 0.  0.
         24    2    4    4    0    0 -0.18579195387E+03 -0.31253703719E+03 -0.53758335813E+03  0.65383619306E+03  0.79421978573E+02 0.  0.
         13    1    3    3    0    0  0.45241334253E-01  0.47387336379E+02  0.11547245745E+02  0.48773974415E+02  0.00000000000E+00 0.  1.
        -13    1    3    3    0    0  0.31503291010E+03  0.57734183767E+03  0.31608832199E+03  0.72971306639E+03  0.00000000000E+00 0. -1.
          4    1    6    6  502    0 -0.18949618433E+03 -0.28963362753E+03 -0.52029314454E+03  0.62490111084E+03  0.00000000000E+00 0. -1.
          3    1    5    5  503    0 -0.76966507209E+02 -0.25958551069E+03  0.29466497254E+03  0.40016987223E+03  0.00000000000E+00 0. -1.
         -4    1    5    5    0  503 -0.52319690354E+02 -0.52606626167E+02  0.44335075759E+02  0.86431510793E+02  0.00000000000E+00 0.  1.
         -3    1    6    6    0  502  0.37042304638E+01 -0.22903409652E+02 -0.17290213592E+02  0.28935082220E+02  0.00000000000E+00 0.  1.
<mgrwt>
<rscale>  0 0.19145802E+04</rscale>
<asrwt>0</asrwt>
<pdfrwt beam="1">  1        2 0.13768249E+00 0.19145802E+04</pdfrwt>
<pdfrwt beam="2">  1       -2 0.15753668E+00 0.19145802E+04</pdfrwt>
<totfact> 0.72620666E+00</totfact>
</mgrwt>
</event>
<event>
12    1  0.1467288E-007  0.2788178E+04  0.7818608E-02  0.8306948E-01
          2   -1    0    0  501    0  0.00000000000E+00  0.00000000000E+00  0.25485195696E+04  0.25485195696E+04  0.00000000000E+00 0.  1.
         -2   -1    0    0    0  501 -0.00000000000E+00 -0.00000000000E+00 -0.76259323344E+03  0.76259323344E+03  0.00000000000E+00 0. -1.
         23    2    1    2    0    0 -0.40922692362E+03  0.66468729900E+03 -0.35509523366E+03  0.86233993480E+03  0.90893661567E+02 0.  0.
        254    2    1    2    0    0  0.40922692362E+03 -0.66468729900E+03  0.21410215698E+04  0.24487728683E+04  0.89623619508E+03 0.  0.
        -24    2    4    4    0    0  0.22415559545E+02 -0.19702216869E+03 -0.93479611221E+01  0.21277968944E+03  0.76600389018E+02 0.  0.
         24    2    4    4    0    0  0.38681136408E+03 -0.46766513031E+03  0.21503695310E+04  0.22359931788E+04  0.85103881087E+02 0.  0.
         11    1    3    3    0    0 -0.75979152527E+02  0.66134542858E+02 -0.42763018212E+02  0.10943164581E+03  0.00000000000E+00 0.  1.
        -11    1    3    3    0    0 -0.33324777110E+03  0.59855275614E+03 -0.31233221545E+03  0.75290828899E+03  0.00000000000E+00 0. -1.
          4    1    6    6  502    0  0.35424567519E+03 -0.39442913124E+03  0.19304093952E+04  0.20018853042E+04  0.00000000000E+00 0. -1.
          1    1    5    5  503    0  0.85385694555E+01 -0.12772997874E+03 -0.42278099446E+02  0.13481577181E+03  0.00000000000E+00 0. -1.
         -2    1    5    5    0  503  0.13876990089E+02 -0.69292189951E+02  0.32930138324E+02  0.77963917630E+02  0.00000000000E+00 0.  1.
         -3    1    6    6    0  502  0.32565688885E+02 -0.73235999065E+02  0.21996013572E+03  0.23410787462E+03  0.00000000000E+00 0.  1.
<mgrwt>
<rscale>  0 0.27881777E+04</rscale>
<asrwt>0</asrwt>
<pdfrwt beam="1">  1        2 0.39207993E+00 0.27881777E+04</pdfrwt>
<pdfrwt beam="2">  1       -2 0.11732204E+00 0.27881777E+04</pdfrwt>
<totfact> 0.15948744E+00</totfact>
</mgrwt>
</event>
<event>
12    1  0.1467288E-007  0.1797979E+04  0.7818608E-02  0.8707375E-01
          1   -1    0    0  501    0  0.00000000000E+00  0.00000000000E+00  0.66921966973E+03  0.66921966973E+03  0.00000000000E+00 0. -1.
         -1   -1    0    0    0  501 -0.00000000000E+00 -0.00000000000E+00 -0.12076480636E+04  0.12076480636E+04  0.00000000000E+00 0.  1.
         23    2    1    2    0    0 -0.24161382375E+03  0.40343045739E+03 -0.71585107991E+03  0.86127825087E+03  0.90686730198E+02 0.  0.
        254    2    1    2    0    0  0.24161382375E+03 -0.40343045739E+03  0.17742268608E+03  0.10155894824E+04  0.88250201897E+03 0.  0.
        -24    2    4    4    0    0  0.51818012891E+03 -0.26930083280E+03 -0.93103566595E+02  0.59650630082E+03  0.78217058621E+02 0.  0.
         24    2    4    4    0    0 -0.27656630516E+03 -0.13412962459E+03  0.27052625268E+03  0.41908318160E+03  0.89255713420E+02 0.  0.
         11    1    3    3    0    0 -0.78929228284E+02  0.17112442455E+03 -0.35898993126E+03  0.40544686767E+03  0.00000000000E+00 0. -1.
        -11    1    3    3    0    0 -0.16268459547E+03  0.23230603284E+03 -0.35686114865E+03  0.45583138320E+03  0.00000000000E+00 0.  1.
          2    1    6    6  502    0 -0.76658620496E+01 -0.29280127962E+02  0.15847391212E+02  0.34164764637E+02  0.00000000000E+00 0. -1.
          1    1    5    5  503    0  0.56439058152E+01  0.25231178999E+01  0.52023240492E+01  0.80798497696E+01  0.00000000000E+00 0. -1.
         -2    1    5    5    0  503  0.51253622309E+03 -0.27182395070E+03 -0.98305890644E+02  0.58842645105E+03  0.00000000000E+00 0.  1.
         -1    1    6    6    0  502 -0.26890044311E+03 -0.10484949662E+03  0.25467886146E+03  0.38491841697E+03  0.00000000000E+00 0.  1.
<mgrwt>
<rscale>  0 0.17979787E+04</rscale>
<asrwt>0</asrwt>
<pdfrwt beam="1">  1        1 0.10295687E+00 0.17979787E+04</pdfrwt>
<pdfrwt beam="2">  1       -1 0.18579201E+00 0.17979787E+04</pdfrwt>
<totfact> 0.52064188E+00</totfact>
</mgrwt>
</event>
<event>
12    1  0.1467288E-007  0.1357048E+04  0.7818608E-02  0.8985510E-01
          1   -1    0    0  501    0  0.00000000000E+00  0.00000000000E+00  0.77258657897E+03  0.77258657897E+03  0.00000000000E+00 0. -1.
         -1   -1    0    0    0  501 -0.00000000000E+00 -0.00000000000E+00 -0.59591358061E+03  0.59591358061E+03  0.00000000000E+00 0.  1.
         23    2    1    2    0    0  0.10503046767E+03 -0.20194978525E+03  0.35433782493E+03  0.43109070683E+03  0.92026020458E+02 0.  0.
        254    2    1    2    0    0 -0.10503046767E+03  0.20194978525E+03 -0.17766482657E+03  0.93740945275E+03  0.89182766082E+03 0.  0.
        -24    2    4    4    0    0  0.20164198762E+03  0.19102426853E+02 -0.43598599310E+03  0.48775717797E+03  0.82455349134E+02 0.  0.
         24    2    4    4    0    0 -0.30667245529E+03  0.18284735840E+03  0.25832116652E+03  0.44965227478E+03  0.89309528239E+02 0.  0.
         11    1    3    3    0    0  0.65569260635E+01 -0.66206691078E+02  0.16641487018E+03  0.17922117129E+03  0.00000000000E+00 0. -1.
        -11    1    3    3    0    0  0.98473541602E+02 -0.13574309418E+03  0.18792295475E+03  0.25186953554E+03  0.00000000000E+00 0.  1.
          4    1    6    6  502    0 -0.30647895984E+03  0.18404114938E+03  0.26364361290E+03  0.44419416038E+03  0.00000000000E+00 0. -1.
          3    1    5    5  503    0  0.12823784095E+03  0.88210144252E+01 -0.35701728183E+03  0.37945236022E+03  0.00000000000E+00 0. -1.
         -4    1    5    5    0  503  0.73404146667E+02  0.10281412428E+02 -0.78968711264E+02  0.10830481775E+03  0.00000000000E+00 0.  1.
         -3    1    6    6    0  502 -0.19349545136E+00 -0.11937909787E+01 -0.53224463792E+01  0.54581144043E+01  0.00000000000E+00 0.  1.
<mgrwt>
<rscale>  0 0.13570480E+04</rscale>
<asrwt>0</asrwt>
<pdfrwt beam="1">  1        1 0.11885947E+00 0.13570480E+04</pdfrwt>
<pdfrwt beam="2">  1       -1 0.91679013E-01 0.13570480E+04</pdfrwt>
<totfact> 0.26526069E+01</totfact>
</mgrwt>
</event>
<event>
12    1  0.1467288E-007  0.1696871E+04  0.7818608E-02  0.8763151E-01
         -2   -1    0    0    0  501 -0.00000000000E+00  0.00000000000E+00  0.22972389696E+04  0.22972389696E+04  0.00000000000E+00 0.  1.
          2   -1    0    0  501    0  0.00000000000E+00 -0.00000000000E+00 -0.31335144470E+03  0.31335144470E+03  0.00000000000E+00 0. -1.
         23    2    1    2    0    0  0.53884699828E+03 -0.44742297115E+02  0.89430779221E+03  0.10490188605E+04  0.91083377784E+02 0.  0.
        254    2    1    2    0    0 -0.53884699828E+03  0.44742297115E+02  0.10895797327E+04  0.15615715539E+04  0.97926695194E+03 0.  0.
        -24    2    4    4    0    0  0.12050151770E+03  0.34970549453E+03  0.27654015319E+03  0.46856212386E+03  0.79129380866E+02 0.  0.
         24    2    4    4    0    0 -0.65934851598E+03 -0.30496319741E+03  0.81303957955E+03  0.10930094300E+04  0.76767433825E+02 0.  0.
         13    1    3    3    0    0  0.10876163378E+03 -0.30329156555E+02  0.24879123745E+03  0.27321425759E+03  0.00000000000E+00 0. -1.
        -13    1    3    3    0    0  0.43008536450E+03 -0.14413140560E+02  0.64551655476E+03  0.77580460287E+03  0.00000000000E+00 0.  1.
          4    1    6    6  502    0 -0.53590313406E+03 -0.27968407639E+03  0.67209964584E+03  0.90395424974E+03  0.00000000000E+00 0. -1.
          3    1    5    5  503    0  0.13743920039E+02  0.13448421920E+03  0.12760657953E+03  0.18589873504E+03  0.00000000000E+00 0. -1.
         -4    1    5    5    0  503  0.10675759766E+03  0.21522127532E+03  0.14893357366E+03  0.28266338881E+03  0.00000000000E+00 0.  1.
         -3    1    6    6    0  502 -0.12344538192E+03 -0.25279121020E+02  0.14093993370E+03  0.18905518027E+03  0.00000000000E+00 0.  1.
<mgrwt>
<rscale>  0 0.16968714E+04</rscale>
<asrwt>0</asrwt>
<pdfrwt beam="1">  1        2 0.48207916E-01 0.16968714E+04</pdfrwt>
<pdfrwt beam="2">  1       -2 0.35342137E+00 0.16968714E+04</pdfrwt>
<totfact> 0.14806034E+00</totfact>
</mgrwt>
</event>
<event>
12    1  0.1467288E-007  0.3622574E+04  0.7818608E-02  0.8085340E-01
         -2   -1    0    0    0  501 -0.00000000000E+00  0.00000000000E+00  0.11936188309E+04  0.11936188309E+04  0.00000000000E+00 0.  1.
          2   -1    0    0  501    0  0.00000000000E+00 -0.00000000000E+00 -0.27485835898E+04  0.27485835898E+04  0.00000000000E+00 0. -1.
         23    2    1    2    0    0  0.90040218628E+03  0.37359807321E+03 -0.22460104760E+04  0.24501311869E+04  0.90995369648E+02 0.  0.
        254    2    1    2    0    0 -0.90040218628E+03 -0.37359807321E+03  0.69104571716E+03  0.14920712338E+04  0.89355065118E+03 0.  0.
        -24    2    4    4    0    0  0.84638985404E+02  0.13521649945E+03 -0.89849127240E+01  0.17844799686E+03  0.79471374426E+02 0.  0.
         24    2    4    4    0    0 -0.98504117168E+03 -0.50881457266E+03  0.70003062988E+03  0.13136232370E+04  0.79779362281E+02 0.  0.
         13    1    3    3    0    0  0.62247804838E+03  0.26320111261E+03 -0.16578079159E+04  0.17902739545E+04  0.00000000000E+00 0. -1.
        -13    1    3    3    0    0  0.27792413790E+03  0.11039696060E+03 -0.58820256018E+03  0.65985723239E+03  0.00000000000E+00 0.  1.
          2    1    6    6  502    0 -0.88798364815E+03 -0.46405504385E+03  0.60378489257E+03  0.11697941014E+04  0.00000000000E+00 0. -1.
          3    1    5    5  503    0  0.91582132582E+02  0.14170102507E+03 -0.86551684507E+01  0.16894194108E+03  0.00000000000E+00 0. -1.
         -4    1    5    5    0  503 -0.69431471781E+01 -0.64845256204E+01 -0.32974427332E+00  0.95060557828E+01  0.00000000000E+00 0.  1.
         -1    1    6    6    0  502 -0.97057523536E+02 -0.44759528809E+02  0.96245737316E+02  0.14382913559E+03  0.00000000000E+00 0.  1.
<mgrwt>
<rscale>  0 0.36225743E+04</rscale>
<asrwt>0</asrwt>
<pdfrwt beam="1">  1        2 0.42285901E+00 0.36225743E+04</pdfrwt>
<pdfrwt beam="2">  1       -2 0.18363367E+00 0.36225743E+04</pdfrwt>
<totfact> 0.34576764E-01</totfact>
</mgrwt>
</event>
<event>
12    1  0.1467288E-007  0.1314396E+04  0.7818608E-02  0.9018226E-01
          1   -1    0    0  501    0  0.00000000000E+00  0.00000000000E+00  0.90092155343E+03  0.90092155343E+03  0.00000000000E+00 0. -1.
         -1   -1    0    0    0  501 -0.00000000000E+00 -0.00000000000E+00 -0.47940816236E+03  0.47940816236E+03  0.00000000000E+00 0.  1.
         23    2    1    2    0    0 -0.18787239404E+03 -0.27749886913E+03  0.51013669505E+02  0.35069829215E+03  0.89917956088E+02 0.  0.
        254    2    1    2    0    0  0.18787239404E+03  0.27749886913E+03  0.37049972157E+03  0.10296314236E+04  0.90031614784E+03 0.  0.
        -24    2    4    4    0    0  0.39475348068E+03 -0.32877777445E+02 -0.10742255519E+03  0.41823270185E+03  0.80422190806E+02 0.  0.
         24    2    4    4    0    0 -0.20688108664E+03  0.31037664658E+03  0.47792227676E+03  0.61139872180E+03  0.79153317296E+02 0.  0.
         11    1    3    3    0    0 -0.76506600002E+02 -0.93494413450E+02  0.61101692770E+02  0.13538050838E+03  0.00000000000E+00 0. -1.
        -11    1    3    3    0    0 -0.11136579403E+03 -0.18400445568E+03 -0.10088023265E+02  0.21531778376E+03  0.00000000000E+00 0.  1.
          4    1    6    6  502    0 -0.82758718730E+01 -0.41670943953E+01  0.13184215497E+02  0.16114535960E+02  0.00000000000E+00 0. -1.
          1    1    5    5  503    0  0.20787969621E+03  0.96892086644E+01 -0.86742284939E+02  0.22545969231E+03  0.00000000000E+00 0. -1.
         -2    1    5    5    0  503  0.18687378447E+03 -0.42566986110E+02 -0.20680270251E+02  0.19277300953E+03  0.00000000000E+00 0.  1.
         -3    1    6    6    0  502 -0.19860521477E+03  0.31454374097E+03  0.46473806126E+03  0.59528418584E+03  0.00000000000E+00 0.  1.
<mgrwt>
<rscale>  0 0.13143959E+04</rscale>
<asrwt>0</asrwt>
<pdfrwt beam="1">  1        1 0.13860332E+00 0.13143959E+04</pdfrwt>
<pdfrwt beam="2">  1       -1 0.73755102E-01 0.13143959E+04</pdfrwt>
<totfact> 0.33019485E+01</totfact>
</mgrwt>
</event>
<event>
12    1  0.1467288E-007  0.1490733E+04  0.7818608E-02  0.8890639E-01
         -2   -1    0    0    0  501 -0.00000000000E+00  0.00000000000E+00  0.56785194049E+03  0.56785194049E+03  0.00000000000E+00 0.  1.
          2   -1    0    0  501    0  0.00000000000E+00 -0.00000000000E+00 -0.97837355928E+03  0.97837355928E+03  0.00000000000E+00 0. -1.
         23    2    1    2    0    0  0.45885458703E+03 -0.93335786707E+01 -0.22725374913E+03  0.52014591052E+03  0.90955230770E+02 0.  0.
        254    2    1    2    0    0 -0.45885458703E+03  0.93335786707E+01 -0.18326786966E+03  0.10260795892E+04  0.89923165185E+03 0.  0.
        -24    2    4    4    0    0  0.24282454682E+03  0.13616694778E+03 -0.86836941959E+02  0.30199996370E+03  0.78473724125E+02 0.  0.
         24    2    4    4    0    0 -0.70167913385E+03 -0.12683336911E+03 -0.96430927700E+02  0.72407962555E+03  0.80944857226E+02 0.  0.
         13    1    3    3    0    0  0.22392023740E+03 -0.26204424076E+02 -0.66761199724E+02  0.23512550340E+03  0.00000000000E+00 0.  1.
        -13    1    3    3    0    0  0.23493434963E+03  0.16870845405E+02 -0.16049254940E+03  0.28502040712E+03  0.00000000000E+00 0. -1.
          2    1    6    6  502    0 -0.19323748220E+02 -0.16475943648E+02  0.36322523916E+01  0.25652626021E+02  0.00000000000E+00 0. -1.
          1    1    5    5  503    0  0.67601717079E+02  0.43873027358E+00 -0.20625172140E+02  0.70679433799E+02  0.00000000000E+00 0. -1.
         -2    1    5    5    0  503  0.17522282975E+03  0.13572821751E+03 -0.66211769819E+02  0.23132052990E+03  0.00000000000E+00 0.  1.
         -1    1    6    6    0  502 -0.68235538563E+03 -0.11035742546E+03 -0.10006318009E+03  0.69842699953E+03  0.00000000000E+00 0.  1.
<mgrwt>
<rscale>  0 0.14907331E+04</rscale>
<asrwt>0</asrwt>
<pdfrwt beam="1">  1        2 0.15051901E+00 0.14907331E+04</pdfrwt>
<pdfrwt beam="2">  1       -2 0.87361838E-01 0.14907331E+04</pdfrwt>
<totfact> 0.28470988E+01</totfact>
</mgrwt>
</event>
<event>
12    1  0.1467288E-007  0.1142988E+04  0.7818608E-02  0.9164276E-01
          1   -1    0    0  501    0  0.00000000000E+00  0.00000000000E+00  0.25732971747E+04  0.25732971747E+04  0.00000000000E+00 0. -1.
         -1   -1    0    0    0  501 -0.00000000000E+00 -0.00000000000E+00 -0.12692107945E+03  0.12692107945E+03  0.00000000000E+00 0.  1.
         23    2    1    2    0    0 -0.68120279918E+02  0.15380097259E+02  0.28587864326E+02  0.11825076254E+03  0.91044258063E+02 0.  0.
        254    2    1    2    0    0  0.68120279918E+02 -0.15380097259E+02  0.24177882309E+04  0.25819674916E+04  0.90331571350E+03 0.  0.
        -24    2    4    4    0    0  0.27628774891E+03 -0.15612650387E+03  0.28908660466E+03  0.43686659310E+03  0.81061395078E+02 0.  0.
         24    2    4    4    0    0 -0.20816746899E+03  0.14074640661E+03  0.21287016263E+04  0.21451008985E+04  0.83330696836E+02 0.  0.
         11    1    3    3    0    0 -0.61349361024E+02  0.11255926634E+02 -0.22683523693E+02  0.66370040151E+02  0.00000000000E+00 0.  1.
        -11    1    3    3    0    0 -0.67709188936E+01  0.41241706250E+01  0.51271388019E+02  0.51880722387E+02  0.00000000000E+00 0. -1.
          4    1    6    6  502    0 -0.87958250117E+02  0.28500039931E+02  0.53451570202E+03  0.54245363097E+03  0.00000000000E+00 0. -1.
          1    1    5    5  503    0  0.17379642076E+02  0.57282316853E+01  0.31890697207E+01  0.18575111375E+02  0.00000000000E+00 0. -1.
         -2    1    5    5    0  503  0.25890810683E+03 -0.16185473555E+03  0.28589753494E+03  0.41829148173E+03  0.00000000000E+00 0.  1.
         -3    1    6    6    0  502 -0.12020921887E+03  0.11224636668E+03  0.15941859242E+04  0.16026472676E+04  0.00000000000E+00 0.  1.
<mgrwt>
<rscale>  0 0.11429885E+04</rscale>
<asrwt>0</asrwt>
<pdfrwt beam="1">  1        1 0.39589183E+00 0.11429885E+04</pdfrwt>
<pdfrwt beam="2">  1       -1 0.19526322E-01 0.11429885E+04</pdfrwt>
<totfact> 0.25705790E+01</totfact>
</mgrwt>
</event>
<event>
12    1  0.1634994E-007  0.1498084E+04  0.7818608E-02  0.8885728E-01
         -1   -1    0    0    0  501 -0.00000000000E+00  0.00000000000E+00  0.65882527451E+03  0.65882527451E+03  0.00000000000E+00 0. -1.
          1   -1    0    0  501    0  0.00000000000E+00 -0.00000000000E+00 -0.85161264874E+03  0.85161264874E+03  0.00000000000E+00 0.  1.
         23    2    1    2    0    0  0.91957090349E+02 -0.13458751255E+03  0.34432303955E+03  0.39154504314E+03  0.90439262695E+02 0.  0.
        254    2    1    2    0    0 -0.91957090349E+02  0.13458751255E+03 -0.53711041378E+03  0.11188928801E+04  0.96791723591E+03 0.  0.
        -24    2    4    4    0    0 -0.91212536668E+02  0.43072347231E+03 -0.65217982468E+03  0.79111176867E+03  0.81712118856E+02 0.  0.
         24    2    4    4    0    0 -0.74455368132E+00 -0.29613595976E+03  0.11506941090E+03  0.32778111144E+03  0.80637625620E+02 0.  0.
         13    1    3    3    0    0  0.10896917180E+03 -0.10637211939E+03  0.29859495276E+03  0.33518391071E+03  0.00000000000E+00 0. -1.
        -13    1    3    3    0    0 -0.17012081449E+02 -0.28215393160E+02  0.45728086797E+02  0.56361132427E+02  0.00000000000E+00 0.  1.
          4    1    6    6  502    0 -0.17740009419E+02 -0.27760110974E+03  0.11858433026E+03  0.30238936397E+03  0.00000000000E+00 0. -1.
          3    1    5    5  503    0 -0.42761980201E+02  0.34372642159E+03 -0.53495391694E+03  0.63730066146E+03  0.00000000000E+00 0. -1.
         -4    1    5    5    0  503 -0.48450556467E+02  0.86997050727E+02 -0.11722590774E+03  0.15381110722E+03  0.00000000000E+00 0.  1.
         -3    1    6    6    0  502  0.16995455737E+02 -0.18534850026E+02 -0.35149193581E+01  0.25391747464E+02  0.00000000000E+00 0.  1.
<mgrwt>
<rscale>  0 0.14980840E+04</rscale>
<asrwt>0</asrwt>
<pdfrwt beam="1">  1        1 0.13101733E+00 0.14980840E+04</pdfrwt>
<pdfrwt beam="2">  1       -1 0.10135773E+00 0.14980840E+04</pdfrwt>
<totfact> 0.17854529E+01</totfact>
</mgrwt>
</event>
<event>
12    1  0.1467288E-007  0.1931780E+04  0.7818608E-02  0.8639197E-01
         -2   -1    0    0    0  501 -0.00000000000E+00  0.00000000000E+00  0.35556200476E+03  0.35556200476E+03  0.00000000000E+00 0.  1.
          2   -1    0    0  501    0  0.00000000000E+00 -0.00000000000E+00 -0.26238546853E+04  0.26238546853E+04  0.00000000000E+00 0. -1.
         23    2    1    2    0    0 -0.25112127338E+03 -0.46447560753E+03 -0.62685442029E+02  0.53935573152E+03  0.90419337240E+02 0.  0.
        254    2    1    2    0    0  0.25112127338E+03  0.46447560753E+03 -0.22056072385E+04  0.24400609585E+04  0.90021925490E+03 0.  0.
        -24    2    4    4    0    0 -0.32329522174E+03  0.21124981919E+03 -0.10631947939E+04  0.11341267655E+04  0.81939391904E+02 0.  0.
         24    2    4    4    0    0  0.57441649512E+03  0.25322578834E+03 -0.11424124446E+04  0.13059341930E+04  0.79248427141E+02 0.  0.
         11    1    3    3    0    0 -0.52065559289E+02 -0.40847122934E+02 -0.21048208956E+02  0.69443048726E+02  0.00000000000E+00 0. -1.
        -11    1    3    3    0    0 -0.19905571409E+03 -0.42362848459E+03 -0.41637233073E+02  0.46991268279E+03  0.00000000000E+00 0.  1.
          4    1    6    6  502    0  0.55873765389E+03  0.25651365592E+03 -0.10937362879E+04  0.12546896385E+04  0.00000000000E+00 0. -1.
          3    1    5    5  503    0 -0.21302583571E+03  0.10948236841E+03 -0.56089750842E+03  0.60989540958E+03  0.00000000000E+00 0. -1.
         -4    1    5    5    0  503 -0.11026938602E+03  0.10176745078E+03 -0.50229728546E+03  0.52423135590E+03  0.00000000000E+00 0.  1.
         -3    1    6    6    0  502  0.15678841232E+02 -0.32878675762E+01 -0.48676156728E+02  0.51244554534E+02  0.00000000000E+00 0.  1.
<mgrwt>
<rscale>  0 0.19317795E+04</rscale>
<asrwt>0</asrwt>
<pdfrwt beam="1">  1        2 0.40366995E+00 0.19317795E+04</pdfrwt>
<pdfrwt beam="2">  1       -2 0.54701847E-01 0.19317795E+04</pdfrwt>
<totfact> 0.86645496E+00</totfact>
</mgrwt>
</event>
<event>
12    1  0.1467288E-007  0.2706518E+04  0.7818608E-02  0.8332893E-01
          1   -1    0    0  501    0  0.00000000000E+00  0.00000000000E+00  0.15679120749E+04  0.15679120749E+04  0.00000000000E+00 0. -1.
         -1   -1    0    0    0  501 -0.00000000000E+00 -0.00000000000E+00 -0.11679926058E+04  0.11679926058E+04  0.00000000000E+00 0.  1.
         23    2    1    2    0    0 -0.87084292855E+03  0.42298653897E+03 -0.54015558472E+03  0.11124094099E+04  0.91660357234E+02 0.  0.
        254    2    1    2    0    0  0.87084292855E+03 -0.42298653897E+03  0.94007505383E+03  0.16234952709E+04  0.90261329998E+03 0.  0.
        -24    2    4    4    0    0  0.89002912089E+03 -0.10688026410E+03  0.93385446509E+03  0.12970126813E+04  0.81132647630E+02 0.  0.
         24    2    4    4    0    0 -0.19186192336E+02 -0.31610627487E+03  0.62205887321E+01  0.32648258959E+03  0.79125840239E+02 0.  0.
         13    1    3    3    0    0 -0.46771063466E+03  0.27691036847E+03 -0.29239844570E+03  0.61719481608E+03  0.00000000000E+00 0.  1.
        -13    1    3    3    0    0 -0.40313229389E+03  0.14607617050E+03 -0.24775713901E+03  0.49521459378E+03  0.00000000000E+00 0. -1.
          4    1    6    6  502    0 -0.42040744397E+02 -0.21164963793E+03 -0.19004418918E+02  0.21661985450E+03  0.00000000000E+00 0. -1.
          1    1    5    5  503    0  0.61162389239E+03 -0.10333475499E+03  0.67706558134E+03  0.91824814662E+03  0.00000000000E+00 0. -1.
         -2    1    5    5    0  503  0.27840522849E+03 -0.35455091128E+01  0.25678888376E+03  0.37876453465E+03  0.00000000000E+00 0.  1.
         -3    1    6    6    0  502  0.22854552061E+02 -0.10445663694E+03  0.25225007650E+02  0.10986273509E+03  0.00000000000E+00 0.  1.
<mgrwt>
<rscale>  0 0.27065178E+04</rscale>
<asrwt>0</asrwt>
<pdfrwt beam="1">  1        1 0.24121724E+00 0.27065178E+04</pdfrwt>
<pdfrwt beam="2">  1       -1 0.17969117E+00 0.27065178E+04</pdfrwt>
<totfact> 0.10718032E+00</totfact>
</mgrwt>
</event>
<event>
12    1  0.1467288E-007  0.2058171E+04  0.7818608E-02  0.8579897E-01
         -2   -1    0    0    0  501 -0.00000000000E+00  0.00000000000E+00  0.12030259239E+04  0.12030259239E+04  0.00000000000E+00 0.  1.
          2   -1    0    0  501    0  0.00000000000E+00 -0.00000000000E+00 -0.88029411068E+03  0.88029411068E+03  0.00000000000E+00 0. -1.
         23    2    1    2    0    0 -0.94177047098E+02 -0.75112951744E+03 -0.20773849656E+03  0.79031692515E+03  0.91546114360E+02 0.  0.
        254    2    1    2    0    0  0.94177047098E+02  0.75112951744E+03  0.53047030980E+03  0.12930031094E+04  0.90409812703E+03 0.  0.
        -24    2    4    4    0    0 -0.13831611482E+03  0.68745474174E+03  0.69497323088E+03  0.99015858700E+03  0.75504080699E+02 0.  0.
         24    2    4    4    0    0  0.23249316192E+03  0.63674775694E+02 -0.16450292108E+03  0.30284452245E+03  0.80907640741E+02 0.  0.
         11    1    3    3    0    0 -0.10234395513E+03 -0.71515348181E+03 -0.21268339317E+03  0.75309562038E+03  0.00000000000E+00 0. -1.
        -11    1    3    3    0    0  0.81669080331E+01 -0.35976035624E+02  0.49448966163E+01  0.37221304768E+02  0.00000000000E+00 0.  1.
          4    1    6    6  502    0  0.20450878546E+03  0.40425983139E+02 -0.10578832511E+03  0.23377183999E+03  0.00000000000E+00 0. -1.
          3    1    5    5  503    0 -0.13802528033E+03  0.53946832491E+03  0.53435518712E+03  0.77175936508E+03  0.00000000000E+00 0. -1.
         -4    1    5    5    0  503 -0.29083449045E+00  0.14798641684E+03  0.16061804376E+03  0.21839922192E+03  0.00000000000E+00 0.  1.
         -3    1    6    6    0  502  0.27984376461E+02  0.23248792555E+02 -0.58714595972E+02  0.69072682454E+02  0.00000000000E+00 0.  1.
<mgrwt>
<rscale>  0 0.20581707E+04</rscale>
<asrwt>0</asrwt>
<pdfrwt beam="1">  1        2 0.13542986E+00 0.20581707E+04</pdfrwt>
<pdfrwt beam="2">  1       -2 0.18508091E+00 0.20581707E+04</pdfrwt>
<totfact> 0.46778455E+00</totfact>
</mgrwt>
</event>
<event>
12    1  0.1467288E-007  0.2785734E+04  0.7818608E-02  0.8307711E-01
         -1   -1    0    0    0  501 -0.00000000000E+00  0.00000000000E+00  0.13874941626E+04  0.13874941626E+04  0.00000000000E+00 0.  1.
          1   -1    0    0  501    0  0.00000000000E+00 -0.00000000000E+00 -0.13982609215E+04  0.13982609215E+04  0.00000000000E+00 0. -1.
         23    2    1    2    0    0  0.17435244783E+03  0.74859101972E+03  0.97869839709E+03  0.12476033601E+04  0.88748525261E+02 0.  0.
        254    2    1    2    0    0 -0.17435244783E+03 -0.74859101972E+03 -0.98946515599E+03  0.15381517241E+04  0.89223435291E+03 0.  0.
        -24    2    4    4    0    0 -0.84507689599E+02 -0.71670889795E+03 -0.21982548229E+03  0.75855715678E+03  0.79199264110E+02 0.  0.
         24    2    4    4    0    0 -0.89844758226E+02 -0.31882121769E+02 -0.76963967370E+03  0.77959456730E+03  0.79585876700E+02 0.  0.
         13    1    3    3    0    0  0.14099366884E+03  0.69125771906E+03  0.86789147518E+03  0.11184596826E+04  0.00000000000E+00 0.  1.
        -13    1    3    3    0    0  0.33358778984E+02  0.57333300659E+02  0.11080692191E+03  0.12914367752E+03  0.00000000000E+00 0. -1.
          2    1    6    6  502    0 -0.98523684087E+02 -0.33490639595E+02 -0.75733893902E+03  0.76445458193E+03  0.00000000000E+00 0. -1.
          3    1    5    5  503    0 -0.51413629663E+02 -0.59036510001E+03 -0.15391059792E+03  0.61226038969E+03  0.00000000000E+00 0. -1.
         -4    1    5    5    0  503 -0.33094059936E+02 -0.12634379794E+03 -0.65914884369E+02  0.14629676709E+03  0.00000000000E+00 0.  1.
         -1    1    6    6    0  502  0.86789258604E+01  0.16085178262E+01 -0.12300734672E+02  0.15139985375E+02  0.00000000000E+00 0.  1.
<mgrwt>
<rscale>  0 0.27857343E+04</rscale>
<asrwt>0</asrwt>
<pdfrwt beam="1">  1        1 0.21511707E+00 0.27857343E+04</pdfrwt>
<pdfrwt beam="2">  1       -1 0.21346064E+00 0.27857343E+04</pdfrwt>
<totfact> 0.81340069E-01</totfact>
</mgrwt>
</event>
<event>
12    1  0.1467288E-007  0.2667039E+04  0.7818608E-02  0.8345780E-01
         -2   -1    0    0    0  501 -0.00000000000E+00  0.00000000000E+00  0.14913081511E+04  0.14913081511E+04  0.00000000000E+00 0.  1.
          2   -1    0    0  501    0  0.00000000000E+00 -0.00000000000E+00 -0.11924258534E+04  0.11924258534E+04  0.00000000000E+00 0. -1.
         23    2    1    2    0    0  0.10641059136E+04 -0.47518786454E+03  0.32675003769E+03  0.12140809652E+04  0.95404931387E+02 0.  0.
        254    2    1    2    0    0 -0.10641059136E+04  0.47518786454E+03 -0.27867739985E+02  0.14696530393E+04  0.89497404592E+03 0.  0.
        -24    2    4    4    0    0 -0.69100800987E+03 -0.16102146724E+03  0.82104425218E+02  0.71972745604E+03  0.88580425136E+02 0.  0.
         24    2    4    4    0    0 -0.37309790374E+03  0.63620933179E+03 -0.10997216520E+03  0.74992558321E+03  0.79562199636E+02 0.  0.
         11    1    3    3    0    0  0.24186856820E+02 -0.28480092961E+02  0.74563815534E+01  0.38101408948E+02  0.00000000000E+00 0. -1.
        -11    1    3    3    0    0  0.10399190568E+04 -0.44670777158E+03  0.31929365613E+03  0.11759795562E+04  0.00000000000E+00 0.  1.
          2    1    6    6  502    0 -0.27291373799E+03  0.45750691884E+03 -0.43300028736E+02  0.53448047828E+03  0.00000000000E+00 0. -1.
          3    1    5    5  503    0 -0.25606711120E+03 -0.88090470374E+02 -0.18109693011E+01  0.27080172824E+03  0.00000000000E+00 0. -1.
         -4    1    5    5    0  503 -0.43494089868E+03 -0.72930996870E+02  0.83915394519E+02  0.44892572780E+03  0.00000000000E+00 0.  1.
         -1    1    6    6    0  502 -0.10018416574E+03  0.17870241294E+03 -0.66672136467E+02  0.21544510493E+03  0.00000000000E+00 0.  1.
<mgrwt>
<rscale>  0 0.26670391E+04</rscale>
<asrwt>0</asrwt>
<pdfrwt beam="1">  1        2 0.18345013E+00 0.26670391E+04</pdfrwt>
<pdfrwt beam="2">  1       -2 0.22943202E+00 0.26670391E+04</pdfrwt>
<totfact> 0.14513294E+00</totfact>
</mgrwt>
</event>
<event>
12    1  0.1467288E-007  0.1580059E+04  0.7818608E-02  0.8832893E-01
          2   -1    0    0  501    0  0.00000000000E+00  0.00000000000E+00  0.99331589653E+03  0.99331589653E+03  0.00000000000E+00 0. -1.
         -2   -1    0    0    0  501 -0.00000000000E+00 -0.00000000000E+00 -0.62834628187E+03  0.62834628187E+03  0.00000000000E+00 0.  1.
         23    2    1    2    0    0  0.23170550342E+03 -0.30021373102E+03 -0.25619700290E+03  0.46752725580E+03  0.95546355326E+02 0.  0.
        254    2    1    2    0    0 -0.23170550342E+03  0.30021373102E+03  0.62116661756E+03  0.11541349226E+04  0.89574758061E+03 0.  0.
        -24    2    4    4    0    0 -0.37074454698E+03 -0.20842611498E+03  0.34839298090E+03  0.55531561392E+03  0.78133202931E+02 0.  0.
         24    2    4    4    0    0  0.13903904356E+03  0.50863984600E+03  0.27277363666E+03  0.59881930867E+03  0.78311933995E+02 0.  0.
         13    1    3    3    0    0  0.18373095640E+03 -0.28783969940E+03 -0.22105912286E+03  0.40678728187E+03  0.00000000000E+00 0.  1.
        -13    1    3    3    0    0  0.47974547017E+02 -0.12374031625E+02 -0.35137880037E+02  0.60739973935E+02  0.00000000000E+00 0. -1.
          4    1    6    6  502    0  0.30578225921E+02  0.11236773155E+03  0.25216441588E+02  0.11915285947E+03  0.00000000000E+00 0. -1.
          1    1    5    5  503    0 -0.37752674649E+02  0.29464632701E+01  0.34777591890E+02  0.51414268318E+02  0.00000000000E+00 0. -1.
         -2    1    5    5    0  503 -0.33299187233E+03 -0.21137257825E+03  0.31361538901E+03  0.50390134560E+03  0.00000000000E+00 0.  1.
         -3    1    6    6    0  502  0.10846081764E+03  0.39627211445E+03  0.24755719507E+03  0.47966644920E+03  0.00000000000E+00 0.  1.
<mgrwt>
<rscale>  0 0.15800587E+04</rscale>
<asrwt>0</asrwt>
<pdfrwt beam="1">  1        2 0.15281783E+00 0.15800587E+04</pdfrwt>
<pdfrwt beam="2">  1       -2 0.96668658E-01 0.15800587E+04</pdfrwt>
<totfact> 0.21864631E+01</totfact>
</mgrwt>
</event>
<event>
12    1  0.1467288E-007  0.1208997E+04  0.7818608E-02  0.9105018E-01
         -2   -1    0    0    0  501 -0.00000000000E+00  0.00000000000E+00  0.16234786138E+04  0.16234786138E+04  0.00000000000E+00 0.  1.
          2   -1    0    0  501    0  0.00000000000E+00 -0.00000000000E+00 -0.22508345180E+03  0.22508345180E+03  0.00000000000E+00 0. -1.
         23    2    1    2    0    0  0.27077601342E+02 -0.36793825846E+02  0.82900052945E+03  0.83545946715E+03  0.93078790872E+02 0.  0.
        254    2    1    2    0    0 -0.27077601342E+02  0.36793825846E+02  0.56939463259E+03  0.10131025985E+04  0.83670762236E+03 0.  0.
        -24    2    4    4    0    0 -0.50088440701E+02 -0.89509316390E+02  0.75950694295E+03  0.77061073814E+03  0.80432230627E+02 0.  0.
         24    2    4    4    0    0  0.23010839359E+02  0.12630314224E+03 -0.19011231036E+03  0.24249186035E+03  0.78597896400E+02 0.  0.
         13    1    3    3    0    0  0.36156983372E+02 -0.18951340039E+02  0.13192811988E+03  0.13809963632E+03  0.00000000000E+00 0. -1.
        -13    1    3    3    0    0 -0.90793820304E+01 -0.17842485807E+02  0.69707240957E+03  0.69735983084E+03  0.00000000000E+00 0.  1.
          2    1    6    6  502    0  0.62528069990E+01  0.12901033932E+03 -0.14444083752E+03  0.19376769801E+03  0.00000000000E+00 0. -1.
          1    1    5    5  503    0 -0.10188685960E+02 -0.58289340535E+02  0.19361456913E+03  0.20245507630E+03  0.00000000000E+00 0. -1.
         -2    1    5    5    0  503 -0.39899754741E+02 -0.31219975855E+02  0.56589237383E+03  0.56815566184E+03  0.00000000000E+00 0.  1.
         -1    1    6    6    0  502  0.16758032360E+02 -0.27071970857E+01 -0.45671472838E+02  0.48724162341E+02  0.00000000000E+00 0.  1.
<mgrwt>
<rscale>  0 0.12089966E+04</rscale>
<asrwt>0</asrwt>
<pdfrwt beam="1">  1        2 0.34628224E-01 0.12089966E+04</pdfrwt>
<pdfrwt beam="2">  1       -2 0.24976593E+00 0.12089966E+04</pdfrwt>
<totfact> 0.96545892E+00</totfact>
</mgrwt>
</event>
<event>
12    1  0.1467288E-007  0.2706613E+04  0.7818608E-02  0.8332862E-01
          1   -1    0    0  501    0  0.00000000000E+00  0.00000000000E+00  0.18256791389E+04  0.18256791389E+04  0.00000000000E+00 0. -1.
         -1   -1    0    0    0  501 -0.00000000000E+00 -0.00000000000E+00 -0.10031549887E+04  0.10031549887E+04  0.00000000000E+00 0.  1.
         23    2    1    2    0    0  0.48790224070E+03 -0.10128596002E+04  0.81523339747E+03  0.13917540231E+04  0.91872750807E+02 0.  0.
        254    2    1    2    0    0 -0.48790224070E+03  0.10128596002E+04  0.72907527472E+01  0.14370801045E+04  0.89510496895E+03 0.  0.
        -24    2    4    4    0    0 -0.97479972724E+02  0.54440623544E+03 -0.41074659515E+03  0.69342762626E+03  0.79048169902E+02 0.  0.
         24    2    4    4    0    0 -0.39042226798E+03  0.46845336474E+03  0.41803734790E+03  0.74365247821E+03  0.79910461410E+02 0.  0.
         13    1    3    3    0    0  0.38401581475E+03 -0.70807999471E+03  0.56378058179E+03  0.98320596484E+03  0.00000000000E+00 0. -1.
        -13    1    3    3    0    0  0.10388642595E+03 -0.30477960546E+03  0.25145281568E+03  0.40854805827E+03  0.00000000000E+00 0.  1.
          2    1    6    6  502    0 -0.41880674956E+00  0.78437718516E+01 -0.22723531707E+01  0.81770254301E+01  0.00000000000E+00 0. -1.
          3    1    5    5  503    0 -0.59389293295E+01  0.15788840453E+03 -0.83093819802E+02  0.17851779199E+03  0.00000000000E+00 0. -1.
         -4    1    5    5    0  503 -0.91541043394E+02  0.38651783090E+03 -0.32765277535E+03  0.51490983427E+03  0.00000000000E+00 0.  1.
         -1    1    6    6    0  502 -0.39000346123E+03  0.46060959289E+03  0.42030970107E+03  0.73547545278E+03  0.00000000000E+00 0.  1.
<mgrwt>
<rscale>  0 0.27066135E+04</rscale>
<asrwt>0</asrwt>
<pdfrwt beam="1">  1        1 0.28087371E+00 0.27066135E+04</pdfrwt>
<pdfrwt beam="2">  1       -1 0.15433154E+00 0.27066135E+04</pdfrwt>
<totfact> 0.11028127E+00</totfact>
</mgrwt>
</event>
<event>
12    1  0.1467288E-007  0.2018358E+04  0.7818608E-02  0.8598086E-01
          2   -1    0    0  501    0  0.00000000000E+00  0.00000000000E+00  0.80591070591E+03  0.80591070591E+03  0.00000000000E+00 0. -1.
         -2   -1    0    0    0  501 -0.00000000000E+00 -0.00000000000E+00 -0.12637156822E+04  0.12637156822E+04  0.00000000000E+00 0.  1.
         23    2    1    2    0    0 -0.46480395643E+03  0.13937848147E+03  0.47510609941E+03  0.68304861432E+03  0.73215604980E+02 0.  0.
        254    2    1    2    0    0  0.46480395643E+03 -0.13937848147E+03 -0.93291107570E+03  0.13865777738E+04  0.90377307361E+03 0.  0.
        -24    2    4    4    0    0  0.65034861694E+03 -0.46827931380E+02 -0.31188924712E+03  0.72699605216E+03  0.78116443042E+02 0.  0.
         24    2    4    4    0    0 -0.18554466051E+03 -0.92550550089E+02 -0.62102182858E+03  0.65958172162E+03  0.79921902864E+02 0.  0.
         11    1    3    3    0    0 -0.53057532058E+02  0.20976960190E+02  0.92300225294E+02  0.10851021222E+03  0.00000000000E+00 0. -1.
        -11    1    3    3    0    0 -0.41174642437E+03  0.11840152128E+03  0.38280587412E+03  0.57453840210E+03  0.00000000000E+00 0.  1.
          4    1    6    6  502    0 -0.19139866921E+03 -0.96068157745E+02 -0.58613469570E+03  0.62403238939E+03  0.00000000000E+00 0. -1.
          3    1    5    5  503    0  0.38543855959E+03 -0.74901384108E+01 -0.21992708473E+03  0.44383207184E+03  0.00000000000E+00 0. -1.
         -4    1    5    5    0  503  0.26491005735E+03 -0.39337792969E+02 -0.91962162385E+02  0.28316398032E+03  0.00000000000E+00 0.  1.
         -3    1    6    6    0  502  0.58540086931E+01  0.35176076560E+01 -0.34887132876E+02  0.35549332225E+02  0.00000000000E+00 0.  1.
<mgrwt>
<rscale>  0 0.20183577E+04</rscale>
<asrwt>0</asrwt>
<pdfrwt beam="1">  1        2 0.12398626E+00 0.20183577E+04</pdfrwt>
<pdfrwt beam="2">  1       -2 0.19441780E+00 0.20183577E+04</pdfrwt>
<totfact> 0.45796428E+00</totfact>
</mgrwt>
</event>
<event>
12    1  0.1467288E-007  0.1319150E+04  0.7818608E-02  0.9014515E-01
         -2   -1    0    0    0  501 -0.00000000000E+00  0.00000000000E+00  0.15766307464E+04  0.15766307464E+04  0.00000000000E+00 0.  1.
          2   -1    0    0  501    0  0.00000000000E+00 -0.00000000000E+00 -0.27592978398E+03  0.27592978398E+03  0.00000000000E+00 0. -1.
         23    2    1    2    0    0 -0.25737567158E+03 -0.11311269434E+02  0.70677683747E+03  0.75774639693E+03  0.90972099714E+02 0.  0.
        254    2    1    2    0    0  0.25737567158E+03  0.11311269434E+02  0.59392412496E+03  0.10948141335E+04  0.88289407038E+03 0.  0.
        -24    2    4    4    0    0  0.40834863289E+03 -0.33469409911E+03  0.34395262420E+03  0.63497640299E+03  0.78248825503E+02 0.  0.
         24    2    4    4    0    0 -0.15097296131E+03  0.34600536855E+03  0.24997150076E+03  0.45983773049E+03  0.80327063183E+02 0.  0.
         11    1    3    3    0    0 -0.33983148861E+02 -0.34000324025E+02  0.10646086921E+03  0.11681092891E+03  0.00000000000E+00 0. -1.
        -11    1    3    3    0    0 -0.22339252272E+03  0.22689054591E+02  0.60031596827E+03  0.64093546801E+03  0.00000000000E+00 0.  1.
          2    1    6    6  502    0 -0.83528293985E+01  0.23031913953E+02  0.45932679585E+02  0.52058139356E+02  0.00000000000E+00 0. -1.
          1    1    5    5  503    0  0.60515833454E+02 -0.86020051212E+02  0.52838635907E+02  0.11770104823E+03  0.00000000000E+00 0. -1.
         -2    1    5    5    0  503  0.34783279944E+03 -0.24867404790E+03  0.29111398830E+03  0.51727535476E+03  0.00000000000E+00 0.  1.
         -1    1    6    6    0  502 -0.14262013191E+03  0.32297345459E+03  0.20403882117E+03  0.40777959113E+03  0.00000000000E+00 0.  1.
<mgrwt>
<rscale>  0 0.13191503E+04</rscale>
<asrwt>0</asrwt>
<pdfrwt beam="1">  1        2 0.42450737E-01 0.13191503E+04</pdfrwt>
<pdfrwt beam="2">  1       -2 0.24255857E+00 0.13191503E+04</pdfrwt>
<totfact> 0.84367112E+00</totfact>
</mgrwt>
</event>
<event>
12    1  0.1467288E-007  0.3155040E+04  0.7818608E-02  0.8200793E-01
         -1   -1    0    0    0  501 -0.00000000000E+00  0.00000000000E+00  0.99314151034E+03  0.99314151034E+03  0.00000000000E+00 0.  1.
          1   -1    0    0  501    0  0.00000000000E+00 -0.00000000000E+00 -0.25057556765E+04  0.25057556765E+04  0.00000000000E+00 0. -1.
         23    2    1    2    0    0 -0.86757121872E+03 -0.43188459313E+02  0.58753785974E+03  0.10526578372E+04  0.91338508193E+02 0.  0.
        254    2    1    2    0    0  0.86757121872E+03  0.43188459313E+02 -0.21001520259E+04  0.24462393496E+04  0.90493279370E+03 0.  0.
        -24    2    4    4    0    0  0.89044327383E+03  0.29166532382E+03 -0.13019993068E+04  0.16061394210E+04  0.80769796426E+02 0.  0.
         24    2    4    4    0    0 -0.22872055109E+02 -0.24847686450E+03 -0.79815271916E+03  0.84009992858E+03  0.80350754793E+02 0.  0.
         11    1    3    3    0    0 -0.41106828146E+02 -0.21442116572E+02  0.37799392180E+02  0.59819141857E+02  0.00000000000E+00 0. -1.
        -11    1    3    3    0    0 -0.82646439058E+03 -0.21746342741E+02  0.54973846756E+03  0.99283869537E+03  0.00000000000E+00 0.  1.
          2    1    6    6  502    0 -0.14523754387E+02 -0.49572518565E+02 -0.28576981546E+03  0.29040103558E+03  0.00000000000E+00 0. -1.
          3    1    5    5  503    0  0.67095120599E+03  0.24226336111E+03 -0.10345193039E+04  0.12566213619E+04  0.00000000000E+00 0. -1.
         -4    1    5    5    0  503  0.21949206784E+03  0.49401962706E+02 -0.26748000285E+03  0.34951805917E+03  0.00000000000E+00 0.  1.
         -1    1    6    6    0  502 -0.83483007219E+01 -0.19890434594E+03 -0.51238290370E+03  0.54969889300E+03  0.00000000000E+00 0.  1.
<mgrwt>
<rscale>  0 0.31550404E+04</rscale>
<asrwt>0</asrwt>
<pdfrwt beam="1">  1        1 0.38550087E+00 0.31550404E+04</pdfrwt>
<pdfrwt beam="2">  1       -1 0.15279100E+00 0.31550404E+04</pdfrwt>
<totfact> 0.37403554E-01</totfact>
</mgrwt>
</event>
<event>
12    1  0.1467288E-007  0.1211435E+04  0.7818608E-02  0.9102906E-01
          1   -1    0    0  501    0  0.00000000000E+00  0.00000000000E+00  0.23048072653E+04  0.23048072653E+04  0.00000000000E+00 0.  1.
         -1   -1    0    0    0  501 -0.00000000000E+00 -0.00000000000E+00 -0.15918631121E+03  0.15918631121E+03  0.00000000000E+00 0. -1.
         23    2    1    2    0    0 -0.19007568465E+03 -0.91724737758E+02  0.79002637507E+03  0.82261155879E+03  0.89475750595E+02 0.  0.
        254    2    1    2    0    0  0.19007568465E+03  0.91724737758E+02  0.13555945791E+04  0.16413820178E+04  0.90108605140E+03 0.  0.
        -24    2    4    4    0    0  0.50555410395E+03  0.24177306726E+03  0.86313685299E+03  0.10321713916E+04  0.79582576603E+02 0.  0.
         24    2    4    4    0    0 -0.31547841930E+03 -0.15004832950E+03  0.49245772608E+03  0.60921062621E+03  0.81128545387E+02 0.  0.
         11    1    3    3    0    0 -0.49635610009E+02 -0.43610134016E+02  0.12689065734E+03  0.14306214206E+03  0.00000000000E+00 0. -1.
        -11    1    3    3    0    0 -0.14044007464E+03 -0.48114603741E+02  0.66313571773E+03  0.67954941674E+03  0.00000000000E+00 0.  1.
          2    1    6    6  502    0 -0.35841898151E+02  0.81819891074E+01  0.40678359058E+02  0.54829877845E+02  0.00000000000E+00 0. -1.
          3    1    5    5  503    0  0.48263684429E+01  0.36112238335E+01  0.35205774945E+02  0.35718081687E+02  0.00000000000E+00 0. -1.
         -4    1    5    5    0  503  0.50072773551E+03  0.23816184342E+03  0.82793107804E+03  0.99645330987E+03  0.00000000000E+00 0.  1.
         -1    1    6    6    0  502 -0.27963652115E+03 -0.15823031860E+03  0.45177936703E+03  0.55438074836E+03  0.00000000000E+00 0.  1.
<mgrwt>
<rscale>  0 0.12114351E+04</rscale>
<asrwt>0</asrwt>
<pdfrwt beam="1">  1        1 0.35458571E+00 0.12114351E+04</pdfrwt>
<pdfrwt beam="2">  1       -1 0.24490203E-01 0.12114351E+04</pdfrwt>
<totfact> 0.26617219E+01</totfact>
</mgrwt>
</event>
<event>
12    1  0.1467288E-007  0.1930817E+04  0.7818608E-02  0.8639667E-01
         -2   -1    0    0    0  501 -0.00000000000E+00  0.00000000000E+00  0.48368657205E+03  0.48368657205E+03  0.00000000000E+00 0. -1.
          2   -1    0    0  501    0  0.00000000000E+00 -0.00000000000E+00 -0.19268965757E+04  0.19268965757E+04  0.00000000000E+00 0.  1.
         23    2    1    2    0    0  0.52089876472E+03  0.15423357938E+03  0.78395121850E+02  0.55632113773E+03  0.90685682766E+02 0.  0.
        254    2    1    2    0    0 -0.52089876472E+03 -0.15423357938E+03 -0.15216051255E+04  0.18542620100E+04  0.90988017001E+03 0.  0.
        -24    2    4    4    0    0 -0.25909314252E+03 -0.43124695642E+03 -0.13231787848E+04  0.14175071875E+04  0.73629722940E+02 0.  0.
         24    2    4    4    0    0 -0.26180562220E+03  0.27701337704E+03 -0.19842634068E+03  0.43675482253E+03  0.78122771656E+02 0.  0.
         13    1    3    3    0    0  0.32370580946E+03  0.60258596056E+02  0.18347952640E+02  0.32977749596E+03  0.00000000000E+00 0. -1.
        -13    1    3    3    0    0  0.19719295526E+03  0.93974983320E+02  0.60047169211E+02  0.22654364176E+03  0.00000000000E+00 0.  1.
          4    1    6    6  502    0 -0.25989206884E+03  0.26224114267E+03 -0.17402302370E+03  0.40816457114E+03  0.00000000000E+00 0. -1.
          1    1    5    5  503    0 -0.23686952586E+03 -0.39586621675E+03 -0.11438070303E+04  0.12333335949E+04  0.00000000000E+00 0. -1.
         -2    1    5    5    0  503 -0.22223616660E+02 -0.35380739669E+02 -0.17937175454E+03  0.18417359258E+03  0.00000000000E+00 0.  1.
         -3    1    6    6    0  502 -0.19135533598E+01  0.14772234367E+02 -0.24403316986E+02  0.28590251391E+02  0.00000000000E+00 0.  1.
<mgrwt>
<rscale>  0 0.19308174E+04</rscale>
<asrwt>0</asrwt>
<pdfrwt beam="1">  1        2 0.29644562E+00 0.19308174E+04</pdfrwt>
<pdfrwt beam="2">  1       -2 0.74413321E-01 0.19308174E+04</pdfrwt>
<totfact> 0.11136368E+01</totfact>
</mgrwt>
</event>
<event>
12    1  0.1467288E-007  0.1655632E+04  0.7818608E-02  0.8787082E-01
          2   -1    0    0  501    0  0.00000000000E+00  0.00000000000E+00  0.19233675267E+04  0.19233675267E+04  0.00000000000E+00 0. -1.
         -2   -1    0    0    0  501 -0.00000000000E+00 -0.00000000000E+00 -0.35629144539E+03  0.35629144539E+03  0.00000000000E+00 0.  1.
         23    2    1    2    0    0  0.56357475162E+03 -0.12372853762E+03  0.62069395172E+03  0.85210935799E+03  0.88905143779E+02 0.  0.
        254    2    1    2    0    0 -0.56357475162E+03  0.12372853762E+03  0.94638212958E+03  0.14275496141E+04  0.89962965371E+03 0.  0.
        -24    2    4    4    0    0 -0.25247796634E+03 -0.64877717968E+02  0.10131422597E+04  0.10490701251E+04  0.78336755370E+02 0.  0.
         24    2    4    4    0    0 -0.31109678528E+03  0.18860625559E+03 -0.66760130126E+02  0.37847948897E+03  0.80226424216E+02 0.  0.
         13    1    3    3    0    0  0.43593586519E+03 -0.67878039832E+02  0.50859571017E+03  0.67328827649E+03  0.00000000000E+00 0. -1.
        -13    1    3    3    0    0  0.12763888643E+03 -0.55850497786E+02  0.11209824155E+03  0.17882108151E+03  0.00000000000E+00 0.  1.
          4    1    6    6  502    0 -0.29372778934E+03  0.18116246763E+03 -0.81402876461E+02  0.35457338056E+03  0.00000000000E+00 0. -1.
          1    1    5    5  503    0 -0.53244813959E+02 -0.35704410729E+02  0.35756881665E+03  0.36327024899E+03  0.00000000000E+00 0. -1.
         -2    1    5    5    0  503 -0.19923315238E+03 -0.29173307239E+02  0.65557344305E+03  0.68579987613E+03  0.00000000000E+00 0.  1.
         -3    1    6    6    0  502 -0.17368995940E+02  0.74437879536E+01  0.14642746335E+02  0.23906108410E+02  0.00000000000E+00 0.  1.
<mgrwt>
<rscale>  0 0.16556321E+04</rscale>
<asrwt>0</asrwt>
<pdfrwt beam="1">  1        2 0.29590269E+00 0.16556321E+04</pdfrwt>
<pdfrwt beam="2">  1       -2 0.54814069E-01 0.16556321E+04</pdfrwt>
<totfact> 0.22033752E+01</totfact>
</mgrwt>
</event>
<event>
12    1  0.1467288E-007  0.1380130E+04  0.7818608E-02  0.8968328E-01
         -1   -1    0    0    0  501 -0.00000000000E+00  0.00000000000E+00  0.23386689040E+03  0.23386689040E+03  0.00000000000E+00 0.  1.
          1   -1    0    0  501    0  0.00000000000E+00 -0.00000000000E+00 -0.20361565255E+04  0.20361565255E+04  0.00000000000E+00 0. -1.
         23    2    1    2    0    0 -0.28222884283E+03  0.83552185267E+02 -0.93328882407E+03  0.98288015958E+03  0.91603993225E+02 0.  0.
        254    2    1    2    0    0  0.28222884283E+03 -0.83552185267E+02 -0.86900081108E+03  0.12871432564E+04  0.90274097357E+03 0.  0.
        -24    2    4    4    0    0  0.16455913342E+03  0.48887674523E+02 -0.10220889531E+04  0.10395912678E+04  0.81329349111E+02 0.  0.
         24    2    4    4    0    0  0.11766970941E+03 -0.13243985979E+03  0.15308814202E+03  0.24755198852E+03  0.80371206426E+02 0.  0.
         13    1    3    3    0    0 -0.50663056683E+02  0.31145656923E+02 -0.31517510264E+03  0.32073687437E+03  0.00000000000E+00 0. -1.
        -13    1    3    3    0    0 -0.23156578615E+03  0.52406528343E+02 -0.61811372143E+03  0.66214328521E+03  0.00000000000E+00 0.  1.
          2    1    6    6  502    0  0.45605717628E+01 -0.37125891725E+02  0.41326538146E+01  0.37632558759E+02  0.00000000000E+00 0. -1.
          1    1    5    5  503    0  0.66968072550E+02  0.55782254352E+02 -0.36517122846E+03  0.37542830039E+03  0.00000000000E+00 0. -1.
         -2    1    5    5    0  503  0.97591060873E+02 -0.68945798291E+01 -0.65691772463E+03  0.66416296745E+03  0.00000000000E+00 0.  1.
         -1    1    6    6    0  502  0.11310913764E+03 -0.95313968064E+02  0.14895548820E+03  0.20991942976E+03  0.00000000000E+00 0.  1.
<mgrwt>
<rscale>  0 0.13801298E+04</rscale>
<asrwt>0</asrwt>
<pdfrwt beam="1">  1        1 0.31325486E+00 0.13801298E+04</pdfrwt>
<pdfrwt beam="2">  1       -1 0.35979521E-01 0.13801298E+04</pdfrwt>
<totfact> 0.20330206E+01</totfact>
</mgrwt>
</event>
<event>
12    1  0.1467288E-007  0.1301914E+04  0.7818608E-02  0.9028049E-01
          1   -1    0    0  501    0  0.00000000000E+00  0.00000000000E+00  0.16327551624E+04  0.16327551624E+04  0.00000000000E+00 0. -1.
         -1   -1    0    0    0  501 -0.00000000000E+00 -0.00000000000E+00 -0.25952750098E+03  0.25952750098E+03  0.00000000000E+00 0.  1.
         23    2    1    2    0    0  0.13009080231E+03 -0.31876982237E+03  0.37682662068E+03  0.51924203762E+03  0.95268961809E+02 0.  0.
        254    2    1    2    0    0 -0.13009080231E+03  0.31876982237E+03  0.99640104072E+03  0.13730406257E+04  0.87970887768E+03 0.  0.
        -24    2    4    4    0    0 -0.24470051375E+02 -0.18844146958E+03 -0.41937152147E+02  0.20976812121E+03  0.78326043407E+02 0.  0.
         24    2    4    4    0    0 -0.10562075094E+03  0.50721129195E+03  0.10383381929E+04  0.11632725045E+04  0.81471954139E+02 0.  0.
         11    1    3    3    0    0  0.93286775966E+02 -0.28944065836E+03  0.35476981359E+03  0.46726859291E+03  0.00000000000E+00 0. -1.
        -11    1    3    3    0    0  0.36804026346E+02 -0.29329164009E+02  0.22056807085E+02  0.51973444715E+02  0.00000000000E+00 0.  1.
          2    1    6    6  502    0 -0.10810137385E+03  0.50604665093E+03  0.10103904247E+04  0.11351907022E+04  0.00000000000E+00 0. -1.
          3    1    5    5  503    0  0.16741936852E+02 -0.13974660802E+03 -0.19228661525E+02  0.14205332917E+03  0.00000000000E+00 0. -1.
         -4    1    5    5    0  503 -0.41211988226E+02 -0.48694861556E+02 -0.22708490621E+02  0.67714792046E+02  0.00000000000E+00 0.  1.
         -1    1    6    6    0  502  0.24806229167E+01  0.11646410169E+01  0.27947768128E+02  0.28081802330E+02  0.00000000000E+00 0.  1.
<mgrwt>
<rscale>  0 0.13019138E+04</rscale>
<asrwt>0</asrwt>
<pdfrwt beam="1">  1        1 0.25119310E+00 0.13019138E+04</pdfrwt>
<pdfrwt beam="2">  1       -1 0.39927309E-01 0.13019138E+04</pdfrwt>
<totfact> 0.31812156E+01</totfact>
</mgrwt>
</event>
<event>
12    1  0.1467288E-007  0.1780890E+04  0.7818608E-02  0.8716528E-01
          1   -1    0    0  501    0  0.00000000000E+00  0.00000000000E+00  0.30012539400E+04  0.30012539400E+04  0.00000000000E+00 0. -1.
         -1   -1    0    0    0  501 -0.00000000000E+00 -0.00000000000E+00 -0.26418703915E+03  0.26418703915E+03  0.00000000000E+00 0.  1.
         23    2    1    2    0    0  0.43182528065E+03 -0.49852407529E+03  0.92707500637E+03  0.11413282928E+04  0.90348645501E+02 0.  0.
        254    2    1    2    0    0 -0.43182528065E+03  0.49852407529E+03  0.18099918945E+04  0.21241126864E+04  0.89486575519E+03 0.  0.
        -24    2    4    4    0    0 -0.57915360495E+03  0.25916460766E+03  0.59078491628E+03  0.87059537538E+03  0.79525457168E+02 0.  0.
         24    2    4    4    0    0  0.14732832429E+03  0.23935946762E+03  0.12192069782E+04  0.12535173110E+04  0.76429074747E+02 0.  0.
         13    1    3    3    0    0  0.23225649289E+03 -0.27289006313E+03  0.42596421387E+03  0.55664852154E+03  0.00000000000E+00 0.  1.
        -13    1    3    3    0    0  0.19956878777E+03 -0.22563401216E+03  0.50111079251E+03  0.58467977121E+03  0.00000000000E+00 0. -1.
          4    1    6    6  502    0  0.48482328005E+02  0.11493452975E+03  0.39850401864E+03  0.41757147308E+03  0.00000000000E+00 0. -1.
          1    1    5    5  503    0 -0.30280240289E+03  0.98937566190E+02  0.32441371279E+03  0.45466712466E+03  0.00000000000E+00 0. -1.
         -2    1    5    5    0  503 -0.27635120206E+03  0.16022704147E+03  0.26637120349E+03  0.41592825072E+03  0.00000000000E+00 0.  1.
         -3    1    6    6    0  502  0.98845996289E+02  0.12442493787E+03  0.82070295958E+03  0.83594583796E+03  0.00000000000E+00 0.  1.
<mgrwt>
<rscale>  0 0.17808901E+04</rscale>
<asrwt>0</asrwt>
<pdfrwt beam="1">  1        1 0.46173135E+00 0.17808901E+04</pdfrwt>
<pdfrwt beam="2">  1       -1 0.40644162E-01 0.17808901E+04</pdfrwt>
<totfact> 0.33456540E+00</totfact>
</mgrwt>
</event>
<event>
12    1  0.1467288E-007  0.1975456E+04  0.7818608E-02  0.8618182E-01
          2   -1    0    0  501    0  0.00000000000E+00  0.00000000000E+00  0.16214583070E+04  0.16214583070E+04  0.00000000000E+00 0. -1.
         -2   -1    0    0    0  501 -0.00000000000E+00 -0.00000000000E+00 -0.60168490954E+03  0.60168490954E+03  0.00000000000E+00 0.  1.
         23    2    1    2    0    0 -0.51894182412E+03  0.65902349033E+02 -0.24499933516E+03  0.58482281186E+03  0.91374562185E+02 0.  0.
        254    2    1    2    0    0  0.51894182412E+03 -0.65902349033E+02  0.12647727326E+04  0.16383204047E+04  0.90044430521E+03 0.  0.
        -24    2    4    4    0    0  0.70963539172E+03  0.13636502339E+03  0.73113928661E+03  0.10313073259E+04  0.82778833145E+02 0.  0.
         24    2    4    4    0    0 -0.19069356761E+03 -0.20226737242E+03  0.53363344599E+03  0.60701307878E+03  0.80150461343E+02 0.  0.
         11    1    3    3    0    0 -0.43589565590E+03  0.78232627029E+02 -0.23172998214E+03  0.49982412045E+03  0.00000000000E+00 0.  1.
        -11    1    3    3    0    0 -0.83046168219E+02 -0.12330277996E+02 -0.13269353022E+02  0.84998691407E+02  0.00000000000E+00 0. -1.
          2    1    6    6  502    0 -0.13990943719E+03 -0.10742177282E+03  0.27276575487E+03  0.32483110214E+03  0.00000000000E+00 0. -1.
          1    1    5    5  503    0  0.32267466537E+03  0.30421015554E+02  0.36528120436E+03  0.48833875139E+03  0.00000000000E+00 0. -1.
         -2    1    5    5    0  503  0.38696072635E+03  0.10594400784E+03  0.36585808225E+03  0.54296857449E+03  0.00000000000E+00 0.  1.
         -1    1    6    6    0  502 -0.50784130419E+02 -0.94845599607E+02  0.26086769112E+03  0.28218197664E+03  0.00000000000E+00 0.  1.
<mgrwt>
<rscale>  0 0.19754564E+04</rscale>
<asrwt>0</asrwt>
<pdfrwt beam="1">  1        2 0.24945512E+00 0.19754564E+04</pdfrwt>
<pdfrwt beam="2">  1       -2 0.92566909E-01 0.19754564E+04</pdfrwt>
<totfact> 0.99990100E+00</totfact>
</mgrwt>
</event>
<event>
12    1  0.1467288E-007  0.2028546E+04  0.7818608E-02  0.8593389E-01
          2   -1    0    0  501    0  0.00000000000E+00  0.00000000000E+00  0.31021388174E+04  0.31021388174E+04  0.00000000000E+00 0.  1.
         -2   -1    0    0    0  501 -0.00000000000E+00 -0.00000000000E+00 -0.33162601862E+03  0.33162601862E+03  0.00000000000E+00 0. -1.
         23    2    1    2    0    0 -0.77244022628E+03 -0.11730606818E+03  0.14963837651E+04  0.16906344897E+04  0.93037565870E+02 0.  0.
        254    2    1    2    0    0  0.77244022628E+03  0.11730606818E+03  0.12741290337E+04  0.17431303463E+04  0.89703622717E+03 0.  0.
        -24    2    4    4    0    0 -0.86092966332E+02 -0.26307895053E+02  0.66972208608E+03  0.68039766527E+03  0.79430511342E+02 0.  0.
         24    2    4    4    0    0  0.85853319261E+03  0.14361396323E+03  0.60440694766E+03  0.10627326811E+04  0.79929842665E+02 0.  0.
         13    1    3    3    0    0 -0.77418485756E+03 -0.11371969166E+03  0.14917448482E+04  0.16845168607E+04  0.00000000000E+00 0.  1.
        -13    1    3    3    0    0  0.17446312754E+01 -0.35863765248E+01  0.46389169113E+01  0.61176290322E+01  0.00000000000E+00 0. -1.
          2    1    6    6  502    0  0.72055964789E+03  0.11167863096E+03  0.53891416124E+03  0.90670105104E+03  0.00000000000E+00 0. -1.
          1    1    5    5  503    0 -0.10069617534E+03 -0.16140074511E+02  0.55258629814E+03  0.56191799991E+03  0.00000000000E+00 0. -1.
         -2    1    5    5    0  503  0.14603209005E+02 -0.10167820542E+02  0.11713578794E+03  0.11847966536E+03  0.00000000000E+00 0.  1.
         -1    1    6    6    0  502  0.13797354473E+03  0.31935332274E+02  0.65492786428E+02  0.15603163002E+03  0.00000000000E+00 0.  1.
<mgrwt>
<rscale>  0 0.20285462E+04</rscale>
<asrwt>0</asrwt>
<pdfrwt beam="1">  1        2 0.47725211E+00 0.20285462E+04</pdfrwt>
<pdfrwt beam="2">  1       -2 0.51019390E-01 0.20285462E+04</pdfrwt>
<totfact> 0.50627779E+00</totfact>
</mgrwt>
</event>
<event>
12    1  0.1467288E-007  0.1181134E+04  0.7818608E-02  0.9129532E-01
          2   -1    0    0  501    0  0.00000000000E+00  0.00000000000E+00  0.20626655575E+03  0.20626655575E+03  0.00000000000E+00 0. -1.
         -2   -1    0    0    0  501 -0.00000000000E+00 -0.00000000000E+00 -0.16908660093E+04  0.16908660093E+04  0.00000000000E+00 0.  1.
         23    2    1    2    0    0  0.58036190976E+02  0.19296678229E+03 -0.44139739311E+03  0.49797805733E+03  0.11200941214E+03 0.  0.
        254    2    1    2    0    0 -0.58036190976E+02 -0.19296678229E+03 -0.10432020604E+04  0.13991545077E+04  0.91036169681E+03 0.  0.
        -24    2    4    4    0    0  0.27689694102E+03 -0.34276456157E+03 -0.88464940832E+03  0.99170073941E+03  0.81892125907E+02 0.  0.
         24    2    4    4    0    0 -0.33493313199E+03  0.14979777928E+03 -0.15855265212E+03  0.40745376831E+03  0.79120491830E+02 0.  0.
         13    1    3    3    0    0  0.51588304863E+02  0.15493321839E+03 -0.42638266383E+03  0.45658277604E+03  0.00000000000E+00 0.  1.
        -13    1    3    3    0    0  0.64478861130E+01  0.38033563895E+02 -0.15014729279E+02  0.41395281292E+02  0.00000000000E+00 0. -1.
          2    1    6    6  502    0 -0.22989505010E+03  0.13676149895E+03 -0.13217895291E+03  0.29837345265E+03  0.00000000000E+00 0. -1.
          3    1    5    5  503    0  0.25101764624E+03 -0.33710105218E+03 -0.81110919098E+03  0.91353439881E+03  0.00000000000E+00 0. -1.
         -4    1    5    5    0  503  0.25879294774E+02 -0.56635093865E+01 -0.73540217339E+02  0.78166340600E+02  0.00000000000E+00 0.  1.
         -1    1    6    6    0  502 -0.10503808189E+03  0.13036280327E+02 -0.26373699213E+02  0.10908031565E+03  0.00000000000E+00 0.  1.
<mgrwt>
<rscale>  0 0.11811335E+04</rscale>
<asrwt>0</asrwt>
<pdfrwt beam="1">  1        2 0.31733315E-01 0.11811335E+04</pdfrwt>
<pdfrwt beam="2">  1       -2 0.26013324E+00 0.11811335E+04</pdfrwt>
<totfact> 0.92314992E+00</totfact>
</mgrwt>
</event>
<event>
12    1  0.1467288E-007  0.1089990E+04  0.7818608E-02  0.9215003E-01
         -2   -1    0    0    0  501 -0.00000000000E+00  0.00000000000E+00  0.55460443094E+03  0.55460443094E+03  0.00000000000E+00 0. -1.
          2   -1    0    0  501    0  0.00000000000E+00 -0.00000000000E+00 -0.53555251276E+03  0.53555251276E+03  0.00000000000E+00 0.  1.
         23    2    1    2    0    0  0.80269318005E+02 -0.51151621111E+02 -0.11870041611E+03  0.18050591668E+03  0.97123351546E+02 0.  0.
        254    2    1    2    0    0 -0.80269318005E+02  0.51151621111E+02  0.13775233429E+03  0.90965102702E+03  0.89410828964E+03 0.  0.
        -24    2    4    4    0    0  0.26746754312E+03  0.26361620919E+03 -0.14195485005E+03  0.40919775344E+03  0.79115293084E+02 0.  0.
         24    2    4    4    0    0 -0.34773686112E+03 -0.21246458808E+03  0.27970718435E+03  0.50045327358E+03  0.78455364982E+02 0.  0.
         13    1    3    3    0    0  0.74999847173E+02 -0.36698057805E+02 -0.13459186785E+03  0.15838780071E+03  0.00000000000E+00 0.  1.
        -13    1    3    3    0    0  0.52694708316E+01 -0.14453563306E+02  0.15891451746E+02  0.22118115961E+02  0.00000000000E+00 0. -1.
          4    1    6    6  502    0 -0.12481064277E+03 -0.11921779921E+03  0.10181117061E+03  0.20038985667E+03  0.00000000000E+00 0. -1.
          3    1    5    5  503    0  0.90910678570E+02  0.75774036074E+02 -0.83557962654E+02  0.14487370066E+03  0.00000000000E+00 0. -1.
         -4    1    5    5    0  503  0.17655686455E+03  0.18784217311E+03 -0.58396887400E+02  0.26432405278E+03  0.00000000000E+00 0.  1.
         -3    1    6    6    0  502 -0.22292621835E+03 -0.93246788867E+02  0.17789601374E+03  0.30006341691E+03  0.00000000000E+00 0.  1.
<mgrwt>
<rscale>  0 0.10899905E+04</rscale>
<asrwt>0</asrwt>
<pdfrwt beam="1">  1        2 0.82392695E-01 0.10899905E+04</pdfrwt>
<pdfrwt beam="2">  1       -2 0.85323758E-01 0.10899905E+04</pdfrwt>
<totfact> 0.67459027E+01</totfact>
</mgrwt>
</event>
<event>
12    1  0.1467288E-007  0.1220411E+04  0.7818608E-02  0.9095176E-01
          2   -1    0    0  501    0  0.00000000000E+00  0.00000000000E+00  0.54961771747E+03  0.54961771747E+03  0.00000000000E+00 0. -1.
         -2   -1    0    0    0  501 -0.00000000000E+00 -0.00000000000E+00 -0.67747224285E+03  0.67747224285E+03  0.00000000000E+00 0.  1.
         23    2    1    2    0    0  0.21185671393E+03 -0.98154252374E+02  0.10164084942E+03  0.26741389591E+03  0.81619880909E+02 0.  0.
        254    2    1    2    0    0 -0.21185671393E+03  0.98154252374E+02 -0.22949537481E+03  0.95967606440E+03  0.90210448233E+03 0.  0.
        -24    2    4    4    0    0 -0.54453921370E+03 -0.13596915174E+02 -0.36706953838E+02  0.55154936782E+03  0.78431328711E+02 0.  0.
         24    2    4    4    0    0  0.33268249977E+03  0.11175116755E+03 -0.19278842097E+03  0.40812669659E+03  0.78956039061E+02 0.  0.
         11    1    3    3    0    0  0.11073464320E+03 -0.73667721490E+02  0.18602428646E+02  0.13429499151E+03  0.00000000000E+00 0. -1.
        -11    1    3    3    0    0  0.10112207073E+03 -0.24486530884E+02  0.83038420776E+02  0.13311890440E+03  0.00000000000E+00 0.  1.
          4    1    6    6  502    0  0.34379341838E+02  0.22194285514E+02  0.16598444132E+01  0.40954615590E+02  0.00000000000E+00 0. -1.
          3    1    5    5  503    0 -0.35032226874E+03 -0.29619027825E+02 -0.54869547108E+02  0.35582811298E+03  0.00000000000E+00 0. -1.
         -4    1    5    5    0  503 -0.19421694496E+03  0.16022112651E+02  0.18162593269E+02  0.19572125484E+03  0.00000000000E+00 0.  1.
         -3    1    6    6    0  502  0.29830315793E+03  0.89556882034E+02 -0.19444826538E+03  0.36717208099E+03  0.00000000000E+00 0.  1.
<mgrwt>
<rscale>  0 0.12204110E+04</rscale>
<asrwt>0</asrwt>
<pdfrwt beam="1">  1        2 0.84556572E-01 0.12204110E+04</pdfrwt>
<pdfrwt beam="2">  1       -2 0.10422650E+00 0.12204110E+04</pdfrwt>
<totfact> 0.40631648E+01</totfact>
</mgrwt>
</event>
<event>
12    1  0.1488757E-007  0.3105973E+04  0.7818608E-02  0.8214101E-01
          2   -1    0    0  501    0  0.00000000000E+00  0.00000000000E+00  0.18939557626E+04  0.18939557626E+04  0.00000000000E+00 0. -1.
         -2   -1    0    0    0  501 -0.00000000000E+00 -0.00000000000E+00 -0.12734017821E+04  0.12734017821E+04  0.00000000000E+00 0.  1.
         23    2    1    2    0    0 -0.74613989317E+03 -0.11628898522E+04  0.61798915938E+03  0.15161954537E+04  0.88884779838E+02 0.  0.
        254    2    1    2    0    0  0.74613989317E+03  0.11628898522E+04  0.25648211786E+01  0.16511620910E+04  0.90404210289E+03 0.  0.
        -24    2    4    4    0    0  0.90515897877E+02  0.93672542930E+03  0.86259871689E+02  0.94778342638E+03  0.72145687326E+02 0.  0.
         24    2    4    4    0    0  0.65562399529E+03  0.22616442295E+03 -0.83695050511E+02  0.70337866461E+03  0.82118907335E+02 0.  0.
         13    1    3    3    0    0 -0.48706232293E+03 -0.78955362286E+03  0.45647533587E+03  0.10339218356E+04  0.00000000000E+00 0. -1.
        -13    1    3    3    0    0 -0.25907757024E+03 -0.37333622939E+03  0.16151382351E+03  0.48227361814E+03  0.00000000000E+00 0.  1.
          4    1    6    6  502    0 -0.26825750582E+00  0.65485400093E+01 -0.21878714455E+01  0.69095672661E+01  0.00000000000E+00 0. -1.
          3    1    5    5  503    0  0.80604735346E+01  0.76595849404E+01  0.48307544303E+00  0.11129862396E+02  0.00000000000E+00 0. -1.
         -4    1    5    5    0  503  0.82455424342E+02  0.92906584436E+03  0.85776796246E+02  0.93665356399E+03  0.00000000000E+00 0.  1.
         -3    1    6    6    0  502  0.65589225280E+03  0.21961588294E+03 -0.81507179065E+02  0.69646909734E+03  0.00000000000E+00 0.  1.
<mgrwt>
<rscale>  0 0.31059727E+04</rscale>
<asrwt>0</asrwt>
<pdfrwt beam="1">  1        2 0.29137781E+00 0.31059727E+04</pdfrwt>
<pdfrwt beam="2">  1       -2 0.19590797E+00 0.31059727E+04</pdfrwt>
<totfact> 0.91921400E-01</totfact>
</mgrwt>
</event>
<event>
12    1  0.1467288E-007  0.1266574E+04  0.7818608E-02  0.9056500E-01
          2   -1    0    0  501    0  0.00000000000E+00  0.00000000000E+00  0.51720112012E+03  0.51720112012E+03  0.00000000000E+00 0.  1.
         -2   -1    0    0    0  501 -0.00000000000E+00 -0.00000000000E+00 -0.77542885581E+03  0.77542885581E+03  0.00000000000E+00 0. -1.
         23    2    1    2    0    0 -0.24844198801E+03 -0.60716510714E+02  0.11142530147E+03  0.29356906336E+03  0.91418166005E+02 0.  0.
        254    2    1    2    0    0  0.24844198801E+03  0.60716510714E+02 -0.36965303717E+03  0.99906091257E+03  0.89222722614E+03 0.  0.
        -24    2    4    4    0    0  0.16716194724E+03  0.31576193945E+03 -0.55428611331E+03  0.66418498861E+03  0.79119432966E+02 0.  0.
         24    2    4    4    0    0  0.81280040764E+02 -0.25504542874E+03  0.18463307614E+03  0.33487592397E+03  0.79986848306E+02 0.  0.
         11    1    3    3    0    0 -0.45783450585E+02  0.16758448917E+02 -0.19029808741E+01  0.48791303465E+02  0.00000000000E+00 0. -1.
        -11    1    3    3    0    0 -0.20265853742E+03 -0.77474959631E+02  0.11332828234E+03  0.24477775989E+03  0.00000000000E+00 0.  1.
          4    1    6    6  502    0  0.76471315107E+02 -0.15772671204E+03  0.15231542674E+03  0.23221879112E+03  0.00000000000E+00 0. -1.
          1    1    5    5  503    0  0.38593980826E+02  0.12515655394E+03 -0.25617646609E+03  0.28771520663E+03  0.00000000000E+00 0. -1.
         -2    1    5    5    0  503  0.12856796642E+03  0.19060538551E+03 -0.29810964722E+03  0.37646978198E+03  0.00000000000E+00 0.  1.
         -3    1    6    6    0  502  0.48087256570E+01 -0.97318716698E+02  0.32317649397E+02  0.10265713285E+03  0.00000000000E+00 0.  1.
<mgrwt>
<rscale>  0 0.12665744E+04</rscale>
<asrwt>0</asrwt>
<pdfrwt beam="1">  1        2 0.79569403E-01 0.12665744E+04</pdfrwt>
<pdfrwt beam="2">  1       -2 0.11929675E+00 0.12665744E+04</pdfrwt>
<totfact> 0.31324829E+01</totfact>
</mgrwt>
</event>
<event>
12    1  0.1467288E-007  0.1663008E+04  0.7818608E-02  0.8782748E-01
          1   -1    0    0  501    0  0.00000000000E+00  0.00000000000E+00  0.71363610167E+03  0.71363610167E+03  0.00000000000E+00 0. -1.
         -1   -1    0    0    0  501 -0.00000000000E+00 -0.00000000000E+00 -0.96883942873E+03  0.96883942873E+03  0.00000000000E+00 0.  1.
         23    2    1    2    0    0  0.19034011299E+02  0.18427576914E+03 -0.64514151070E+03  0.67680737508E+03  0.86837788184E+02 0.  0.
        254    2    1    2    0    0 -0.19034011299E+02 -0.18427576914E+03  0.38993818363E+03  0.10056681553E+04  0.90829334408E+03 0.  0.
        -24    2    4    4    0    0 -0.16903650653E+03  0.19941641309E+03 -0.15749041023E+03  0.31575718013E+03  0.80988401243E+02 0.  0.
         24    2    4    4    0    0  0.15000249523E+03 -0.38369218224E+03  0.54742859386E+03  0.68991097520E+03  0.81108871488E+02 0.  0.
         13    1    3    3    0    0  0.44587507187E+02  0.55654923268E+02 -0.18244167895E+03  0.19588384951E+03  0.00000000000E+00 0. -1.
        -13    1    3    3    0    0 -0.25553495888E+02  0.12862084587E+03 -0.46269983175E+03  0.48092352557E+03  0.00000000000E+00 0.  1.
          2    1    6    6  502    0  0.14411113936E+03 -0.31065351915E+03  0.41031467770E+03  0.53444528642E+03  0.00000000000E+00 0. -1.
          1    1    5    5  503    0 -0.15689994147E+03  0.18804717353E+03 -0.16716395830E+03  0.29651833006E+03  0.00000000000E+00 0. -1.
         -2    1    5    5    0  503 -0.12136565061E+02  0.11369239565E+02  0.96735480697E+01  0.19238850070E+02  0.00000000000E+00 0.  1.
         -3    1    6    6    0  502  0.58913558738E+01 -0.73038663089E+02  0.13711391616E+03  0.15546568877E+03  0.00000000000E+00 0.  1.
<mgrwt>
<rscale>  0 0.16630079E+04</rscale>
<asrwt>0</asrwt>
<pdfrwt beam="1">  1        1 0.10979017E+00 0.16630079E+04</pdfrwt>
<pdfrwt beam="2">  1       -1 0.14905222E+00 0.16630079E+04</pdfrwt>
<totfact> 0.89623755E+00</totfact>
</mgrwt>
</event>
<event>
12    1  0.1467288E-007  0.3162986E+04  0.7818608E-02  0.8198661E-01
         -2   -1    0    0    0  501 -0.00000000000E+00  0.00000000000E+00  0.77820676770E+03  0.77820676770E+03  0.00000000000E+00 0. -1.
          2   -1    0    0  501    0  0.00000000000E+00 -0.00000000000E+00 -0.32139531020E+04  0.32139531020E+04  0.00000000000E+00 0.  1.
         23    2    1    2    0    0 -0.41575301764E+03  0.20840390417E+03 -0.28597282423E+04  0.28988143471E+04  0.93788272233E+02 0.  0.
        254    2    1    2    0    0  0.41575301764E+03 -0.20840390417E+03  0.42398190798E+03  0.10933455227E+04  0.89406991597E+03 0.  0.
        -24    2    4    4    0    0  0.14149244736E+03  0.72290332310E+02  0.62289306452E+03  0.64763362308E+03  0.78660886745E+02 0.  0.
         24    2    4    4    0    0  0.27426057029E+03 -0.28069423648E+03 -0.19891115654E+03  0.44571189957E+03  0.71311530761E+02 0.  0.
         13    1    3    3    0    0 -0.78894380114E+02  0.10129428989E+02 -0.35766335990E+03  0.36640142953E+03  0.00000000000E+00 0. -1.
        -13    1    3    3    0    0 -0.33685863753E+03  0.19827447518E+03 -0.25020648824E+04  0.25324129175E+04  0.00000000000E+00 0.  1.
          4    1    6    6  502    0  0.12604766735E+03 -0.80177240078E+02 -0.69009344098E+02  0.16455605077E+03  0.00000000000E+00 0. -1.
          3    1    5    5  503    0  0.10647187179E+03  0.79786145526E+02  0.55664327979E+03  0.57232318618E+03  0.00000000000E+00 0. -1.
         -4    1    5    5    0  503  0.35020575566E+02 -0.74958132159E+01  0.66249784730E+02  0.75310436896E+02  0.00000000000E+00 0.  1.
         -3    1    6    6    0  502  0.14821290293E+03 -0.20051699640E+03 -0.12990181244E+03  0.28115584880E+03  0.00000000000E+00 0.  1.
<mgrwt>
<rscale>  0 0.31629860E+04</rscale>
<asrwt>0</asrwt>
<pdfrwt beam="1">  1        2 0.49445433E+00 0.31629860E+04</pdfrwt>
<pdfrwt beam="2">  1       -2 0.11972412E+00 0.31629860E+04</pdfrwt>
<totfact> 0.57224847E-01</totfact>
</mgrwt>
</event>
<event>
12    1  0.1467288E-007  0.1226085E+04  0.7818608E-02  0.9090326E-01
          2   -1    0    0  501    0  0.00000000000E+00  0.00000000000E+00  0.95469613790E+03  0.95469613790E+03  0.00000000000E+00 0. -1.
         -2   -1    0    0    0  501 -0.00000000000E+00 -0.00000000000E+00 -0.39365495767E+03  0.39365495767E+03  0.00000000000E+00 0.  1.
         23    2    1    2    0    0 -0.14614112414E+01  0.25517876303E+03  0.23727073519E+03  0.35996243879E+03  0.90317322459E+02 0.  0.
        254    2    1    2    0    0  0.14614112414E+01 -0.25517876303E+03  0.32377044504E+03  0.98838865678E+03  0.89831314080E+03 0.  0.
        -24    2    4    4    0    0  0.60082038435E+02 -0.14875382064E+03 -0.29913179204E+03  0.34843682176E+03  0.78681886419E+02 0.  0.
         24    2    4    4    0    0 -0.58620627194E+02 -0.10642494239E+03  0.62290223708E+03  0.63995183502E+03  0.82270941927E+02 0.  0.
         13    1    3    3    0    0  0.34956321012E+02  0.90855611154E+02  0.12146095941E+03  0.15565812255E+03  0.00000000000E+00 0.  1.
        -13    1    3    3    0    0 -0.36417732254E+02  0.16432315188E+03  0.11580977579E+03  0.20430431624E+03  0.00000000000E+00 0. -1.
          4    1    6    6  502    0  0.17621776968E+02 -0.31254928625E+02  0.22741207525E+03  0.23022521486E+03  0.00000000000E+00 0. -1.
          3    1    5    5  503    0 -0.42541648176E+01 -0.94295238297E+02 -0.15692541802E+03  0.18312639543E+03  0.00000000000E+00 0. -1.
         -4    1    5    5    0  503  0.64336203253E+02 -0.54458582345E+02 -0.14220637402E+03  0.16531042633E+03  0.00000000000E+00 0.  1.
         -3    1    6    6    0  502 -0.76242404161E+02 -0.75170013767E+02  0.39549016183E+03  0.40972662016E+03  0.00000000000E+00 0.  1.
<mgrwt>
<rscale>  0 0.12260846E+04</rscale>
<asrwt>0</asrwt>
<pdfrwt beam="1">  1        2 0.14687633E+00 0.12260846E+04</pdfrwt>
<pdfrwt beam="2">  1       -2 0.60562302E-01 0.12260846E+04</pdfrwt>
<totfact> 0.67440350E+01</totfact>
</mgrwt>
</event>
<event>
12    1  0.1467288E-007  0.1351812E+04  0.7818608E-02  0.8989457E-01
          1   -1    0    0  501    0  0.00000000000E+00  0.00000000000E+00  0.15092438842E+04  0.15092438842E+04  0.00000000000E+00 0. -1.
         -1   -1    0    0    0  501 -0.00000000000E+00 -0.00000000000E+00 -0.30270067482E+03  0.30270067482E+03  0.00000000000E+00 0.  1.
         23    2    1    2    0    0 -0.19813377209E+03  0.76681726023E+02 -0.81675489707E+02  0.24387912490E+03  0.87573187656E+02 0.  0.
        254    2    1    2    0    0  0.19813377209E+03 -0.76681726023E+02  0.12882186991E+04  0.15680654341E+04  0.86843808661E+03 0.  0.
        -24    2    4    4    0    0 -0.27328637940E+03 -0.13785879808E+03  0.19113806850E+03  0.36971199999E+03  0.80390971665E+02 0.  0.
         24    2    4    4    0    0  0.47142015149E+03  0.61177072059E+02  0.10970806306E+04  0.11983534341E+04  0.80532290048E+02 0.  0.
         11    1    3    3    0    0 -0.11071197627E+03  0.35643861260E+02 -0.89831979128E+02  0.14696057638E+03  0.00000000000E+00 0.  1.
        -11    1    3    3    0    0 -0.87421795817E+02  0.41037864763E+02  0.81564894211E+01  0.96918548523E+02  0.00000000000E+00 0. -1.
          2    1    6    6  502    0  0.47278294466E+03  0.65071712247E+02  0.10793696513E+04  0.11801681595E+04  0.00000000000E+00 0. -1.
          3    1    5    5  503    0 -0.24818736820E+03 -0.95033964084E+02  0.14950894627E+03  0.30492843271E+03  0.00000000000E+00 0. -1.
         -4    1    5    5    0  503 -0.25099011208E+02 -0.42824833998E+02  0.41629122237E+02  0.64783567274E+02  0.00000000000E+00 0.  1.
         -1    1    6    6    0  502 -0.13627931709E+01 -0.38946401880E+01  0.17710979283E+02  0.18185274664E+02  0.00000000000E+00 0.  1.
<mgrwt>
<rscale>  0 0.13518123E+04</rscale>
<asrwt>0</asrwt>
<pdfrwt beam="1">  1        1 0.23219136E+00 0.13518123E+04</pdfrwt>
<pdfrwt beam="2">  1       -1 0.46569335E-01 0.13518123E+04</pdfrwt>
<totfact> 0.28967992E+01</totfact>
</mgrwt>
</event>
<event>
12    1  0.1467288E-007  0.1354092E+04  0.7818608E-02  0.8987736E-01
         -1   -1    0    0    0  501 -0.00000000000E+00  0.00000000000E+00  0.58703157788E+03  0.58703157788E+03  0.00000000000E+00 0.  1.
          1   -1    0    0  501    0  0.00000000000E+00 -0.00000000000E+00 -0.78086294727E+03  0.78086294727E+03  0.00000000000E+00 0. -1.
         23    2    1    2    0    0  0.18416244746E+03 -0.30379694763E+03  0.43344037051E+02  0.36851354311E+03  0.87835832479E+02 0.  0.
        254    2    1    2    0    0 -0.18416244746E+03  0.30379694763E+03 -0.23717540644E+03  0.99938098204E+03  0.90349420662E+03 0.  0.
        -24    2    4    4    0    0 -0.35324907086E+03 -0.85645794693E+02  0.16641302530E+03  0.40814113875E+03  0.82254397681E+02 0.  0.
         24    2    4    4    0    0  0.16908662339E+03  0.38944274232E+03 -0.40358843174E+03  0.59123984329E+03  0.80156062198E+02 0.  0.
         11    1    3    3    0    0  0.11733055065E+03 -0.19288164980E+03 -0.15459177111E+02  0.22629355957E+03  0.00000000000E+00 0. -1.
        -11    1    3    3    0    0  0.66831896814E+02 -0.11091529782E+03  0.58803214162E+02  0.14221998354E+03  0.00000000000E+00 0.  1.
          2    1    6    6  502    0  0.64151806398E+02  0.23116738778E+03 -0.25502650518E+03  0.35013188056E+03  0.00000000000E+00 0. -1.
          3    1    5    5  503    0 -0.33949746445E+03 -0.88147573656E+02  0.13885085373E+03  0.37723743543E+03  0.00000000000E+00 0. -1.
         -4    1    5    5    0  503 -0.13751606406E+02  0.25017789632E+01  0.27562171575E+02  0.30903703316E+02  0.00000000000E+00 0.  1.
         -1    1    6    6    0  502  0.10493481699E+03  0.15827535454E+03 -0.14856192656E+03  0.24110796274E+03  0.00000000000E+00 0.  1.
<mgrwt>
<rscale>  0 0.13540919E+04</rscale>
<asrwt>0</asrwt>
<pdfrwt beam="1">  1        1 0.12013276E+00 0.13540919E+04</pdfrwt>
<pdfrwt beam="2">  1       -1 0.90312550E-01 0.13540919E+04</pdfrwt>
<totfact> 0.26970205E+01</totfact>
</mgrwt>
</event>
<event>
12    1  0.1467288E-007  0.2243590E+04  0.7818608E-02  0.8500501E-01
          2   -1    0    0  501    0  0.00000000000E+00  0.00000000000E+00  0.61043444976E+03  0.61043444976E+03  0.00000000000E+00 0. -1.
         -2   -1    0    0    0  501 -0.00000000000E+00 -0.00000000000E+00 -0.20615210892E+04  0.20615210892E+04  0.00000000000E+00 0.  1.
         23    2    1    2    0    0  0.12007042526E+02  0.20444377604E+03 -0.16933756374E+04  0.17085245715E+04  0.97947616670E+02 0.  0.
        254    2    1    2    0    0 -0.12007042526E+02 -0.20444377604E+03  0.24228899796E+03  0.96343096741E+03  0.90969986468E+03 0.  0.
        -24    2    4    4    0    0  0.36192948234E+03  0.52130665016E+02  0.32471119995E+03  0.49560285666E+03  0.80462859331E+02 0.  0.
         24    2    4    4    0    0 -0.37393652487E+03 -0.25657444106E+03 -0.82422201989E+02  0.46782811075E+03  0.80067180507E+02 0.  0.
         11    1    3    3    0    0  0.44444224822E+02  0.18240058326E+03 -0.13858602104E+04  0.13985184248E+04  0.00000000000E+00 0.  1.
        -11    1    3    3    0    0 -0.32437182296E+02  0.22043192778E+02 -0.30751542700E+03  0.31000614669E+03  0.00000000000E+00 0. -1.
          2    1    6    6  502    0 -0.18193514039E+03 -0.10671954643E+03 -0.75951323233E+02  0.22418309571E+03  0.00000000000E+00 0. -1.
          3    1    5    5  503    0  0.16938647588E+03  0.15150900621E+02  0.20305607167E+03  0.26486429779E+03  0.00000000000E+00 0. -1.
         -4    1    5    5    0  503  0.19254300646E+03  0.36979764395E+02  0.12165512828E+03  0.23073855887E+03  0.00000000000E+00 0.  1.
         -1    1    6    6    0  502 -0.19200138447E+03 -0.14985489463E+03 -0.64708787560E+01  0.24364501504E+03  0.00000000000E+00 0.  1.
<mgrwt>
<rscale>  0 0.22435895E+04</rscale>
<asrwt>0</asrwt>
<pdfrwt beam="1">  1        2 0.93912991E-01 0.22435895E+04</pdfrwt>
<pdfrwt beam="2">  1       -2 0.31715709E+00 0.22435895E+04</pdfrwt>
<totfact> 0.11037075E+00</totfact>
</mgrwt>
</event>
<event>
12    1  0.1467288E-007  0.1489632E+04  0.7818608E-02  0.8891377E-01
         -2   -1    0    0    0  501 -0.00000000000E+00  0.00000000000E+00  0.12729105526E+04  0.12729105526E+04  0.00000000000E+00 0.  1.
          2   -1    0    0  501    0  0.00000000000E+00 -0.00000000000E+00 -0.43581271904E+03  0.43581271904E+03  0.00000000000E+00 0. -1.
         23    2    1    2    0    0 -0.35665341891E+03 -0.25016834377E+03  0.44535483961E+03  0.62973791193E+03  0.91886033297E+02 0.  0.
        254    2    1    2    0    0  0.35665341891E+03  0.25016834377E+03  0.39174299393E+03  0.10789853597E+04  0.90606896629E+03 0.  0.
        -24    2    4    4    0    0  0.49963700557E+03  0.43821652192E+03  0.46920912122E+03  0.81754113202E+03  0.80903928762E+02 0.  0.
         24    2    4    4    0    0 -0.14298358666E+03 -0.18804817815E+03 -0.77466127290E+02  0.26144422767E+03  0.80905252884E+02 0.  0.
         13    1    3    3    0    0 -0.11146881309E+03 -0.39532567003E+02  0.84966352159E+02  0.14562761120E+03  0.00000000000E+00 0.  1.
        -13    1    3    3    0    0 -0.24518460582E+03 -0.21063577677E+03  0.36038848745E+03  0.48411030073E+03  0.00000000000E+00 0. -1.
          2    1    6    6  502    0 -0.12780103118E+03 -0.12647146384E+03 -0.30133756638E+02  0.18230792091E+03  0.00000000000E+00 0. -1.
          3    1    5    5  503    0  0.44144397007E+03  0.39814765931E+03  0.38793900002E+03  0.70985280521E+03  0.00000000000E+00 0. -1.
         -4    1    5    5    0  503  0.58193035498E+02  0.40068862610E+02  0.81270121200E+02  0.10768832681E+03  0.00000000000E+00 0.  1.
         -1    1    6    6    0  502 -0.15182555477E+02 -0.61576714303E+02 -0.47332370651E+02  0.79136306754E+02  0.00000000000E+00 0.  1.
<mgrwt>
<rscale>  0 0.14896316E+04</rscale>
<asrwt>0</asrwt>
<pdfrwt beam="1">  1        2 0.67048111E-01 0.14896316E+04</pdfrwt>
<pdfrwt beam="2">  1       -2 0.19583239E+00 0.14896316E+04</pdfrwt>
<totfact> 0.98743289E+00</totfact>
</mgrwt>
</event>
<event>
12    1  0.1570555E-007  0.1785427E+04  0.7818608E-02  0.8714088E-01
          2   -1    0    0  501    0  0.00000000000E+00  0.00000000000E+00  0.13214011355E+04  0.13214011355E+04  0.00000000000E+00 0. -1.
         -2   -1    0    0    0  501 -0.00000000000E+00 -0.00000000000E+00 -0.60310050180E+03  0.60310050180E+03  0.00000000000E+00 0.  1.
         23    2    1    2    0    0 -0.27622377422E+03 -0.47041126542E+03  0.48101350569E+02  0.55756980734E+03  0.10480466617E+03 0.  0.
        254    2    1    2    0    0  0.27622377422E+03  0.47041126542E+03  0.67019928315E+03  0.13669318300E+04  0.10591266292E+04 0.  0.
        -24    2    4    4    0    0 -0.10507147071E+03 -0.28738441220E+03  0.64286788448E+02  0.32147015033E+03  0.74702423321E+02 0.  0.
         24    2    4    4    0    0  0.38129524493E+03  0.75779567762E+03  0.60591249470E+03  0.10454616797E+04  0.78865832603E+02 0.  0.
         11    1    3    3    0    0 -0.17992572073E+03 -0.36247302163E+03 -0.14243357565E+01  0.40467516000E+03  0.00000000000E+00 0.  1.
        -11    1    3    3    0    0 -0.96298053488E+02 -0.10793824378E+03  0.49525686326E+02  0.15289464733E+03  0.00000000000E+00 0. -1.
          2    1    6    6  502    0  0.20732387717E+02  0.42754454577E+02  0.13651344492E+02  0.49438188610E+02  0.00000000000E+00 0. -1.
          3    1    5    5  503    0  0.13449276387E+01 -0.47159705102E+02  0.31416399687E+02  0.56681891155E+02  0.00000000000E+00 0. -1.
         -4    1    5    5    0  503 -0.10641639835E+03 -0.24022470710E+03  0.32870388760E+02  0.26478825918E+03  0.00000000000E+00 0.  1.
         -1    1    6    6    0  502  0.36056285721E+03  0.71504122304E+03  0.59226115021E+03  0.99602349104E+03  0.00000000000E+00 0.  1.
<mgrwt>
<rscale>  0 0.17854273E+04</rscale>
<asrwt>0</asrwt>
<pdfrwt beam="1">  1        2 0.20329248E+00 0.17854273E+04</pdfrwt>
<pdfrwt beam="2">  1       -2 0.92784693E-01 0.17854273E+04</pdfrwt>
<totfact> 0.14952941E+01</totfact>
</mgrwt>
</event>
<event>
12    1  0.1467288E-007  0.1931628E+04  0.7818608E-02  0.8639271E-01
         -2   -1    0    0    0  501 -0.00000000000E+00  0.00000000000E+00  0.39374285227E+03  0.39374285227E+03  0.00000000000E+00 0.  1.
          2   -1    0    0  501    0  0.00000000000E+00 -0.00000000000E+00 -0.23690508656E+04  0.23690508656E+04  0.00000000000E+00 0. -1.
         23    2    1    2    0    0  0.21580041145E+03  0.35942362911E+03  0.12249060783E+03  0.44610092123E+03  0.90812555166E+02 0.  0.
        254    2    1    2    0    0 -0.21580041145E+03 -0.35942362911E+03 -0.20977986212E+04  0.23166927967E+04  0.88912951606E+03 0.  0.
        -24    2    4    4    0    0  0.22525369591E+03 -0.42369959864E+01 -0.13717245620E+04  0.13924203471E+04  0.80305474751E+02 0.  0.
         24    2    4    4    0    0 -0.44105410736E+03 -0.35518663312E+03 -0.72607405918E+03  0.92427244959E+03  0.80060924921E+02 0.  0.
         11    1    3    3    0    0  0.13046835400E+03  0.20453698450E+03  0.11658677869E+03  0.26916509133E+03  0.00000000000E+00 0. -1.
        -11    1    3    3    0    0  0.85332057445E+02  0.15488664461E+03  0.59038291421E+01  0.17693582990E+03  0.00000000000E+00 0.  1.
          4    1    6    6  502    0 -0.35143768425E+03 -0.27986928467E+03 -0.62434996156E+03  0.76918667235E+03  0.00000000000E+00 0. -1.
          3    1    5    5  503    0  0.20103706906E+03  0.68294813664E+01 -0.13076963477E+04  0.13230768242E+04  0.00000000000E+00 0. -1.
         -4    1    5    5    0  503  0.24216626853E+02 -0.11066477353E+02 -0.64028214323E+02  0.69343522888E+02  0.00000000000E+00 0.  1.
         -3    1    6    6    0  502 -0.89616423107E+02 -0.75317348452E+02 -0.10172409762E+03  0.15508577725E+03  0.00000000000E+00 0.  1.
<mgrwt>
<rscale>  0 0.19316282E+04</rscale>
<asrwt>0</asrwt>
<pdfrwt beam="1">  1        2 0.36446937E+00 0.19316282E+04</pdfrwt>
<pdfrwt beam="2">  1       -2 0.60575822E-01 0.19316282E+04</pdfrwt>
<totfact> 0.98224748E+00</totfact>
</mgrwt>
</event>
<event>
12    1  0.1467288E-007  0.1488529E+04  0.7818608E-02  0.8892117E-01
          1   -1    0    0  501    0  0.00000000000E+00  0.00000000000E+00  0.80823671217E+03  0.80823671217E+03  0.00000000000E+00 0. -1.
         -1   -1    0    0    0  501 -0.00000000000E+00 -0.00000000000E+00 -0.68535616008E+03  0.68535616008E+03  0.00000000000E+00 0.  1.
         23    2    1    2    0    0  0.17306128692E+03 -0.40810458363E+03  0.16914352174E+03  0.48278293788E+03  0.89276390783E+02 0.  0.
        254    2    1    2    0    0 -0.17306128692E+03  0.40810458363E+03 -0.46262969654E+02  0.10108099344E+04  0.90724687976E+03 0.  0.
        -24    2    4    4    0    0 -0.36974476242E+03  0.37254009431E+03 -0.35186237623E+03  0.63680517927E+03  0.78844107793E+02 0.  0.
         24    2    4    4    0    0  0.19668347550E+03  0.35564489314E+02  0.30559940658E+03  0.37400475509E+03  0.80866167794E+02 0.  0.
         11    1    3    3    0    0  0.11870692128E+02 -0.13109953002E+03  0.45773185630E+02  0.13936708588E+03  0.00000000000E+00 0.  1.
        -11    1    3    3    0    0  0.16119059480E+03 -0.27700505361E+03  0.12337033611E+03  0.34341585200E+03  0.00000000000E+00 0. -1.
          4    1    6    6  502    0  0.18980348070E+03  0.48585053680E+02  0.29987441726E+03  0.35820459916E+03  0.00000000000E+00 0. -1.
          1    1    5    5  503    0 -0.36144167156E+03  0.34270582976E+03 -0.34240862898E+03  0.60442620467E+03  0.00000000000E+00 0. -1.
         -2    1    5    5    0  503 -0.83030908639E+01  0.29834264555E+02 -0.94537472490E+01  0.32378974605E+02  0.00000000000E+00 0.  1.
         -3    1    6    6    0  502  0.68799947982E+01 -0.13020564366E+02  0.57249893131E+01  0.15800155932E+02  0.00000000000E+00 0.  1.
<mgrwt>
<rscale>  0 0.14885295E+04</rscale>
<asrwt>0</asrwt>
<pdfrwt beam="1">  1        1 0.12434411E+00 0.14885295E+04</pdfrwt>
<pdfrwt beam="2">  1       -1 0.10543941E+00 0.14885295E+04</pdfrwt>
<totfact> 0.17759368E+01</totfact>
</mgrwt>
</event>
<event>
12    1  0.1467288E-007  0.2235671E+04  0.7818608E-02  0.8503726E-01
         -2   -1    0    0    0  501 -0.00000000000E+00  0.00000000000E+00  0.78827446780E+03  0.78827446780E+03  0.00000000000E+00 0.  1.
          2   -1    0    0  501    0  0.00000000000E+00 -0.00000000000E+00 -0.15851796409E+04  0.15851796409E+04  0.00000000000E+00 0. -1.
         23    2    1    2    0    0 -0.67214937846E+03 -0.62511057681E+03 -0.52372856387E+03  0.10608641117E+04  0.92698622281E+02 0.  0.
        254    2    1    2    0    0  0.67214937846E+03  0.62511057681E+03 -0.27317660921E+03  0.13125899970E+04  0.89761852713E+03 0.  0.
        -24    2    4    4    0    0 -0.17218570602E+03  0.23181398888E+03 -0.22744524628E+03  0.37598248697E+03  0.79030675401E+02 0.  0.
         24    2    4    4    0    0  0.84433508448E+03  0.39329658793E+03 -0.45731362926E+02  0.93660751005E+03  0.86938652868E+02 0.  0.
         11    1    3    3    0    0 -0.10723991521E+02 -0.24223350197E+02 -0.29631219320E+02  0.39746494780E+02  0.00000000000E+00 0.  1.
        -11    1    3    3    0    0 -0.66142538693E+03 -0.60088722662E+03 -0.49409734455E+03  0.10211176169E+04  0.00000000000E+00 0. -1.
          4    1    6    6  502    0  0.81680779909E+03  0.36753252718E+03 -0.56288975752E+02  0.89745394756E+03  0.00000000000E+00 0. -1.
          1    1    5    5  503    0 -0.13383487014E+03  0.12028771385E+03 -0.15556051438E+03  0.23786546660E+03  0.00000000000E+00 0. -1.
         -2    1    5    5    0  503 -0.38350835885E+02  0.11152627503E+03 -0.71884731900E+02  0.13811702037E+03  0.00000000000E+00 0.  1.
         -3    1    6    6    0  502  0.27527285382E+02  0.25764060749E+02  0.10557612826E+02  0.39153562486E+02  0.00000000000E+00 0.  1.
<mgrwt>
<rscale>  0 0.22356714E+04</rscale>
<asrwt>0</asrwt>
<pdfrwt beam="1">  1        2 0.24387379E+00 0.22356714E+04</pdfrwt>
<pdfrwt beam="2">  1       -2 0.12127300E+00 0.22356714E+04</pdfrwt>
<totfact> 0.53591446E+00</totfact>
</mgrwt>
</event>
<event>
12    1  0.1467288E-007  0.2157734E+04  0.7818608E-02  0.8536229E-01
         -2   -1    0    0    0  501 -0.00000000000E+00  0.00000000000E+00  0.53230592163E+03  0.53230592163E+03  0.00000000000E+00 0.  1.
          2   -1    0    0  501    0  0.00000000000E+00 -0.00000000000E+00 -0.21866251236E+04  0.21866251236E+04  0.00000000000E+00 0. -1.
         23    2    1    2    0    0 -0.85257508628E+02 -0.86026731763E+03 -0.93700094101E+03  0.12777277521E+04  0.85374143825E+02 0.  0.
        254    2    1    2    0    0  0.85257508628E+02  0.86026731763E+03 -0.71731826097E+03  0.14412032932E+04  0.90288024904E+03 0.  0.
        -24    2    4    4    0    0  0.42195515648E+03  0.75159138414E+03 -0.37819980156E+03  0.94476294020E+03  0.81278290338E+02 0.  0.
         24    2    4    4    0    0 -0.33669764786E+03  0.10867593349E+03 -0.33911845941E+03  0.49644035295E+03  0.79220767041E+02 0.  0.
         13    1    3    3    0    0 -0.51970609187E+02 -0.53983008295E+03 -0.52596964732E+03  0.75548761246E+03  0.00000000000E+00 0.  1.
        -13    1    3    3    0    0 -0.33286899441E+02 -0.32043723468E+03 -0.41103129369E+03  0.52224013962E+03  0.00000000000E+00 0. -1.
          4    1    6    6  502    0 -0.86248956095E+02 -0.70246333550E+01 -0.75044121876E+02  0.11454190556E+03  0.00000000000E+00 0. -1.
          3    1    5    5  503    0  0.41631971503E+03  0.75211296449E+03 -0.37302121260E+03  0.93709169323E+03  0.00000000000E+00 0. -1.
         -4    1    5    5    0  503  0.56354414557E+01 -0.52158034618E+00 -0.51785889668E+01  0.76712469746E+01  0.00000000000E+00 0.  1.
         -3    1    6    6    0  502 -0.25044869176E+03  0.11570056684E+03 -0.26407433754E+03  0.38189844739E+03  0.00000000000E+00 0.  1.
<mgrwt>
<rscale>  0 0.21577335E+04</rscale>
<asrwt>0</asrwt>
<pdfrwt beam="1">  1        2 0.33640387E+00 0.21577335E+04</pdfrwt>
<pdfrwt beam="2">  1       -2 0.81893218E-01 0.21577335E+04</pdfrwt>
<totfact> 0.63183049E+00</totfact>
</mgrwt>
</event>
<event>
12    1  0.1467288E-007  0.1940010E+04  0.7818608E-02  0.8635193E-01
         -1   -1    0    0    0  501 -0.00000000000E+00  0.00000000000E+00  0.17102438621E+04  0.17102438621E+04  0.00000000000E+00 0.  1.
          1   -1    0    0  501    0  0.00000000000E+00 -0.00000000000E+00 -0.55016095458E+03  0.55016095458E+03  0.00000000000E+00 0. -1.
         23    2    1    2    0    0  0.57214656018E+03  0.38176579443E+03  0.88518438864E+02  0.69975783434E+03  0.93427536498E+02 0.  0.
        254    2    1    2    0    0 -0.57214656018E+03 -0.38176579443E+03  0.10715644687E+04  0.15606469823E+04  0.90237009306E+03 0.  0.
        -24    2    4    4    0    0 -0.20832673093E+03  0.28083721069E+03  0.46981450162E+03  0.59111424770E+03  0.80130032909E+02 0.  0.
         24    2    4    4    0    0 -0.36381982926E+03 -0.66260300512E+03  0.60174996703E+03  0.96953273463E+03  0.80517638687E+02 0.  0.
         13    1    3    3    0    0  0.24684096819E+03  0.19421922407E+03  0.80215173503E+02  0.32416977749E+03  0.00000000000E+00 0.  1.
        -13    1    3    3    0    0  0.32530559199E+03  0.18754657036E+03  0.83032653611E+01  0.37558805686E+03  0.00000000000E+00 0. -1.
          2    1    6    6  502    0 -0.36078331938E+03 -0.61890767543E+03  0.56645956488E+03  0.91328404831E+03  0.00000000000E+00 0. -1.
          3    1    5    5  503    0 -0.11643977224E+03  0.21609040867E+03  0.34084204341E+03  0.42003164623E+03  0.00000000000E+00 0. -1.
         -4    1    5    5    0  503 -0.91886958690E+02  0.64746802016E+02  0.12897245822E+03  0.17108260147E+03  0.00000000000E+00 0.  1.
         -1    1    6    6    0  502 -0.30365098793E+01 -0.43695329689E+02  0.35290402150E+02  0.56248686321E+02  0.00000000000E+00 0.  1.
<mgrwt>
<rscale>  0 0.19400097E+04</rscale>
<asrwt>0</asrwt>
<pdfrwt beam="1">  1        1 0.84640147E-01 0.19400097E+04</pdfrwt>
<pdfrwt beam="2">  1       -1 0.26311444E+00 0.19400097E+04</pdfrwt>
<totfact> 0.20709425E+00</totfact>
</mgrwt>
</event>
<event>
12    1  0.1467288E-007  0.2214721E+04  0.7818608E-02  0.8512326E-01
          1   -1    0    0  501    0  0.00000000000E+00  0.00000000000E+00  0.17460056213E+04  0.17460056213E+04  0.00000000000E+00 0. -1.
         -1   -1    0    0    0  501 -0.00000000000E+00 -0.00000000000E+00 -0.70231598370E+03  0.70231598370E+03  0.00000000000E+00 0.  1.
         23    2    1    2    0    0  0.47846733102E+03  0.60626845991E+02  0.13087504590E+04  0.13975018603E+04  0.87046450110E+02 0.  0.
        254    2    1    2    0    0 -0.47846733102E+03 -0.60626845991E+02 -0.26506082131E+03  0.10508197447E+04  0.89518617929E+03 0.  0.
        -24    2    4    4    0    0 -0.47245526956E+03  0.25429101467E+03  0.11081401615E+03  0.55386286016E+03  0.81279885640E+02 0.  0.
         24    2    4    4    0    0 -0.60120614530E+01 -0.31491786066E+03 -0.37587483746E+03  0.49695688456E+03  0.80466439166E+02 0.  0.
         13    1    3    3    0    0  0.26546058945E+03  0.54862994055E+02  0.62325278312E+03  0.67964939810E+03  0.00000000000E+00 0.  1.
        -13    1    3    3    0    0  0.21300674156E+03  0.57638519357E+01  0.68549767584E+03  0.71785246222E+03  0.00000000000E+00 0. -1.
          2    1    6    6  502    0  0.30905010698E+02 -0.22883119099E+03 -0.25449054395E+03  0.34363391948E+03  0.00000000000E+00 0. -1.
          1    1    5    5  503    0 -0.25067874357E+03  0.89598909309E+02  0.62166455481E+02  0.27337239293E+03  0.00000000000E+00 0. -1.
         -2    1    5    5    0  503 -0.22177652599E+03  0.16469210536E+03  0.48647560667E+02  0.28049046723E+03  0.00000000000E+00 0.  1.
         -1    1    6    6    0  502 -0.36917072151E+02 -0.86086669672E+02 -0.12138429351E+03  0.15332296508E+03  0.00000000000E+00 0.  1.
<mgrwt>
<rscale>  0 0.22147213E+04</rscale>
<asrwt>0</asrwt>
<pdfrwt beam="1">  1        1 0.26861625E+00 0.22147213E+04</pdfrwt>
<pdfrwt beam="2">  1       -1 0.10804861E+00 0.22147213E+04</pdfrwt>
<totfact> 0.32137607E+00</totfact>
</mgrwt>
</event>
<event>
12    1  0.1467288E-007  0.2565382E+04  0.7818608E-02  0.8380056E-01
          2   -1    0    0  501    0  0.00000000000E+00  0.00000000000E+00  0.53114916962E+03  0.53114916962E+03  0.00000000000E+00 0. -1.
         -2   -1    0    0    0  501 -0.00000000000E+00 -0.00000000000E+00 -0.30976166323E+04  0.30976166323E+04  0.00000000000E+00 0.  1.
         23    2    1    2    0    0  0.37349360842E+03  0.13047672803E+03 -0.26188724397E+04  0.26501722107E+04  0.91641907714E+02 0.  0.
        254    2    1    2    0    0 -0.37349360842E+03 -0.13047672803E+03  0.52404977011E+02  0.97859359116E+03  0.89351971604E+03 0.  0.
        -24    2    4    4    0    0  0.20699082098E+03 -0.12232259249E+03 -0.21705237954E+03  0.33352868807E+03  0.79508702031E+02 0.  0.
         24    2    4    4    0    0 -0.58048442940E+03 -0.81541355382E+01  0.26945735655E+03  0.64506490309E+03  0.80453710318E+02 0.  0.
         13    1    3    3    0    0  0.37536613850E+03  0.12469986037E+03 -0.26070182333E+04  0.26368530224E+04  0.00000000000E+00 0.  1.
        -13    1    3    3    0    0 -0.18725300767E+01  0.57768676589E+01 -0.11854206364E+02  0.13319188315E+02  0.00000000000E+00 0. -1.
          2    1    6    6  502    0 -0.31510782939E+03 -0.41496805103E+02  0.16305882506E+03  0.35721577430E+03  0.00000000000E+00 0. -1.
          3    1    5    5  503    0  0.28412739926E+00 -0.23426788502E+02 -0.27631389380E+02  0.36226907500E+02  0.00000000000E+00 0. -1.
         -4    1    5    5    0  503  0.20670669358E+03 -0.98895803986E+02 -0.18942099016E+03  0.29730178057E+03  0.00000000000E+00 0.  1.
         -1    1    6    6    0  502 -0.26537660001E+03  0.33342669565E+02  0.10639853149E+03  0.28784912879E+03  0.00000000000E+00 0.  1.
<mgrwt>
<rscale>  0 0.25653822E+04</rscale>
<asrwt>0</asrwt>
<pdfrwt beam="1">  1        2 0.81715258E-01 0.25653822E+04</pdfrwt>
<pdfrwt beam="2">  1       -2 0.47655640E+00 0.25653822E+04</pdfrwt>
<totfact> 0.11801537E-01</totfact>
</mgrwt>
</event>
<event>
12    1  0.1467288E-007  0.1063188E+04  0.7818608E-02  0.9241833E-01
          1   -1    0    0  501    0  0.00000000000E+00  0.00000000000E+00  0.13370843473E+04  0.13370843473E+04  0.00000000000E+00 0. -1.
         -1   -1    0    0    0  501 -0.00000000000E+00 -0.00000000000E+00 -0.21134972315E+03  0.21134972315E+03  0.00000000000E+00 0.  1.
         23    2    1    2    0    0 -0.68891205437E+01 -0.14369032140E+03  0.13549995396E+03  0.21805924312E+03  0.92169558647E+02 0.  0.
        254    2    1    2    0    0  0.68891205437E+01  0.14369032140E+03  0.99023467018E+03  0.13303748273E+04  0.87672008686E+03 0.  0.
        -24    2    4    4    0    0  0.48479572897E+02  0.28323095044E+03  0.10937817776E+04  0.11337271157E+04  0.80053455688E+02 0.  0.
         24    2    4    4    0    0 -0.41590452353E+02 -0.13954062903E+03 -0.10354710738E+03  0.19664771158E+03  0.82139918096E+02 0.  0.
         11    1    3    3    0    0  0.12822984424E+02 -0.50626082918E+01 -0.93011650753E+01  0.16630412021E+02  0.00000000000E+00 0.  1.
        -11    1    3    3    0    0 -0.19712104967E+02 -0.13862771311E+03  0.14480111904E+03  0.20142883110E+03  0.00000000000E+00 0. -1.
          2    1    6    6  502    0 -0.16934880839E+02  0.57689094967E+01 -0.21475678883E+02  0.27951302104E+02  0.00000000000E+00 0. -1.
          1    1    5    5  503    0  0.73843124519E+01  0.69457006380E+02  0.15459390521E+03  0.16964103081E+03  0.00000000000E+00 0. -1.
         -2    1    5    5    0  503  0.41095260445E+02  0.21377394406E+03  0.93918787235E+03  0.96408608494E+03  0.00000000000E+00 0.  1.
         -3    1    6    6    0  502 -0.24655571514E+02 -0.14530953853E+03 -0.82071428500E+02  0.16869640948E+03  0.00000000000E+00 0.  1.
<mgrwt>
<rscale>  0 0.10631884E+04</rscale>
<asrwt>0</asrwt>
<pdfrwt beam="1">  1        1 0.20570528E+00 0.10631884E+04</pdfrwt>
<pdfrwt beam="2">  1       -1 0.32515343E-01 0.10631884E+04</pdfrwt>
<totfact> 0.75185994E+01</totfact>
</mgrwt>
</event>
<event>
12    1  0.1467288E-007  0.1480216E+04  0.7818608E-02  0.8897717E-01
         -3   -1    0    0    0  501 -0.00000000000E+00  0.00000000000E+00  0.28206440684E+03  0.28206440684E+03  0.00000000000E+00 0. -1.
          3   -1    0    0  501    0  0.00000000000E+00 -0.00000000000E+00 -0.19419676508E+04  0.19419676508E+04  0.00000000000E+00 0.  1.
         23    2    1    2    0    0  0.39170535711E+03  0.46359226054E+02 -0.87219193268E+03  0.96155676449E+03  0.91051519853E+02 0.  0.
        254    2    1    2    0    0 -0.39170535711E+03 -0.46359226054E+02 -0.78771131129E+03  0.12624752932E+04  0.90430774148E+03 0.  0.
        -24    2    4    4    0    0  0.18447353135E+02 -0.25286307134E+03 -0.74852399927E+03  0.79428942394E+03  0.79545419803E+02 0.  0.
         24    2    4    4    0    0 -0.41015271024E+03  0.20650384529E+03 -0.39187312018E+02  0.46818586923E+03  0.82421349701E+02 0.  0.
         13    1    3    3    0    0  0.18306262619E+03  0.41793346398E+02 -0.51101970818E+03  0.54442607493E+03  0.00000000000E+00 0. -1.
        -13    1    3    3    0    0  0.20864273092E+03  0.45658796564E+01 -0.36117222450E+03  0.41713068956E+03  0.00000000000E+00 0.  1.
          2    1    6    6  502    0 -0.63954503037E+01  0.30974142710E+01  0.11223990044E+02  0.13284340867E+02  0.00000000000E+00 0. -1.
          3    1    5    5  503    0  0.87162334584E+01 -0.22577649719E+01 -0.75878182127E+02  0.76410527752E+02  0.00000000000E+00 0. -1.
         -2    1    5    5    0  503  0.97311196764E+01 -0.25060530637E+03 -0.67264581714E+03  0.71787889619E+03  0.00000000000E+00 0.  1.
         -1    1    6    6    0  502 -0.40375725994E+03  0.20340643102E+03 -0.50411302062E+02  0.45490152836E+03  0.00000000000E+00 0.  1.
<mgrwt>
<rscale>  0 0.14802161E+04</rscale>
<asrwt>0</asrwt>
<pdfrwt beam="1">  1        3 0.29876426E+00 0.14802161E+04</pdfrwt>
<pdfrwt beam="2">  1       -3 0.43394523E-01 0.14802161E+04</pdfrwt>
<totfact> 0.52908649E-01</totfact>
</mgrwt>
</event>
<event>
12    1  0.1467288E-007  0.1612240E+04  0.7818608E-02  0.8813064E-01
          2   -1    0    0  501    0  0.00000000000E+00  0.00000000000E+00  0.26778499723E+04  0.26778499723E+04  0.00000000000E+00 0. -1.
         -2   -1    0    0    0  501 -0.00000000000E+00 -0.00000000000E+00 -0.24266829335E+03  0.24266829335E+03  0.00000000000E+00 0.  1.
         23    2    1    2    0    0 -0.26465682879E+03 -0.16545666454E+03  0.11053479062E+02  0.32486229132E+03  0.89410201080E+02 0.  0.
        254    2    1    2    0    0  0.26465682879E+03  0.16545666454E+03  0.24241281999E+04  0.25956559743E+04  0.87384967969E+03 0.  0.
        -24    2    4    4    0    0  0.25186678344E+03  0.49012851149E+03  0.18439101201E+04  0.19261462424E+04  0.79824695444E+02 0.  0.
         24    2    4    4    0    0  0.12790045343E+02 -0.32467184695E+03  0.58021807982E+03  0.66950973189E+03  0.77555576705E+02 0.  0.
         13    1    3    3    0    0 -0.18111629465E+03 -0.14981009265E+03 -0.16210368902E+02  0.23560337882E+03  0.00000000000E+00 0. -1.
        -13    1    3    3    0    0 -0.83540534135E+02 -0.15646571885E+02  0.27263847964E+02  0.89258912502E+02  0.00000000000E+00 0.  1.
          4    1    6    6  502    0 -0.73867886070E+01 -0.27766382250E+03  0.52683781238E+03  0.59557522071E+03  0.00000000000E+00 0. -1.
          1    1    5    5  503    0  0.23585608167E+03  0.44426240725E+03  0.17434504297E+04  0.18145568546E+04  0.00000000000E+00 0. -1.
         -2    1    5    5    0  503  0.16010701776E+02  0.45866104241E+02  0.10045969034E+03  0.11158938782E+03  0.00000000000E+00 0.  1.
         -3    1    6    6    0  502  0.20176833950E+02 -0.47008024446E+02  0.53380267445E+02  0.73934511177E+02  0.00000000000E+00 0.  1.
<mgrwt>
<rscale>  0 0.16122398E+04</rscale>
<asrwt>0</asrwt>
<pdfrwt beam="1">  1        2 0.41197690E+00 0.16122398E+04</pdfrwt>
<pdfrwt beam="2">  1       -2 0.37333585E-01 0.16122398E+04</pdfrwt>
<totfact> 0.17798403E+01</totfact>
</mgrwt>
</event>
<event>
12    1  0.1467288E-007  0.1875108E+04  0.7818608E-02  0.8667347E-01
          2   -1    0    0  501    0  0.00000000000E+00  0.00000000000E+00  0.30365176133E+04  0.30365176133E+04  0.00000000000E+00 0. -1.
         -2   -1    0    0    0  501 -0.00000000000E+00 -0.00000000000E+00 -0.28947895154E+03  0.28947895154E+03  0.00000000000E+00 0.  1.
         23    2    1    2    0    0 -0.11871262750E+03 -0.32710463988E+03  0.21722059930E+04  0.22017633549E+04  0.90514426261E+02 0.  0.
        254    2    1    2    0    0  0.11871262750E+03  0.32710463988E+03  0.57483266868E+03  0.11242332099E+04  0.90131990986E+03 0.  0.
        -24    2    4    4    0    0  0.40908714870E+03 -0.11369961575E+03  0.27214436730E+03  0.51076013769E+03  0.80829844419E+02 0.  0.
         24    2    4    4    0    0 -0.29037452120E+03  0.44080425563E+03  0.30268830138E+03  0.61347307221E+03  0.78123288438E+02 0.  0.
         11    1    3    3    0    0 -0.74913096606E+02 -0.29617730423E+03  0.18073221832E+04  0.18329611129E+04  0.00000000000E+00 0. -1.
        -11    1    3    3    0    0 -0.43799530896E+02 -0.30927335649E+02  0.36488380985E+03  0.36880224198E+03  0.00000000000E+00 0.  1.
          4    1    6    6  502    0  0.37404918753E+01  0.55709327698E+01 -0.88794099141E+00  0.67686786450E+01  0.00000000000E+00 0. -1.
          1    1    5    5  503    0  0.51181866546E+02  0.64435912347E+01  0.14138845118E+02  0.53488412506E+02  0.00000000000E+00 0. -1.
         -2    1    5    5    0  503  0.35790528215E+03 -0.12014320699E+03  0.25800552218E+03  0.45727172518E+03  0.00000000000E+00 0.  1.
         -3    1    6    6    0  502 -0.29411501307E+03  0.43523332286E+03  0.30357624237E+03  0.60670439357E+03  0.00000000000E+00 0.  1.
<mgrwt>
<rscale>  0 0.18751085E+04</rscale>
<asrwt>0</asrwt>
<pdfrwt beam="1">  1        2 0.46715653E+00 0.18751085E+04</pdfrwt>
<pdfrwt beam="2">  1       -2 0.44535225E-01 0.18751085E+04</pdfrwt>
<totfact> 0.74356497E+00</totfact>
</mgrwt>
</event>
<event>
12    1  0.1467288E-007  0.1994380E+04  0.7818608E-02  0.8609253E-01
          2   -1    0    0  501    0  0.00000000000E+00  0.00000000000E+00  0.18546417307E+04  0.18546417307E+04  0.00000000000E+00 0. -1.
         -2   -1    0    0    0  501 -0.00000000000E+00 -0.00000000000E+00 -0.53616162574E+03  0.53616162574E+03  0.00000000000E+00 0.  1.
         23    2    1    2    0    0  0.17396162220E+03  0.42881589331E+03  0.12839391508E+04  0.13677874643E+04  0.90537772766E+02 0.  0.
        254    2    1    2    0    0 -0.17396162220E+03 -0.42881589331E+03  0.34540954142E+02  0.10230158921E+04  0.91171416661E+03 0.  0.
        -24    2    4    4    0    0 -0.19299318302E+03 -0.50208076238E+03 -0.33480619901E+03  0.63802117142E+03  0.75128980019E+02 0.  0.
         24    2    4    4    0    0  0.19031560819E+02  0.73264869071E+02  0.36934715315E+03  0.38499472067E+03  0.77933779947E+02 0.  0.
         11    1    3    3    0    0  0.14100930538E+03  0.37487424736E+03  0.10070104025E+04  0.10837362577E+04  0.00000000000E+00 0.  1.
        -11    1    3    3    0    0  0.32952316826E+02  0.53941645952E+02  0.27692874833E+03  0.28405120665E+03  0.00000000000E+00 0. -1.
          4    1    6    6  502    0 -0.29103374362E+02  0.14028349372E+02  0.10762641133E+03  0.11237101674E+03  0.00000000000E+00 0. -1.
          3    1    5    5  503    0 -0.91161588353E+02 -0.28879837908E+03 -0.22575575567E+03  0.37773085678E+03  0.00000000000E+00 0. -1.
         -4    1    5    5    0  503 -0.10183159467E+03 -0.21328238330E+03 -0.10905044334E+03  0.26029031463E+03  0.00000000000E+00 0.  1.
         -3    1    6    6    0  502  0.48134935181E+02  0.59236519699E+02  0.26172074181E+03  0.27262370393E+03  0.00000000000E+00 0.  1.
<mgrwt>
<rscale>  0 0.19943798E+04</rscale>
<asrwt>0</asrwt>
<pdfrwt beam="1">  1        2 0.28532949E+00 0.19943798E+04</pdfrwt>
<pdfrwt beam="2">  1       -2 0.82486405E-01 0.19943798E+04</pdfrwt>
<totfact> 0.96472724E+00</totfact>
</mgrwt>
</event>
<event>
12    1  0.1467288E-007  0.1257621E+04  0.7818608E-02  0.9063864E-01
         -2   -1    0    0    0  501 -0.00000000000E+00  0.00000000000E+00  0.23998895754E+03  0.23998895754E+03  0.00000000000E+00 0.  1.
          2   -1    0    0  501    0  0.00000000000E+00 -0.00000000000E+00 -0.16475858353E+04  0.16475858353E+04  0.00000000000E+00 0. -1.
         23    2    1    2    0    0  0.53685255731E+02 -0.10906449366E+03  0.60359861765E+02  0.16368937394E+03  0.91508074885E+02 0.  0.
        254    2    1    2    0    0 -0.53685255731E+02  0.10906449366E+03 -0.14679567395E+04  0.17238854189E+04  0.89560414131E+03 0.  0.
        -24    2    4    4    0    0 -0.22059887876E+03 -0.20434017020E+03 -0.12750172157E+04  0.13125054985E+04  0.81135767362E+02 0.  0.
         24    2    4    4    0    0  0.16691362303E+03  0.31340466385E+03 -0.19293952382E+03  0.41137992042E+03  0.76974919252E+02 0.  0.
         11    1    3    3    0    0 -0.73262423850E+01 -0.23754661225E+02 -0.19720437414E+02  0.31730953487E+02  0.00000000000E+00 0. -1.
        -11    1    3    3    0    0  0.61011498116E+02 -0.85309832431E+02  0.80080299179E+02  0.13195842045E+03  0.00000000000E+00 0.  1.
          4    1    6    6  502    0  0.65339038497E+02  0.12148375355E+03 -0.33392696928E+02  0.14192450294E+03  0.00000000000E+00 0. -1.
          1    1    5    5  503    0 -0.21031142771E+03 -0.17716407045E+03 -0.12162193900E+04  0.12469192472E+04  0.00000000000E+00 0. -1.
         -2    1    5    5    0  503 -0.10287451053E+02 -0.27176099752E+02 -0.58797825673E+02  0.65586251233E+02  0.00000000000E+00 0.  1.
         -3    1    6    6    0  502  0.10157458453E+03  0.19192091031E+03 -0.15954682689E+03  0.26945541748E+03  0.00000000000E+00 0.  1.
<mgrwt>
<rscale>  0 0.12576206E+04</rscale>
<asrwt>0</asrwt>
<pdfrwt beam="1">  1        2 0.25347474E+00 0.12576206E+04</pdfrwt>
<pdfrwt beam="2">  1       -2 0.36921379E-01 0.12576206E+04</pdfrwt>
<totfact> 0.71250226E+01</totfact>
</mgrwt>
</event>
<event>
12    1  0.1467288E-007  0.1202292E+04  0.7818608E-02  0.9110853E-01
          3   -1    0    0  501    0  0.00000000000E+00  0.00000000000E+00  0.78988879798E+03  0.78988879798E+03  0.00000000000E+00 0. -1.
         -3   -1    0    0    0  501 -0.00000000000E+00 -0.00000000000E+00 -0.45750289400E+03  0.45750289400E+03  0.00000000000E+00 0.  1.
         23    2    1    2    0    0 -0.58475422516E+02  0.14240404437E+03  0.26278312097E+03  0.31780107501E+03  0.90797949964E+02 0.  0.
        254    2    1    2    0    0  0.58475422516E+02 -0.14240404437E+03  0.69602783014E+02  0.92959061697E+03  0.91410933748E+03 0.  0.
        -24    2    4    4    0    0 -0.27865587401E+03  0.26125012489E+03 -0.17119469618E+02  0.39065134596E+03  0.80091659892E+02 0.  0.
         24    2    4    4    0    0  0.33713129653E+03 -0.40365416926E+03  0.86722252632E+02  0.53893927101E+03  0.79627817232E+02 0.  0.
         13    1    3    3    0    0  0.11298445927E+02  0.10541784354E+02 -0.19554619528E+00  0.15453877703E+02  0.00000000000E+00 0.  1.
        -13    1    3    3    0    0 -0.69773868443E+02  0.13186226001E+03  0.26297866717E+03  0.30234719731E+03  0.00000000000E+00 0. -1.
          4    1    6    6  502    0  0.15692963418E+03 -0.16073076403E+03  0.72865377203E+02  0.23615810760E+03  0.00000000000E+00 0. -1.
          1    1    5    5  503    0 -0.61596971906E+02  0.29210838071E+02 -0.25549008175E+02  0.72802553716E+02  0.00000000000E+00 0. -1.
         -2    1    5    5    0  503 -0.21705890211E+03  0.23203928682E+03  0.84295385573E+01  0.31784879225E+03  0.00000000000E+00 0.  1.
         -3    1    6    6    0  502  0.18020166235E+03 -0.24292340523E+03  0.13856875429E+02  0.30278116341E+03  0.00000000000E+00 0.  1.
<mgrwt>
<rscale>  0 0.12022918E+04</rscale>
<asrwt>0</asrwt>
<pdfrwt beam="1">  1        3 0.12152135E+00 0.12022918E+04</pdfrwt>
<pdfrwt beam="2">  1       -3 0.70385060E-01 0.12022918E+04</pdfrwt>
<totfact> 0.27391726E+00</totfact>
</mgrwt>
</event>
<event>
12    1  0.1498440E-007  0.1826698E+04  0.7818608E-02  0.8692229E-01
         -2   -1    0    0    0  501 -0.00000000000E+00  0.00000000000E+00  0.62017651621E+03  0.62017651621E+03  0.00000000000E+00 0.  1.
          2   -1    0    0  501    0  0.00000000000E+00 -0.00000000000E+00 -0.13451109579E+04  0.13451109579E+04  0.00000000000E+00 0. -1.
         23    2    1    2    0    0  0.34632400141E+03  0.21052409152E+03  0.28401784031E+03  0.50330535261E+03  0.91593871451E+02 0.  0.
        254    2    1    2    0    0 -0.34632400141E+03 -0.21052409152E+03 -0.10089522820E+04  0.14619821215E+04  0.97731586970E+03 0.  0.
        -24    2    4    4    0    0 -0.46291228175E+03 -0.35516836877E+03 -0.10944799795E+04  0.12429158732E+04  0.80753275554E+02 0.  0.
         24    2    4    4    0    0  0.11658828034E+03  0.14464427725E+03  0.85527697528E+02  0.21906624829E+03  0.78487196681E+02 0.  0.
         13    1    3    3    0    0  0.23097182219E+03  0.88887708096E+02  0.15855661174E+03  0.29392040831E+03  0.00000000000E+00 0.  1.
        -13    1    3    3    0    0  0.11535217922E+03  0.12163638342E+03  0.12546122857E+03  0.20938494430E+03  0.00000000000E+00 0. -1.
          4    1    6    6  502    0  0.12824455188E+03  0.13587895885E+03  0.82105273120E+02  0.20408584571E+03  0.00000000000E+00 0. -1.
          3    1    5    5  503    0 -0.41749539221E+03 -0.30926893799E+03 -0.91570093046E+03  0.10528332596E+04  0.00000000000E+00 0. -1.
         -4    1    5    5    0  503 -0.45416889539E+02 -0.45899430779E+02 -0.17877904907E+03  0.19008261358E+03  0.00000000000E+00 0.  1.
         -3    1    6    6    0  502 -0.11656271536E+02  0.87653183974E+01  0.34224244080E+01  0.14980402583E+02  0.00000000000E+00 0.  1.
<mgrwt>
<rscale>  0 0.18266978E+04</rscale>
<asrwt>0</asrwt>
<pdfrwt beam="1">  1        2 0.20694015E+00 0.18266978E+04</pdfrwt>
<pdfrwt beam="2">  1       -2 0.95411773E-01 0.18266978E+04</pdfrwt>
<totfact> 0.13528477E+01</totfact>
</mgrwt>
</event>
<event>
12    1  0.1467288E-007  0.2103876E+04  0.7818608E-02  0.8559538E-01
         -2   -1    0    0    0  501 -0.00000000000E+00  0.00000000000E+00  0.14268785465E+04  0.14268785465E+04  0.00000000000E+00 0. -1.
          2   -1    0    0  501    0  0.00000000000E+00 -0.00000000000E+00 -0.77552062458E+03  0.77552062458E+03  0.00000000000E+00 0.  1.
         23    2    1    2    0    0  0.41178195994E+03  0.31123590097E+03  0.93605305438E+03  0.10725355206E+04  0.87777866283E+02 0.  0.
        254    2    1    2    0    0 -0.41178195994E+03 -0.31123590097E+03 -0.28469513249E+03  0.11298636504E+04  0.96390268258E+03 0.  0.
        -24    2    4    4    0    0  0.11547304494E+03  0.26948369779E+03 -0.64519622229E+02  0.31117457347E+03  0.81922805366E+02 0.  0.
         24    2    4    4    0    0 -0.52725500489E+03 -0.58071959876E+03 -0.22017551026E+03  0.81868907695E+03  0.80879273179E+02 0.  0.
         13    1    3    3    0    0  0.19032697980E+03  0.12363439665E+03  0.32925243233E+03  0.39989622088E+03  0.00000000000E+00 0. -1.
        -13    1    3    3    0    0  0.22145498014E+03  0.18760150432E+03  0.60680062205E+03  0.67263929975E+03  0.00000000000E+00 0.  1.
          4    1    6    6  502    0 -0.72676890205E+02 -0.12625564480E+03 -0.36841539115E+02  0.15026548911E+03  0.00000000000E+00 0. -1.
          1    1    5    5  503    0  0.49374663669E+02  0.14579435297E+03 -0.73638661999E+02  0.17063558630E+03  0.00000000000E+00 0. -1.
         -2    1    5    5    0  503  0.66098381276E+02  0.12368934483E+03  0.91190397698E+01  0.14053898718E+03  0.00000000000E+00 0.  1.
         -3    1    6    6    0  502 -0.45457811468E+03 -0.45446395396E+03 -0.18333397114E+03  0.66842358784E+03  0.00000000000E+00 0.  1.
<mgrwt>
<rscale>  0 0.21038762E+04</rscale>
<asrwt>0</asrwt>
<pdfrwt beam="1">  1        2 0.11931087E+00 0.21038762E+04</pdfrwt>
<pdfrwt beam="2">  1       -2 0.21951978E+00 0.21038762E+04</pdfrwt>
<totfact> 0.32897893E+00</totfact>
</mgrwt>
</event>
<event>
12    1  0.1467288E-007  0.1632781E+04  0.7818608E-02  0.8800659E-01
         -1   -1    0    0    0  501 -0.00000000000E+00  0.00000000000E+00  0.15570678339E+04  0.15570678339E+04  0.00000000000E+00 0.  1.
          1   -1    0    0  501    0  0.00000000000E+00 -0.00000000000E+00 -0.42804403752E+03  0.42804403752E+03  0.00000000000E+00 0. -1.
         23    2    1    2    0    0  0.35686758621E+03 -0.46277432754E+02  0.92037744272E+03  0.99228289194E+03  0.89636073659E+02 0.  0.
        254    2    1    2    0    0 -0.35686758621E+03  0.46277432754E+02  0.20864635362E+03  0.99282897944E+03  0.90148766307E+03 0.  0.
        -24    2    4    4    0    0 -0.19348341880E+03 -0.26347008527E+03 -0.24319257996E+03  0.41600335926E+03  0.84046682148E+02 0.  0.
         24    2    4    4    0    0 -0.16338416741E+03  0.30974751803E+03  0.45183893358E+03  0.57682562018E+03  0.77015992577E+02 0.  0.
         11    1    3    3    0    0  0.19977218156E+03 -0.64871246000E+02  0.58234904894E+03  0.61906996203E+03  0.00000000000E+00 0.  1.
        -11    1    3    3    0    0  0.15709540465E+03  0.18593813246E+02  0.33802839377E+03  0.37321292991E+03  0.00000000000E+00 0. -1.
          4    1    6    6  502    0 -0.87971577031E+02  0.88631813885E+02  0.15216586935E+03  0.19684778026E+03  0.00000000000E+00 0. -1.
          1    1    5    5  503    0 -0.61388170151E+02 -0.12461022899E+03 -0.14446320835E+03  0.20041415911E+03  0.00000000000E+00 0. -1.
         -2    1    5    5    0  503 -0.13209524865E+03 -0.13885985628E+03 -0.98729371611E+02  0.21558920015E+03  0.00000000000E+00 0.  1.
         -1    1    6    6    0  502 -0.75412590383E+02  0.22111570414E+03  0.29967306423E+03  0.37997783992E+03  0.00000000000E+00 0.  1.
<mgrwt>
<rscale>  0 0.16327812E+04</rscale>
<asrwt>0</asrwt>
<pdfrwt beam="1">  1        1 0.65852930E-01 0.16327812E+04</pdfrwt>
<pdfrwt beam="2">  1       -1 0.23954889E+00 0.16327812E+04</pdfrwt>
<totfact> 0.42802531E+00</totfact>
</mgrwt>
</event>
<event>
12    1  0.1467288E-007  0.1393596E+04  0.7818608E-02  0.8958467E-01
         -1   -1    0    0    0  501 -0.00000000000E+00  0.00000000000E+00  0.80644476421E+03  0.80644476421E+03  0.00000000000E+00 0.  1.
          1   -1    0    0  501    0  0.00000000000E+00 -0.00000000000E+00 -0.60205911400E+03  0.60205911400E+03  0.00000000000E+00 0. -1.
         23    2    1    2    0    0  0.16237096534E+03  0.34251360475E+03  0.16270354228E+02  0.39038689006E+03  0.91963577980E+02 0.  0.
        254    2    1    2    0    0 -0.16237096534E+03 -0.34251360475E+03  0.18811529598E+03  0.10181169882E+04  0.92601022520E+03 0.  0.
        -24    2    4    4    0    0  0.33227382755E+03  0.63903613815E+02  0.29202454316E+01  0.34744867084E+03  0.78882714831E+02 0.  0.
         24    2    4    4    0    0 -0.49464479289E+03 -0.40641721857E+03  0.18519505055E+03  0.67066831732E+03  0.75168866118E+02 0.  0.
         11    1    3    3    0    0  0.64514736624E+02  0.52350974204E+02  0.13384179671E+02  0.84154096794E+02  0.00000000000E+00 0.  1.
        -11    1    3    3    0    0  0.97856228713E+02  0.29016263055E+03  0.28861745577E+01  0.30623279326E+03  0.00000000000E+00 0. -1.
          2    1    6    6  502    0 -0.14546818930E+03 -0.13117890071E+03  0.91928317189E+02  0.21637863479E+03  0.00000000000E+00 0. -1.
          1    1    5    5  503    0  0.93900914024E+02  0.26916226934E+02  0.35709451299E+02  0.10400495103E+03  0.00000000000E+00 0. -1.
         -2    1    5    5    0  503  0.23837291353E+03  0.36987386881E+02 -0.32789205867E+02  0.24344371981E+03  0.00000000000E+00 0.  1.
         -1    1    6    6    0  502 -0.34917660358E+03 -0.27523831785E+03  0.93266733363E+02  0.45428968254E+03  0.00000000000E+00 0.  1.
<mgrwt>
<rscale>  0 0.13935960E+04</rscale>
<asrwt>0</asrwt>
<pdfrwt beam="1">  1        1 0.92624479E-01 0.13935960E+04</pdfrwt>
<pdfrwt beam="2">  1       -1 0.12406843E+00 0.13935960E+04</pdfrwt>
<totfact> 0.18960982E+01</totfact>
</mgrwt>
</event>
<event>
12    1  0.1467288E-007  0.3248427E+04  0.7818608E-02  0.8176144E-01
          1   -1    0    0  501    0  0.00000000000E+00  0.00000000000E+00  0.27131784877E+04  0.27131784877E+04  0.00000000000E+00 0. -1.
         -1   -1    0    0    0  501 -0.00000000000E+00 -0.00000000000E+00 -0.97231683404E+03  0.97231683404E+03  0.00000000000E+00 0.  1.
         23    2    1    2    0    0  0.68757408552E+03  0.13202606566E+03  0.23081671440E+04  0.24137110900E+04  0.90424865563E+02 0.  0.
        254    2    1    2    0    0 -0.68757408552E+03 -0.13202606566E+03 -0.56730549027E+03  0.12717842318E+04  0.89744671589E+03 0.  0.
        -24    2    4    4    0    0  0.15673990128E+03 -0.80858144362E+01  0.84285692779E+02  0.19509021131E+03  0.79519403255E+02 0.  0.
         24    2    4    4    0    0 -0.84431398680E+03 -0.12394025122E+03 -0.65159118305E+03  0.10766940205E+04  0.80446564547E+02 0.  0.
         13    1    3    3    0    0  0.46438010836E+03  0.64981763950E+02  0.14165677500E+04  0.14921580697E+04  0.00000000000E+00 0. -1.
        -13    1    3    3    0    0  0.22319397717E+03  0.67044301707E+02  0.89159939394E+03  0.92155302024E+03  0.00000000000E+00 0.  1.
          4    1    6    6  502    0 -0.64836458361E+03 -0.12910769565E+03 -0.49852339890E+03  0.82799215552E+03  0.00000000000E+00 0. -1.
          1    1    5    5  503    0  0.43139542961E+02  0.33796929007E+02  0.28756012097E+02  0.61888292988E+02  0.00000000000E+00 0. -1.
         -2    1    5    5    0  503  0.11360035832E+03 -0.41882743444E+02  0.55529680681E+02  0.13320191832E+03  0.00000000000E+00 0.  1.
         -3    1    6    6    0  502 -0.19594940319E+03  0.51674444330E+01 -0.15306778416E+03  0.24870186497E+03  0.00000000000E+00 0.  1.
<mgrwt>
<rscale>  0 0.32484268E+04</rscale>
<asrwt>0</asrwt>
<pdfrwt beam="1">  1        1 0.41741207E+00 0.32484268E+04</pdfrwt>
<pdfrwt beam="2">  1       -1 0.14958721E+00 0.32484268E+04</pdfrwt>
<totfact> 0.28117995E-01</totfact>
</mgrwt>
</event>
<event>
12    1  0.1467288E-007  0.1295184E+04  0.7818608E-02  0.9033393E-01
         -2   -1    0    0    0  501 -0.00000000000E+00  0.00000000000E+00  0.35894342968E+03  0.35894342968E+03  0.00000000000E+00 0.  1.
          2   -1    0    0  501    0  0.00000000000E+00 -0.00000000000E+00 -0.11683605046E+04  0.11683605046E+04  0.00000000000E+00 0. -1.
         23    2    1    2    0    0  0.67852887857E+02  0.12459768837E+03 -0.56888230446E+03  0.59313060250E+03  0.89711966652E+02 0.  0.
        254    2    1    2    0    0 -0.67852887857E+02 -0.12459768837E+03 -0.24053477043E+03  0.93417333174E+03  0.89145624660E+03 0.  0.
        -24    2    4    4    0    0 -0.18230399298E+02  0.35569115263E+03  0.43442419457E+02  0.36837271831E+03  0.83442628610E+02 0.  0.
         24    2    4    4    0    0 -0.49622488559E+02 -0.48028884100E+03 -0.28397718989E+03  0.56580061343E+03  0.79671372654E+02 0.  0.
         11    1    3    3    0    0 -0.11012777359E+01  0.31059887936E+02 -0.28048060274E+03  0.28219726781E+03  0.00000000000E+00 0.  1.
        -11    1    3    3    0    0  0.68954165593E+02  0.93537800438E+02 -0.28840170172E+03  0.31093333469E+03  0.00000000000E+00 0. -1.
          2    1    6    6  502    0 -0.28581003596E+02 -0.44674134767E+03 -0.24535125498E+03  0.51048207001E+03  0.00000000000E+00 0. -1.
          1    1    5    5  503    0 -0.16790955899E+02  0.35259216225E+03  0.29730595605E+02  0.35424155233E+03  0.00000000000E+00 0. -1.
         -2    1    5    5    0  503 -0.14394433988E+01  0.30989903786E+01  0.13711823852E+02  0.14131165982E+02  0.00000000000E+00 0.  1.
         -1    1    6    6    0  502 -0.21041484964E+02 -0.33547493330E+02 -0.38625934907E+02  0.55318543416E+02  0.00000000000E+00 0.  1.
<mgrwt>
<rscale>  0 0.12951839E+04</rscale>
<asrwt>0</asrwt>
<pdfrwt beam="1">  1        2 0.17974777E+00 0.12951839E+04</pdfrwt>
<pdfrwt beam="2">  1       -2 0.55222066E-01 0.12951839E+04</pdfrwt>
<totfact> 0.59814045E+01</totfact>
</mgrwt>
</event>
<event>
12    1  0.1467288E-007  0.1460680E+04  0.7818608E-02  0.8911030E-01
          2   -1    0    0  501    0  0.00000000000E+00  0.00000000000E+00  0.16061349449E+04  0.16061349449E+04  0.00000000000E+00 0.  1.
         -2   -1    0    0    0  501 -0.00000000000E+00 -0.00000000000E+00 -0.33209945630E+03  0.33209945630E+03  0.00000000000E+00 0. -1.
         23    2    1    2    0    0  0.36038512868E+03 -0.22996577839E+03  0.21640506368E+03  0.48761095770E+03  0.90396870930E+02 0.  0.
        254    2    1    2    0    0 -0.36038512868E+03  0.22996577839E+03  0.10576304250E+04  0.14506234435E+04  0.89608289737E+03 0.  0.
        -24    2    4    4    0    0 -0.50265810154E+03 -0.17010520546E+03  0.42668053216E+03  0.68583161103E+03  0.81901002421E+02 0.  0.
         24    2    4    4    0    0  0.14227297286E+03  0.40007098385E+03  0.63094989280E+03  0.76479183251E+03  0.80686981161E+02 0.  0.
         11    1    3    3    0    0  0.35155981524E+03 -0.21153392569E+03  0.18483847936E+03  0.45000685424E+03  0.00000000000E+00 0. -1.
        -11    1    3    3    0    0  0.88253134436E+01 -0.18431852701E+02  0.31566584321E+02  0.37604103460E+02  0.00000000000E+00 0.  1.
          2    1    6    6  502    0  0.27564373037E+02  0.80860011646E+02  0.19125401425E+03  0.20946654652E+03  0.00000000000E+00 0. -1.
          1    1    5    5  503    0 -0.14412653123E+03 -0.13599965636E+02  0.97248205369E+02  0.17439790571E+03  0.00000000000E+00 0. -1.
         -2    1    5    5    0  503 -0.35853157032E+03 -0.15650523982E+03  0.32943232679E+03  0.51143370532E+03  0.00000000000E+00 0.  1.
         -3    1    6    6    0  502  0.11470859982E+03  0.31921097220E+03  0.43969587855E+03  0.55532528599E+03  0.00000000000E+00 0.  1.
<mgrwt>
<rscale>  0 0.14606800E+04</rscale>
<asrwt>0</asrwt>
<pdfrwt beam="1">  1        2 0.24709768E+00 0.14606800E+04</pdfrwt>
<pdfrwt beam="2">  1       -2 0.51092225E-01 0.14606800E+04</pdfrwt>
<totfact> 0.38809156E+01</totfact>
</mgrwt>
</event>
<event>
12    1  0.1467288E-007  0.1402138E+04  0.7818608E-02  0.8952272E-01
         -2   -1    0    0    0  501 -0.00000000000E+00  0.00000000000E+00  0.46239082516E+03  0.46239082516E+03  0.00000000000E+00 0.  1.
          2   -1    0    0  501    0  0.00000000000E+00 -0.00000000000E+00 -0.10629494679E+04  0.10629494679E+04  0.00000000000E+00 0. -1.
         23    2    1    2    0    0  0.17137325186E+03  0.23250508935E+03 -0.49236101980E+03  0.57776036030E+03  0.89220244833E+02 0.  0.
        254    2    1    2    0    0 -0.17137325186E+03 -0.23250508935E+03 -0.10819762289E+03  0.94757993272E+03  0.89597633633E+03 0.  0.
        -24    2    4    4    0    0  0.23060592135E+03 -0.85694540414E+02 -0.36113078155E+03  0.44430697060E+03  0.80440024371E+02 0.  0.
         24    2    4    4    0    0 -0.40197917322E+03 -0.14681054894E+03  0.25293315866E+03  0.50327296212E+03  0.78535970551E+02 0.  0.
         13    1    3    3    0    0  0.17150815769E+03  0.23512866453E+03 -0.49488443106E+03  0.57411770321E+03  0.00000000000E+00 0. -1.
        -13    1    3    3    0    0 -0.13490583049E+00 -0.26235751750E+01  0.25234112589E+01  0.36426570884E+01  0.00000000000E+00 0.  1.
          2    1    6    6  502    0 -0.33835252479E+03 -0.13241226570E+03  0.24343146685E+03  0.43734919480E+03  0.00000000000E+00 0. -1.
          1    1    5    5  503    0  0.79582391255E+02 -0.64832398822E+02 -0.18316893926E+03  0.20997013417E+03  0.00000000000E+00 0. -1.
         -2    1    5    5    0  503  0.15102353010E+03 -0.20862141591E+02 -0.17796184229E+03  0.23433683643E+03  0.00000000000E+00 0.  1.
         -1    1    6    6    0  502 -0.63626648425E+02 -0.14398283235E+02  0.95016918100E+01  0.65923767316E+02  0.00000000000E+00 0.  1.
<mgrwt>
<rscale>  0 0.14021385E+04</rscale>
<asrwt>0</asrwt>
<pdfrwt beam="1">  1        2 0.16353069E+00 0.14021385E+04</pdfrwt>
<pdfrwt beam="2">  1       -2 0.71137050E-01 0.14021385E+04</pdfrwt>
<totfact> 0.40126811E+01</totfact>
</mgrwt>
</event>
<event>
12    1  0.1467288E-007  0.1795742E+04  0.7818608E-02  0.8708567E-01
         -1   -1    0    0    0  501 -0.00000000000E+00  0.00000000000E+00  0.12624862068E+04  0.12624862068E+04  0.00000000000E+00 0.  1.
          1   -1    0    0  501    0  0.00000000000E+00 -0.00000000000E+00 -0.63855901367E+03  0.63855901367E+03  0.00000000000E+00 0. -1.
         23    2    1    2    0    0  0.41385261849E+02  0.45193696751E+03  0.74857671196E+03  0.88005022852E+03  0.90341289142E+02 0.  0.
        254    2    1    2    0    0 -0.41385261849E+02 -0.45193696751E+03 -0.12464951885E+03  0.10209949919E+04  0.90605381103E+03 0.  0.
        -24    2    4    4    0    0 -0.59864295217E+02 -0.24339956315E+03  0.38295162199E+03  0.46515124177E+03  0.82985852742E+02 0.  0.
         24    2    4    4    0    0  0.18479033367E+02 -0.20853740437E+03 -0.50760114084E+03  0.55584375016E+03  0.86452488209E+02 0.  0.
         13    1    3    3    0    0 -0.14789269201E+02  0.28942161410E+03  0.44168648960E+03  0.52827128285E+03  0.00000000000E+00 0. -1.
        -13    1    3    3    0    0  0.56174531050E+02  0.16251535342E+03  0.30689022237E+03  0.35177894567E+03  0.00000000000E+00 0.  1.
          2    1    6    6  502    0  0.21946553698E+02 -0.21393079663E+03 -0.50507450845E+03  0.54895199795E+03  0.00000000000E+00 0. -1.
          1    1    5    5  503    0 -0.28976470753E+01 -0.85436063611E+02  0.19615268205E+03  0.21397100738E+03  0.00000000000E+00 0. -1.
         -2    1    5    5    0  503 -0.56966648141E+02 -0.15796349954E+03  0.18679893994E+03  0.25118023439E+03  0.00000000000E+00 0.  1.
         -1    1    6    6    0  502 -0.34675203303E+01  0.53933922596E+01 -0.25266323841E+01  0.68917522090E+01  0.00000000000E+00 0.  1.
<mgrwt>
<rscale>  0 0.17957416E+04</rscale>
<asrwt>0</asrwt>
<pdfrwt beam="1">  1        1 0.98239848E-01 0.17957416E+04</pdfrwt>
<pdfrwt beam="2">  1       -1 0.19422865E+00 0.17957416E+04</pdfrwt>
<totfact> 0.48706987E+00</totfact>
</mgrwt>
</event>
<event>
12    1  0.1467288E-007  0.1240896E+04  0.7818608E-02  0.9077794E-01
         -2   -1    0    0    0  501 -0.00000000000E+00  0.00000000000E+00  0.21613903807E+03  0.21613903807E+03  0.00000000000E+00 0.  1.
          2   -1    0    0  501    0  0.00000000000E+00 -0.00000000000E+00 -0.17810572911E+04  0.17810572911E+04  0.00000000000E+00 0. -1.
         23    2    1    2    0    0  0.41201676565E+02 -0.43854248980E+02  0.66548046035E+02  0.12955545826E+03  0.93462297360E+02 0.  0.
        254    2    1    2    0    0 -0.41201676565E+02  0.43854248980E+02 -0.16314662991E+04  0.18676408709E+04  0.90707186286E+03 0.  0.
        -24    2    4    4    0    0  0.26920412033E+03  0.24498768238E+02 -0.95441686820E+02  0.29836936673E+03  0.82729168780E+02 0.  0.
         24    2    4    4    0    0 -0.31040579690E+03  0.19355480741E+02 -0.15360246123E+04  0.15692715042E+04  0.80715865959E+02 0.  0.
         13    1    3    3    0    0  0.64913765098E+02 -0.48615335249E+02  0.31565641532E+02  0.87026647906E+02  0.00000000000E+00 0.  1.
        -13    1    3    3    0    0 -0.23712088532E+02  0.47610862691E+01  0.34982404504E+02  0.42528810351E+02  0.00000000000E+00 0. -1.
          4    1    6    6  502    0 -0.81664226385E+02 -0.92688263518E+01 -0.26300438646E+03  0.27554720886E+03  0.00000000000E+00 0. -1.
          1    1    5    5  503    0  0.21665399987E+03  0.17811209955E+02 -0.10971990465E+03  0.24350493288E+03  0.00000000000E+00 0. -1.
         -2    1    5    5    0  503  0.52550120463E+02  0.66875582831E+01  0.14278217835E+02  0.54864433844E+02  0.00000000000E+00 0.  1.
         -3    1    6    6    0  502 -0.22874157051E+03  0.28624307093E+02 -0.12730202258E+04  0.12937242954E+04  0.00000000000E+00 0.  1.
<mgrwt>
<rscale>  0 0.12408965E+04</rscale>
<asrwt>0</asrwt>
<pdfrwt beam="1">  1        2 0.27400881E+00 0.12408965E+04</pdfrwt>
<pdfrwt beam="2">  1       -2 0.33252160E-01 0.12408965E+04</pdfrwt>
<totfact> 0.73495093E+01</totfact>
</mgrwt>
</event>
<event>
12    1  0.1467288E-007  0.3023864E+04  0.7818608E-02  0.8236949E-01
          2   -1    0    0  501    0  0.00000000000E+00  0.00000000000E+00  0.20427597803E+04  0.20427597803E+04  0.00000000000E+00 0. -1.
         -2   -1    0    0    0  501 -0.00000000000E+00 -0.00000000000E+00 -0.11190444996E+04  0.11190444996E+04  0.00000000000E+00 0.  1.
         23    2    1    2    0    0 -0.57087264602E+03 -0.80660038180E+02  0.17226866916E+04  0.18185243050E+04  0.83543944782E+02 0.  0.
        254    2    1    2    0    0  0.57087264602E+03  0.80660038180E+02 -0.79897141087E+03  0.13432799749E+04  0.91304115775E+03 0.  0.
        -24    2    4    4    0    0  0.24719267544E+03 -0.26279348744E+03 -0.78249622130E+03  0.86532379453E+03  0.79500296872E+02 0.  0.
         24    2    4    4    0    0  0.32367997058E+03  0.34345352562E+03 -0.16475189572E+02  0.47795618033E+03  0.73767410370E+02 0.  0.
         11    1    3    3    0    0 -0.19786444594E+03 -0.12255868943E+02  0.71011289574E+03  0.73726580688E+03  0.00000000000E+00 0.  1.
        -11    1    3    3    0    0 -0.37300820008E+03 -0.68404169237E+02  0.10125737959E+04  0.10812584981E+04  0.00000000000E+00 0. -1.
          2    1    6    6  502    0  0.29540346862E+03  0.31102097501E+03 -0.36494741529E+02  0.43049869028E+03  0.00000000000E+00 0. -1.
          1    1    5    5  503    0  0.19503693581E+03 -0.20529942049E+03 -0.68113231893E+03  0.73765065869E+03  0.00000000000E+00 0. -1.
         -2    1    5    5    0  503  0.52155739630E+02 -0.57494066946E+02 -0.10136390237E+03  0.12767313584E+03  0.00000000000E+00 0.  1.
         -1    1    6    6    0  502  0.28276501960E+02  0.32432550603E+02  0.20019551957E+02  0.47457490055E+02  0.00000000000E+00 0.  1.
<mgrwt>
<rscale>  0 0.30238645E+04</rscale>
<asrwt>0</asrwt>
<pdfrwt beam="1">  1        2 0.31427073E+00 0.30238645E+04</pdfrwt>
<pdfrwt beam="2">  1       -2 0.17216069E+00 0.30238645E+04</pdfrwt>
<totfact> 0.11117824E+00</totfact>
</mgrwt>
</event>
<event>
12    1  0.1467288E-007  0.1588101E+04  0.7818608E-02  0.8827892E-01
         -2   -1    0    0    0  501 -0.00000000000E+00  0.00000000000E+00  0.53780303426E+03  0.53780303426E+03  0.00000000000E+00 0.  1.
          2   -1    0    0  501    0  0.00000000000E+00 -0.00000000000E+00 -0.11723924341E+04  0.11723924341E+04  0.00000000000E+00 0. -1.
         23    2    1    2    0    0  0.38479234934E+03 -0.15398504103E+03  0.14205499168E+03  0.44735544344E+03  0.90392074554E+02 0.  0.
        254    2    1    2    0    0 -0.38479234934E+03  0.15398504103E+03 -0.77664439155E+03  0.12628400250E+04  0.90543463194E+03 0.  0.
        -24    2    4    4    0    0 -0.42656360592E+03  0.43791470883E+03 -0.26462502516E+03  0.67071191765E+03  0.78117030365E+02 0.  0.
         24    2    4    4    0    0  0.41771256574E+02 -0.28392966780E+03 -0.51201936639E+03  0.59212810730E+03  0.78044665187E+02 0.  0.
         13    1    3    3    0    0  0.38970835105E+02 -0.15208357579E+02 -0.12923691419E+02  0.43784037376E+02  0.00000000000E+00 0. -1.
        -13    1    3    3    0    0  0.34582151424E+03 -0.13877668345E+03  0.15497868310E+03  0.40357140607E+03  0.00000000000E+00 0.  1.
          4    1    6    6  502    0 -0.18442590861E+02 -0.56462413040E+02 -0.73825613566E+02  0.94754179129E+02  0.00000000000E+00 0. -1.
          1    1    5    5  503    0 -0.13680661006E+03  0.16226516015E+03 -0.55352262973E+02  0.21933969949E+03  0.00000000000E+00 0. -1.
         -2    1    5    5    0  503 -0.28975699586E+03  0.27564954868E+03 -0.20927276219E+03  0.45137221816E+03  0.00000000000E+00 0.  1.
         -3    1    6    6    0  502  0.60213847435E+02 -0.22746725476E+03 -0.43819375283E+03  0.49737392817E+03  0.00000000000E+00 0.  1.
<mgrwt>
<rscale>  0 0.15881010E+04</rscale>
<asrwt>0</asrwt>
<pdfrwt beam="1">  1        2 0.18036807E+00 0.15881010E+04</pdfrwt>
<pdfrwt beam="2">  1       -2 0.82738928E-01 0.15881010E+04</pdfrwt>
<totfact> 0.24199490E+01</totfact>
</mgrwt>
</event>
<event>
12    1  0.2144001E-007  0.1495255E+04  0.7818608E-02  0.8887615E-01
         -2   -1    0    0    0  501 -0.00000000000E+00  0.00000000000E+00  0.65862344179E+03  0.65862344179E+03  0.00000000000E+00 0.  1.
          2   -1    0    0  501    0  0.00000000000E+00 -0.00000000000E+00 -0.84865880044E+03  0.84865880044E+03  0.00000000000E+00 0. -1.
         23    2    1    2    0    0  0.14518160425E+03  0.12398748266E+03 -0.49626806404E+03  0.53911911036E+03  0.88976568249E+02 0.  0.
        254    2    1    2    0    0 -0.14518160425E+03 -0.12398748266E+03  0.30623270539E+03  0.96816313187E+03  0.89839344721E+03 0.  0.
        -24    2    4    4    0    0  0.25990028379E+03 -0.80058260614E+02  0.44810320698E+03  0.52935638534E+03  0.73920335413E+02 0.  0.
         24    2    4    4    0    0 -0.40508188804E+03 -0.43929222050E+02 -0.14187050159E+03  0.43880674653E+03  0.80018804082E+02 0.  0.
         13    1    3    3    0    0  0.14351403304E+03  0.81969700228E+02 -0.42962447216E+03  0.46031782119E+03  0.00000000000E+00 0. -1.
        -13    1    3    3    0    0  0.16675712116E+01  0.42017782436E+02 -0.66643591885E+02  0.78801289164E+02  0.00000000000E+00 0.  1.
          2    1    6    6  502    0 -0.24013768245E+03 -0.20140972027E+02 -0.42268293802E+02  0.24465971051E+03  0.00000000000E+00 0. -1.
          3    1    5    5  503    0  0.21498587156E+03 -0.59110922171E+02  0.30422110227E+03  0.37717834661E+03  0.00000000000E+00 0. -1.
         -4    1    5    5    0  503  0.44914412234E+02 -0.20947338444E+02  0.14388210472E+03  0.15217803873E+03  0.00000000000E+00 0.  1.
         -1    1    6    6    0  502 -0.16494420559E+03 -0.23788250023E+02 -0.99602207787E+02  0.19414703602E+03  0.00000000000E+00 0.  1.
<mgrwt>
<rscale>  0 0.14952546E+04</rscale>
<asrwt>0</asrwt>
<pdfrwt beam="1">  1        2 0.13056289E+00 0.14952546E+04</pdfrwt>
<pdfrwt beam="2">  1       -2 0.10132668E+00 0.14952546E+04</pdfrwt>
<totfact> 0.24614568E+01</totfact>
</mgrwt>
</event>
<event>
12    1  0.1467288E-007  0.1699505E+04  0.7818608E-02  0.8761647E-01
         -1   -1    0    0    0  501 -0.00000000000E+00  0.00000000000E+00  0.90662404001E+03  0.90662404001E+03  0.00000000000E+00 0.  1.
          1   -1    0    0  501    0  0.00000000000E+00 -0.00000000000E+00 -0.79644871997E+03  0.79644871997E+03  0.00000000000E+00 0. -1.
         23    2    1    2    0    0  0.42302084288E+03  0.28353173877E+03  0.38971968437E+03  0.64755696673E+03  0.90065045210E+02 0.  0.
        254    2    1    2    0    0 -0.42302084288E+03 -0.28353173877E+03 -0.27954436432E+03  0.10555157932E+04  0.88126707516E+03 0.  0.
        -24    2    4    4    0    0 -0.66926423318E+03 -0.32464852671E+03 -0.15254770041E+03  0.76427766238E+03  0.86823180066E+02 0.  0.
         24    2    4    4    0    0  0.24624339030E+03  0.41116787947E+02 -0.12699666391E+03  0.29123813087E+03  0.79781568729E+02 0.  0.
         11    1    3    3    0    0  0.45576946154E+02  0.22714511367E+01  0.24643349352E+02  0.51862435137E+02  0.00000000000E+00 0. -1.
        -11    1    3    3    0    0  0.37744389673E+03  0.28126028763E+03  0.36507633502E+03  0.59569453159E+03  0.00000000000E+00 0.  1.
          2    1    6    6  502    0  0.37972855727E+01  0.13122242866E+02 -0.21237575514E+02  0.25251678147E+02  0.00000000000E+00 0. -1.
          3    1    5    5  503    0 -0.14412993947E+03 -0.10870882267E+03 -0.24105421499E+02  0.18213214688E+03  0.00000000000E+00 0. -1.
         -4    1    5    5    0  503 -0.52513429371E+03 -0.21593970404E+03 -0.12844227891E+03  0.58214551551E+03  0.00000000000E+00 0.  1.
         -1    1    6    6    0  502  0.24244610473E+03  0.27994545082E+02 -0.10575908840E+03  0.26598645272E+03  0.00000000000E+00 0.  1.
<mgrwt>
<rscale>  0 0.16995053E+04</rscale>
<asrwt>0</asrwt>
<pdfrwt beam="1">  1        1 0.12253057E+00 0.16995053E+04</pdfrwt>
<pdfrwt beam="2">  1       -1 0.13948062E+00 0.16995053E+04</pdfrwt>
<totfact> 0.89707481E+00</totfact>
</mgrwt>
</event>
<event>
12    1  0.1467288E-007  0.2004757E+04  0.7818608E-02  0.8604400E-01
          3   -1    0    0  501    0  0.00000000000E+00  0.00000000000E+00  0.15979896742E+04  0.15979896742E+04  0.00000000000E+00 0. -1.
         -3   -1    0    0    0  501 -0.00000000000E+00 -0.00000000000E+00 -0.62876654220E+03  0.62876654220E+03  0.00000000000E+00 0.  1.
         23    2    1    2    0    0  0.17140434791E+03 -0.12200325929E+03  0.12233632785E+04  0.12445534718E+04  0.89618006647E+02 0.  0.
        254    2    1    2    0    0 -0.17140434791E+03  0.12200325929E+03 -0.25414014655E+03  0.98220274460E+03  0.92513284000E+03 0.  0.
        -24    2    4    4    0    0 -0.13575079722E+03  0.14343057811E-01  0.33761013189E+03  0.37214397014E+03  0.77988808193E+02 0.  0.
         24    2    4    4    0    0 -0.35653550687E+02  0.12198891623E+03 -0.59175027844E+03  0.61005877446E+03  0.76490815794E+02 0.  0.
         11    1    3    3    0    0  0.76819719599E+01  0.13856692701E+02  0.76423871554E+02  0.78048887046E+02  0.00000000000E+00 0.  1.
        -11    1    3    3    0    0  0.16372237595E+03 -0.13585995199E+03  0.11469394070E+04  0.11665045848E+04  0.00000000000E+00 0. -1.
          2    1    6    6  502    0 -0.53359960232E+02  0.74452897414E+02 -0.45671067492E+03  0.46580592512E+03  0.00000000000E+00 0. -1.
          3    1    5    5  503    0 -0.10192531130E+03  0.26608967189E+02  0.17799559758E+03  0.20683142647E+03  0.00000000000E+00 0. -1.
         -4    1    5    5    0  503 -0.33825485922E+02 -0.26594624131E+02  0.15961453431E+03  0.16531254367E+03  0.00000000000E+00 0.  1.
         -1    1    6    6    0  502  0.17706409545E+02  0.47536018819E+02 -0.13503960351E+03  0.14425284933E+03  0.00000000000E+00 0.  1.
<mgrwt>
<rscale>  0 0.20047568E+04</rscale>
<asrwt>0</asrwt>
<pdfrwt beam="1">  1        3 0.24584456E+00 0.20047568E+04</pdfrwt>
<pdfrwt beam="2">  1       -3 0.96733315E-01 0.20047568E+04</pdfrwt>
<totfact> 0.17893549E-01</totfact>
</mgrwt>
</event>
<event>
12    1  0.1467288E-007  0.1137278E+04  0.7818608E-02  0.9169601E-01
          2   -1    0    0  501    0  0.00000000000E+00  0.00000000000E+00  0.13747931399E+04  0.13747931399E+04  0.00000000000E+00 0.  1.
         -2   -1    0    0    0  501 -0.00000000000E+00 -0.00000000000E+00 -0.23519907577E+03  0.23519907577E+03  0.00000000000E+00 0. -1.
         23    2    1    2    0    0 -0.13728097692E+03 -0.10926841963E+03  0.24533687208E+03  0.31476949466E+03  0.90022218447E+02 0.  0.
        254    2    1    2    0    0  0.13728097692E+03  0.10926841963E+03  0.89425719201E+03  0.12952227210E+04  0.92039139354E+03 0.  0.
        -24    2    4    4    0    0 -0.22431970275E+03  0.39448887888E+03  0.35413307223E+03  0.58097803572E+03  0.78641213980E+02 0.  0.
         24    2    4    4    0    0  0.36160067967E+03 -0.28522045925E+03  0.54012411978E+03  0.71424468525E+03  0.79408083600E+02 0.  0.
         13    1    3    3    0    0 -0.33762929067E+02 -0.33840166834E+02  0.14313975787E+03  0.15091084306E+03  0.00000000000E+00 0.  1.
        -13    1    3    3    0    0 -0.10351804785E+03 -0.75428252793E+02  0.10219711421E+03  0.16385865160E+03  0.00000000000E+00 0. -1.
          4    1    6    6  502    0  0.71462546393E+02 -0.39581173722E+02  0.57594118008E+02  0.99953225458E+02  0.00000000000E+00 0. -1.
          1    1    5    5  503    0 -0.73344328553E+02  0.10821585696E+03  0.14702329589E+03  0.19673818075E+03  0.00000000000E+00 0. -1.
         -2    1    5    5    0  503 -0.15097537419E+03  0.28627302192E+03  0.20710977634E+03  0.38423985497E+03  0.00000000000E+00 0.  1.
         -3    1    6    6    0  502  0.29013813327E+03 -0.24563928553E+03  0.48253000177E+03  0.61429145980E+03  0.00000000000E+00 0.  1.
<mgrwt>
<rscale>  0 0.11372776E+04</rscale>
<asrwt>0</asrwt>
<pdfrwt beam="1">  1        2 0.21150663E+00 0.11372776E+04</pdfrwt>
<pdfrwt beam="2">  1       -2 0.36184474E-01 0.11372776E+04</pdfrwt>
<totfact> 0.10642318E+02</totfact>
</mgrwt>
</event>
<event>
12    1  0.1467288E-007  0.2223635E+04  0.7818608E-02  0.8508655E-01
          2   -1    0    0  501    0  0.00000000000E+00  0.00000000000E+00  0.12348241967E+04  0.12348241967E+04  0.00000000000E+00 0.  1.
         -2   -1    0    0    0  501 -0.00000000000E+00 -0.00000000000E+00 -0.10010642302E+04  0.10010642302E+04  0.00000000000E+00 0. -1.
         23    2    1    2    0    0  0.39481763494E+03 -0.59892452211E+03 -0.49092813474E+03  0.87395084744E+03  0.90488133049E+02 0.  0.
        254    2    1    2    0    0 -0.39481763494E+03  0.59892452211E+03  0.72468810130E+03  0.13619375795E+04  0.90283419197E+03 0.  0.
        -24    2    4    4    0    0 -0.17273843699E+03  0.53977606185E+03 -0.26015509839E+02  0.57286899598E+03  0.79406015098E+02 0.  0.
         24    2    4    4    0    0 -0.22207919795E+03  0.59148460254E+02  0.75070361114E+03  0.78906858351E+03  0.79092396480E+02 0.  0.
         13    1    3    3    0    0  0.22602704468E+03 -0.41946269844E+03 -0.33290222285E+03  0.58125817869E+03  0.00000000000E+00 0. -1.
        -13    1    3    3    0    0  0.16879059027E+03 -0.17946182367E+03 -0.15802591188E+03  0.29269266876E+03  0.00000000000E+00 0.  1.
          2    1    6    6  502    0 -0.33678526316E+02 -0.19471173084E+02  0.12111142282E+03  0.12720592145E+03  0.00000000000E+00 0. -1.
          3    1    5    5  503    0 -0.14155869850E+03  0.31795405760E+03 -0.23800247783E+02  0.34885541368E+03  0.00000000000E+00 0. -1.
         -4    1    5    5    0  503 -0.31179738495E+02  0.22182200426E+03 -0.22152620559E+01  0.22401358229E+03  0.00000000000E+00 0.  1.
         -1    1    6    6    0  502 -0.18840067164E+03  0.78619633338E+02  0.62959218833E+03  0.66186266205E+03  0.00000000000E+00 0.  1.
<mgrwt>
<rscale>  0 0.22236352E+04</rscale>
<asrwt>0</asrwt>
<pdfrwt beam="1">  1        2 0.18997295E+00 0.22236352E+04</pdfrwt>
<pdfrwt beam="2">  1       -2 0.15400988E+00 0.22236352E+04</pdfrwt>
<totfact> 0.46010148E+00</totfact>
</mgrwt>
</event>
<event>
12    1  0.1467288E-007  0.1779677E+04  0.7818608E-02  0.8717182E-01
          2   -1    0    0  501    0  0.00000000000E+00  0.00000000000E+00  0.18943611612E+04  0.18943611612E+04  0.00000000000E+00 0. -1.
         -2   -1    0    0    0  501 -0.00000000000E+00 -0.00000000000E+00 -0.41798390850E+03  0.41798390850E+03  0.00000000000E+00 0.  1.
         23    2    1    2    0    0 -0.32066301005E+03  0.37045365722E+03 -0.21153391596E+02  0.49940796242E+03  0.94340705869E+02 0.  0.
        254    2    1    2    0    0  0.32066301005E+03 -0.37045365722E+03  0.14975306443E+04  0.18129371072E+04  0.89670633216E+03 0.  0.
        -24    2    4    4    0    0 -0.23812633216E+02 -0.26779570859E+03  0.14062838725E+04  0.14338834088E+04  0.78139086001E+02 0.  0.
         24    2    4    4    0    0  0.34447564327E+03 -0.10265794863E+03  0.91246771720E+02  0.37905369846E+03  0.78444947232E+02 0.  0.
         13    1    3    3    0    0 -0.14189815349E+03  0.11910151236E+03 -0.43046527286E+02  0.19019269103E+03  0.00000000000E+00 0. -1.
        -13    1    3    3    0    0 -0.17876485657E+03  0.25135214486E+03  0.21893135690E+02  0.30921527139E+03  0.00000000000E+00 0.  1.
          4    1    6    6  502    0  0.28618847305E+03 -0.11139589923E+03  0.90311138905E+02  0.32010777917E+03  0.00000000000E+00 0. -1.
          1    1    5    5  503    0 -0.49872461673E+02 -0.18836189091E+03  0.91243569043E+03  0.93300929982E+03  0.00000000000E+00 0. -1.
         -2    1    5    5    0  503  0.26059828458E+02 -0.79433817684E+02  0.49384818210E+03  0.50087410895E+03  0.00000000000E+00 0.  1.
         -3    1    6    6    0  502  0.58287170218E+02  0.87379506030E+01  0.93563281481E+00  0.58945919295E+02  0.00000000000E+00 0.  1.
<mgrwt>
<rscale>  0 0.17796769E+04</rscale>
<asrwt>0</asrwt>
<pdfrwt beam="1">  1        2 0.29144017E+00 0.17796769E+04</pdfrwt>
<pdfrwt beam="2">  1       -2 0.64305218E-01 0.17796769E+04</pdfrwt>
<totfact> 0.16157109E+01</totfact>
</mgrwt>
</event>
<event>
12    1  0.1467288E-007  0.1268877E+04  0.7818608E-02  0.9054616E-01
         -1   -1    0    0    0  501 -0.00000000000E+00  0.00000000000E+00  0.13662881978E+03  0.13662881978E+03  0.00000000000E+00 0.  1.
          1   -1    0    0  501    0  0.00000000000E+00 -0.00000000000E+00 -0.29460284592E+04  0.29460284592E+04  0.00000000000E+00 0. -1.
         23    2    1    2    0    0  0.33221624771E+03  0.16265509559E+03 -0.10439829300E+04  0.11109815498E+04  0.86921404182E+02 0.  0.
        254    2    1    2    0    0 -0.33221624771E+03 -0.16265509559E+03 -0.17654167094E+04  0.19716757292E+04  0.79623156667E+03 0.  0.
        -24    2    4    4    0    0 -0.45201045029E+03 -0.38869008314E+03 -0.10883315199E+04  0.12436198832E+04  0.82045649929E+02 0.  0.
         24    2    4    4    0    0  0.11979420258E+03  0.22603498755E+03 -0.67708518945E+03  0.72805584596E+03  0.78603400016E+02 0.  0.
         13    1    3    3    0    0 -0.53035582057E+01  0.54759287285E+01 -0.19180402700E+02  0.20639800697E+02  0.00000000000E+00 0. -1.
        -13    1    3    3    0    0  0.33751980591E+03  0.15717916687E+03 -0.10248025273E+04  0.10903417491E+04  0.00000000000E+00 0.  1.
          4    1    6    6  502    0  0.93178998930E+02  0.13044975817E+03 -0.32700653708E+03  0.36418778198E+03  0.00000000000E+00 0. -1.
          3    1    5    5  503    0 -0.29206609152E+03 -0.20750644214E+03 -0.69657880440E+03  0.78331574482E+03  0.00000000000E+00 0. -1.
         -4    1    5    5    0  503 -0.15994435877E+03 -0.18118364100E+03 -0.39175271555E+03  0.46030413838E+03  0.00000000000E+00 0.  1.
         -3    1    6    6    0  502  0.26615203654E+02  0.95585229374E+02 -0.35007865237E+03  0.36386806398E+03  0.00000000000E+00 0.  1.
<mgrwt>
<rscale>  0 0.12688773E+04</rscale>
<asrwt>0</asrwt>
<pdfrwt beam="1">  1        1 0.45323511E+00 0.12688773E+04</pdfrwt>
<pdfrwt beam="2">  1       -1 0.21019820E-01 0.12688773E+04</pdfrwt>
<totfact> 0.12247549E+01</totfact>
</mgrwt>
</event>
<event>
12    1  0.1467288E-007  0.1937490E+04  0.7818608E-02  0.8636417E-01
         -2   -1    0    0    0  501 -0.00000000000E+00  0.00000000000E+00  0.48896629889E+03  0.48896629889E+03  0.00000000000E+00 0.  1.
          2   -1    0    0  501    0  0.00000000000E+00 -0.00000000000E+00 -0.19192870237E+04  0.19192870237E+04  0.00000000000E+00 0. -1.
         23    2    1    2    0    0 -0.34033217651E+03 -0.67163853895E+03 -0.58387657937E+03  0.95719161610E+03  0.91540224126E+02 0.  0.
        254    2    1    2    0    0  0.34033217651E+03  0.67163853895E+03 -0.84644414542E+03  0.14510617065E+04  0.90674586697E+03 0.  0.
        -24    2    4    4    0    0  0.40519025005E+03  0.14554103975E+02 -0.55214626348E+02  0.41704197240E+03  0.80525716993E+02 0.  0.
         24    2    4    4    0    0 -0.64858073541E+02  0.65708443497E+03 -0.79122951907E+03  0.10340197341E+04  0.84771069353E+02 0.  0.
         11    1    3    3    0    0 -0.10661508525E+03 -0.30399446737E+03 -0.22803227269E+03  0.39468738259E+03  0.00000000000E+00 0. -1.
        -11    1    3    3    0    0 -0.23371709126E+03 -0.36764407158E+03 -0.35584430668E+03  0.56250423351E+03  0.00000000000E+00 0.  1.
          2    1    6    6  502    0 -0.75849523460E+02  0.55958056873E+03 -0.63744268805E+03  0.85159658504E+03  0.00000000000E+00 0. -1.
          3    1    5    5  503    0  0.38323752119E+03  0.21671993850E+02 -0.69228203043E+02  0.39004258365E+03  0.00000000000E+00 0. -1.
         -4    1    5    5    0  503  0.21952728866E+02 -0.71178898751E+01  0.14013576696E+02  0.26999388748E+02  0.00000000000E+00 0.  1.
         -1    1    6    6    0  502  0.10991449919E+02  0.97503866246E+02 -0.15378683102E+03  0.18242314902E+03  0.00000000000E+00 0.  1.
<mgrwt>
<rscale>  0 0.19374898E+04</rscale>
<asrwt>0</asrwt>
<pdfrwt beam="1">  1        2 0.29527492E+00 0.19374898E+04</pdfrwt>
<pdfrwt beam="2">  1       -2 0.75225586E-01 0.19374898E+04</pdfrwt>
<totfact> 0.10971808E+01</totfact>
</mgrwt>
</event>
<event>
12    1  0.1467288E-007  0.1139694E+04  0.7818608E-02  0.9167344E-01
         -2   -1    0    0    0  501 -0.00000000000E+00  0.00000000000E+00  0.21866430282E+03  0.21866430282E+03  0.00000000000E+00 0. -1.
          2   -1    0    0  501    0  0.00000000000E+00 -0.00000000000E+00 -0.14850410456E+04  0.14850410456E+04  0.00000000000E+00 0.  1.
         23    2    1    2    0    0  0.26576131093E+02  0.14745866488E+03 -0.94992875202E+02  0.19960181243E+03  0.91470698000E+02 0.  0.
        254    2    1    2    0    0 -0.26576131093E+02 -0.14745866488E+03 -0.11713838676E+04  0.15041035360E+04  0.93152398421E+03 0.  0.
        -24    2    4    4    0    0 -0.15915134026E+03  0.30468402187E+03 -0.86799314250E+03  0.93709438466E+03  0.81069649391E+02 0.  0.
         24    2    4    4    0    0  0.13257520916E+03 -0.45214268675E+03 -0.30339072508E+03  0.56700915133E+03  0.86280069272E+02 0.  0.
         13    1    3    3    0    0  0.39818853529E+02  0.44154035473E+02 -0.12391075685E+01  0.59469785038E+02  0.00000000000E+00 0. -1.
        -13    1    3    3    0    0 -0.13242722436E+02  0.10330462941E+03 -0.93753767633E+02  0.14013202739E+03  0.00000000000E+00 0.  1.
          2    1    6    6  502    0  0.99045286243E+02 -0.30995399342E+03 -0.16115488441E+03  0.36311478011E+03  0.00000000000E+00 0. -1.
          3    1    5    5  503    0 -0.91862877473E+02  0.21549805412E+03 -0.66974948252E+03  0.70953686932E+03  0.00000000000E+00 0. -1.
         -4    1    5    5    0  503 -0.67288462784E+02  0.89185967749E+02 -0.19824365997E+03  0.22755751534E+03  0.00000000000E+00 0.  1.
         -1    1    6    6    0  502  0.33529922921E+02 -0.14218869333E+03 -0.14223584067E+03  0.20389437122E+03  0.00000000000E+00 0.  1.
<mgrwt>
<rscale>  0 0.11396938E+04</rscale>
<asrwt>0</asrwt>
<pdfrwt beam="1">  1        2 0.22846785E+00 0.11396938E+04</pdfrwt>
<pdfrwt beam="2">  1       -2 0.33640662E-01 0.11396938E+04</pdfrwt>
<totfact> 0.10585766E+02</totfact>
</mgrwt>
</event>
<event>
12    1  0.1467288E-007  0.1326985E+04  0.7818608E-02  0.9008435E-01
          2   -1    0    0  501    0  0.00000000000E+00  0.00000000000E+00  0.26727241450E+04  0.26727241450E+04  0.00000000000E+00 0. -1.
         -2   -1    0    0    0  501 -0.00000000000E+00 -0.00000000000E+00 -0.16470918038E+03  0.16470918038E+03  0.00000000000E+00 0.  1.
         23    2    1    2    0    0  0.88434637433E+02  0.33830621288E+03  0.64419951286E+03  0.73873744313E+03  0.92022925107E+02 0.  0.
        254    2    1    2    0    0 -0.88434637433E+02 -0.33830621288E+03  0.18638154518E+04  0.20986958823E+04  0.89913546765E+03 0.  0.
        -24    2    4    4    0    0  0.23453194328E+03 -0.36951964386E+03  0.40402361058E+03  0.60102613953E+03  0.80295347755E+02 0.  0.
         24    2    4    4    0    0 -0.32296658072E+03  0.31213430975E+02  0.14597918412E+04  0.14976697427E+04  0.82102059444E+02 0.  0.
         11    1    3    3    0    0  0.29173999449E+02  0.17167309422E+03  0.23101466513E+03  0.28929318870E+03  0.00000000000E+00 0.  1.
        -11    1    3    3    0    0  0.59260637984E+02  0.16663311866E+03  0.41318484773E+03  0.44944425443E+03  0.00000000000E+00 0. -1.
          4    1    6    6  502    0 -0.40774990317E+02  0.12543908307E+02  0.98991643360E+02  0.10779283337E+03  0.00000000000E+00 0. -1.
          1    1    5    5  503    0  0.94171269533E+02 -0.17380574503E+03  0.23343446224E+03  0.30588938062E+03  0.00000000000E+00 0. -1.
         -4    1    5    5    0  503  0.14036067375E+03 -0.19571389882E+03  0.17058914834E+03  0.29513675891E+03  0.00000000000E+00 0.  1.
         -3    1    6    6    0  502 -0.28219159040E+03  0.18669522669E+02  0.13608001978E+04  0.13898769094E+04  0.00000000000E+00 0.  1.
<mgrwt>
<rscale>  0 0.13269849E+04</rscale>
<asrwt>0</asrwt>
<pdfrwt beam="1">  1        2 0.41118830E+00 0.13269849E+04</pdfrwt>
<pdfrwt beam="2">  1       -2 0.25339876E-01 0.13269849E+04</pdfrwt>
<totfact> 0.37992182E+01</totfact>
</mgrwt>
</event>
<event>
12    1  0.1467288E-007  0.1492609E+04  0.7818608E-02  0.8889383E-01
          2   -1    0    0  501    0  0.00000000000E+00  0.00000000000E+00  0.10729287021E+04  0.10729287021E+04  0.00000000000E+00 0. -1.
         -2   -1    0    0    0  501 -0.00000000000E+00 -0.00000000000E+00 -0.51911229258E+03  0.51911229258E+03  0.00000000000E+00 0.  1.
         23    2    1    2    0    0  0.44140095775E+03 -0.11087648075E+03  0.66440771001E+02  0.46882405213E+03  0.90847214139E+02 0.  0.
        254    2    1    2    0    0 -0.44140095775E+03  0.11087648075E+03  0.48737563856E+03  0.11232169426E+04  0.90385446151E+03 0.  0.
        -24    2    4    4    0    0  0.22438083257E+03  0.22659255450E+03  0.12096040182E+03  0.35039864172E+03  0.80354499107E+02 0.  0.
         24    2    4    4    0    0 -0.66578179032E+03 -0.11571607375E+03  0.36641523673E+03  0.77281830088E+03  0.79576368519E+02 0.  0.
         13    1    3    3    0    0  0.31374554887E+03 -0.10384346594E+03  0.14425262548E+02  0.33079876519E+03  0.00000000000E+00 0.  1.
        -13    1    3    3    0    0  0.12765540888E+03 -0.70330148081E+01  0.52015508453E+02  0.13802528694E+03  0.00000000000E+00 0. -1.
          4    1    6    6  502    0 -0.51341634296E+03 -0.56303565179E+02  0.26687925835E+03  0.58136990910E+03  0.00000000000E+00 0. -1.
          1    1    5    5  503    0  0.13073624529E+03  0.17619162080E+03  0.58487568513E+02  0.22706001133E+03  0.00000000000E+00 0. -1.
         -2    1    5    5    0  503  0.93644587276E+02  0.50400933703E+02  0.62472833311E+02  0.12333863039E+03  0.00000000000E+00 0.  1.
         -3    1    6    6    0  502 -0.15236544736E+03 -0.59412508572E+02  0.99535978386E+02  0.19144839178E+03  0.00000000000E+00 0.  1.
<mgrwt>
<rscale>  0 0.14926091E+04</rscale>
<asrwt>0</asrwt>
<pdfrwt beam="1">  1        2 0.16506595E+00 0.14926091E+04</pdfrwt>
<pdfrwt beam="2">  1       -2 0.79863430E-01 0.14926091E+04</pdfrwt>
<totfact> 0.30384999E+01</totfact>
</mgrwt>
</event>
<event>
12    1  0.1467288E-007  0.3409519E+04  0.7818608E-02  0.8135574E-01
          2   -1    0    0  501    0  0.00000000000E+00  0.00000000000E+00  0.14840449448E+04  0.14840449448E+04  0.00000000000E+00 0. -1.
         -2   -1    0    0    0  501 -0.00000000000E+00 -0.00000000000E+00 -0.19582996601E+04  0.19582996601E+04  0.00000000000E+00 0.  1.
         23    2    1    2    0    0  0.38330418061E+03  0.21038900341E+03  0.13180109911E+04  0.13916096569E+04  0.90768039018E+02 0.  0.
        254    2    1    2    0    0 -0.38330418061E+03 -0.21038900341E+03 -0.17922657063E+04  0.20507349480E+04  0.89560696581E+03 0.  0.
        -24    2    4    4    0    0  0.94317749191E+02 -0.41841033108E+03 -0.10790213351E+04  0.11638961666E+04  0.80026259211E+02 0.  0.
         24    2    4    4    0    0 -0.47762192980E+03  0.20802132767E+03 -0.71324437128E+03  0.88683878139E+03  0.79811718675E+02 0.  0.
         11    1    3    3    0    0  0.28154530516E+03  0.19505221280E+03  0.96953660345E+03  0.10282579200E+04  0.00000000000E+00 0. -1.
        -11    1    3    3    0    0  0.10175887544E+03  0.15336790613E+02  0.34847438763E+03  0.36335173690E+03  0.00000000000E+00 0.  1.
          4    1    6    6  502    0 -0.35814844911E+03  0.11732111308E+03 -0.50027888777E+03  0.62634935997E+03  0.00000000000E+00 0. -1.
          3    1    5    5  503    0  0.74545043763E+02 -0.39893094845E+03 -0.10364785051E+04  0.11130995269E+04  0.00000000000E+00 0. -1.
         -4    1    5    5    0  503  0.19772705427E+02 -0.19479382631E+02 -0.42542829935E+02  0.50796639717E+02  0.00000000000E+00 0.  1.
         -3    1    6    6    0  502 -0.11947348068E+03  0.90700214582E+02 -0.21296548350E+03  0.26048942143E+03  0.00000000000E+00 0.  1.
<mgrwt>
<rscale>  0 0.34095189E+04</rscale>
<asrwt>0</asrwt>
<pdfrwt beam="1">  1        2 0.22831461E+00 0.34095189E+04</pdfrwt>
<pdfrwt beam="2">  1       -2 0.30127687E+00 0.34095189E+04</pdfrwt>
<totfact> 0.33487104E-01</totfact>
</mgrwt>
</event>
<event>
12    1  0.1467288E-007  0.1448259E+04  0.7818608E-02  0.8919608E-01
          1   -1    0    0  501    0  0.00000000000E+00  0.00000000000E+00  0.13700410193E+04  0.13700410193E+04  0.00000000000E+00 0. -1.
         -1   -1    0    0    0  501 -0.00000000000E+00 -0.00000000000E+00 -0.38273576308E+03  0.38273576308E+03  0.00000000000E+00 0.  1.
         23    2    1    2    0    0 -0.10835397806E+03  0.42250407187E+03  0.22731788022E+03  0.50007557765E+03  0.90287814175E+02 0.  0.
        254    2    1    2    0    0  0.10835397806E+03 -0.42250407187E+03  0.75998737601E+03  0.12527012047E+04  0.89522579351E+03 0.  0.
        -24    2    4    4    0    0 -0.14212855085E+03 -0.28380286869E+03  0.87462013693E+03  0.93395197879E+03  0.81001984719E+02 0.  0.
         24    2    4    4    0    0  0.25048252891E+03 -0.13870120318E+03 -0.11463276092E+03  0.31874922595E+03  0.80503901224E+02 0.  0.
         11    1    3    3    0    0 -0.27988236028E+01  0.24258638107E+02  0.41415973755E+02  0.48079078802E+02  0.00000000000E+00 0. -1.
        -11    1    3    3    0    0 -0.10555515446E+03  0.39824543376E+03  0.18590190646E+03  0.45199649885E+03  0.00000000000E+00 0.  1.
          4    1    6    6  502    0  0.30030156027E+02  0.76492823646E+01 -0.23482596225E+02  0.38881282350E+02  0.00000000000E+00 0. -1.
          3    1    5    5  503    0 -0.11195669029E+02 -0.86186870174E+02  0.17763915424E+03  0.19776043263E+03  0.00000000000E+00 0. -1.
         -4    1    5    5    0  503 -0.13093288182E+03 -0.19761599852E+03  0.69698098269E+03  0.73619154616E+03  0.00000000000E+00 0.  1.
         -3    1    6    6    0  502  0.22045237288E+03 -0.14635048554E+03 -0.91150164695E+02  0.27986794360E+03  0.00000000000E+00 0.  1.
<mgrwt>
<rscale>  0 0.14482592E+04</rscale>
<asrwt>0</asrwt>
<pdfrwt beam="1">  1        1 0.21077554E+00 0.14482592E+04</pdfrwt>
<pdfrwt beam="2">  1       -1 0.58882426E-01 0.14482592E+04</pdfrwt>
<totfact> 0.22901414E+01</totfact>
</mgrwt>
</event>
<event>
12    1  0.1467288E-007  0.3037214E+04  0.7818608E-02  0.8233183E-01
          2   -1    0    0  501    0  0.00000000000E+00  0.00000000000E+00  0.35873482398E+04  0.35873482398E+04  0.00000000000E+00 0. -1.
         -2   -1    0    0    0  501 -0.00000000000E+00 -0.00000000000E+00 -0.64286107899E+03  0.64286107899E+03  0.00000000000E+00 0.  1.
         23    2    1    2    0    0 -0.75578926086E+03 -0.72932533456E+03  0.26060294754E+04  0.28112605468E+04  0.93077306341E+02 0.  0.
        254    2    1    2    0    0  0.75578926086E+03  0.72932533456E+03  0.33845768540E+03  0.14189487720E+04  0.89203652514E+03 0.  0.
        -24    2    4    4    0    0  0.11673274239E+03 -0.10599701993E+03 -0.17163418615E+03  0.24732616210E+03  0.82764939588E+02 0.  0.
         24    2    4    4    0    0  0.63905651847E+03  0.83532235449E+03  0.51009187154E+03  0.11716226099E+04  0.79681571383E+02 0.  0.
         13    1    3    3    0    0 -0.53744882900E+03 -0.45848833432E+03  0.17630437347E+04  0.18993119825E+04  0.00000000000E+00 0. -1.
        -13    1    3    3    0    0 -0.21834043187E+03 -0.27083700024E+03  0.84298574067E+03  0.91194856426E+03  0.00000000000E+00 0.  1.
          4    1    6    6  502    0  0.27749039681E+03  0.37024216942E+03  0.26820814666E+03  0.53480444489E+03  0.00000000000E+00 0. -1.
          1    1    5    5  503    0  0.48878848670E+02 -0.96549450696E+01 -0.93471902523E+02  0.10592146323E+03  0.00000000000E+00 0. -1.
         -2    1    5    5    0  503  0.67853893723E+02 -0.96342074858E+02 -0.78162283624E+02  0.14140469887E+03  0.00000000000E+00 0.  1.
         -3    1    6    6    0  502  0.36156612166E+03  0.46508018507E+03  0.24188372488E+03  0.63681816497E+03  0.00000000000E+00 0.  1.
<mgrwt>
<rscale>  0 0.30372136E+04</rscale>
<asrwt>0</asrwt>
<pdfrwt beam="1">  1        2 0.55189972E+00 0.30372136E+04</pdfrwt>
<pdfrwt beam="2">  1       -2 0.98901707E-01 0.30372136E+04</pdfrwt>
<totfact> 0.50965667E-01</totfact>
</mgrwt>
</event>
<event>
12    1  0.1933636E-007  0.1367439E+04  0.7818608E-02  0.8977731E-01
          4   -1    0    0  501    0  0.00000000000E+00  0.00000000000E+00  0.16088093807E+04  0.16088093807E+04  0.00000000000E+00 0. -1.
         -4   -1    0    0    0  501 -0.00000000000E+00 -0.00000000000E+00 -0.29057054018E+03  0.29057054018E+03  0.00000000000E+00 0.  1.
         23    2    1    2    0    0  0.42666617792E+02 -0.48044084843E+02 -0.15443244923E+03  0.19049490190E+03  0.91160583120E+02 0.  0.
        254    2    1    2    0    0 -0.42666617792E+02  0.48044084843E+02  0.14726712897E+04  0.17088850190E+04  0.86452218369E+03 0.  0.
        -24    2    4    4    0    0  0.15858451515E+03 -0.17398697091E+03  0.13536370951E+04  0.13763084462E+04  0.80442770477E+02 0.  0.
         24    2    4    4    0    0 -0.20125113294E+03  0.22203105575E+03  0.11903419460E+03  0.33257657275E+03  0.81475327739E+02 0.  0.
         13    1    3    3    0    0  0.12310781384E+02  0.92078112510E+01  0.67378337258E+01  0.16785038863E+02  0.00000000000E+00 0. -1.
        -13    1    3    3    0    0  0.30355836408E+02 -0.57251896094E+02 -0.16117028295E+03  0.17370986304E+03  0.00000000000E+00 0.  1.
          4    1    6    6  502    0 -0.29436611523E+02  0.47661828941E+02 -0.83214000995E+01  0.56633998053E+02  0.00000000000E+00 0. -1.
          1    1    5    5  503    0  0.21527885386E+02 -0.38817797787E+02  0.46206941641E+03  0.46419652827E+03  0.00000000000E+00 0. -1.
         -2    1    5    5    0  503  0.13705662977E+03 -0.13516917312E+03  0.89156767870E+03  0.91211191793E+03  0.00000000000E+00 0.  1.
         -3    1    6    6    0  502 -0.17181452142E+03  0.17436922681E+03  0.12735559470E+03  0.27594257470E+03  0.00000000000E+00 0.  1.
<mgrwt>
<rscale>  0 0.13674394E+04</rscale>
<asrwt>0</asrwt>
<pdfrwt beam="1">  1        4 0.24750913E+00 0.13674394E+04</pdfrwt>
<pdfrwt beam="2">  1       -4 0.44703161E-01 0.13674394E+04</pdfrwt>
<totfact> 0.62299188E-01</totfact>
</mgrwt>
</event>
<event>
12    1  0.1467288E-007  0.2371939E+04  0.7818608E-02  0.8450084E-01
         -1   -1    0    0    0  501 -0.00000000000E+00  0.00000000000E+00  0.11364851088E+04  0.11364851088E+04  0.00000000000E+00 0.  1.
          1   -1    0    0  501    0  0.00000000000E+00 -0.00000000000E+00 -0.12376086263E+04  0.12376086263E+04  0.00000000000E+00 0. -1.
         23    2    1    2    0    0 -0.14655594269E+03 -0.99738410305E+03  0.10542517045E+03  0.10177345281E+04  0.91735542402E+02 0.  0.
        254    2    1    2    0    0  0.14655594269E+03  0.99738410305E+03 -0.20654868798E+03  0.13563592070E+04  0.88362562460E+03 0.  0.
        -24    2    4    4    0    0  0.33839511351E+03  0.12458796252E+03 -0.26869798935E+03  0.45702751765E+03  0.81499258606E+02 0.  0.
         24    2    4    4    0    0 -0.19183917083E+03  0.87279614053E+03  0.62149301372E+02  0.89933168931E+03  0.79746983375E+02 0.  0.
         11    1    3    3    0    0 -0.15567867647E+03 -0.98004884131E+03  0.10696618132E+03  0.99808483888E+03  0.00000000000E+00 0.  1.
        -11    1    3    3    0    0  0.91227337855E+01 -0.17335261743E+02 -0.15410108664E+01  0.19649689207E+02  0.00000000000E+00 0. -1.
          2    1    6    6  502    0 -0.24332322259E+02  0.25565638851E+03  0.36061555752E+02  0.25933122970E+03  0.00000000000E+00 0. -1.
          1    1    5    5  503    0  0.11351004264E+03  0.82282847164E+02 -0.88841424835E+02  0.16597528577E+03  0.00000000000E+00 0. -1.
         -2    1    5    5    0  503  0.22488507087E+03  0.42305115359E+02 -0.17985656452E+03  0.29105223188E+03  0.00000000000E+00 0.  1.
         -3    1    6    6    0  502 -0.16750684857E+03  0.61713975201E+03  0.26087745619E+02  0.64000045961E+03  0.00000000000E+00 0.  1.
<mgrwt>
<rscale>  0 0.23719391E+04</rscale>
<asrwt>0</asrwt>
<pdfrwt beam="1">  1        1 0.19040133E+00 0.23719391E+04</pdfrwt>
<pdfrwt beam="2">  1       -1 0.17484386E+00 0.23719391E+04</pdfrwt>
<totfact> 0.20438176E+00</totfact>
</mgrwt>
</event>
<event>
12    1  0.1467288E-007  0.1291180E+04  0.7818608E-02  0.9036589E-01
         -2   -1    0    0    0  501 -0.00000000000E+00  0.00000000000E+00  0.48382257852E+03  0.48382257852E+03  0.00000000000E+00 0.  1.
          2   -1    0    0  501    0  0.00000000000E+00 -0.00000000000E+00 -0.86144489831E+03  0.86144489831E+03  0.00000000000E+00 0. -1.
         23    2    1    2    0    0 -0.20386454704E+03  0.13708958131E+03  0.14184500583E+03  0.29785260304E+03  0.90784693728E+02 0.  0.
        254    2    1    2    0    0  0.20386454704E+03 -0.13708958131E+03 -0.51946732562E+03  0.10474148738E+04  0.87571531253E+03 0.  0.
        -24    2    4    4    0    0  0.33186164548E+03  0.28837506443E+03 -0.17660387003E+03  0.48091218649E+03  0.82433456038E+02 0.  0.
         24    2    4    4    0    0 -0.12799709844E+03 -0.42546464574E+03 -0.34286345560E+03  0.56650268731E+03  0.77243275131E+02 0.  0.
         11    1    3    3    0    0 -0.61259567808E+02 -0.36531651060E+01  0.28645844254E+02  0.67724919020E+02  0.00000000000E+00 0. -1.
        -11    1    3    3    0    0 -0.14260497923E+03  0.14074274642E+03  0.11319916158E+03  0.23012768402E+03  0.00000000000E+00 0.  1.
          4    1    6    6  502    0 -0.10865560903E+03 -0.29529081741E+03 -0.27762590001E+03  0.41961750271E+03  0.00000000000E+00 0. -1.
          3    1    5    5  503    0  0.29657637388E+03  0.28175951064E+03 -0.14806568247E+03  0.43505104724E+03  0.00000000000E+00 0. -1.
         -4    1    5    5    0  503  0.35285271596E+02  0.66155537943E+01 -0.28538187558E+02  0.45861139243E+02  0.00000000000E+00 0.  1.
         -3    1    6    6    0  502 -0.19341489409E+02 -0.13017382833E+03 -0.65237555585E+02  0.14688518460E+03  0.00000000000E+00 0.  1.
<mgrwt>
<rscale>  0 0.12911801E+04</rscale>
<asrwt>0</asrwt>
<pdfrwt beam="1">  1        2 0.13252999E+00 0.12911801E+04</pdfrwt>
<pdfrwt beam="2">  1       -2 0.74434242E-01 0.12911801E+04</pdfrwt>
<totfact> 0.49647488E+01</totfact>
</mgrwt>
</event>
<event>
12    1  0.1467288E-007  0.1194269E+04  0.7818608E-02  0.9117888E-01
          1   -1    0    0  501    0  0.00000000000E+00  0.00000000000E+00  0.11134212446E+04  0.11134212446E+04  0.00000000000E+00 0.  1.
         -1   -1    0    0    0  501 -0.00000000000E+00 -0.00000000000E+00 -0.32024657597E+03  0.32024657597E+03  0.00000000000E+00 0. -1.
         23    2    1    2    0    0  0.89342659774E+02 -0.10543600310E+03 -0.44867397156E+02  0.17197899021E+03  0.92004500656E+02 0.  0.
        254    2    1    2    0    0 -0.89342659774E+02  0.10543600310E+03  0.83804206581E+03  0.12616888304E+04  0.93297660154E+03 0.  0.
        -24    2    4    4    0    0  0.61735471921E+02 -0.26163072370E+03 -0.50770408726E+02  0.28486795318E+03  0.79436844507E+02 0.  0.
         24    2    4    4    0    0 -0.15107813169E+03  0.36706672680E+03  0.88881247453E+03  0.97682087720E+03  0.81417611412E+02 0.  0.
         11    1    3    3    0    0  0.60588390734E+02 -0.10263508102E+03 -0.65949857311E+02  0.13621415722E+03  0.00000000000E+00 0. -1.
        -11    1    3    3    0    0  0.28754269040E+02 -0.28009220760E+01  0.21082460155E+02  0.35764832988E+02  0.00000000000E+00 0.  1.
          2    1    6    6  502    0 -0.85821826110E+02  0.21165560823E+03  0.41167830168E+03  0.47078923778E+03  0.00000000000E+00 0. -1.
          3    1    5    5  503    0 -0.84217440242E+01  0.66186237212E+00  0.85294815959E+00  0.84906627994E+01  0.00000000000E+00 0. -1.
         -4    1    5    5    0  503  0.70157215945E+02 -0.26229258608E+03 -0.51623356885E+02  0.27637729038E+03  0.00000000000E+00 0.  1.
         -1    1    6    6    0  502 -0.65256305585E+02  0.15541111857E+03  0.47713417285E+03  0.50603163943E+03  0.00000000000E+00 0.  1.
<mgrwt>
<rscale>  0 0.11942685E+04</rscale>
<asrwt>0</asrwt>
<pdfrwt beam="1">  1        1 0.17129558E+00 0.11942685E+04</pdfrwt>
<pdfrwt beam="2">  1       -1 0.49268704E-01 0.11942685E+04</pdfrwt>
<totfact> 0.50614733E+01</totfact>
</mgrwt>
</event>
<event>
12    1  0.1467288E-007  0.2308352E+04  0.7818608E-02  0.8474635E-01
          1   -1    0    0  501    0  0.00000000000E+00  0.00000000000E+00  0.85804365247E+03  0.85804365247E+03  0.00000000000E+00 0. -1.
         -1   -1    0    0    0  501 -0.00000000000E+00 -0.00000000000E+00 -0.15525115018E+04  0.15525115018E+04  0.00000000000E+00 0.  1.
         23    2    1    2    0    0 -0.93611189581E+02  0.36297789763E+03 -0.12423845996E+04  0.13008844244E+04  0.90910854134E+02 0.  0.
        254    2    1    2    0    0  0.93611189581E+02 -0.36297789763E+03  0.54791675026E+03  0.11096707299E+04  0.88917959631E+03 0.  0.
        -24    2    4    4    0    0 -0.16164169619E+02 -0.53205644662E+03  0.67087756269E+03  0.85992302154E+03  0.77753174156E+02 0.  0.
         24    2    4    4    0    0  0.10977535920E+03  0.16907854899E+03 -0.12296081242E+03  0.24974770831E+03  0.81341079397E+02 0.  0.
         11    1    3    3    0    0 -0.98353249263E+02  0.26273850898E+03 -0.99844289937E+03  0.10371080508E+04  0.00000000000E+00 0.  1.
        -11    1    3    3    0    0  0.47420596823E+01  0.10023938865E+03 -0.24394170018E+03  0.26377637357E+03  0.00000000000E+00 0. -1.
          2    1    6    6  502    0 -0.87102892493E+01  0.41392797534E+02 -0.15354034238E+02  0.44999768820E+02  0.00000000000E+00 0. -1.
          1    1    5    5  503    0 -0.16268681873E+02 -0.20017439656E+03  0.19648898265E+03  0.28096686521E+03  0.00000000000E+00 0. -1.
         -2    1    5    5    0  503  0.10451225372E+00 -0.33188205007E+03  0.47438858004E+03  0.57895615633E+03  0.00000000000E+00 0.  1.
         -1    1    6    6    0  502  0.11848564845E+03  0.12768575146E+03 -0.10760677819E+03  0.20474793949E+03  0.00000000000E+00 0.  1.
<mgrwt>
<rscale>  0 0.23083523E+04</rscale>
<asrwt>0</asrwt>
<pdfrwt beam="1">  1        1 0.13200672E+00 0.23083523E+04</pdfrwt>
<pdfrwt beam="2">  1       -1 0.23884792E+00 0.23083523E+04</pdfrwt>
<totfact> 0.14692112E+00</totfact>
</mgrwt>
</event>
<event>
12    1  0.1524676E-007  0.2036863E+04  0.7818608E-02  0.8589578E-01
          2   -1    0    0  501    0  0.00000000000E+00  0.00000000000E+00  0.21541501338E+04  0.21541501338E+04  0.00000000000E+00 0. -1.
         -2   -1    0    0    0  501 -0.00000000000E+00 -0.00000000000E+00 -0.48149026537E+03  0.48149026537E+03  0.00000000000E+00 0.  1.
         23    2    1    2    0    0 -0.46635096199E+03 -0.16957516684E+03  0.15015916713E+04  0.15838949717E+04  0.87788250285E+02 0.  0.
        254    2    1    2    0    0  0.46635096199E+03  0.16957516684E+03  0.17106819712E+03  0.10517454275E+04  0.91140833841E+03 0.  0.
        -24    2    4    4    0    0  0.45461993781E+03  0.39407327245E+02  0.50458457741E+03  0.68499438798E+03  0.79871712788E+02 0.  0.
         24    2    4    4    0    0  0.11731024178E+02  0.13016783959E+03 -0.33351638029E+03  0.36675103956E+03  0.78688408947E+02 0.  0.
         11    1    3    3    0    0 -0.11467936650E+02 -0.22526818123E+02  0.93841855569E+02  0.97186753019E+02  0.00000000000E+00 0.  1.
        -11    1    3    3    0    0 -0.45488302534E+03 -0.14704834871E+03  0.14077498158E+04  0.14867082186E+04  0.00000000000E+00 0. -1.
          4    1    6    6  502    0 -0.13930407530E+01  0.12100433338E+03 -0.32833692662E+03  0.34992731623E+03  0.00000000000E+00 0. -1.
          1    1    5    5  503    0  0.41603383348E+03  0.46376075571E+02  0.42645351704E+03  0.59757634925E+03  0.00000000000E+00 0. -1.
         -2    1    5    5    0  503  0.38586104334E+02 -0.69687483261E+01  0.78131060371E+02  0.87418038731E+02  0.00000000000E+00 0.  1.
         -3    1    6    6    0  502  0.13124064931E+02  0.91635062065E+01 -0.51794536688E+01  0.16823723328E+02  0.00000000000E+00 0.  1.
<mgrwt>
<rscale>  0 0.20368626E+04</rscale>
<asrwt>0</asrwt>
<pdfrwt beam="1">  1        2 0.33140771E+00 0.20368626E+04</pdfrwt>
<pdfrwt beam="2">  1       -2 0.74075427E-01 0.20368626E+04</pdfrwt>
<totfact> 0.83303662E+00</totfact>
</mgrwt>
</event>
<event>
12    1  0.1467288E-007  0.1659123E+04  0.7818608E-02  0.8785027E-01
         -2   -1    0    0    0  501 -0.00000000000E+00  0.00000000000E+00  0.21013540164E+03  0.21013540164E+03  0.00000000000E+00 0.  1.
          2   -1    0    0  501    0  0.00000000000E+00 -0.00000000000E+00 -0.32749003198E+04  0.32749003198E+04  0.00000000000E+00 0. -1.
         23    2    1    2    0    0  0.36746736594E+03 -0.12012764986E+03 -0.17402314783E+03  0.43354373930E+03  0.90626710281E+02 0.  0.
        254    2    1    2    0    0 -0.36746736594E+03  0.12012764986E+03 -0.28907417703E+04  0.30514919821E+04  0.89763712989E+03 0.  0.
        -24    2    4    4    0    0 -0.53683272237E+03  0.37223570391E+03 -0.18121178795E+04  0.19280629031E+04  0.83105705160E+02 0.  0.
         24    2    4    4    0    0  0.16936535642E+03 -0.25210805405E+03 -0.10786238909E+04  0.11234290790E+04  0.80126791701E+02 0.  0.
         13    1    3    3    0    0  0.23114343674E+02 -0.34316922526E+02 -0.98833672228E+01  0.42539452310E+02  0.00000000000E+00 0. -1.
        -13    1    3    3    0    0  0.34435302227E+03 -0.85810727332E+02 -0.16413978061E+03  0.39100428699E+03  0.00000000000E+00 0.  1.
          2    1    6    6  502    0  0.79706448895E+01 -0.83715614436E+01 -0.92077077683E+01  0.14778230723E+02  0.00000000000E+00 0. -1.
          1    1    5    5  503    0 -0.24183222760E+03  0.19340421706E+03 -0.96229981557E+03  0.10108951244E+04  0.00000000000E+00 0. -1.
         -2    1    5    5    0  503 -0.29500049476E+03  0.17883148685E+03 -0.84981806390E+03  0.91716777873E+03  0.00000000000E+00 0.  1.
         -1    1    6    6    0  502  0.16139471153E+03 -0.24373649261E+03 -0.10694161831E+04  0.11086508483E+04  0.00000000000E+00 0.  1.
<mgrwt>
<rscale>  0 0.16591233E+04</rscale>
<asrwt>0</asrwt>
<pdfrwt beam="1">  1        2 0.50383081E+00 0.16591233E+04</pdfrwt>
<pdfrwt beam="2">  1       -2 0.32328524E-01 0.16591233E+04</pdfrwt>
<totfact> 0.99249963E+00</totfact>
</mgrwt>
</event>
<event>
12    1  0.1467288E-007  0.5355290E+04  0.7818608E-02  0.7775921E-01
         -2   -1    0    0    0  501 -0.00000000000E+00  0.00000000000E+00  0.24460498957E+04  0.24460498957E+04  0.00000000000E+00 0.  1.
          2   -1    0    0  501    0  0.00000000000E+00 -0.00000000000E+00 -0.29311678377E+04  0.29311678377E+04  0.00000000000E+00 0. -1.
         23    2    1    2    0    0 -0.30796822295E+03  0.17203406283E+03  0.23516310492E+04  0.23796700561E+04  0.90668843893E+02 0.  0.
        254    2    1    2    0    0  0.30796822295E+03 -0.17203406283E+03 -0.28367489911E+04  0.29975476774E+04  0.90205714569E+03 0.  0.
        -24    2    4    4    0    0  0.18447814460E+03 -0.53686329855E+03 -0.17726771485E+04  0.18630612174E+04  0.79739826668E+02 0.  0.
         24    2    4    4    0    0  0.12349007835E+03  0.36482923572E+03 -0.10640718426E+04  0.11344864599E+04  0.80377053391E+02 0.  0.
         11    1    3    3    0    0 -0.18386092144E+03  0.14978054149E+03  0.14497881332E+04  0.14690557104E+04  0.00000000000E+00 0.  1.
        -11    1    3    3    0    0 -0.12410730151E+03  0.22253521343E+02  0.90184291598E+03  0.91061434571E+03  0.00000000000E+00 0. -1.
          4    1    6    6  502    0  0.13066043279E+03  0.29562798583E+03 -0.84907484763E+03  0.90851315433E+03  0.00000000000E+00 0. -1.
          3    1    5    5  503    0  0.18633177576E+03 -0.49284000957E+03 -0.16747902805E+04  0.17557144669E+04  0.00000000000E+00 0. -1.
         -4    1    5    5    0  503 -0.18536311604E+01 -0.44023288982E+02 -0.97886868016E+02  0.10734675054E+03  0.00000000000E+00 0.  1.
         -3    1    6    6    0  502 -0.71703544471E+01  0.69201249888E+02 -0.21499699502E+03  0.22597330558E+03  0.00000000000E+00 0.  1.
<mgrwt>
<rscale>  0 0.53552900E+04</rscale>
<asrwt>0</asrwt>
<pdfrwt beam="1">  1        2 0.45094890E+00 0.53552900E+04</pdfrwt>
<pdfrwt beam="2">  1       -2 0.37631537E+00 0.53552900E+04</pdfrwt>
<totfact> 0.14387785E-02</totfact>
</mgrwt>
</event>
<event>
12    1  0.1467288E-007  0.1094173E+04  0.7818608E-02  0.9210890E-01
          3   -1    0    0  501    0  0.00000000000E+00  0.00000000000E+00  0.17791385993E+04  0.17791385993E+04  0.00000000000E+00 0. -1.
         -3   -1    0    0    0  501 -0.00000000000E+00 -0.00000000000E+00 -0.16822956625E+03  0.16822956625E+03  0.00000000000E+00 0.  1.
         23    2    1    2    0    0  0.16054918550E+02  0.99619457330E+02  0.47625138910E+03  0.49473395071E+03  0.88116398490E+02 0.  0.
        254    2    1    2    0    0 -0.16054918550E+02 -0.99619457330E+02  0.11346576439E+04  0.14526342148E+04  0.90139691393E+03 0.  0.
        -24    2    4    4    0    0 -0.27184229198E+03  0.56957641827E+02  0.13693055675E+02  0.28933276597E+03  0.79897090171E+02 0.  0.
         24    2    4    4    0    0  0.25578737343E+03 -0.15657709916E+03  0.11209645883E+04  0.11633014488E+04  0.82250133035E+02 0.  0.
         11    1    3    3    0    0 -0.36554437428E+02  0.35628824397E+02  0.17345141764E+03  0.18080662129E+03  0.00000000000E+00 0.  1.
        -11    1    3    3    0    0  0.52609355979E+02  0.63990632932E+02  0.30279997146E+03  0.31392732942E+03  0.00000000000E+00 0. -1.
          4    1    6    6  502    0  0.24964794541E+03 -0.16559452479E+03  0.10677135320E+04  0.11089444664E+04  0.00000000000E+00 0. -1.
          1    1    5    5  503    0 -0.14789561539E+03  0.14773716400E+02 -0.29367242912E+02  0.15150515075E+03  0.00000000000E+00 0. -1.
         -2    1    5    5    0  503 -0.12394667659E+03  0.42183925426E+02  0.43060298587E+02  0.13782761522E+03  0.00000000000E+00 0.  1.
         -1    1    6    6    0  502  0.61394280159E+01  0.90174256326E+01  0.53251056272E+02  0.54356982398E+02  0.00000000000E+00 0.  1.
<mgrwt>
<rscale>  0 0.10941731E+04</rscale>
<asrwt>0</asrwt>
<pdfrwt beam="1">  1        3 0.27371362E+00 0.10941731E+04</pdfrwt>
<pdfrwt beam="2">  1       -3 0.25881473E-01 0.10941731E+04</pdfrwt>
<totfact> 0.20383621E+00</totfact>
</mgrwt>
</event>
<event>
12    1  0.1467288E-007  0.2604672E+04  0.7818608E-02  0.8366616E-01
         -2   -1    0    0    0  501 -0.00000000000E+00  0.00000000000E+00  0.77549096601E+03  0.77549096601E+03  0.00000000000E+00 0.  1.
          2   -1    0    0  501    0  0.00000000000E+00 -0.00000000000E+00 -0.21871031636E+04  0.21871031636E+04  0.00000000000E+00 0. -1.
         23    2    1    2    0    0 -0.54784278611E+03  0.52043164580E+03 -0.16007749404E+04  0.17723809384E+04  0.88729727688E+02 0.  0.
        254    2    1    2    0    0  0.54784278611E+03 -0.52043164580E+03  0.18916274281E+03  0.11902131913E+04  0.89991337423E+03 0.  0.
        -24    2    4    4    0    0  0.58595797589E+03 -0.43097545457E+02 -0.13242729363E+03  0.60860175256E+03  0.87492612184E+02 0.  0.
         24    2    4    4    0    0 -0.38115189773E+02 -0.47733410034E+03  0.32159003644E+03  0.58161143870E+03  0.74505724915E+02 0.  0.
         11    1    3    3    0    0 -0.52557198368E+03  0.48865425343E+03 -0.14675425976E+04  0.16336126118E+04  0.00000000000E+00 0. -1.
        -11    1    3    3    0    0 -0.22270802434E+02  0.31777392375E+02 -0.13323234277E+03  0.13876832660E+03  0.00000000000E+00 0.  1.
          4    1    6    6  502    0 -0.34259479016E+01 -0.32209093673E+02  0.18291409164E+01  0.32442388796E+02  0.00000000000E+00 0. -1.
          1    1    5    5  503    0  0.21170700330E+03 -0.22405533963E+02 -0.90907547999E+02  0.23148659893E+03  0.00000000000E+00 0. -1.
         -2    1    5    5    0  503  0.37425097258E+03 -0.20692011493E+02 -0.41519745630E+02  0.37711515363E+03  0.00000000000E+00 0.  1.
         -3    1    6    6    0  502 -0.34689241871E+02 -0.44512500667E+03  0.31976089553E+03  0.54916904991E+03  0.00000000000E+00 0.  1.
<mgrwt>
<rscale>  0 0.26046718E+04</rscale>
<asrwt>0</asrwt>
<pdfrwt beam="1">  1        2 0.33647741E+00 0.26046718E+04</pdfrwt>
<pdfrwt beam="2">  1       -2 0.11930630E+00 0.26046718E+04</pdfrwt>
<totfact> 0.25009639E+00</totfact>
</mgrwt>
</event>
<event>
12    1  0.1467288E-007  0.1302415E+04  0.7818608E-02  0.9027652E-01
         -2   -1    0    0    0  501 -0.00000000000E+00  0.00000000000E+00  0.24406055691E+03  0.24406055691E+03  0.00000000000E+00 0. -1.
          2   -1    0    0  501    0  0.00000000000E+00 -0.00000000000E+00 -0.17375655377E+04  0.17375655377E+04  0.00000000000E+00 0.  1.
         23    2    1    2    0    0  0.80859455439E+02  0.22333286814E+03 -0.74350720940E+03  0.78567623281E+03  0.89823999295E+02 0.  0.
        254    2    1    2    0    0 -0.80859455439E+02 -0.22333286814E+03 -0.74999777143E+03  0.11959498618E+04  0.90076833501E+03 0.  0.
        -24    2    4    4    0    0 -0.83790987006E+01  0.14911844385E+03 -0.78837066047E+03  0.80623736203E+03  0.78637561280E+02 0.  0.
         24    2    4    4    0    0 -0.72480356738E+02 -0.37245131199E+03  0.38372889045E+02  0.38971249981E+03  0.80187106087E+02 0.  0.
         13    1    3    3    0    0  0.28276007009E+02  0.99081397923E+02 -0.19194574070E+03  0.21785275615E+03  0.00000000000E+00 0. -1.
        -13    1    3    3    0    0  0.52583448430E+02  0.12425147021E+03 -0.55156146870E+03  0.56782347667E+03  0.00000000000E+00 0.  1.
          4    1    6    6  502    0 -0.32750171062E+02 -0.28516293346E+03  0.55325864029E+02  0.29232075457E+03  0.00000000000E+00 0. -1.
          1    1    5    5  503    0 -0.29066745709E+02  0.58421826650E+02 -0.47149239424E+03  0.47598641090E+03  0.00000000000E+00 0. -1.
         -2    1    5    5    0  503  0.20687647008E+02  0.90696617200E+02 -0.31687826623E+03  0.33025095113E+03  0.00000000000E+00 0.  1.
         -3    1    6    6    0  502 -0.39730185676E+02 -0.87288378526E+02 -0.16952974985E+02  0.97391745237E+02  0.00000000000E+00 0.  1.
<mgrwt>
<rscale>  0 0.13024150E+04</rscale>
<asrwt>0</asrwt>
<pdfrwt beam="1">  1        2 0.26731778E+00 0.13024150E+04</pdfrwt>
<pdfrwt beam="2">  1       -2 0.37547778E-01 0.13024150E+04</pdfrwt>
<totfact> 0.61277097E+01</totfact>
</mgrwt>
</event>
<event>
12    1  0.1467288E-007  0.2208374E+04  0.7818608E-02  0.8514951E-01
         -1   -1    0    0    0  501 -0.00000000000E+00  0.00000000000E+00  0.10637544601E+04  0.10637544601E+04  0.00000000000E+00 0.  1.
          1   -1    0    0  501    0  0.00000000000E+00 -0.00000000000E+00 -0.11461564409E+04  0.11461564409E+04  0.00000000000E+00 0. -1.
         23    2    1    2    0    0  0.89880070999E+03  0.64997971257E+02 -0.20783534802E+03  0.92921542921E+03  0.90434116596E+02 0.  0.
        254    2    1    2    0    0 -0.89880070999E+03 -0.64997971257E+02  0.12543336722E+03  0.12806954718E+04  0.90132120206E+03 0.  0.
        -24    2    4    4    0    0 -0.97780790372E+03  0.16183879224E+03 -0.80411813380E+01  0.99456336692E+03  0.82410794044E+02 0.  0.
         24    2    4    4    0    0  0.79007193731E+02 -0.22683676349E+03  0.13347454856E+03  0.28613210486E+03  0.79743792130E+02 0.  0.
         13    1    3    3    0    0  0.17869058364E+03  0.58149849200E+00 -0.76590467841E+02  0.19441389504E+03  0.00000000000E+00 0.  1.
        -13    1    3    3    0    0  0.72011012636E+03  0.64416472765E+02 -0.13124488018E+03  0.73480153417E+03  0.00000000000E+00 0. -1.
          2    1    6    6  502    0 -0.35905480885E+01 -0.75439275351E+01 -0.86839030700E+01  0.12050437783E+02  0.00000000000E+00 0. -1.
          1    1    5    5  503    0 -0.40541433389E+03  0.79655153738E+02  0.35345608272E+02  0.41467461662E+03  0.00000000000E+00 0. -1.
         -2    1    5    5    0  503 -0.57239356983E+03  0.82183638498E+02 -0.43386789610E+02  0.57988875031E+03  0.00000000000E+00 0.  1.
         -1    1    6    6    0  502  0.82597741820E+02 -0.21929283596E+03  0.14215845163E+03  0.27408166707E+03  0.00000000000E+00 0.  1.
<mgrwt>
<rscale>  0 0.22083741E+04</rscale>
<asrwt>0</asrwt>
<pdfrwt beam="1">  1        1 0.17633176E+00 0.22083741E+04</pdfrwt>
<pdfrwt beam="2">  1       -1 0.16365453E+00 0.22083741E+04</pdfrwt>
<totfact> 0.29260272E+00</totfact>
</mgrwt>
</event>
<event>
12    1  0.1669160E-007  0.2091024E+04  0.7818608E-02  0.8565208E-01
          2   -1    0    0  501    0  0.00000000000E+00  0.00000000000E+00  0.31665664304E+04  0.31665664304E+04  0.00000000000E+00 0.  1.
         -2   -1    0    0    0  501 -0.00000000000E+00 -0.00000000000E+00 -0.34519899357E+03  0.34519899357E+03  0.00000000000E+00 0. -1.
         23    2    1    2    0    0  0.42604883815E+02  0.22087799862E+03 -0.22764342812E+03  0.33252957085E+03  0.90289084179E+02 0.  0.
        254    2    1    2    0    0 -0.42604883815E+02 -0.22087799862E+03  0.30490108650E+04  0.31792358531E+04  0.87204993481E+03 0.  0.
        -24    2    4    4    0    0  0.29492921686E+03  0.51679121360E+02  0.22073284156E+04  0.22289554886E+04  0.79308646870E+02 0.  0.
         24    2    4    4    0    0 -0.33753410067E+03 -0.27255711998E+03  0.84168244941E+03  0.95028036454E+03  0.79917287394E+02 0.  0.
         11    1    3    3    0    0  0.28199127553E+02  0.95423158818E+01 -0.19719242679E+02  0.35708474050E+02  0.00000000000E+00 0.  1.
        -11    1    3    3    0    0  0.14405756262E+02  0.21133568274E+03 -0.20792418544E+03  0.29682109680E+03  0.00000000000E+00 0. -1.
          4    1    6    6  502    0 -0.32258144087E+03 -0.23145809731E+03  0.76933323609E+03  0.86573972125E+03  0.00000000000E+00 0. -1.
          1    1    5    5  503    0  0.23336326291E+03  0.67219511020E+01  0.16818223533E+04  0.16979487698E+04  0.00000000000E+00 0. -1.
         -2    1    5    5    0  503  0.61565953951E+02  0.44957170258E+02  0.52550606230E+03  0.53100671875E+03  0.00000000000E+00 0.  1.
         -3    1    6    6    0  502 -0.14952659800E+02 -0.41099022675E+02  0.72349213318E+02  0.84540643289E+02  0.00000000000E+00 0.  1.
<mgrwt>
<rscale>  0 0.20910242E+04</rscale>
<asrwt>0</asrwt>
<pdfrwt beam="1">  1        2 0.48716405E+00 0.20910242E+04</pdfrwt>
<pdfrwt beam="2">  1       -2 0.53107540E-01 0.20910242E+04</pdfrwt>
<totfact> 0.42145934E+00</totfact>
</mgrwt>
</event>
<event>
12    1  0.1467288E-007  0.1874787E+04  0.7818608E-02  0.8667509E-01
         -2   -1    0    0    0  501 -0.00000000000E+00  0.00000000000E+00  0.61948073253E+03  0.61948073253E+03  0.00000000000E+00 0.  1.
          2   -1    0    0  501    0  0.00000000000E+00 -0.00000000000E+00 -0.14184572449E+04  0.14184572449E+04  0.00000000000E+00 0. -1.
         23    2    1    2    0    0 -0.44820744173E+03 -0.30648493911E+03 -0.85169545754E+03  0.10143174150E+04  0.92907143546E+02 0.  0.
        254    2    1    2    0    0  0.44820744173E+03  0.30648493911E+03  0.52718945214E+02  0.10236205624E+04  0.86613904183E+03 0.  0.
        -24    2    4    4    0    0  0.38465309545E+03 -0.62837244692E+02 -0.30378039619E+03  0.50037480463E+03  0.78650447171E+02 0.  0.
         24    2    4    4    0    0  0.63554346271E+02  0.36932218380E+03  0.35649934140E+03  0.52324575772E+03  0.79096853159E+02 0.  0.
         11    1    3    3    0    0 -0.12317530526E+03 -0.66481046726E+02 -0.15424302126E+03  0.20828536916E+03  0.00000000000E+00 0.  1.
        -11    1    3    3    0    0 -0.32503213647E+03 -0.24000389238E+03 -0.69745243628E+03  0.80603204587E+03  0.00000000000E+00 0. -1.
          4    1    6    6  502    0  0.54333714741E+02  0.10805321006E+03  0.99015443266E+02  0.15630645145E+03  0.00000000000E+00 0. -1.
          1    1    5    5  503    0  0.14639591520E+03 -0.75667410426E+01 -0.15850187345E+03  0.21589780788E+03  0.00000000000E+00 0. -1.
         -4    1    5    5    0  503  0.23825718025E+03 -0.55270503650E+02 -0.14527852273E+03  0.28447699676E+03  0.00000000000E+00 0.  1.
         -3    1    6    6    0  502  0.92206315307E+01  0.26126897374E+03  0.25748389813E+03  0.36693930627E+03  0.00000000000E+00 0.  1.
<mgrwt>
<rscale>  0 0.18747874E+04</rscale>
<asrwt>0</asrwt>
<pdfrwt beam="1">  1        2 0.21822419E+00 0.18747874E+04</pdfrwt>
<pdfrwt beam="2">  1       -2 0.95304729E-01 0.18747874E+04</pdfrwt>
<totfact> 0.12261671E+01</totfact>
</mgrwt>
</event>
<event>
12    1  0.1467288E-007  0.2727135E+04  0.7818608E-02  0.8326254E-01
          2   -1    0    0  501    0  0.00000000000E+00  0.00000000000E+00  0.36706395206E+04  0.36706395206E+04  0.00000000000E+00 0. -1.
         -2   -1    0    0    0  501 -0.00000000000E+00 -0.00000000000E+00 -0.50653754759E+03  0.50653754759E+03  0.00000000000E+00 0.  1.
         23    2    1    2    0    0 -0.53241145944E+03  0.57895950192E+03 -0.73134732872E+01  0.79228315127E+03  0.94884339512E+02 0.  0.
        254    2    1    2    0    0  0.53241145944E+03 -0.57895950192E+03  0.31714154463E+04  0.33848939169E+04  0.88372780244E+03 0.  0.
        -24    2    4    4    0    0  0.66466629608E+03 -0.69804602734E+03  0.23592033973E+04  0.25497816264E+04  0.80598578378E+02 0.  0.
         24    2    4    4    0    0 -0.13225483665E+03  0.11908652542E+03  0.81221204893E+03  0.83511229050E+03  0.77789349993E+02 0.  0.
         11    1    3    3    0    0 -0.97564642875E+02  0.12290377050E+03  0.34808158338E+02  0.16073519910E+03  0.00000000000E+00 0. -1.
        -11    1    3    3    0    0 -0.43484681656E+03  0.45605573142E+03 -0.42121631625E+02  0.63154795216E+03  0.00000000000E+00 0.  1.
          2    1    6    6  502    0 -0.35600759267E+02  0.46050210003E+02  0.43619502559E+03  0.44006151416E+03  0.00000000000E+00 0. -1.
          3    1    5    5  503    0  0.60832372609E+03 -0.62169456530E+03  0.20669101776E+04  0.22424717547E+04  0.00000000000E+00 0. -1.
         -4    1    5    5    0  503  0.56342569988E+02 -0.76351462035E+02  0.29229321975E+03  0.30730987172E+03  0.00000000000E+00 0.  1.
         -1    1    6    6    0  502 -0.96654077379E+02  0.73036315414E+02  0.37601702334E+03  0.39505077634E+03  0.00000000000E+00 0.  1.
<mgrwt>
<rscale>  0 0.27271353E+04</rscale>
<asrwt>0</asrwt>
<pdfrwt beam="1">  1        2 0.56471375E+00 0.27271353E+04</pdfrwt>
<pdfrwt beam="2">  1       -2 0.77928856E-01 0.27271353E+04</pdfrwt>
<totfact> 0.78766150E-01</totfact>
</mgrwt>
</event>
<event>
12    1  0.1467288E-007  0.2586691E+04  0.7818608E-02  0.8372736E-01
          1   -1    0    0  501    0  0.00000000000E+00  0.00000000000E+00  0.29001915395E+04  0.29001915395E+04  0.00000000000E+00 0. -1.
         -1   -1    0    0    0  501 -0.00000000000E+00 -0.00000000000E+00 -0.57676991044E+03  0.57676991044E+03  0.00000000000E+00 0.  1.
         23    2    1    2    0    0  0.57149430057E+03  0.67797840131E+03  0.79091599471E+02  0.89926962765E+03  0.12716105489E+03 0.  0.
        254    2    1    2    0    0 -0.57149430057E+03 -0.67797840131E+03  0.22443300295E+04  0.25776918223E+04  0.90621046162E+03 0.  0.
        -24    2    4    4    0    0  0.11558788923E+03 -0.18774752845E+03  0.12461037892E+04  0.12680424853E+04  0.80915984544E+02 0.  0.
         24    2    4    4    0    0 -0.68708218980E+03 -0.49023087287E+03  0.99822624039E+03  0.13096493370E+04  0.79482794201E+02 0.  0.
         13    1    3    3    0    0  0.46971964276E+03  0.47128484428E+03  0.59485849256E+02  0.66804529300E+03  0.00000000000E+00 0.  1.
        -13    1    3    3    0    0  0.10177465780E+03  0.20669355704E+03  0.19605750215E+02  0.23122433465E+03  0.00000000000E+00 0. -1.
          4    1    6    6  502    0 -0.41975271888E+02 -0.52470253102E+02  0.63200186239E+02  0.92245945446E+02  0.00000000000E+00 0. -1.
          1    1    5    5  503    0  0.25980546536E+02 -0.20597014445E+02  0.79706049157E+02  0.86326589615E+02  0.00000000000E+00 0. -1.
         -2    1    5    5    0  503  0.89607342699E+02 -0.16715051400E+03  0.11663977400E+04  0.11817158957E+04  0.00000000000E+00 0.  1.
         -3    1    6    6    0  502 -0.64510691791E+03 -0.43776061976E+03  0.93502605415E+03  0.12174033915E+04  0.00000000000E+00 0.  1.
<mgrwt>
<rscale>  0 0.25866915E+04</rscale>
<asrwt>0</asrwt>
<pdfrwt beam="1">  1        1 0.44618330E+00 0.25866915E+04</pdfrwt>
<pdfrwt beam="2">  1       -1 0.88733834E-01 0.25866915E+04</pdfrwt>
<totfact> 0.77589013E-01</totfact>
</mgrwt>
</event>
<event>
12    1  0.1467288E-007  0.1676987E+04  0.7818608E-02  0.8774599E-01
          2   -1    0    0  501    0  0.00000000000E+00  0.00000000000E+00  0.33076894799E+04  0.33076894799E+04  0.00000000000E+00 0. -1.
         -2   -1    0    0    0  501 -0.00000000000E+00 -0.00000000000E+00 -0.21255673713E+03  0.21255673713E+03  0.00000000000E+00 0.  1.
         23    2    1    2    0    0  0.66013592609E+02 -0.40065011177E+03  0.20389281242E+03  0.46487010207E+03  0.98252869562E+02 0.  0.
        254    2    1    2    0    0 -0.66013592609E+02  0.40065011177E+03  0.28912399304E+04  0.30553761150E+04  0.90065340866E+03 0.  0.
        -24    2    4    4    0    0 -0.47471089228E+03  0.21979557622E+03  0.17117616325E+04  0.17916254363E+04  0.78315330134E+02 0.  0.
         24    2    4    4    0    0  0.40869729967E+03  0.18085453555E+03  0.11794782979E+04  0.12637506787E+04  0.78453023572E+02 0.  0.
         13    1    3    3    0    0  0.80824173524E+02 -0.37699446887E+03  0.20551407606E+03  0.43691350637E+03  0.00000000000E+00 0.  1.
        -13    1    3    3    0    0 -0.14810580915E+02 -0.23655642895E+02 -0.16212636383E+01  0.27956595708E+02  0.00000000000E+00 0. -1.
          4    1    6    6  502    0  0.31327192105E+03  0.15743179924E+03  0.83724076617E+03  0.90768726358E+03  0.00000000000E+00 0. -1.
          1    1    5    5  503    0 -0.39220766741E+03  0.17680566457E+03  0.14966890642E+04  0.15572942087E+04  0.00000000000E+00 0. -1.
         -2    1    5    5    0  503 -0.82503224876E+02  0.42989911646E+02  0.21507256828E+03  0.23433122764E+03  0.00000000000E+00 0.  1.
         -3    1    6    6    0  502  0.95425378620E+02  0.23422736314E+02  0.34223753172E+03  0.35606341511E+03  0.00000000000E+00 0.  1.
<mgrwt>
<rscale>  0 0.16769874E+04</rscale>
<asrwt>0</asrwt>
<pdfrwt beam="1">  1        2 0.50887527E+00 0.16769874E+04</pdfrwt>
<pdfrwt beam="2">  1       -2 0.32701039E-01 0.16769874E+04</pdfrwt>
<totfact> 0.92235765E+00</totfact>
</mgrwt>
</event>
<event>
12    1  0.1467288E-007  0.1367856E+04  0.7818608E-02  0.8977420E-01
         -1   -1    0    0    0  501 -0.00000000000E+00  0.00000000000E+00  0.15799674136E+04  0.15799674136E+04  0.00000000000E+00 0.  1.
          1   -1    0    0  501    0  0.00000000000E+00 -0.00000000000E+00 -0.29605516316E+03  0.29605516316E+03  0.00000000000E+00 0. -1.
         23    2    1    2    0    0 -0.33763085077E+03  0.18419617254E+03  0.36111623753E+03  0.53516504616E+03  0.89854706406E+02 0.  0.
        254    2    1    2    0    0  0.33763085077E+03 -0.18419617254E+03  0.92279601291E+03  0.13408575306E+04  0.89354553019E+03 0.  0.
        -24    2    4    4    0    0  0.52824004725E+03 -0.24774230724E+02  0.19775951443E+03  0.57027684912E+03  0.80346431554E+02 0.  0.
         24    2    4    4    0    0 -0.19060919649E+03 -0.15942194181E+03  0.72503649847E+03  0.77058068146E+03  0.79808779016E+02 0.  0.
         13    1    3    3    0    0 -0.12316590004E+02 -0.67221392711E+01  0.16765413880E+01  0.14131395427E+02  0.00000000000E+00 0. -1.
        -13    1    3    3    0    0 -0.32531426076E+03  0.19091831181E+03  0.35943969614E+03  0.52103365074E+03  0.00000000000E+00 0.  1.
          2    1    6    6  502    0 -0.11438964129E+03 -0.91127010417E+02  0.30493075269E+03  0.33818912756E+03  0.00000000000E+00 0. -1.
          1    1    5    5  503    0  0.30344440220E+03 -0.35080412577E+02  0.14967846591E+03  0.34016581799E+03  0.00000000000E+00 0. -1.
         -2    1    5    5    0  503  0.22479564506E+03  0.10306181852E+02  0.48081048519E+02  0.23011103113E+03  0.00000000000E+00 0.  1.
         -1    1    6    6    0  502 -0.76219555200E+02 -0.68294931394E+02  0.42010574578E+03  0.43239155391E+03  0.00000000000E+00 0.  1.
<mgrwt>
<rscale>  0 0.13678560E+04</rscale>
<asrwt>0</asrwt>
<pdfrwt beam="1">  1        1 0.45546949E-01 0.13678560E+04</pdfrwt>
<pdfrwt beam="2">  1       -1 0.24307191E+00 0.13678560E+04</pdfrwt>
<totfact> 0.67546626E+00</totfact>
</mgrwt>
</event>
<event>
12    1  0.1467288E-007  0.1873740E+04  0.7818608E-02  0.8668039E-01
          1   -1    0    0  501    0  0.00000000000E+00  0.00000000000E+00  0.61963759838E+03  0.61963759838E+03  0.00000000000E+00 0. -1.
         -1   -1    0    0    0  501 -0.00000000000E+00 -0.00000000000E+00 -0.14165139560E+04  0.14165139560E+04  0.00000000000E+00 0.  1.
         23    2    1    2    0    0 -0.44467421907E+03  0.26632847046E+03 -0.83505047223E+03  0.98699796028E+03  0.90496779760E+02 0.  0.
        254    2    1    2    0    0  0.44467421907E+03 -0.26632847046E+03  0.38174114595E+02  0.10491535941E+04  0.91137258337E+03 0.  0.
        -24    2    4    4    0    0  0.48777081089E+03  0.11599449081E+02 -0.31729134272E+03  0.58819417315E+03  0.85109799638E+02 0.  0.
         24    2    4    4    0    0 -0.43096591812E+02 -0.27792791954E+03  0.35546545732E+03  0.46095942095E+03  0.83825125906E+02 0.  0.
         13    1    3    3    0    0 -0.41265866164E+03  0.26972653323E+03 -0.76791880465E+03  0.91254526698E+03  0.00000000000E+00 0. -1.
        -13    1    3    3    0    0 -0.32015557439E+02 -0.33980627622E+01 -0.67131667579E+02  0.74452693306E+02  0.00000000000E+00 0.  1.
          2    1    6    6  502    0 -0.46024025309E+02 -0.27586720245E+03  0.35955617135E+03  0.45552339638E+03  0.00000000000E+00 0. -1.
          1    1    5    5  503    0  0.23581248253E+03 -0.31084948531E+02 -0.17855208549E+03  0.29741326159E+03  0.00000000000E+00 0. -1.
         -2    1    5    5    0  503  0.25195832836E+03  0.42684397612E+02 -0.13873925724E+03  0.29078091156E+03  0.00000000000E+00 0.  1.
         -1    1    6    6    0  502  0.29274334970E+01 -0.20607170902E+01 -0.40907140360E+01  0.54360245703E+01  0.00000000000E+00 0.  1.
<mgrwt>
<rscale>  0 0.18737399E+04</rscale>
<asrwt>0</asrwt>
<pdfrwt beam="1">  1        1 0.95328862E-01 0.18737399E+04</pdfrwt>
<pdfrwt beam="2">  1       -1 0.21792522E+00 0.18737399E+04</pdfrwt>
<totfact> 0.34818187E+00</totfact>
</mgrwt>
</event>
<event>
12    1  0.1467288E-007  0.1887463E+04  0.7818608E-02  0.8661122E-01
         -2   -1    0    0    0  501 -0.00000000000E+00  0.00000000000E+00  0.32442698281E+03  0.32442698281E+03  0.00000000000E+00 0.  1.
          2   -1    0    0  501    0  0.00000000000E+00 -0.00000000000E+00 -0.27452382492E+04  0.27452382492E+04  0.00000000000E+00 0. -1.
         23    2    1    2    0    0 -0.46061514735E+03  0.55511527599E+03 -0.82190770372E+03  0.10972739466E+04  0.90324730066E+02 0.  0.
        254    2    1    2    0    0  0.46061514735E+03 -0.55511527599E+03 -0.15989035627E+04  0.19723912854E+04  0.90195093902E+03 0.  0.
        -24    2    4    4    0    0 -0.22280085021E+02 -0.57368835739E+03 -0.48676510260E+03  0.75711879917E+03  0.81693802410E+02 0.  0.
         24    2    4    4    0    0  0.48289523237E+03  0.18573081405E+02 -0.11121384601E+04  0.12152724862E+04  0.80638059357E+02 0.  0.
         13    1    3    3    0    0 -0.17235115046E+03  0.18473491682E+03 -0.22812020369E+03  0.34039790817E+03  0.00000000000E+00 0.  1.
        -13    1    3    3    0    0 -0.28826399689E+03  0.37038035917E+03 -0.59378750003E+03  0.75687603843E+03  0.00000000000E+00 0. -1.
          4    1    6    6  502    0  0.15439701781E+03  0.41473595088E+02 -0.39599062581E+03  0.42704458073E+03  0.00000000000E+00 0. -1.
          3    1    5    5  503    0 -0.62712673169E+01 -0.26953795175E+03 -0.28180469786E+03  0.39000503069E+03  0.00000000000E+00 0. -1.
         -4    1    5    5    0  503 -0.16008817704E+02 -0.30415040564E+03 -0.20496040474E+03  0.36711376848E+03  0.00000000000E+00 0.  1.
         -3    1    6    6    0  502  0.32849821456E+03 -0.22900513683E+02 -0.71614783428E+03  0.78822790552E+03  0.00000000000E+00 0.  1.
<mgrwt>
<rscale>  0 0.18874632E+04</rscale>
<asrwt>0</asrwt>
<pdfrwt beam="1">  1        2 0.42234435E+00 0.18874632E+04</pdfrwt>
<pdfrwt beam="2">  1       -2 0.49911843E-01 0.18874632E+04</pdfrwt>
<totfact> 0.88999769E+00</totfact>
</mgrwt>
</event>
<event>
12    1  0.1467288E-007  0.2106814E+04  0.7818608E-02  0.8558248E-01
          1   -1    0    0  501    0  0.00000000000E+00  0.00000000000E+00  0.19324863654E+04  0.19324863654E+04  0.00000000000E+00 0. -1.
         -1   -1    0    0    0  501 -0.00000000000E+00 -0.00000000000E+00 -0.57421689860E+03  0.57421689860E+03  0.00000000000E+00 0.  1.
         23    2    1    2    0    0 -0.60625284546E+03  0.11361190169E+03 -0.16014157580E+03  0.64398956970E+03  0.92881993675E+02 0.  0.
        254    2    1    2    0    0  0.60625284546E+03 -0.11361190169E+03  0.15184110426E+04  0.18627136943E+04  0.88525704505E+03 0.  0.
        -24    2    4    4    0    0  0.79958680336E+03 -0.13545484114E+03  0.14032529133E+04  0.16227025558E+04  0.79735661640E+02 0.  0.
         24    2    4    4    0    0 -0.19333395790E+03  0.21842939448E+02  0.11515812927E+03  0.24001113850E+03  0.80553203466E+02 0.  0.
         13    1    3    3    0    0 -0.26747329680E+03  0.72094438003E+02 -0.29730644359E+02  0.27860991315E+03  0.00000000000E+00 0. -1.
        -13    1    3    3    0    0 -0.33877954866E+03  0.41517463692E+02 -0.13041093144E+03  0.36537965655E+03  0.00000000000E+00 0.  1.
          4    1    6    6  502    0 -0.13583407889E+03  0.45484018311E+02  0.10357878888E+03  0.17677176928E+03  0.00000000000E+00 0. -1.
          1    1    5    5  503    0  0.17039959748E+03 -0.59824554416E+02  0.28639367349E+03  0.33857988178E+03  0.00000000000E+00 0. -1.
         -2    1    5    5    0  503  0.62918720588E+03 -0.75630286726E+02  0.11168592398E+04  0.12841226740E+04  0.00000000000E+00 0.  1.
         -3    1    6    6    0  502 -0.57499879005E+02 -0.23641078863E+02  0.11579340394E+02  0.63239369220E+02  0.00000000000E+00 0.  1.
<mgrwt>
<rscale>  0 0.21068140E+04</rscale>
<asrwt>0</asrwt>
<pdfrwt beam="1">  1        1 0.29730559E+00 0.21068140E+04</pdfrwt>
<pdfrwt beam="2">  1       -1 0.88341062E-01 0.21068140E+04</pdfrwt>
<totfact> 0.38301395E+00</totfact>
</mgrwt>
</event>
<event>
12    1  0.2973331E-007  0.1833603E+04  0.7818608E-02  0.8688631E-01
          1   -1    0    0  501    0  0.00000000000E+00  0.00000000000E+00  0.99927282336E+03  0.99927282336E+03  0.00000000000E+00 0. -1.
         -1   -1    0    0    0  501 -0.00000000000E+00 -0.00000000000E+00 -0.84113668287E+03  0.84113668287E+03  0.00000000000E+00 0.  1.
         23    2    1    2    0    0  0.13725591151E+03 -0.78001171744E+02  0.73516330293E+03  0.75758909026E+03  0.92481239563E+02 0.  0.
        254    2    1    2    0    0 -0.13725591151E+03  0.78001171744E+02 -0.57702716243E+03  0.10828204160E+04  0.90256098909E+03 0.  0.
        -24    2    4    4    0    0 -0.35867539600E+03  0.25428109538E+02 -0.71490366956E+03  0.80424998722E+03  0.80225661456E+02 0.  0.
         24    2    4    4    0    0  0.22141948448E+03  0.52573062206E+02  0.13787650713E+03  0.27857042875E+03  0.82468403508E+02 0.  0.
         11    1    3    3    0    0  0.48148642920E+02 -0.67967286161E+02  0.47891488200E+03  0.48610421517E+03  0.00000000000E+00 0. -1.
        -11    1    3    3    0    0  0.89107268591E+02 -0.10033885583E+02  0.25624842093E+03  0.27148487509E+03  0.00000000000E+00 0.  1.
          4    1    6    6  502    0  0.24082348754E+01  0.17456146484E+01 -0.93577578428E+01  0.98190833360E+01  0.00000000000E+00 0. -1.
          1    1    5    5  503    0 -0.30205232193E+02  0.21562094706E+01 -0.23145715591E+02  0.38114688000E+02  0.00000000000E+00 0. -1.
         -2    1    5    5    0  503 -0.32847016380E+03  0.23271900067E+02 -0.69175795397E+03  0.76613529922E+03  0.00000000000E+00 0.  1.
         -3    1    6    6    0  502  0.21901124961E+03  0.50827447558E+02  0.14723426497E+03  0.26875134541E+03  0.00000000000E+00 0.  1.
<mgrwt>
<rscale>  0 0.18336030E+04</rscale>
<asrwt>0</asrwt>
<pdfrwt beam="1">  1        1 0.15373428E+00 0.18336030E+04</pdfrwt>
<pdfrwt beam="2">  1       -1 0.12940564E+00 0.18336030E+04</pdfrwt>
<totfact> 0.73149241E+00</totfact>
</mgrwt>
</event>
<event>
12    1  0.1467288E-007  0.1637132E+04  0.7818608E-02  0.8798056E-01
         -1   -1    0    0    0  501 -0.00000000000E+00  0.00000000000E+00  0.11678899635E+04  0.11678899635E+04  0.00000000000E+00 0.  1.
          1   -1    0    0  501    0  0.00000000000E+00 -0.00000000000E+00 -0.57372715076E+03  0.57372715076E+03  0.00000000000E+00 0. -1.
         23    2    1    2    0    0 -0.98103820269E+02  0.29282965254E+03  0.69455134999E+03  0.76553462761E+03  0.90929221627E+02 0.  0.
        254    2    1    2    0    0  0.98103820269E+02 -0.29282965254E+03 -0.10038853720E+03  0.97608248670E+03  0.92048117715E+03 0.  0.
        -24    2    4    4    0    0  0.86003912800E+02  0.30206562200E+03  0.10739318423E+03  0.34062277268E+03  0.76487020074E+02 0.  0.
         24    2    4    4    0    0  0.12099907469E+02 -0.59489527454E+03 -0.20778172144E+03  0.63545971402E+03  0.81172710594E+02 0.  0.
         11    1    3    3    0    0 -0.83681693827E+02  0.28540151477E+03  0.68482325869E+03  0.74661874217E+03  0.00000000000E+00 0.  1.
        -11    1    3    3    0    0 -0.14422126442E+02  0.74281377777E+01  0.97280912992E+01  0.18915885448E+02  0.00000000000E+00 0. -1.
          4    1    6    6  502    0 -0.18825159043E+02 -0.43640556144E+03 -0.17570892849E+03  0.47082674969E+03  0.00000000000E+00 0. -1.
          3    1    5    5  503    0  0.80994732583E+02  0.15946299979E+03  0.77036365459E+02  0.19473879072E+03  0.00000000000E+00 0. -1.
         -4    1    5    5    0  503  0.50091802168E+01  0.14260262220E+03  0.30356818776E+02  0.14588398196E+03  0.00000000000E+00 0.  1.
         -3    1    6    6    0  502  0.30925066512E+02 -0.15848971310E+03 -0.32072792949E+02  0.16463296433E+03  0.00000000000E+00 0.  1.
<mgrwt>
<rscale>  0 0.16371319E+04</rscale>
<asrwt>0</asrwt>
<pdfrwt beam="1">  1        1 0.88265716E-01 0.16371319E+04</pdfrwt>
<pdfrwt beam="2">  1       -1 0.17967538E+00 0.16371319E+04</pdfrwt>
<totfact> 0.73102824E+00</totfact>
</mgrwt>
</event>
<event>
12    1  0.1467288E-007  0.1066321E+04  0.7818608E-02  0.9238654E-01
         -1   -1    0    0    0  501 -0.00000000000E+00  0.00000000000E+00  0.45104586464E+03  0.45104586464E+03  0.00000000000E+00 0.  1.
          1   -1    0    0  501    0  0.00000000000E+00 -0.00000000000E+00 -0.63022411777E+03  0.63022411777E+03  0.00000000000E+00 0. -1.
         23    2    1    2    0    0  0.69288405708E+02  0.53485637019E+02 -0.13192098488E+03  0.17603690192E+03  0.76969137002E+02 0.  0.
        254    2    1    2    0    0 -0.69288405708E+02 -0.53485637019E+02 -0.47257268242E+02  0.90523308049E+03  0.89975112341E+03 0.  0.
        -24    2    4    4    0    0 -0.12247646447E+03 -0.24798435760E+03 -0.39831475085E+03  0.49055467993E+03  0.74111586745E+02 0.  0.
         24    2    4    4    0    0  0.53188058760E+02  0.19449872059E+03  0.35105748261E+03  0.41467840056E+03  0.89766908689E+02 0.  0.
         11    1    3    3    0    0  0.84112231692E+01 -0.19023403049E+02 -0.15286530281E+02  0.25813108042E+02  0.00000000000E+00 0.  1.
        -11    1    3    3    0    0  0.60877182539E+02  0.72509040068E+02 -0.11663445460E+03  0.15022379387E+03  0.00000000000E+00 0. -1.
          4    1    6    6  502    0 -0.42499510657E+01  0.10843278604E+03  0.12165800195E+03  0.16302269968E+03  0.00000000000E+00 0. -1.
          1    1    5    5  503    0 -0.11503365880E+03 -0.23484936771E+03 -0.39701345897E+03  0.47540157212E+03  0.00000000000E+00 0. -1.
         -2    1    5    5    0  503 -0.74428056724E+01 -0.13134989894E+02 -0.13012918827E+01  0.15153107812E+02  0.00000000000E+00 0.  1.
         -3    1    6    6    0  502  0.57438009826E+02  0.86065934546E+02  0.22939948065E+03  0.25165570088E+03  0.00000000000E+00 0.  1.
<mgrwt>
<rscale>  0 0.10663207E+04</rscale>
<asrwt>0</asrwt>
<pdfrwt beam="1">  1        1 0.96957556E-01 0.10663207E+04</pdfrwt>
<pdfrwt beam="2">  1       -1 0.69391672E-01 0.10663207E+04</pdfrwt>
<totfact> 0.66898485E+01</totfact>
</mgrwt>
</event>
<event>
12    1  0.1467288E-007  0.2081828E+04  0.7818608E-02  0.8569291E-01
          1   -1    0    0  501    0  0.00000000000E+00  0.00000000000E+00  0.19148684104E+04  0.19148684104E+04  0.00000000000E+00 0. -1.
         -1   -1    0    0    0  501 -0.00000000000E+00 -0.00000000000E+00 -0.56583648006E+03  0.56583648006E+03  0.00000000000E+00 0.  1.
         23    2    1    2    0    0 -0.24592850387E+03  0.30510660026E+03  0.14409023814E+04  0.14959237457E+04  0.89539452670E+02 0.  0.
        254    2    1    2    0    0  0.24592850387E+03 -0.30510660026E+03 -0.91870451044E+02  0.98478114481E+03  0.89876740977E+03 0.  0.
        -24    2    4    4    0    0  0.27344990585E+03 -0.44221132922E+03 -0.38393525263E+03  0.65126096668E+03  0.80055342076E+02 0.  0.
         24    2    4    4    0    0 -0.27521401981E+02  0.13710472896E+03  0.29206480159E+03  0.33352017813E+03  0.79866930732E+02 0.  0.
         13    1    3    3    0    0 -0.19102900153E+02  0.35582169365E+02  0.73389893879E+02  0.83768061303E+02  0.00000000000E+00 0.  1.
        -13    1    3    3    0    0 -0.22682560372E+03  0.26952443090E+03  0.13675124875E+04  0.14121556844E+04  0.00000000000E+00 0. -1.
          4    1    6    6  502    0  0.69838070638E+01  0.90565887647E+02  0.23609192875E+03  0.25296314432E+03  0.00000000000E+00 0. -1.
          1    1    5    5  503    0  0.10654391034E+03 -0.14990743757E+03 -0.18195600014E+03  0.25871186803E+03  0.00000000000E+00 0. -1.
         -2    1    5    5    0  503  0.16690599551E+03 -0.29230389165E+03 -0.20197925249E+03  0.39254909865E+03  0.00000000000E+00 0.  1.
         -3    1    6    6    0  502 -0.34505209045E+02  0.46538841315E+02  0.55972872841E+02  0.80557033810E+02  0.00000000000E+00 0.  1.
<mgrwt>
<rscale>  0 0.20818284E+04</rscale>
<asrwt>0</asrwt>
<pdfrwt beam="1">  1        1 0.29459514E+00 0.20818284E+04</pdfrwt>
<pdfrwt beam="2">  1       -1 0.87051767E-01 0.20818284E+04</pdfrwt>
<totfact> 0.40748814E+00</totfact>
</mgrwt>
</event>
<event>
12    1  0.1467288E-007  0.1096971E+04  0.7818608E-02  0.9208149E-01
         -2   -1    0    0    0  501 -0.00000000000E+00  0.00000000000E+00  0.88906041957E+03  0.88906041957E+03  0.00000000000E+00 0.  1.
          2   -1    0    0  501    0  0.00000000000E+00 -0.00000000000E+00 -0.33837584079E+03  0.33837584079E+03  0.00000000000E+00 0. -1.
         23    2    1    2    0    0  0.50443973339E+02  0.15844927278E+03  0.14201625273E+03  0.23661787887E+03  0.90380518197E+02 0.  0.
        254    2    1    2    0    0 -0.50443973339E+02 -0.15844927278E+03  0.40866832604E+03  0.99081838149E+03  0.88716430153E+03 0.  0.
        -24    2    4    4    0    0  0.23154242306E+03 -0.30701877895E+03 -0.81167802899E+02  0.40115332810E+03  0.80395000534E+02 0.  0.
         24    2    4    4    0    0 -0.28198639640E+03  0.14856950617E+03  0.48983612894E+03  0.58966505339E+03  0.78588905439E+02 0.  0.
         13    1    3    3    0    0  0.49246573476E+02  0.17032304093E+03  0.13207941237E+03  0.22108852173E+03  0.00000000000E+00 0. -1.
        -13    1    3    3    0    0  0.11973998635E+01 -0.11873768152E+02  0.99368403641E+01  0.15529357134E+02  0.00000000000E+00 0.  1.
          2    1    6    6  502    0 -0.74875042204E+01  0.26370404893E+02  0.49453755198E+02  0.56543212474E+02  0.00000000000E+00 0. -1.
          1    1    5    5  503    0  0.45075894723E+01 -0.19707772539E+02  0.11721813788E+02  0.23369115939E+02  0.00000000000E+00 0. -1.
         -2    1    5    5    0  503  0.22703483359E+03 -0.28731100641E+03 -0.92889616686E+02  0.37778421216E+03  0.00000000000E+00 0.  1.
         -3    1    6    6    0  502 -0.27449889218E+03  0.12219910128E+03  0.44038237374E+03  0.53312184092E+03  0.00000000000E+00 0.  1.
<mgrwt>
<rscale>  0 0.10969714E+04</rscale>
<asrwt>0</asrwt>
<pdfrwt beam="1">  1        2 0.52057822E-01 0.10969714E+04</pdfrwt>
<pdfrwt beam="2">  1       -2 0.13677853E+00 0.10969714E+04</pdfrwt>
<totfact> 0.36327545E+01</totfact>
</mgrwt>
</event>
<event>
12    1  0.1467288E-007  0.2775004E+04  0.7818608E-02  0.8311071E-01
         -1   -1    0    0    0  501 -0.00000000000E+00  0.00000000000E+00  0.10472747224E+04  0.10472747224E+04  0.00000000000E+00 0.  1.
          1   -1    0    0  501    0  0.00000000000E+00 -0.00000000000E+00 -0.18382587286E+04  0.18382587286E+04  0.00000000000E+00 0. -1.
         23    2    1    2    0    0 -0.14930436197E+03 -0.12267533547E+04 -0.26249755074E+03  0.12666508111E+04  0.91014984103E+02 0.  0.
        254    2    1    2    0    0  0.14930436197E+03  0.12267533547E+04 -0.52848645549E+03  0.16188826400E+04  0.90236770922E+03 0.  0.
        -24    2    4    4    0    0 -0.14828426629E+02  0.48290377491E+03 -0.68048863079E+03  0.83860413878E+03  0.82317597684E+02 0.  0.
         24    2    4    4    0    0  0.16413278860E+03  0.74384957978E+03  0.15200217530E+03  0.78027850120E+03  0.74014245242E+02 0.  0.
         13    1    3    3    0    0 -0.15744339604E+02 -0.45167317359E+03 -0.11635361753E+03  0.46668480186E+03  0.00000000000E+00 0. -1.
        -13    1    3    3    0    0 -0.13356002237E+03 -0.77508018110E+03 -0.14614393321E+03  0.79996600923E+03  0.00000000000E+00 0.  1.
          2    1    6    6  502    0  0.54231084718E+01  0.83021031259E+01 -0.57250022329E+01  0.11450356867E+02  0.00000000000E+00 0. -1.
          3    1    5    5  503    0 -0.31841921152E+02  0.70705221283E+02 -0.10782221328E+03  0.13281101587E+03  0.00000000000E+00 0. -1.
         -4    1    5    5    0  503  0.17013494523E+02  0.41219855362E+03 -0.57266641750E+03  0.70579312291E+03  0.00000000000E+00 0.  1.
         -1    1    6    6    0  502  0.15870968013E+03  0.73554747666E+03  0.15772717753E+03  0.76882814433E+03  0.00000000000E+00 0.  1.
<mgrwt>
<rscale>  0 0.27750041E+04</rscale>
<asrwt>0</asrwt>
<pdfrwt beam="1">  1        1 0.28280903E+00 0.27750041E+04</pdfrwt>
<pdfrwt beam="2">  1       -1 0.16111919E+00 0.27750041E+04</pdfrwt>
<totfact> 0.95408030E-01</totfact>
</mgrwt>
</event>
<event>
12    1  0.1467288E-007  0.1385530E+04  0.7818608E-02  0.8964360E-01
          1   -1    0    0  501    0  0.00000000000E+00  0.00000000000E+00  0.12823372638E+04  0.12823372638E+04  0.00000000000E+00 0. -1.
         -1   -1    0    0    0  501 -0.00000000000E+00 -0.00000000000E+00 -0.37425657179E+03  0.37425657179E+03  0.00000000000E+00 0.  1.
         23    2    1    2    0    0 -0.17801697973E+03  0.10687213940E+03 -0.18036514483E+03  0.28881374019E+03  0.88148124188E+02 0.  0.
        254    2    1    2    0    0  0.17801697973E+03 -0.10687213940E+03  0.10884458368E+04  0.13677800954E+04  0.80187053219E+03 0.  0.
        -24    2    4    4    0    0  0.44298134446E+03 -0.24037337943E+03  0.77723808291E+03  0.92967156969E+03  0.78602524741E+02 0.  0.
         24    2    4    4    0    0 -0.26496436472E+03  0.13350124003E+03  0.31120775392E+03  0.43810852571E+03  0.84024511498E+02 0.  0.
         11    1    3    3    0    0 -0.12203051744E+02  0.32596308113E+02 -0.30482381583E+01  0.34938882786E+02  0.00000000000E+00 0. -1.
        -11    1    3    3    0    0 -0.16581392799E+03  0.74275831286E+02 -0.17731690667E+03  0.25387485740E+03  0.00000000000E+00 0.  1.
          4    1    6    6  502    0 -0.11736588559E+03  0.16047865924E+02  0.13974650406E+03  0.18319762689E+03  0.00000000000E+00 0. -1.
          1    1    5    5  503    0  0.41896867211E+03 -0.20381780224E+03  0.69919166782E+03  0.84020558977E+03  0.00000000000E+00 0. -1.
         -2    1    5    5    0  503  0.24012672349E+02 -0.36555577183E+02  0.78046415086E+02  0.89465979926E+02  0.00000000000E+00 0.  1.
         -3    1    6    6    0  502 -0.14759847913E+03  0.11745337410E+03  0.17146124986E+03  0.25491089881E+03  0.00000000000E+00 0.  1.
<mgrwt>
<rscale>  0 0.13855297E+04</rscale>
<asrwt>0</asrwt>
<pdfrwt beam="1">  1        1 0.19728265E+00 0.13855297E+04</pdfrwt>
<pdfrwt beam="2">  1       -1 0.57577935E-01 0.13855297E+04</pdfrwt>
<totfact> 0.27772657E+01</totfact>
</mgrwt>
</event>
<event>
12    1  0.1467288E-007  0.1035501E+04  0.7818608E-02  0.9270443E-01
          1   -1    0    0  501    0  0.00000000000E+00  0.00000000000E+00  0.10069377955E+04  0.10069377955E+04  0.00000000000E+00 0.  1.
         -1   -1    0    0    0  501 -0.00000000000E+00 -0.00000000000E+00 -0.26621859583E+03  0.26621859583E+03  0.00000000000E+00 0. -1.
         23    2    1    2    0    0  0.75807573704E+02  0.11005449078E+02  0.12996428692E+03  0.17737262473E+03  0.93286783568E+02 0.  0.
        254    2    1    2    0    0 -0.75807573704E+02 -0.11005449078E+02  0.61075491278E+03  0.10957837666E+04  0.90656085928E+03 0.  0.
        -24    2    4    4    0    0 -0.30883254846E+03  0.24946853388E+03  0.20937059006E+02  0.40555412781E+03  0.80147974118E+02 0.  0.
         24    2    4    4    0    0  0.23302497475E+03 -0.26047398296E+03  0.58981785377E+03  0.69022963883E+03  0.79903185314E+02 0.  0.
         11    1    3    3    0    0  0.60178795464E+02 -0.29701952265E+02  0.41931363542E+02  0.79132374161E+02  0.00000000000E+00 0. -1.
        -11    1    3    3    0    0  0.15628778240E+02  0.40707401343E+02  0.88032923374E+02  0.98240250565E+02  0.00000000000E+00 0.  1.
          2    1    6    6  502    0  0.10757706446E+03 -0.16104959476E+03  0.37804040221E+03  0.42476386672E+03  0.00000000000E+00 0. -1.
          1    1    5    5  503    0 -0.28484482761E+02  0.38295366461E+02  0.26372403357E+02  0.54528932773E+02  0.00000000000E+00 0. -1.
         -2    1    5    5    0  503 -0.28034806570E+03  0.21117316742E+03 -0.54353443516E+01  0.35102519503E+03  0.00000000000E+00 0.  1.
         -1    1    6    6    0  502  0.12544791030E+03 -0.99424388200E+02  0.21177745156E+03  0.26546577210E+03  0.00000000000E+00 0.  1.
<mgrwt>
<rscale>  0 0.10355010E+04</rscale>
<asrwt>0</asrwt>
<pdfrwt beam="1">  1        1 0.15491350E+00 0.10355010E+04</pdfrwt>
<pdfrwt beam="2">  1       -1 0.40956708E-01 0.10355010E+04</pdfrwt>
<totfact> 0.87122608E+01</totfact>
</mgrwt>
</event>
<event>
12    1  0.1467288E-007  0.2419680E+04  0.7818608E-02  0.8432172E-01
         -2   -1    0    0    0  501 -0.00000000000E+00  0.00000000000E+00  0.17144955492E+04  0.17144955492E+04  0.00000000000E+00 0.  1.
          2   -1    0    0  501    0  0.00000000000E+00 -0.00000000000E+00 -0.85372830061E+03  0.85372830061E+03  0.00000000000E+00 0. -1.
         23    2    1    2    0    0  0.20098644170E+03 -0.97954019089E+03  0.69691490425E+03  0.12219304842E+04  0.86770899775E+02 0.  0.
        254    2    1    2    0    0 -0.20098644170E+03  0.97954019089E+03  0.16385234435E+03  0.13462933656E+04  0.88643313359E+03 0.  0.
        -24    2    4    4    0    0  0.25570003349E+03  0.24850247649E+03 -0.18904330699E+03  0.41147675888E+03  0.80248135343E+02 0.  0.
         24    2    4    4    0    0 -0.45668647519E+03  0.73103771440E+03  0.35289565134E+03  0.93481660677E+03  0.79800194591E+02 0.  0.
         11    1    3    3    0    0  0.47984558155E+01 -0.90735404219E-01  0.32262338212E+01  0.57829054805E+01  0.00000000000E+00 0. -1.
        -11    1    3    3    0    0  0.19618798588E+03 -0.97944945549E+03  0.69368867043E+03  0.12161475787E+04  0.00000000000E+00 0.  1.
          4    1    6    6  502    0 -0.35793132903E+03  0.52734685177E+03  0.23254629094E+03  0.67844477727E+03  0.00000000000E+00 0. -1.
          1    1    5    5  503    0  0.24823714216E+03  0.22746871997E+03 -0.15473785610E+03  0.37055026841E+03  0.00000000000E+00 0. -1.
         -4    1    5    5    0  503  0.74628913369E+01  0.21033756522E+02 -0.34305450898E+02  0.40926490466E+02  0.00000000000E+00 0.  1.
         -3    1    6    6    0  502 -0.98755146165E+02  0.20369086263E+03  0.12034936040E+03  0.25637182950E+03  0.00000000000E+00 0.  1.
<mgrwt>
<rscale>  0 0.24196805E+04</rscale>
<asrwt>0</asrwt>
<pdfrwt beam="1">  1        2 0.13134282E+00 0.24196805E+04</pdfrwt>
<pdfrwt beam="2">  1       -2 0.26376854E+00 0.24196805E+04</pdfrwt>
<totfact> 0.14984989E+00</totfact>
</mgrwt>
</event>
<event>
12    1  0.1467288E-007  0.1366782E+04  0.7818608E-02  0.8978221E-01
          1   -1    0    0  501    0  0.00000000000E+00  0.00000000000E+00  0.32017033790E+03  0.32017033790E+03  0.00000000000E+00 0. -1.
         -1   -1    0    0    0  501 -0.00000000000E+00 -0.00000000000E+00 -0.14586710551E+04  0.14586710551E+04  0.00000000000E+00 0.  1.
         23    2    1    2    0    0  0.86346610778E+02  0.16837747689E+03  0.97241943783E+02  0.23914457313E+03  0.10921272502E+03 0.  0.
        254    2    1    2    0    0 -0.86346610778E+02 -0.16837747689E+03 -0.12357426610E+04  0.15396968198E+04  0.89877675816E+03 0.  0.
        -24    2    4    4    0    0  0.11877063939E+03  0.31531228202E+03 -0.27756956056E+03  0.44397169759E+03  0.80856090335E+02 0.  0.
         24    2    4    4    0    0 -0.20511725017E+03 -0.48368975891E+03 -0.95817310040E+03  0.10957251223E+04  0.80554230171E+02 0.  0.
         11    1    3    3    0    0  0.86486510871E+02  0.18289604676E+03  0.97589883698E+02  0.22462116081E+03  0.00000000000E+00 0. -1.
        -11    1    3    3    0    0 -0.13990009295E+00 -0.14518569869E+02 -0.34793991481E+00  0.14523412315E+02  0.00000000000E+00 0.  1.
          4    1    6    6  502    0 -0.11970634997E+03 -0.36616091861E+03 -0.66488281083E+03  0.76842213703E+03  0.00000000000E+00 0. -1.
          1    1    5    5  503    0  0.12343702787E+03  0.28881196130E+03 -0.22990674564E+03  0.38923792278E+03  0.00000000000E+00 0. -1.
         -2    1    5    5    0  503 -0.46663884818E+01  0.26500320718E+02 -0.47662814914E+02  0.54733774811E+02  0.00000000000E+00 0.  1.
         -3    1    6    6    0  502 -0.85410900197E+02 -0.11752884030E+03 -0.29329028957E+03  0.32730298522E+03  0.00000000000E+00 0.  1.
<mgrwt>
<rscale>  0 0.13667819E+04</rscale>
<asrwt>0</asrwt>
<pdfrwt beam="1">  1        1 0.49256976E-01 0.13667819E+04</pdfrwt>
<pdfrwt beam="2">  1       -1 0.22441093E+00 0.13667819E+04</pdfrwt>
<totfact> 0.80963531E+00</totfact>
</mgrwt>
</event>
<event>
12    1  0.1467288E-007  0.2851465E+04  0.7818608E-02  0.8287466E-01
         -1   -1    0    0    0  501 -0.00000000000E+00  0.00000000000E+00  0.18033607475E+04  0.18033607475E+04  0.00000000000E+00 0.  1.
          1   -1    0    0  501    0  0.00000000000E+00 -0.00000000000E+00 -0.11271802681E+04  0.11271802681E+04  0.00000000000E+00 0. -1.
         23    2    1    2    0    0 -0.10241078674E+04 -0.14297244499E+03 -0.47018487584E+03  0.11396153981E+04  0.91713651735E+02 0.  0.
        254    2    1    2    0    0  0.10241078674E+04  0.14297244499E+03  0.11463653553E+04  0.17909256175E+04  0.90775712355E+03 0.  0.
        -24    2    4    4    0    0  0.90369297858E+03 -0.21644556939E+03  0.55906159042E+03  0.10874792939E+04  0.80942379771E+02 0.  0.
         24    2    4    4    0    0  0.12041488886E+03  0.35941801438E+03  0.58730376491E+03  0.70344632355E+03  0.78930116710E+02 0.  0.
         11    1    3    3    0    0 -0.89535119320E+03 -0.93756977064E+02 -0.40603787441E+03  0.98757829329E+03  0.00000000000E+00 0. -1.
        -11    1    3    3    0    0 -0.12875667423E+03 -0.49215467928E+02 -0.64147001429E+02  0.15203710480E+03  0.00000000000E+00 0.  1.
          2    1    6    6  502    0  0.20464261040E+02  0.18512931930E+03  0.27978075337E+03  0.33610849558E+03  0.00000000000E+00 0. -1.
          1    1    5    5  503    0  0.75714022524E+03 -0.18458798608E+03  0.50205688705E+03  0.92703568600E+03  0.00000000000E+00 0. -1.
         -2    1    5    5    0  503  0.14655275334E+03 -0.31857583311E+02  0.57004703368E+02  0.16044360795E+03  0.00000000000E+00 0.  1.
         -1    1    6    6    0  502  0.99950627818E+02  0.17428869508E+03  0.30752301154E+03  0.36733782797E+03  0.00000000000E+00 0.  1.
<mgrwt>
<rscale>  0 0.28514646E+04</rscale>
<asrwt>0</asrwt>
<pdfrwt beam="1">  1        1 0.17341235E+00 0.28514646E+04</pdfrwt>
<pdfrwt beam="2">  1       -1 0.27744011E+00 0.28514646E+04</pdfrwt>
<totfact> 0.48207282E-01</totfact>
</mgrwt>
</event>
<event>
12    1  0.1467288E-007  0.1521195E+04  0.7818608E-02  0.8870479E-01
         -2   -1    0    0    0  501 -0.00000000000E+00  0.00000000000E+00  0.24126368738E+03  0.24126368738E+03  0.00000000000E+00 0.  1.
          2   -1    0    0  501    0  0.00000000000E+00 -0.00000000000E+00 -0.23978276974E+04  0.23978276974E+04  0.00000000000E+00 0. -1.
         23    2    1    2    0    0 -0.35339106752E+03 -0.32204797238E+03 -0.63634968887E+03  0.80154834689E+03  0.94544607247E+02 0.  0.
        254    2    1    2    0    0  0.35339106752E+03  0.32204797238E+03 -0.15202143212E+04  0.18375430379E+04  0.91482932330E+03 0.  0.
        -24    2    4    4    0    0  0.29533523943E+03 -0.16601994101E+03 -0.14895650143E+03  0.37861508381E+03  0.79848718858E+02 0.  0.
         24    2    4    4    0    0  0.58055828083E+02  0.48806791339E+03 -0.13712578197E+04  0.14589279541E+04  0.80882629857E+02 0.  0.
         11    1    3    3    0    0 -0.35246819448E+03 -0.30023232982E+03 -0.62204826960E+03  0.77544653568E+03  0.00000000000E+00 0.  1.
        -11    1    3    3    0    0 -0.92287303704E+00 -0.21815642564E+02 -0.14301419265E+02  0.26101811204E+02  0.00000000000E+00 0. -1.
          2    1    6    6  502    0  0.61849056647E+02  0.36776386755E+03 -0.11172174724E+04  0.11778159655E+04  0.00000000000E+00 0. -1.
          1    1    5    5  503    0  0.20504769989E+03 -0.12735525359E+03 -0.14223082294E+03  0.28016696244E+03  0.00000000000E+00 0. -1.
         -2    1    5    5    0  503  0.90287539543E+02 -0.38664687421E+02 -0.67256784929E+01  0.98448121370E+02  0.00000000000E+00 0.  1.
         -1    1    6    6    0  502 -0.37932285641E+01  0.12030404585E+03 -0.25404034735E+03  0.28111198856E+03  0.00000000000E+00 0.  1.
<mgrwt>
<rscale>  0 0.15211953E+04</rscale>
<asrwt>0</asrwt>
<pdfrwt beam="1">  1        2 0.36889655E+00 0.15211953E+04</pdfrwt>
<pdfrwt beam="2">  1       -2 0.37117492E-01 0.15211953E+04</pdfrwt>
<totfact> 0.26365467E+01</totfact>
</mgrwt>
</event>
<event>
12    1  0.1467288E-007  0.1348676E+04  0.7818608E-02  0.8991831E-01
          1   -1    0    0  501    0  0.00000000000E+00  0.00000000000E+00  0.77566567446E+03  0.77566567446E+03  0.00000000000E+00 0. -1.
         -1   -1    0    0    0  501 -0.00000000000E+00 -0.00000000000E+00 -0.58624713347E+03  0.58624713347E+03  0.00000000000E+00 0.  1.
         23    2    1    2    0    0  0.35995639842E+03 -0.41834898879E+02  0.13497051668E+03  0.39716160971E+03  0.90562333934E+02 0.  0.
        254    2    1    2    0    0 -0.35995639842E+03  0.41834898879E+02  0.54448024314E+02  0.96475119822E+03  0.89244692816E+03 0.  0.
        -24    2    4    4    0    0  0.13244412435E+03  0.34437490243E+03  0.53980728209E+02  0.38155754535E+03  0.80849996292E+02 0.  0.
         24    2    4    4    0    0 -0.49240052277E+03 -0.30254000355E+03  0.46729610517E+00  0.58319365287E+03  0.78268063783E+02 0.  0.
         13    1    3    3    0    0  0.34789188499E+03 -0.42670387639E+02  0.14702479884E+03  0.38008659158E+03  0.00000000000E+00 0. -1.
        -13    1    3    3    0    0  0.12064513429E+02  0.83548876039E+00 -0.12054282162E+02  0.17075018132E+02  0.00000000000E+00 0.  1.
          2    1    6    6  502    0 -0.48534123720E+03 -0.28477664280E+03 -0.67535238916E+01  0.56276057334E+03  0.00000000000E+00 0. -1.
          1    1    5    5  503    0  0.90090613587E+02  0.31102419892E+03  0.46759720929E+02  0.32716791174E+03  0.00000000000E+00 0. -1.
         -2    1    5    5    0  503  0.42353510764E+02  0.33350703508E+02  0.72210072800E+01  0.54389633614E+02  0.00000000000E+00 0.  1.
         -1    1    6    6    0  502 -0.70592855639E+01 -0.17763360745E+02  0.72208199967E+01  0.20433079529E+02  0.00000000000E+00 0.  1.
<mgrwt>
<rscale>  0 0.13486761E+04</rscale>
<asrwt>0</asrwt>
<pdfrwt beam="1">  1        1 0.11933318E+00 0.13486761E+04</pdfrwt>
<pdfrwt beam="2">  1       -1 0.90191866E-01 0.13486761E+04</pdfrwt>
<totfact> 0.27350260E+01</totfact>
</mgrwt>
</event>
<event>
12    1  0.1467288E-007  0.1444749E+04  0.7818608E-02  0.8922049E-01
          1   -1    0    0  501    0  0.00000000000E+00  0.00000000000E+00  0.31815251689E+04  0.31815251689E+04  0.00000000000E+00 0. -1.
         -1   -1    0    0    0  501 -0.00000000000E+00 -0.00000000000E+00 -0.16401711378E+03  0.16401711378E+03  0.00000000000E+00 0.  1.
         23    2    1    2    0    0  0.68410914458E+02  0.37076972235E+03  0.13742271615E+04  0.14283561848E+04  0.97728497460E+02 0.  0.
        254    2    1    2    0    0 -0.68410914458E+02 -0.37076972235E+03  0.16432808937E+04  0.19171860978E+04  0.91273227075E+03 0.  0.
        -24    2    4    4    0    0 -0.37193894719E+03 -0.17698964621E+03  0.14307355013E+04  0.14910355860E+04  0.80741122452E+02 0.  0.
         24    2    4    4    0    0  0.30352803273E+03 -0.19378007614E+03  0.21254539240E+03  0.42615051184E+03  0.82150656433E+02 0.  0.
         11    1    3    3    0    0  0.87183894517E+02  0.31906005245E+03  0.12384587512E+04  0.12818659941E+04  0.00000000000E+00 0. -1.
        -11    1    3    3    0    0 -0.18772980059E+02  0.51709669896E+02  0.13576841031E+03  0.14649019073E+03  0.00000000000E+00 0.  1.
          2    1    6    6  502    0  0.21356234736E+03 -0.17777968303E+03  0.16440753310E+03  0.32286890350E+03  0.00000000000E+00 0. -1.
          1    1    5    5  503    0 -0.35165421506E+03 -0.18024038977E+03  0.13011040657E+04  0.13597864078E+04  0.00000000000E+00 0. -1.
         -2    1    5    5    0  503 -0.20284732131E+02  0.32507435627E+01  0.12963143558E+03  0.13124917822E+03  0.00000000000E+00 0.  1.
         -1    1    6    6    0  502  0.89965685367E+02 -0.16000393107E+02  0.48137859299E+02  0.10328160834E+03  0.00000000000E+00 0.  1.
<mgrwt>
<rscale>  0 0.14447485E+04</rscale>
<asrwt>0</asrwt>
<pdfrwt beam="1">  1        1 0.48946536E+00 0.14447485E+04</pdfrwt>
<pdfrwt beam="2">  1       -1 0.25233405E-01 0.14447485E+04</pdfrwt>
<totfact> 0.59316316E+00</totfact>
</mgrwt>
</event>
<event>
12    1  0.1467288E-007  0.1471883E+04  0.7818608E-02  0.8903369E-01
         -2   -1    0    0    0  501 -0.00000000000E+00  0.00000000000E+00  0.13354499922E+03  0.13354499922E+03  0.00000000000E+00 0.  1.
          2   -1    0    0  501    0  0.00000000000E+00 -0.00000000000E+00 -0.40556347024E+04  0.40556347024E+04  0.00000000000E+00 0. -1.
         23    2    1    2    0    0 -0.14652613853E+03 -0.40758851235E+03 -0.15875723532E+04  0.16482376037E+04  0.93289424632E+02 0.  0.
        254    2    1    2    0    0  0.14652613853E+03  0.40758851235E+03 -0.23345173499E+04  0.25409420979E+04  0.90488517682E+03 0.  0.
        -24    2    4    4    0    0  0.27938552454E+03  0.56729297584E+03 -0.21764026219E+04  0.22678625791E+04  0.81207840293E+02 0.  0.
         24    2    4    4    0    0 -0.13285938600E+03 -0.15970446348E+03 -0.15811472806E+03  0.27307951885E+03  0.80093846721E+02 0.  0.
         11    1    3    3    0    0 -0.96266083072E+02 -0.33094931509E+03 -0.11226079098E+04  0.11743266697E+04  0.00000000000E+00 0. -1.
        -11    1    3    3    0    0 -0.50260055462E+02 -0.76639197262E+02 -0.46496444342E+03  0.47391093401E+03  0.00000000000E+00 0.  1.
          2    1    6    6  502    0 -0.66752418961E+02 -0.28467792256E+02 -0.74531593858E+02  0.10402528114E+03  0.00000000000E+00 0. -1.
          3    1    5    5  503    0  0.20757476925E+03  0.33889572113E+03 -0.13054508608E+04  0.13646023394E+04  0.00000000000E+00 0. -1.
         -4    1    5    5    0  503  0.71810755288E+02  0.22839725471E+03 -0.87095176108E+03  0.90326023972E+03  0.00000000000E+00 0.  1.
         -1    1    6    6    0  502 -0.66106967041E+02 -0.13123667123E+03 -0.83583134199E+02  0.16905423771E+03  0.00000000000E+00 0.  1.
<mgrwt>
<rscale>  0 0.14718828E+04</rscale>
<asrwt>0</asrwt>
<pdfrwt beam="1">  1        2 0.62394380E+00 0.14718828E+04</pdfrwt>
<pdfrwt beam="2">  1       -2 0.20545385E-01 0.14718828E+04</pdfrwt>
<totfact> 0.62423459E+00</totfact>
</mgrwt>
</event>
<event>
12    1  0.1467288E-007  0.1365425E+04  0.7818608E-02  0.8979233E-01
          2   -1    0    0  501    0  0.00000000000E+00  0.00000000000E+00  0.52524645605E+03  0.52524645605E+03  0.00000000000E+00 0.  1.
         -2   -1    0    0    0  501 -0.00000000000E+00 -0.00000000000E+00 -0.88738638261E+03  0.88738638261E+03  0.00000000000E+00 0. -1.
         23    2    1    2    0    0  0.29995357490E+03  0.23499628237E+03 -0.10710580850E+03  0.40562606978E+03  0.88687397356E+02 0.  0.
        254    2    1    2    0    0 -0.29995357490E+03 -0.23499628237E+03 -0.25503411807E+03  0.10070067689E+04  0.89656278718E+03 0.  0.
        -24    2    4    4    0    0 -0.38182488431E+03 -0.45747966657E+03 -0.39711453038E+03  0.72048726558E+03  0.79523971342E+02 0.  0.
         24    2    4    4    0    0  0.81871309410E+02  0.22248338420E+03  0.14208041231E+03  0.28651950330E+03  0.75530223496E+02 0.  0.
         11    1    3    3    0    0  0.27040386753E+03  0.21793879788E+03 -0.68293011595E+02  0.35394845194E+03  0.00000000000E+00 0.  1.
        -11    1    3    3    0    0  0.29549707370E+02  0.17057484493E+02 -0.38812796901E+02  0.51677617846E+02  0.00000000000E+00 0. -1.
          2    1    6    6  502    0  0.55077084458E+02  0.19131924624E+03  0.14346828566E+03  0.24539700121E+03  0.00000000000E+00 0. -1.
          3    1    5    5  503    0 -0.27523749128E+03 -0.36828800227E+03 -0.33134684801E+03  0.56672962064E+03  0.00000000000E+00 0. -1.
         -4    1    5    5    0  503 -0.10658739303E+03 -0.89191664300E+02 -0.65767682372E+02  0.15375764494E+03  0.00000000000E+00 0.  1.
         -1    1    6    6    0  502  0.26794224952E+02  0.31164137959E+02 -0.13878733526E+01  0.41122502087E+02  0.00000000000E+00 0.  1.
<mgrwt>
<rscale>  0 0.13654253E+04</rscale>
<asrwt>0</asrwt>
<pdfrwt beam="1">  1        2 0.80807148E-01 0.13654253E+04</pdfrwt>
<pdfrwt beam="2">  1       -2 0.13652098E+00 0.13654253E+04</pdfrwt>
<totfact> 0.21729159E+01</totfact>
</mgrwt>
</event>
<event>
12    1  0.1467288E-007  0.1225691E+04  0.7818608E-02  0.9090662E-01
         -1   -1    0    0    0  501 -0.00000000000E+00  0.00000000000E+00  0.10461011156E+04  0.10461011156E+04  0.00000000000E+00 0.  1.
          1   -1    0    0  501    0  0.00000000000E+00 -0.00000000000E+00 -0.35902780496E+03  0.35902780496E+03  0.00000000000E+00 0. -1.
         23    2    1    2    0    0 -0.46623991152E+02  0.27306461656E+03  0.25607312313E+03  0.38786925441E+03  0.90172239421E+02 0.  0.
        254    2    1    2    0    0  0.46623991152E+02 -0.27306461656E+03  0.43100018749E+03  0.10172596661E+04  0.87881624096E+03 0.  0.
        -24    2    4    4    0    0  0.26771388613E+03 -0.49982681099E+03  0.16418346087E+03  0.59586550580E+03  0.81252239113E+02 0.  0.
         24    2    4    4    0    0 -0.22108989498E+03  0.22676219444E+03  0.26681672662E+03  0.42139416034E+03  0.77974600209E+02 0.  0.
         13    1    3    3    0    0 -0.67375925234E+01 -0.48865687689E+01  0.76807805183E+00  0.83584478965E+01  0.00000000000E+00 0.  1.
        -13    1    3    3    0    0 -0.39886398628E+02  0.27795118533E+03  0.25530504508E+03  0.37951080652E+03  0.00000000000E+00 0. -1.
          4    1    6    6  502    0 -0.21767068002E+02  0.64418700660E+02  0.70391655912E+02  0.97870115286E+02  0.00000000000E+00 0. -1.
          3    1    5    5  503    0  0.12073047895E+03 -0.30304782047E+03  0.11082318392E+03  0.34452228974E+03  0.00000000000E+00 0. -1.
         -4    1    5    5    0  503  0.14698340718E+03 -0.19677899053E+03  0.53360276955E+02  0.25134321605E+03  0.00000000000E+00 0.  1.
         -3    1    6    6    0  502 -0.19932282698E+03  0.16234349378E+03  0.19642507070E+03  0.32352404505E+03  0.00000000000E+00 0.  1.
<mgrwt>
<rscale>  0 0.12256906E+04</rscale>
<asrwt>0</asrwt>
<pdfrwt beam="1">  1        1 0.55235047E-01 0.12256906E+04</pdfrwt>
<pdfrwt beam="2">  1       -1 0.16093863E+00 0.12256906E+04</pdfrwt>
<totfact> 0.19668764E+01</totfact>
</mgrwt>
</event>
<event>
12    1  0.1467288E-007  0.1721643E+04  0.7818608E-02  0.8749116E-01
          1   -1    0    0  501    0  0.00000000000E+00  0.00000000000E+00  0.13025074424E+04  0.13025074424E+04  0.00000000000E+00 0. -1.
         -1   -1    0    0    0  501 -0.00000000000E+00 -0.00000000000E+00 -0.56891339858E+03  0.56891339858E+03  0.00000000000E+00 0.  1.
         23    2    1    2    0    0  0.43232251108E+02  0.69428614195E+02 -0.40452323659E+03  0.42289060259E+03  0.92239106754E+02 0.  0.
        254    2    1    2    0    0 -0.43232251108E+02 -0.69428614195E+02  0.11381172804E+04  0.14485302384E+04  0.89232255803E+03 0.  0.
        -24    2    4    4    0    0 -0.15157908942E+03 -0.39742071336E+03  0.26837880704E+03  0.50918758846E+03  0.79532210006E+02 0.  0.
         24    2    4    4    0    0  0.10834683831E+03  0.32799209916E+03  0.86973847340E+03  0.93934264995E+03  0.81251137967E+02 0.  0.
         11    1    3    3    0    0  0.21242769118E+02 -0.17591413020E+02 -0.49169400662E+02  0.56376794990E+02  0.00000000000E+00 0. -1.
        -11    1    3    3    0    0  0.21989481990E+02  0.87020027215E+02 -0.35535383593E+03  0.36651380760E+03  0.00000000000E+00 0.  1.
          2    1    6    6  502    0  0.79485172179E+01  0.86923352261E+02  0.14810449523E+03  0.17191215665E+03  0.00000000000E+00 0. -1.
          1    1    5    5  503    0 -0.24501150101E+01 -0.18206931592E+02  0.35195708960E+02  0.39701805384E+02  0.00000000000E+00 0. -1.
         -2    1    5    5    0  503 -0.14912897441E+03 -0.37921378176E+03  0.23318309808E+03  0.46948578308E+03  0.00000000000E+00 0.  1.
         -1    1    6    6    0  502  0.10039832109E+03  0.24106874690E+03  0.72163397816E+03  0.76743049330E+03  0.00000000000E+00 0.  1.
<mgrwt>
<rscale>  0 0.17216433E+04</rscale>
<asrwt>0</asrwt>
<pdfrwt beam="1">  1        1 0.20038576E+00 0.17216433E+04</pdfrwt>
<pdfrwt beam="2">  1       -1 0.87525138E-01 0.17216433E+04</pdfrwt>
<totfact> 0.10990906E+01</totfact>
</mgrwt>
</event>
<event>
12    1  0.1467288E-007  0.1579396E+04  0.7818608E-02  0.8833307E-01
          1   -1    0    0  501    0  0.00000000000E+00  0.00000000000E+00  0.32830231434E+04  0.32830231434E+04  0.00000000000E+00 0. -1.
         -1   -1    0    0    0  501 -0.00000000000E+00 -0.00000000000E+00 -0.18995390751E+03  0.18995390751E+03  0.00000000000E+00 0.  1.
         23    2    1    2    0    0 -0.16037843167E+03 -0.21332318386E-01  0.21536467106E+04  0.21615897062E+04  0.92491414199E+02 0.  0.
        254    2    1    2    0    0  0.16037843167E+03  0.21332318386E-01  0.93942252521E+03  0.13113873447E+04  0.90083341700E+03 0.  0.
        -24    2    4    4    0    0  0.19069384128E+03  0.11408334136E+03  0.10834906990E+04  0.11088688158E+04  0.79112616017E+02 0.  0.
         24    2    4    4    0    0 -0.30315409607E+02 -0.11406200904E+03 -0.14406817377E+03  0.20251852891E+03  0.79554697488E+02 0.  0.
         11    1    3    3    0    0 -0.68911300060E+02 -0.45539600303E+02  0.10312508211E+04  0.10345534681E+04  0.00000000000E+00 0.  1.
        -11    1    3    3    0    0 -0.91467131615E+02  0.45518267985E+02  0.11223958896E+04  0.11270362380E+04  0.00000000000E+00 0. -1.
          2    1    6    6  502    0  0.10882939277E+01 -0.11072801763E+03 -0.11340684092E+03  0.15850233386E+03  0.00000000000E+00 0. -1.
          1    1    5    5  503    0  0.19392663025E+03  0.11849981424E+03  0.10136857491E+04  0.10388496242E+04  0.00000000000E+00 0. -1.
         -2    1    5    5    0  503 -0.32327889672E+01 -0.44164728773E+01  0.69804949900E+02  0.70019191568E+02  0.00000000000E+00 0.  1.
         -1    1    6    6    0  502 -0.31403703535E+02 -0.33339914103E+01 -0.30661332849E+02  0.44016195048E+02  0.00000000000E+00 0.  1.
<mgrwt>
<rscale>  0 0.15793962E+04</rscale>
<asrwt>0</asrwt>
<pdfrwt beam="1">  1        1 0.50508044E+00 0.15793962E+04</pdfrwt>
<pdfrwt beam="2">  1       -1 0.29223680E-01 0.15793962E+04</pdfrwt>
<totfact> 0.38075003E+00</totfact>
</mgrwt>
</event>
<event>
12    1  0.1467288E-007  0.1546665E+04  0.7818608E-02  0.8854001E-01
          2   -1    0    0  501    0  0.00000000000E+00  0.00000000000E+00  0.94841846911E+03  0.94841846911E+03  0.00000000000E+00 0. -1.
         -2   -1    0    0    0  501 -0.00000000000E+00 -0.00000000000E+00 -0.63056918527E+03  0.63056918527E+03  0.00000000000E+00 0.  1.
         23    2    1    2    0    0  0.63747077657E+02 -0.77042799827E+02  0.61028454912E+03  0.62483876847E+03  0.89313900219E+02 0.  0.
        254    2    1    2    0    0 -0.63747077657E+02  0.77042799827E+02 -0.29243526528E+03  0.95414888591E+03  0.90270838547E+03 0.  0.
        -24    2    4    4    0    0  0.82532884090E+02  0.42045020547E+03 -0.36094590817E+03  0.56619903621E+03  0.81910608248E+02 0.  0.
         24    2    4    4    0    0 -0.14627996175E+03 -0.34340740564E+03  0.68510642895E+02  0.38794984970E+03  0.80528903073E+02 0.  0.
         11    1    3    3    0    0  0.50695297546E+02 -0.75010316199E+02  0.60299125716E+03  0.60974996264E+03  0.00000000000E+00 0. -1.
        -11    1    3    3    0    0  0.13051780110E+02 -0.20324836282E+01  0.72932919635E+01  0.15088805831E+02  0.00000000000E+00 0.  1.
          2    1    6    6  502    0 -0.15463679585E+03 -0.31071730990E+03  0.54106043804E+02  0.35126236531E+03  0.00000000000E+00 0. -1.
          1    1    5    5  503    0  0.57129251499E+02  0.22401700241E+03 -0.24423997444E+03  0.33630422814E+03  0.00000000000E+00 0. -1.
         -2    1    5    5    0  503  0.25403632592E+02  0.19643320306E+03 -0.11670593373E+03  0.22989480808E+03  0.00000000000E+00 0.  1.
         -1    1    6    6    0  502  0.83568341073E+01 -0.32690095741E+02  0.14404599090E+02  0.36687484389E+02  0.00000000000E+00 0.  1.
<mgrwt>
<rscale>  0 0.15466654E+04</rscale>
<asrwt>0</asrwt>
<pdfrwt beam="1">  1        2 0.14591053E+00 0.15466654E+04</pdfrwt>
<pdfrwt beam="2">  1       -2 0.97010644E-01 0.15466654E+04</pdfrwt>
<totfact> 0.23256295E+01</totfact>
</mgrwt>
</event>
<event>
12    1  0.1467288E-007  0.1210695E+04  0.7818608E-02  0.9103547E-01
         -1   -1    0    0    0  501 -0.00000000000E+00  0.00000000000E+00  0.89560678339E+03  0.89560678339E+03  0.00000000000E+00 0.  1.
          1   -1    0    0  501    0  0.00000000000E+00 -0.00000000000E+00 -0.40915871328E+03  0.40915871328E+03  0.00000000000E+00 0. -1.
         23    2    1    2    0    0 -0.20749215490E+03  0.10772040227E+03  0.23201922921E+03  0.34203475948E+03  0.92185544181E+02 0.  0.
        254    2    1    2    0    0  0.20749215490E+03 -0.10772040227E+03  0.25442884090E+03  0.96273073719E+03  0.89858764617E+03 0.  0.
        -24    2    4    4    0    0 -0.34498611758E+03 -0.20311100026E+01  0.45790503069E+02  0.35681491685E+03  0.78743685387E+02 0.  0.
         24    2    4    4    0    0  0.55247827248E+03 -0.10568929226E+03  0.20863833783E+03  0.60591582034E+03  0.84861989484E+02 0.  0.
         11    1    3    3    0    0 -0.13992172966E+03  0.11073895051E+03  0.13495041779E+03  0.22372487759E+03  0.00000000000E+00 0.  1.
        -11    1    3    3    0    0 -0.67570425246E+02 -0.30185482454E+01  0.97068811422E+02  0.11830988189E+03  0.00000000000E+00 0. -1.
          4    1    6    6  502    0  0.13554286375E+03  0.10089492334E+02  0.42534431784E+02  0.14241784880E+03  0.00000000000E+00 0. -1.
          1    1    5    5  503    0 -0.56066212716E+02  0.18655496312E+02 -0.14738142297E+02  0.60898773299E+02  0.00000000000E+00 0. -1.
         -2    1    5    5    0  503 -0.28891990486E+03 -0.20686606314E+02  0.60528645366E+02  0.29591614355E+03  0.00000000000E+00 0.  1.
         -3    1    6    6    0  502  0.41693540873E+03 -0.11577878460E+03  0.16610390604E+03  0.46349797154E+03  0.00000000000E+00 0.  1.
<mgrwt>
<rscale>  0 0.12106945E+04</rscale>
<asrwt>0</asrwt>
<pdfrwt beam="1">  1        1 0.62947495E-01 0.12106945E+04</pdfrwt>
<pdfrwt beam="2">  1       -1 0.13778566E+00 0.12106945E+04</pdfrwt>
<totfact> 0.25159321E+01</totfact>
</mgrwt>
</event>
<event>
12    1  0.1467288E-007  0.1538321E+04  0.7818608E-02  0.8859362E-01
         -1   -1    0    0    0  501 -0.00000000000E+00  0.00000000000E+00  0.19927902575E+04  0.19927902575E+04  0.00000000000E+00 0.  1.
          1   -1    0    0  501    0  0.00000000000E+00 -0.00000000000E+00 -0.29687428101E+03  0.29687428101E+03  0.00000000000E+00 0. -1.
         23    2    1    2    0    0  0.65357456061E+02 -0.21526264754E+03 -0.88339411439E+02  0.25850689386E+03  0.91718907918E+02 0.  0.
        254    2    1    2    0    0 -0.65357456061E+02  0.21526264754E+03  0.17842553879E+04  0.20311576446E+04  0.94415278613E+03 0.  0.
        -24    2    4    4    0    0 -0.39351488299E+03  0.37151975778E+03  0.72578707283E+03  0.90898819202E+03  0.81312757928E+02 0.  0.
         24    2    4    4    0    0  0.32815742693E+03 -0.15625711023E+03  0.10584683151E+04  0.11221694526E+04  0.82495605782E+02 0.  0.
         13    1    3    3    0    0 -0.23543868344E+02 -0.49398283938E+02 -0.21742961069E+02  0.58883448852E+02  0.00000000000E+00 0.  1.
        -13    1    3    3    0    0  0.88901324405E+02 -0.16586436361E+03 -0.66596450370E+02  0.19962344501E+03  0.00000000000E+00 0. -1.
          4    1    6    6  502    0  0.16756158244E+03 -0.93509310192E+02  0.43797758444E+03  0.47816863079E+03  0.00000000000E+00 0. -1.
          3    1    5    5  503    0 -0.28433650542E+03  0.28382944026E+03  0.59100753336E+03  0.71463018685E+03  0.00000000000E+00 0. -1.
         -4    1    5    5    0  503 -0.10917837757E+03  0.87690317515E+02  0.13477953947E+03  0.19435800517E+03  0.00000000000E+00 0.  1.
         -3    1    6    6    0  502  0.16059584449E+03 -0.62747800040E+02  0.62049073067E+03  0.64400082184E+03  0.00000000000E+00 0.  1.
<mgrwt>
<rscale>  0 0.15383214E+04</rscale>
<asrwt>0</asrwt>
<pdfrwt beam="1">  1        1 0.45672968E-01 0.15383214E+04</pdfrwt>
<pdfrwt beam="2">  1       -1 0.30658311E+00 0.15383214E+04</pdfrwt>
<totfact> 0.25721165E+00</totfact>
</mgrwt>
</event>
<event>
12    1  0.1602957E-007  0.1702607E+04  0.7818608E-02  0.8759879E-01
         -2   -1    0    0    0  501 -0.00000000000E+00  0.00000000000E+00  0.90213858729E+03  0.90213858729E+03  0.00000000000E+00 0.  1.
          2   -1    0    0  501    0  0.00000000000E+00 -0.00000000000E+00 -0.80333312229E+03  0.80333312229E+03  0.00000000000E+00 0. -1.
         23    2    1    2    0    0 -0.19486256536E+03 -0.30357336508E+02 -0.54843370919E+03  0.58988350997E+03  0.91049627661E+02 0.  0.
        254    2    1    2    0    0  0.19486256536E+03  0.30357336508E+02  0.64723917419E+03  0.11155881996E+04  0.88697547614E+03 0.  0.
        -24    2    4    4    0    0 -0.11983530664E+03  0.37513938492E+03  0.15091212595E+03  0.42952970419E+03  0.81432414815E+02 0.  0.
         24    2    4    4    0    0  0.31469787201E+03 -0.34478204841E+03  0.49632704823E+03  0.68605849543E+03  0.80164261355E+02 0.  0.
         11    1    3    3    0    0  0.44581963136E+01  0.11817777101E+02 -0.46317327504E+02  0.48008647107E+02  0.00000000000E+00 0.  1.
        -11    1    3    3    0    0 -0.19932076168E+03 -0.42175113608E+02 -0.50211638168E+03  0.54187486286E+03  0.00000000000E+00 0. -1.
          2    1    6    6  502    0  0.28177001068E+03 -0.26674377207E+03  0.42332732733E+03  0.57424089451E+03  0.00000000000E+00 0. -1.
          1    1    5    5  503    0 -0.10443451794E+03  0.32177406443E+03  0.96538053267E+02  0.35180209323E+03  0.00000000000E+00 0. -1.
         -2    1    5    5    0  503 -0.15400788706E+02  0.53365320496E+02  0.54374072687E+02  0.77727610956E+02  0.00000000000E+00 0.  1.
         -1    1    6    6    0  502  0.32927861323E+02 -0.78038276339E+02  0.72999720900E+02  0.11181760093E+03  0.00000000000E+00 0.  1.
<mgrwt>
<rscale>  0 0.17026072E+04</rscale>
<asrwt>0</asrwt>
<pdfrwt beam="1">  1        2 0.12358971E+00 0.17026072E+04</pdfrwt>
<pdfrwt beam="2">  1       -2 0.13879055E+00 0.17026072E+04</pdfrwt>
<totfact> 0.11968172E+01</totfact>
</mgrwt>
</event>
<event>
12    1  0.1467288E-007  0.1853356E+04  0.7818608E-02  0.8678429E-01
         -3   -1    0    0    0  501 -0.00000000000E+00  0.00000000000E+00  0.14948789108E+04  0.14948789108E+04  0.00000000000E+00 0.  1.
          3   -1    0    0  501    0  0.00000000000E+00 -0.00000000000E+00 -0.57444938084E+03  0.57444938084E+03  0.00000000000E+00 0. -1.
         23    2    1    2    0    0  0.66724969841E+03 -0.68425785198E+02  0.14233362073E+03  0.69130095054E+03  0.87942575080E+02 0.  0.
        254    2    1    2    0    0 -0.66724969841E+03  0.68425785198E+02  0.77809590919E+03  0.13780273411E+04  0.91848890072E+03 0.  0.
        -24    2    4    4    0    0 -0.15349493281E+03  0.24510389202E+03  0.77289869507E+03  0.82897919146E+03  0.78724168814E+02 0.  0.
         24    2    4    4    0    0 -0.51375476560E+03 -0.17667810682E+03  0.51972141210E+01  0.54904814961E+03  0.79169103542E+02 0.  0.
         13    1    3    3    0    0  0.56162697084E+03 -0.60646326663E+02  0.86184688292E+02  0.57142858855E+03  0.00000000000E+00 0. -1.
        -13    1    3    3    0    0  0.10562272757E+03 -0.77794585354E+01  0.56148932440E+02  0.11987236199E+03  0.00000000000E+00 0.  1.
          4    1    6    6  502    0 -0.47543063651E+03 -0.17949774760E+03 -0.84843602343E+01  0.50825752911E+03  0.00000000000E+00 0. -1.
          3    1    5    5  503    0 -0.12709553179E+03  0.24088543302E+03  0.71788086992E+03  0.76780987845E+03  0.00000000000E+00 0. -1.
         -4    1    5    5    0  503 -0.26399401021E+02  0.42184589955E+01  0.55017825152E+02  0.61169313017E+02  0.00000000000E+00 0.  1.
         -1    1    6    6    0  502 -0.38324129088E+02  0.28196407793E+01  0.13681574355E+02  0.40790620506E+02  0.00000000000E+00 0.  1.
<mgrwt>
<rscale>  0 0.18533562E+04</rscale>
<asrwt>0</asrwt>
<pdfrwt beam="1">  1        3 0.88376828E-01 0.18533562E+04</pdfrwt>
<pdfrwt beam="2">  1       -3 0.22998137E+00 0.18533562E+04</pdfrwt>
<totfact> 0.27417079E-01</totfact>
</mgrwt>
</event>
<event>
12    1  0.1467288E-007  0.1857006E+04  0.7818608E-02  0.8676558E-01
         -1   -1    0    0    0  501 -0.00000000000E+00  0.00000000000E+00  0.12496963439E+04  0.12496963439E+04  0.00000000000E+00 0.  1.
          1   -1    0    0  501    0  0.00000000000E+00 -0.00000000000E+00 -0.68986160923E+03  0.68986160923E+03  0.00000000000E+00 0. -1.
         23    2    1    2    0    0 -0.19253060023E+03 -0.26973927536E+01  0.92704494936E+03  0.95120997378E+03  0.91174383127E+02 0.  0.
        254    2    1    2    0    0  0.19253060023E+03  0.26973927536E+01 -0.36721021468E+03  0.98834797936E+03  0.89716948153E+03 0.  0.
        -24    2    4    4    0    0  0.30832823641E+03 -0.38781869880E+03 -0.18658616150E+03  0.53525410361E+03  0.78822048095E+02 0.  0.
         24    2    4    4    0    0 -0.11579763617E+03  0.39051609155E+03 -0.18062405318E+03  0.45309387575E+03  0.82201589701E+02 0.  0.
         13    1    3    3    0    0 -0.17617089825E+03  0.27362048158E+02  0.80106440815E+03  0.82066378809E+03  0.00000000000E+00 0.  1.
        -13    1    3    3    0    0 -0.16359701981E+02 -0.30059440912E+02  0.12598054120E+03  0.13054618569E+03  0.00000000000E+00 0. -1.
          4    1    6    6  502    0 -0.72273195194E+02  0.12890463049E+03 -0.40936236738E+02  0.15334795070E+03  0.00000000000E+00 0. -1.
          1    1    5    5  503    0  0.28811999184E+03 -0.31853367516E+03 -0.15988647136E+03  0.45830177355E+03  0.00000000000E+00 0. -1.
         -2    1    5    5    0  503  0.20208244560E+02 -0.69285023636E+02 -0.26699690139E+02  0.76952330062E+02  0.00000000000E+00 0.  1.
         -3    1    6    6    0  502 -0.43524440980E+02  0.26161146106E+03 -0.13968781644E+03  0.29974592505E+03  0.00000000000E+00 0.  1.
<mgrwt>
<rscale>  0 0.18570057E+04</rscale>
<asrwt>0</asrwt>
<pdfrwt beam="1">  1        1 0.10613256E+00 0.18570057E+04</pdfrwt>
<pdfrwt beam="2">  1       -1 0.19226098E+00 0.18570057E+04</pdfrwt>
<totfact> 0.44555488E+00</totfact>
</mgrwt>
</event>
<event>
12    1  0.1467288E-007  0.1197011E+04  0.7818608E-02  0.9115477E-01
          1   -1    0    0  501    0  0.00000000000E+00  0.00000000000E+00  0.66570756921E+03  0.66570756921E+03  0.00000000000E+00 0. -1.
         -1   -1    0    0    0  501 -0.00000000000E+00 -0.00000000000E+00 -0.53808748734E+03  0.53808748734E+03  0.00000000000E+00 0.  1.
         23    2    1    2    0    0 -0.55233873709E+02  0.15809678607E+02 -0.22591038556E+03  0.25061675854E+03  0.92046350377E+02 0.  0.
        254    2    1    2    0    0  0.55233873709E+02 -0.15809678607E+02  0.35353046743E+03  0.95317829801E+03  0.88332573247E+03 0.  0.
        -24    2    4    4    0    0 -0.44150007580E+02 -0.26647535423E+03 -0.19118968690E+03  0.34021462593E+03  0.78956682649E+02 0.  0.
         24    2    4    4    0    0  0.99383881289E+02  0.25066567563E+03  0.54472015433E+03  0.61296367208E+03  0.79334607571E+02 0.  0.
         13    1    3    3    0    0 -0.11432137233E+02 -0.37147510885E+02 -0.66536623166E+02  0.77056820263E+02  0.00000000000E+00 0.  1.
        -13    1    3    3    0    0 -0.43801736476E+02  0.52957189492E+02 -0.15937376239E+03  0.17355993828E+03  0.00000000000E+00 0. -1.
          4    1    6    6  502    0  0.10035787376E+03  0.22146108241E+03  0.52234332567E+03  0.57615906113E+03  0.00000000000E+00 0. -1.
          1    1    5    5  503    0 -0.38578681404E+02 -0.25613371028E+03 -0.19853781758E+03  0.32635878602E+03  0.00000000000E+00 0. -1.
         -2    1    5    5    0  503 -0.55713261763E+01 -0.10341643948E+02  0.73481306840E+01  0.13855839905E+02  0.00000000000E+00 0.  1.
         -3    1    6    6    0  502 -0.97399247341E+00  0.29204593218E+02  0.22376828658E+02  0.36804610950E+02  0.00000000000E+00 0.  1.
<mgrwt>
<rscale>  0 0.11970111E+04</rscale>
<asrwt>0</asrwt>
<pdfrwt beam="1">  1        1 0.10241655E+00 0.11970111E+04</pdfrwt>
<pdfrwt beam="2">  1       -1 0.82782690E-01 0.11970111E+04</pdfrwt>
<totfact> 0.42199955E+01</totfact>
</mgrwt>
</event>
<event>
12    1  0.1467288E-007  0.1181990E+04  0.7818608E-02  0.9128769E-01
          2   -1    0    0  501    0  0.00000000000E+00  0.00000000000E+00  0.25248998727E+04  0.25248998727E+04  0.00000000000E+00 0. -1.
         -2   -1    0    0    0  501 -0.00000000000E+00 -0.00000000000E+00 -0.13833217578E+03  0.13833217578E+03  0.00000000000E+00 0.  1.
         23    2    1    2    0    0  0.88100439582E+02 -0.95913256455E+02  0.92969433714E+03  0.94392804909E+03  0.98526956362E+02 0.  0.
        254    2    1    2    0    0 -0.88100439582E+02  0.95913256455E+02  0.14568733597E+04  0.17193039994E+04  0.90363998121E+03 0.  0.
        -24    2    4    4    0    0 -0.10968495242E+03  0.45306477964E+03  0.11419318368E+04  0.12360883458E+04  0.81287116925E+02 0.  0.
         24    2    4    4    0    0  0.21584512840E+02 -0.35715152318E+03  0.31494152294E+03  0.48321565355E+03  0.79284949774E+02 0.  0.
         13    1    3    3    0    0  0.59050206650E+02 -0.10314130254E+03  0.85862230249E+03  0.86680869488E+03  0.00000000000E+00 0. -1.
        -13    1    3    3    0    0  0.29050232932E+02  0.72280460894E+01  0.71072034658E+02  0.77119354212E+02  0.00000000000E+00 0.  1.
          2    1    6    6  502    0  0.58739979359E+01  0.17476702435E+01  0.11234373006E+02  0.12797239541E+02  0.00000000000E+00 0. -1.
          1    1    5    5  503    0 -0.86899757855E+02  0.20289683075E+03  0.57927498134E+03  0.61990176307E+03  0.00000000000E+00 0. -1.
         -2    1    5    5    0  503 -0.22785194567E+02  0.25016794889E+03  0.56265685547E+03  0.61618658274E+03  0.00000000000E+00 0.  1.
         -1    1    6    6    0  502  0.15710514904E+02 -0.35889919343E+03  0.30370714993E+03  0.47041841401E+03  0.00000000000E+00 0.  1.
<mgrwt>
<rscale>  0 0.11819897E+04</rscale>
<asrwt>0</asrwt>
<pdfrwt beam="1">  1        2 0.38844610E+00 0.11819897E+04</pdfrwt>
<pdfrwt beam="2">  1       -2 0.21281875E-01 0.11819897E+04</pdfrwt>
<totfact> 0.64164336E+01</totfact>
</mgrwt>
</event>
<event>
12    1  0.1467288E-007  0.1509820E+04  0.7818608E-02  0.8877949E-01
          2   -1    0    0  501    0  0.00000000000E+00  0.00000000000E+00  0.18731619811E+04  0.18731619811E+04  0.00000000000E+00 0.  1.
         -2   -1    0    0    0  501 -0.00000000000E+00 -0.00000000000E+00 -0.30423917778E+03  0.30423917778E+03  0.00000000000E+00 0. -1.
         23    2    1    2    0    0 -0.11494818495E+03  0.37226118082E+03  0.91380090531E+03  0.99784173477E+03  0.94151798298E+02 0.  0.
        254    2    1    2    0    0  0.11494818495E+03 -0.37226118082E+03  0.65512189805E+03  0.11795594242E+04  0.90021345349E+03 0.  0.
        -24    2    4    4    0    0  0.15488935957E+03 -0.64414853581E+03  0.57797441268E+03  0.88292771481E+03  0.81171903818E+02 0.  0.
         24    2    4    4    0    0 -0.39941174625E+02  0.27188735500E+03  0.77147485374E+02  0.29663170935E+03  0.80750264737E+02 0.  0.
         11    1    3    3    0    0 -0.13018789905E+03  0.32345790703E+03  0.77141656351E+03  0.84655621262E+03  0.00000000000E+00 0.  1.
        -11    1    3    3    0    0  0.15239714100E+02  0.48803273787E+02  0.14238434181E+03  0.15128552214E+03  0.00000000000E+00 0. -1.
          4    1    6    6  502    0 -0.35064078508E+02  0.74912021942E+02 -0.56533674769E+01  0.82905133719E+02  0.00000000000E+00 0. -1.
          1    1    5    5  503    0  0.12080022685E+03 -0.32902614653E+03  0.30265120710E+03  0.46308601044E+03  0.00000000000E+00 0. -1.
         -2    1    5    5    0  503  0.34089132725E+02 -0.31512238929E+03  0.27532320558E+03  0.41984170437E+03  0.00000000000E+00 0.  1.
         -3    1    6    6    0  502 -0.48770961171E+01  0.19697533305E+03  0.82800852850E+02  0.21372657563E+03  0.00000000000E+00 0.  1.
<mgrwt>
<rscale>  0 0.15098202E+04</rscale>
<asrwt>0</asrwt>
<pdfrwt beam="1">  1        2 0.28817876E+00 0.15098202E+04</pdfrwt>
<pdfrwt beam="2">  1       -2 0.46806029E-01 0.15098202E+04</pdfrwt>
<totfact> 0.32832480E+01</totfact>
</mgrwt>
</event>
<event>
12    1  0.1467288E-007  0.1571459E+04  0.7818608E-02  0.8838276E-01
          1   -1    0    0  501    0  0.00000000000E+00  0.00000000000E+00  0.17866461951E+04  0.17866461951E+04  0.00000000000E+00 0. -1.
         -1   -1    0    0    0  501 -0.00000000000E+00 -0.00000000000E+00 -0.34554722121E+03  0.34554722121E+03  0.00000000000E+00 0.  1.
         23    2    1    2    0    0 -0.12888851043E+03 -0.35141662374E+03  0.10103275093E+04  0.10812392863E+04  0.90613611311E+02 0.  0.
        254    2    1    2    0    0  0.12888851043E+03  0.35141662374E+03  0.43077146457E+03  0.10509541300E+04  0.88251608324E+03 0.  0.
        -24    2    4    4    0    0 -0.47331544679E+02  0.55811299086E+03  0.50405353412E+03  0.75766612883E+03  0.79105068279E+02 0.  0.
         24    2    4    4    0    0  0.17622005511E+03 -0.20669636712E+03 -0.73282069549E+02  0.29328800120E+03  0.82889649097E+02 0.  0.
         11    1    3    3    0    0 -0.63850533706E+02 -0.25646538521E+03  0.78365398030E+03  0.82702173206E+03  0.00000000000E+00 0. -1.
        -11    1    3    3    0    0 -0.65037976729E+02 -0.94951238525E+02  0.22667352899E+03  0.25421755419E+03  0.00000000000E+00 0.  1.
          4    1    6    6  502    0  0.12142533909E+03 -0.17291106403E+03 -0.85203796259E+02  0.22782018333E+03  0.00000000000E+00 0. -1.
          3    1    5    5  503    0 -0.63624072200E+02  0.41320851349E+03  0.34662989625E+03  0.54308524483E+03  0.00000000000E+00 0. -1.
         -2    1    5    5    0  503  0.16292527522E+02  0.14490447737E+03  0.15742363788E+03  0.21458088400E+03  0.00000000000E+00 0.  1.
         -1    1    6    6    0  502  0.54794716022E+02 -0.33785303093E+02  0.11921726710E+02  0.65467817871E+02  0.00000000000E+00 0.  1.
<mgrwt>
<rscale>  0 0.15714587E+04</rscale>
<asrwt>0</asrwt>
<pdfrwt beam="1">  1        1 0.27486864E+00 0.15714587E+04</pdfrwt>
<pdfrwt beam="2">  1       -1 0.53161112E-01 0.15714587E+04</pdfrwt>
<totfact> 0.14279739E+01</totfact>
</mgrwt>
</event>
<event>
12    1  0.1467288E-007  0.1287791E+04  0.7818608E-02  0.9039303E-01
          1   -1    0    0  501    0  0.00000000000E+00  0.00000000000E+00  0.21692041854E+04  0.21692041854E+04  0.00000000000E+00 0. -1.
         -1   -1    0    0    0  501 -0.00000000000E+00 -0.00000000000E+00 -0.19113065664E+03  0.19113065664E+03  0.00000000000E+00 0.  1.
         23    2    1    2    0    0  0.23809229026E+03 -0.20205994705E+03  0.64764011337E+03  0.72542951491E+03  0.96405932262E+02 0.  0.
        254    2    1    2    0    0 -0.23809229026E+03  0.20205994705E+03  0.13304334154E+04  0.16349053271E+04  0.89741082843E+03 0.  0.
        -24    2    4    4    0    0  0.87693685468E+02  0.40979369778E+02 -0.98002210706E+02  0.15890739976E+03  0.79231541547E+02 0.  0.
         24    2    4    4    0    0 -0.32578597573E+03  0.16108057727E+03  0.14284356261E+04  0.14759979274E+04  0.77833728800E+02 0.  0.
         11    1    3    3    0    0  0.14125260434E+03 -0.11622558833E+03  0.47986515172E+03  0.51354770903E+03  0.00000000000E+00 0. -1.
        -11    1    3    3    0    0  0.96839685925E+02 -0.85834358720E+02  0.16777496165E+03  0.21188180588E+03  0.00000000000E+00 0.  1.
          2    1    6    6  502    0 -0.24978494524E+03  0.15383888803E+03  0.10674075371E+04  0.11069858954E+04  0.00000000000E+00 0. -1.
          3    1    5    5  503    0  0.73605156809E+02  0.64322646100E+02 -0.74355539832E+02  0.12281640043E+03  0.00000000000E+00 0. -1.
         -4    1    5    5    0  503  0.14088528659E+02 -0.23343276322E+02 -0.23646670874E+02  0.36090999330E+02  0.00000000000E+00 0.  1.
         -1    1    6    6    0  502 -0.76001030488E+02  0.72416892363E+01  0.36102808901E+03  0.36901203199E+03  0.00000000000E+00 0.  1.
<mgrwt>
<rscale>  0 0.12877910E+04</rscale>
<asrwt>0</asrwt>
<pdfrwt beam="1">  1        1 0.33372370E+00 0.12877910E+04</pdfrwt>
<pdfrwt beam="2">  1       -1 0.29404718E-01 0.12877910E+04</pdfrwt>
<totfact> 0.23820259E+01</totfact>
</mgrwt>
</event>
<event>
12    1  0.1467288E-007  0.1297544E+04  0.7818608E-02  0.9031515E-01
         -2   -1    0    0    0  501 -0.00000000000E+00  0.00000000000E+00  0.50039025987E+03  0.50039025987E+03  0.00000000000E+00 0. -1.
          2   -1    0    0  501    0  0.00000000000E+00 -0.00000000000E+00 -0.84115386349E+03  0.84115386349E+03  0.00000000000E+00 0.  1.
         23    2    1    2    0    0 -0.21303181574E+03 -0.14120096003E+03  0.12395156114E+03  0.29835546873E+03  0.91278313848E+02 0.  0.
        254    2    1    2    0    0  0.21303181574E+03  0.14120096003E+03 -0.46471516476E+03  0.10431886546E+04  0.89831070303E+03 0.  0.
        -24    2    4    4    0    0 -0.22346977005E+03 -0.20629394598E+03 -0.26890061801E+01  0.31428197796E+03  0.79183335625E+02 0.  0.
         24    2    4    4    0    0  0.43650158580E+03  0.34749490601E+03 -0.46202615858E+03  0.72890667667E+03  0.80934714319E+02 0.  0.
         13    1    3    3    0    0 -0.15826481243E+02  0.64503763370E+01 -0.80198224290E+01  0.18878623234E+02  0.00000000000E+00 0. -1.
        -13    1    3    3    0    0 -0.19720533450E+03 -0.14765133637E+03  0.13197138357E+03  0.27947684549E+03  0.00000000000E+00 0.  1.
          2    1    6    6  502    0  0.20434402488E+03  0.15487602877E+03 -0.26420778331E+03  0.36816955001E+03  0.00000000000E+00 0. -1.
          3    1    5    5  503    0 -0.96232195516E+02 -0.74349518355E+02  0.36242397187E+02  0.12689364715E+03  0.00000000000E+00 0. -1.
         -2    1    5    5    0  503 -0.12723757454E+03 -0.13194442763E+03 -0.38931403367E+02  0.18738833081E+03  0.00000000000E+00 0.  1.
         -1    1    6    6    0  502  0.23215756092E+03  0.19261887724E+03 -0.19781837527E+03  0.36073712667E+03  0.00000000000E+00 0.  1.
<mgrwt>
<rscale>  0 0.12975441E+04</rscale>
<asrwt>0</asrwt>
<pdfrwt beam="1">  1        2 0.12940829E+00 0.12975441E+04</pdfrwt>
<pdfrwt beam="2">  1       -2 0.76983117E-01 0.12975441E+04</pdfrwt>
<totfact> 0.47573448E+01</totfact>
</mgrwt>
</event>
<event>
12    1  0.1467288E-007  0.1851861E+04  0.7818608E-02  0.8679196E-01
         -1   -1    0    0    0  501 -0.00000000000E+00  0.00000000000E+00  0.32838190159E+03  0.32838190159E+03  0.00000000000E+00 0.  1.
          1   -1    0    0  501    0  0.00000000000E+00 -0.00000000000E+00 -0.26108241301E+04  0.26108241301E+04  0.00000000000E+00 0. -1.
         23    2    1    2    0    0 -0.48028089127E+03  0.44703624631E+03 -0.48173238708E+03  0.81903169129E+03  0.90750639386E+02 0.  0.
        254    2    1    2    0    0  0.48028089127E+03 -0.44703624631E+03 -0.18007098415E+04  0.21201743404E+04  0.90668195123E+03 0.  0.
        -24    2    4    4    0    0  0.67991013211E+03 -0.16060711097E+03 -0.84330161190E+03  0.10979986923E+04  0.79819093658E+02 0.  0.
         24    2    4    4    0    0 -0.19962924084E+03 -0.28642913533E+03 -0.95740822957E+03  0.10221756482E+04  0.79492479808E+02 0.  0.
         13    1    3    3    0    0 -0.17297502394E+03  0.18152609264E+03 -0.13356006027E+03  0.28409570731E+03  0.00000000000E+00 0.  1.
        -13    1    3    3    0    0 -0.30730586733E+03  0.26551015366E+03 -0.34817232681E+03  0.53493598398E+03  0.00000000000E+00 0. -1.
          4    1    6    6  502    0 -0.49171627919E+02 -0.72001294066E+02 -0.34989817329E+03  0.36059779119E+03  0.00000000000E+00 0. -1.
          1    1    5    5  503    0  0.20107115804E+03 -0.80924421805E+02 -0.28779115136E+03  0.36028061208E+03  0.00000000000E+00 0. -1.
         -2    1    5    5    0  503  0.47883897407E+03 -0.79682689167E+02 -0.55551046053E+03  0.73771808017E+03  0.00000000000E+00 0.  1.
         -3    1    6    6    0  502 -0.15045761292E+03 -0.21442784127E+03 -0.60751005628E+03  0.66157785701E+03  0.00000000000E+00 0.  1.
<mgrwt>
<rscale>  0 0.18518611E+04</rscale>
<asrwt>0</asrwt>
<pdfrwt beam="1">  1        1 0.40166523E+00 0.18518611E+04</pdfrwt>
<pdfrwt beam="2">  1       -1 0.50520295E-01 0.18518611E+04</pdfrwt>
<totfact> 0.41971047E+00</totfact>
</mgrwt>
</event>
<event>
12    1  0.1467288E-007  0.1401476E+04  0.7818608E-02  0.8952751E-01
         -2   -1    0    0    0  501 -0.00000000000E+00  0.00000000000E+00  0.27929454989E+03  0.27929454989E+03  0.00000000000E+00 0.  1.
          2   -1    0    0  501    0  0.00000000000E+00 -0.00000000000E+00 -0.17581212584E+04  0.17581212584E+04  0.00000000000E+00 0. -1.
         23    2    1    2    0    0  0.81677008149E+02 -0.69067995271E+02  0.12846332811E+03  0.19179520150E+03  0.94026863276E+02 0.  0.
        254    2    1    2    0    0 -0.81677008149E+02  0.69067995271E+02 -0.16072900366E+04  0.18456206068E+04  0.90082886321E+03 0.  0.
        -24    2    4    4    0    0  0.33238489333E+03 -0.53733073503E+02 -0.11920120360E+04  0.12412262830E+04  0.79893874667E+02 0.  0.
         24    2    4    4    0    0 -0.41406190148E+03  0.12280106877E+03 -0.41527800065E+03  0.60439432380E+03  0.79431228569E+02 0.  0.
         13    1    3    3    0    0  0.59784573343E+01  0.67981633837E+01 -0.12052159006E+02  0.15073536884E+02  0.00000000000E+00 0. -1.
        -13    1    3    3    0    0  0.75698550815E+02 -0.75866158654E+02  0.14051548711E+03  0.17672166461E+03  0.00000000000E+00 0.  1.
          4    1    6    6  502    0 -0.83956351808E+02  0.50519487395E+01 -0.11747317404E+03  0.14447884902E+03  0.00000000000E+00 0. -1.
          1    1    5    5  503    0  0.17171557984E+03 -0.35528619499E+00 -0.49467954302E+03  0.52363557640E+03  0.00000000000E+00 0. -1.
         -2    1    5    5    0  503  0.16066931348E+03 -0.53377787308E+02 -0.69733249295E+03  0.71759070660E+03  0.00000000000E+00 0.  1.
         -3    1    6    6    0  502 -0.33010554967E+03  0.11774912003E+03 -0.29780482661E+03  0.45991547478E+03  0.00000000000E+00 0.  1.
<mgrwt>
<rscale>  0 0.14014759E+04</rscale>
<asrwt>0</asrwt>
<pdfrwt beam="1">  1        2 0.27048020E+00 0.14014759E+04</pdfrwt>
<pdfrwt beam="2">  1       -2 0.42968392E-01 0.14014759E+04</pdfrwt>
<totfact> 0.45493637E+01</totfact>
</mgrwt>
</event>
<event>
12    1  0.1467288E-007  0.1240855E+04  0.7818608E-02  0.9077829E-01
          2   -1    0    0  501    0  0.00000000000E+00  0.00000000000E+00  0.19415584014E+04  0.19415584014E+04  0.00000000000E+00 0.  1.
         -2   -1    0    0    0  501 -0.00000000000E+00 -0.00000000000E+00 -0.19825836180E+03  0.19825836180E+03  0.00000000000E+00 0. -1.
         23    2    1    2    0    0  0.22386749523E+03  0.45531093080E+01  0.75553614757E+03  0.79289733968E+03  0.87829008600E+02 0.  0.
        254    2    1    2    0    0 -0.22386749523E+03 -0.45531093080E+01  0.98776389206E+03  0.13469194236E+04  0.88790598651E+03 0.  0.
        -24    2    4    4    0    0  0.24926345637E+03 -0.25953577989E+03  0.45848373565E+03  0.58828291604E+03  0.79864646316E+02 0.  0.
         24    2    4    4    0    0 -0.47313095160E+03  0.25498267058E+03  0.52928015641E+03  0.75863650752E+03  0.80763896034E+02 0.  0.
         13    1    3    3    0    0  0.10290456539E+03  0.26851262651E+02  0.23369482759E+03  0.25675593922E+03  0.00000000000E+00 0. -1.
        -13    1    3    3    0    0  0.12096292984E+03 -0.22298153343E+02  0.52184131999E+03  0.53614140046E+03  0.00000000000E+00 0.  1.
          4    1    6    6  502    0 -0.29996522921E+03  0.18376247104E+03  0.39042838442E+03  0.52553031107E+03  0.00000000000E+00 0. -1.
          1    1    5    5  503    0  0.22539006429E+03 -0.22577175775E+03  0.43873077417E+03  0.54245576768E+03  0.00000000000E+00 0. -1.
         -2    1    5    5    0  503  0.23873392079E+02 -0.33764022142E+02  0.19752961474E+02  0.45827148368E+02  0.00000000000E+00 0.  1.
         -3    1    6    6    0  502 -0.17316572239E+03  0.71220199544E+02  0.13885177200E+03  0.23310619644E+03  0.00000000000E+00 0.  1.
<mgrwt>
<rscale>  0 0.12408548E+04</rscale>
<asrwt>0</asrwt>
<pdfrwt beam="1">  1        2 0.29870128E+00 0.12408548E+04</pdfrwt>
<pdfrwt beam="2">  1       -2 0.30501288E-01 0.12408548E+04</pdfrwt>
<totfact> 0.70500570E+01</totfact>
</mgrwt>
</event>
<event>
12    1  0.1467288E-007  0.1537923E+04  0.7818608E-02  0.8859619E-01
          1   -1    0    0  501    0  0.00000000000E+00  0.00000000000E+00  0.25954976168E+04  0.25954976168E+04  0.00000000000E+00 0. -1.
         -1   -1    0    0    0  501 -0.00000000000E+00 -0.00000000000E+00 -0.22781815727E+03  0.22781815727E+03  0.00000000000E+00 0.  1.
         23    2    1    2    0    0  0.25178290893E+03  0.19778037658E+03  0.14705072805E+04  0.15076842637E+04  0.90600587325E+02 0.  0.
        254    2    1    2    0    0 -0.25178290893E+03 -0.19778037658E+03  0.89717217899E+03  0.13156315103E+04  0.90744511770E+03 0.  0.
        -24    2    4    4    0    0  0.14089980259E+03  0.28794127480E+03  0.35278288150E+03  0.48323428876E+03  0.79351649360E+02 0.  0.
         24    2    4    4    0    0 -0.39268271152E+03 -0.48572165137E+03  0.54438929749E+03  0.83239722157E+03  0.80001204454E+02 0.  0.
         13    1    3    3    0    0  0.17000858727E+03  0.10437301353E+03  0.10678258298E+04  0.10863004412E+04  0.00000000000E+00 0. -1.
        -13    1    3    3    0    0  0.81774321659E+02  0.93407363044E+02  0.40268145071E+03  0.42138382254E+03  0.00000000000E+00 0.  1.
          4    1    6    6  502    0 -0.12597139591E+03 -0.11747711511E+03  0.11580395285E+03  0.20755775258E+03  0.00000000000E+00 0. -1.
          3    1    5    5  503    0  0.90876836067E+02  0.97406685311E+02  0.14570568758E+03  0.19742545193E+03  0.00000000000E+00 0. -1.
         -4    1    5    5    0  503  0.50022966524E+02  0.19053458948E+03  0.20707719391E+03  0.28580883683E+03  0.00000000000E+00 0.  1.
         -3    1    6    6    0  502 -0.26671131562E+03 -0.36824453626E+03  0.42858534464E+03  0.62483946899E+03  0.00000000000E+00 0.  1.
<mgrwt>
<rscale>  0 0.15379226E+04</rscale>
<asrwt>0</asrwt>
<pdfrwt beam="1">  1        1 0.39930731E+00 0.15379226E+04</pdfrwt>
<pdfrwt beam="2">  1       -1 0.35048949E-01 0.15379226E+04</pdfrwt>
<totfact> 0.87009067E+00</totfact>
</mgrwt>
</event>
<event>
12    1  0.1467288E-007  0.1399635E+04  0.7818608E-02  0.8954083E-01
         -2   -1    0    0    0  501 -0.00000000000E+00  0.00000000000E+00  0.24233628845E+03  0.24233628845E+03  0.00000000000E+00 0.  1.
          2   -1    0    0  501    0  0.00000000000E+00 -0.00000000000E+00 -0.20209294678E+04  0.20209294678E+04  0.00000000000E+00 0. -1.
         23    2    1    2    0    0  0.33813346351E+03  0.21995584705E+03 -0.69224808792E+03  0.80602309959E+03  0.88039809474E+02 0.  0.
        254    2    1    2    0    0 -0.33813346351E+03 -0.21995584705E+03 -0.10863450915E+04  0.14572426567E+04  0.88356985515E+03 0.  0.
        -24    2    4    4    0    0  0.12706053748E+03  0.13677524059E+03  0.18551181583E+02  0.20392590405E+03  0.79936108112E+02 0.  0.
         24    2    4    4    0    0 -0.46519400100E+03 -0.35673108764E+03 -0.11048962730E+04  0.12533167526E+04  0.79652876956E+02 0.  0.
         13    1    3    3    0    0  0.16592486724E+03  0.13690461049E+03 -0.29436076754E+03  0.36458496323E+03  0.00000000000E+00 0. -1.
        -13    1    3    3    0    0  0.17220859627E+03  0.83051236566E+02 -0.39788732037E+03  0.44143813637E+03  0.00000000000E+00 0.  1.
          4    1    6    6  502    0 -0.33615303240E+03 -0.21628330264E+03 -0.71045706864E+03  0.81518499408E+03  0.00000000000E+00 0. -1.
          3    1    5    5  503    0 -0.84132177401E+01  0.20659796337E+02 -0.76578185363E+01  0.23584986796E+02  0.00000000000E+00 0. -1.
         -4    1    5    5    0  503  0.13547375522E+03  0.11611544425E+03  0.26209000119E+02  0.18034091725E+03  0.00000000000E+00 0.  1.
         -3    1    6    6    0  502 -0.12904096860E+03 -0.14044778500E+03 -0.39443920440E+03  0.43813175855E+03  0.00000000000E+00 0.  1.
<mgrwt>
<rscale>  0 0.13996350E+04</rscale>
<asrwt>0</asrwt>
<pdfrwt beam="1">  1        2 0.31091222E+00 0.13996350E+04</pdfrwt>
<pdfrwt beam="2">  1       -2 0.37282506E-01 0.13996350E+04</pdfrwt>
<totfact> 0.42972865E+01</totfact>
</mgrwt>
</event>
<event>
12    1  0.1467288E-007  0.1970206E+04  0.7818608E-02  0.8620678E-01
          1   -1    0    0  501    0  0.00000000000E+00  0.00000000000E+00  0.14763365024E+04  0.14763365024E+04  0.00000000000E+00 0. -1.
         -1   -1    0    0    0  501 -0.00000000000E+00 -0.00000000000E+00 -0.65732184977E+03  0.65732184977E+03  0.00000000000E+00 0.  1.
         23    2    1    2    0    0 -0.43911210631E+03  0.46759996438E+03  0.79790506517E+03  0.10278158749E+04  0.91015444761E+02 0.  0.
        254    2    1    2    0    0  0.43911210631E+03 -0.46759996438E+03  0.21109587443E+02  0.11058424772E+04  0.90054028290E+03 0.  0.
        -24    2    4    4    0    0 -0.26203328342E+03 -0.42354667429E+02  0.48362036873E+02  0.28144131173E+03  0.80093482015E+02 0.  0.
         24    2    4    4    0    0  0.70114538973E+03 -0.42524529695E+03 -0.27252449430E+02  0.82440116548E+03  0.80350267713E+02 0.  0.
         13    1    3    3    0    0 -0.22885050695E+03  0.18144922678E+03  0.38450808468E+03  0.48284867569E+03  0.00000000000E+00 0.  1.
        -13    1    3    3    0    0 -0.21026159935E+03  0.28615073760E+03  0.41339698048E+03  0.54496719925E+03  0.00000000000E+00 0. -1.
          4    1    6    6  502    0  0.18462304701E+03 -0.15286844606E+03 -0.18294811706E+02  0.24039370088E+03  0.00000000000E+00 0. -1.
          1    1    5    5  503    0 -0.14679987106E+02  0.10376912116E+02  0.20082687788E+02  0.26953602269E+02  0.00000000000E+00 0. -1.
         -2    1    5    5    0  503 -0.24735329632E+03 -0.52731579545E+02  0.28279349085E+02  0.25448770946E+03  0.00000000000E+00 0.  1.
         -3    1    6    6    0  502  0.51652234272E+03 -0.27237685089E+03 -0.89576377237E+01  0.58400746460E+03  0.00000000000E+00 0.  1.
<mgrwt>
<rscale>  0 0.19702063E+04</rscale>
<asrwt>0</asrwt>
<pdfrwt beam="1">  1        1 0.22712869E+00 0.19702063E+04</pdfrwt>
<pdfrwt beam="2">  1       -1 0.10112644E+00 0.19702063E+04</pdfrwt>
<totfact> 0.58692040E+00</totfact>
</mgrwt>
</event>
<event>
12    1  0.1467288E-007  0.1657195E+04  0.7818608E-02  0.8786161E-01
         -2   -1    0    0    0  501 -0.00000000000E+00  0.00000000000E+00  0.89914260032E+03  0.89914260032E+03  0.00000000000E+00 0.  1.
          2   -1    0    0  501    0  0.00000000000E+00 -0.00000000000E+00 -0.76358721212E+03  0.76358721212E+03  0.00000000000E+00 0. -1.
         23    2    1    2    0    0 -0.16390250354E+03 -0.35434414404E+03 -0.37452604678E+03  0.54871561565E+03  0.91625673594E+02 0.  0.
        254    2    1    2    0    0  0.16390250354E+03  0.35434414404E+03  0.51008143498E+03  0.11140141968E+04  0.91017622319E+03 0.  0.
        -24    2    4    4    0    0 -0.31472061065E+03  0.24365883396E+03  0.46030067662E+03  0.61387551871E+03  0.80918165079E+02 0.  0.
         24    2    4    4    0    0  0.47862311419E+03  0.11068531008E+03  0.49780758370E+02  0.50013867808E+03  0.79556584310E+02 0.  0.
         11    1    3    3    0    0 -0.10263528542E+03 -0.30403116535E+03 -0.31414757945E+03  0.44906308354E+03  0.00000000000E+00 0. -1.
        -11    1    3    3    0    0 -0.61267218117E+02 -0.50312978689E+02 -0.60378467323E+02  0.99652532114E+02  0.00000000000E+00 0.  1.
          4    1    6    6  502    0  0.36107403973E+03  0.52646057230E+02  0.18493405568E+02  0.36536019975E+03  0.00000000000E+00 0. -1.
          1    1    5    5  503    0 -0.21644371185E+03  0.20285280371E+03  0.30364819026E+03  0.42449895621E+03  0.00000000000E+00 0. -1.
         -2    1    5    5    0  503 -0.98276898804E+02  0.40806030247E+02  0.15665248636E+03  0.18937656250E+03  0.00000000000E+00 0.  1.
         -3    1    6    6    0  502  0.11754907446E+03  0.58039252850E+02  0.31287352802E+02  0.13477847834E+03  0.00000000000E+00 0.  1.
<mgrwt>
<rscale>  0 0.16571950E+04</rscale>
<asrwt>0</asrwt>
<pdfrwt beam="1">  1        2 0.11747496E+00 0.16571950E+04</pdfrwt>
<pdfrwt beam="2">  1       -2 0.13832963E+00 0.16571950E+04</pdfrwt>
<totfact> 0.12954455E+01</totfact>
</mgrwt>
</event>
<event>
12    1  0.1467288E-007  0.1603923E+04  0.7818608E-02  0.8818142E-01
          2   -1    0    0  501    0  0.00000000000E+00  0.00000000000E+00  0.18933415716E+04  0.18933415716E+04  0.00000000000E+00 0.  1.
         -2   -1    0    0    0  501 -0.00000000000E+00 -0.00000000000E+00 -0.33968624158E+03  0.33968624158E+03  0.00000000000E+00 0. -1.
         23    2    1    2    0    0  0.15828565236E+03  0.89192236466E+02  0.12422014238E+04  0.12587226313E+04  0.91151975726E+02 0.  0.
        254    2    1    2    0    0 -0.15828565236E+03 -0.89192236466E+02  0.31145390621E+03  0.97430518179E+03  0.90512841563E+03 0.  0.
        -24    2    4    4    0    0  0.34696895572E+03  0.20303324732E+02  0.27466726847E+03  0.45031633005E+03  0.80888859007E+02 0.  0.
         24    2    4    4    0    0 -0.50525460808E+03 -0.10949556120E+03  0.36786637740E+02  0.52398885174E+03  0.77068561161E+02 0.  0.
         11    1    3    3    0    0  0.12277882537E+01  0.13926722507E+02  0.21408748077E+02  0.25569426236E+02  0.00000000000E+00 0. -1.
        -11    1    3    3    0    0  0.15705786411E+03  0.75265513958E+02  0.12207926757E+04  0.12331532051E+04  0.00000000000E+00 0.  1.
          4    1    6    6  502    0 -0.44387575620E+03 -0.85109590040E+02  0.55466095267E+02  0.45535240966E+03  0.00000000000E+00 0. -1.
          3    1    5    5  503    0  0.29864312079E+03  0.45897412756E+02  0.23413407975E+03  0.38224737199E+03  0.00000000000E+00 0. -1.
         -4    1    5    5    0  503  0.48325834937E+02 -0.25594088025E+02  0.40533188720E+02  0.68068958065E+02  0.00000000000E+00 0.  1.
         -3    1    6    6    0  502 -0.61378851884E+02 -0.24385971158E+02 -0.18679457527E+02  0.68636442080E+02  0.00000000000E+00 0.  1.
<mgrwt>
<rscale>  0 0.16039228E+04</rscale>
<asrwt>0</asrwt>
<pdfrwt beam="1">  1        2 0.29128331E+00 0.16039228E+04</pdfrwt>
<pdfrwt beam="2">  1       -2 0.52259423E-01 0.16039228E+04</pdfrwt>
<totfact> 0.25374948E+01</totfact>
</mgrwt>
</event>
<event>
12    1  0.1467288E-007  0.1950495E+04  0.7818608E-02  0.8630122E-01
         -1   -1    0    0    0  501 -0.00000000000E+00  0.00000000000E+00  0.14697470163E+04  0.14697470163E+04  0.00000000000E+00 0.  1.
          1   -1    0    0  501    0  0.00000000000E+00 -0.00000000000E+00 -0.64712356673E+03  0.64712356673E+03  0.00000000000E+00 0. -1.
         23    2    1    2    0    0  0.59184161310E+03 -0.36816535137E+03  0.67426544324E+03  0.97376496758E+03  0.88102799057E+02 0.  0.
        254    2    1    2    0    0 -0.59184161310E+03  0.36816535137E+03  0.14835800636E+03  0.11431056155E+04  0.89378863784E+03 0.  0.
        -24    2    4    4    0    0 -0.48858797240E+03  0.28073734188E+03 -0.31785674113E+03  0.65177812527E+03  0.79057920593E+02 0.  0.
         24    2    4    4    0    0 -0.10325364070E+03  0.87428009491E+02  0.46621474749E+03  0.49132749020E+03  0.75772954847E+02 0.  0.
         13    1    3    3    0    0  0.35567483118E+03 -0.22654805442E+03  0.46619218813E+03  0.62862052367E+03  0.00000000000E+00 0. -1.
        -13    1    3    3    0    0  0.23616678192E+03 -0.14161729695E+03  0.20807325510E+03  0.34514444392E+03  0.00000000000E+00 0.  1.
          4    1    6    6  502    0 -0.28298403653E+02  0.43998423668E+02  0.29327537781E+03  0.29790452861E+03  0.00000000000E+00 0. -1.
          3    1    5    5  503    0 -0.34867240139E+03  0.17859394510E+03 -0.18375680704E+03  0.43270637255E+03  0.00000000000E+00 0. -1.
         -4    1    5    5    0  503 -0.13991557101E+03  0.10214339678E+03 -0.13409993409E+03  0.21907175272E+03  0.00000000000E+00 0.  1.
         -3    1    6    6    0  502 -0.74955237051E+02  0.43429585823E+02  0.17293936968E+03  0.19342296159E+03  0.00000000000E+00 0.  1.
<mgrwt>
<rscale>  0 0.19504953E+04</rscale>
<asrwt>0</asrwt>
<pdfrwt beam="1">  1        1 0.99557472E-01 0.19504953E+04</pdfrwt>
<pdfrwt beam="2">  1       -1 0.22611492E+00 0.19504953E+04</pdfrwt>
<totfact> 0.28605987E+00</totfact>
</mgrwt>
</event>
<event>
12    1  0.1467288E-007  0.1462434E+04  0.7818608E-02  0.8909826E-01
         -2   -1    0    0    0  501 -0.00000000000E+00  0.00000000000E+00  0.14295608478E+03  0.14295608478E+03  0.00000000000E+00 0.  1.
          2   -1    0    0  501    0  0.00000000000E+00 -0.00000000000E+00 -0.37401558596E+04  0.37401558596E+04  0.00000000000E+00 0. -1.
         23    2    1    2    0    0 -0.57825712070E+02 -0.31248801252E+03 -0.40672585862E+03  0.52408125241E+03  0.90789118870E+02 0.  0.
        254    2    1    2    0    0  0.57825712070E+02  0.31248801252E+03 -0.31904739162E+04  0.33590306920E+04  0.10014843028E+04 0.  0.
        -24    2    4    4    0    0 -0.17545597972E+03 -0.38870738323E+02 -0.27002185708E+04  0.27074139455E+04  0.81327772916E+02 0.  0.
         24    2    4    4    0    0  0.23328169179E+03  0.35135875085E+03 -0.49025534536E+03  0.65161674652E+03  0.79879666773E+02 0.  0.
         13    1    3    3    0    0  0.10553854015E+02 -0.25164387521E+02 -0.75606400832E+02  0.80380085100E+02  0.00000000000E+00 0. -1.
        -13    1    3    3    0    0 -0.68379566085E+02 -0.28732362500E+03 -0.33111945779E+03  0.44370116731E+03  0.00000000000E+00 0.  1.
          4    1    6    6  502    0  0.10075734102E+03  0.17677843558E+03 -0.17946607656E+03  0.27131297369E+03  0.00000000000E+00 0. -1.
          3    1    5    5  503    0 -0.57020549339E+02  0.16502305163E+01 -0.14058202948E+04  0.14069771738E+04  0.00000000000E+00 0. -1.
         -4    1    5    5    0  503 -0.11843543038E+03 -0.40520968839E+02 -0.12943982760E+04  0.13004367717E+04  0.00000000000E+00 0.  1.
         -3    1    6    6    0  502  0.13252435077E+03  0.17458031527E+03 -0.31078926879E+03  0.38030377282E+03  0.00000000000E+00 0.  1.
<mgrwt>
<rscale>  0 0.14624336E+04</rscale>
<asrwt>0</asrwt>
<pdfrwt beam="1">  1        2 0.57540857E+00 0.14624336E+04</pdfrwt>
<pdfrwt beam="2">  1       -2 0.21993245E-01 0.14624336E+04</pdfrwt>
<totfact> 0.97282529E+00</totfact>
</mgrwt>
</event>
<event>
12    1  0.1467288E-007  0.1975024E+04  0.7818608E-02  0.8618387E-01
         -1   -1    0    0    0  501 -0.00000000000E+00  0.00000000000E+00  0.75980609895E+03  0.75980609895E+03  0.00000000000E+00 0.  1.
          1   -1    0    0  501    0  0.00000000000E+00 -0.00000000000E+00 -0.12834594607E+04  0.12834594607E+04  0.00000000000E+00 0. -1.
         23    2    1    2    0    0 -0.62687865055E+02  0.58619338474E+03 -0.73820125131E+03  0.94962469534E+03  0.96402914010E+02 0.  0.
        254    2    1    2    0    0  0.62687865055E+02 -0.58619338474E+03  0.21454788954E+03  0.10936408643E+04  0.89580527488E+03 0.  0.
        -24    2    4    4    0    0 -0.34275618530E+02 -0.77617562036E+03  0.31833831059E+03  0.84335203935E+03  0.79246265620E+02 0.  0.
         24    2    4    4    0    0  0.96963483585E+02  0.18998223563E+03 -0.10379042104E+03  0.25028882498E+03  0.79855353035E+02 0.  0.
         11    1    3    3    0    0 -0.60412282356E+02  0.40958144368E+03 -0.44892323137E+03  0.61068704794E+03  0.00000000000E+00 0.  1.
        -11    1    3    3    0    0 -0.22755826992E+01  0.17661194106E+03 -0.28927801994E+03  0.33893764740E+03  0.00000000000E+00 0. -1.
          2    1    6    6  502    0  0.10675316547E+03  0.17195420985E+03 -0.10790710639E+03  0.22936528123E+03  0.00000000000E+00 0. -1.
          3    1    5    5  503    0 -0.46245380506E+02 -0.69888619966E+03  0.26589812278E+03  0.74918780489E+03  0.00000000000E+00 0. -1.
         -4    1    5    5    0  503  0.11969761976E+02 -0.77289420699E+02  0.52440187809E+02  0.94164234459E+02  0.00000000000E+00 0.  1.
         -1    1    6    6    0  502 -0.97896818890E+01  0.18028025780E+02  0.41166853488E+01  0.20923543755E+02  0.00000000000E+00 0.  1.
<mgrwt>
<rscale>  0 0.19750244E+04</rscale>
<asrwt>0</asrwt>
<pdfrwt beam="1">  1        1 0.19745530E+00 0.19750244E+04</pdfrwt>
<pdfrwt beam="2">  1       -1 0.11689325E+00 0.19750244E+04</pdfrwt>
<totfact> 0.57033875E+00</totfact>
</mgrwt>
</event>
<event>
12    1  0.1467288E-007  0.1672042E+04  0.7818608E-02  0.8777472E-01
         -2   -1    0    0    0  501 -0.00000000000E+00  0.00000000000E+00  0.42345674642E+03  0.42345674642E+03  0.00000000000E+00 0.  1.
          2   -1    0    0  501    0  0.00000000000E+00 -0.00000000000E+00 -0.16505370184E+04  0.16505370184E+04  0.00000000000E+00 0. -1.
         23    2    1    2    0    0 -0.52600394375E+03 -0.20055766640E+03 -0.47825462317E+03  0.74439966863E+03  0.92194661915E+02 0.  0.
        254    2    1    2    0    0  0.52600394375E+03  0.20055766640E+03 -0.74882564876E+03  0.13295940961E+04  0.94349196174E+03 0.  0.
        -24    2    4    4    0    0  0.13018176170E+03  0.54146604356E+03 -0.31275814143E+03  0.64371672081E+03  0.80129858403E+02 0.  0.
         24    2    4    4    0    0  0.39582218204E+03 -0.34090837716E+03 -0.43606750732E+03  0.68587737534E+03  0.85902163192E+02 0.  0.
         11    1    3    3    0    0 -0.47868571394E+03 -0.19646710629E+03 -0.40496451776E+03  0.65706590022E+03  0.00000000000E+00 0.  1.
        -11    1    3    3    0    0 -0.47318229802E+02 -0.40905601118E+01 -0.73290105414E+02  0.87333768413E+02  0.00000000000E+00 0. -1.
          2    1    6    6  502    0  0.11367465029E+03 -0.11389495027E+03 -0.18516322600E+03  0.24531491206E+03  0.00000000000E+00 0. -1.
          1    1    5    5  503    0 -0.44652615822E+01  0.48714946574E+01  0.23821066192E+01  0.70245607079E+01  0.00000000000E+00 0. -1.
         -2    1    5    5    0  503  0.13464702329E+03  0.53659454890E+03 -0.31514024805E+03  0.63669216010E+03  0.00000000000E+00 0.  1.
         -1    1    6    6    0  502  0.28214753175E+03 -0.22701342689E+03 -0.25090428132E+03  0.44056246328E+03  0.00000000000E+00 0.  1.
<mgrwt>
<rscale>  0 0.16720419E+04</rscale>
<asrwt>0</asrwt>
<pdfrwt beam="1">  1        2 0.25392878E+00 0.16720419E+04</pdfrwt>
<pdfrwt beam="2">  1       -2 0.65147190E-01 0.16720419E+04</pdfrwt>
<totfact> 0.21647039E+01</totfact>
</mgrwt>
</event>
<event>
12    1  0.1467288E-007  0.1491114E+04  0.7818608E-02  0.8890384E-01
         -1   -1    0    0    0  501 -0.00000000000E+00  0.00000000000E+00  0.11242925073E+04  0.11242925073E+04  0.00000000000E+00 0.  1.
          1   -1    0    0  501    0  0.00000000000E+00 -0.00000000000E+00 -0.49440454561E+03  0.49440454561E+03  0.00000000000E+00 0. -1.
         23    2    1    2    0    0  0.37063623100E+02  0.18579081731E+03  0.66675372784E+03  0.69911146775E+03  0.91128320511E+02 0.  0.
        254    2    1    2    0    0 -0.37063623100E+02 -0.18579081731E+03 -0.36865766143E+02  0.91958558516E+03  0.89910323310E+03 0.  0.
        -24    2    4    4    0    0  0.37002886551E+03  0.11576424011E+03 -0.83725172390E+02  0.40459832144E+03  0.79794590178E+02 0.  0.
         24    2    4    4    0    0 -0.40709248861E+03 -0.30155505742E+03  0.46859406247E+02  0.51498726372E+03  0.79726600969E+02 0.  0.
         13    1    3    3    0    0 -0.27748277368E+01  0.98241305863E+02  0.46923635804E+03  0.47941820319E+03  0.00000000000E+00 0.  1.
        -13    1    3    3    0    0  0.39838450837E+02  0.87549511444E+02  0.19751736980E+03  0.21969326456E+03  0.00000000000E+00 0. -1.
          4    1    6    6  502    0 -0.29917918713E+03 -0.26237245903E+03  0.40914122666E+02  0.40002682248E+03  0.00000000000E+00 0. -1.
          3    1    5    5  503    0  0.35172793620E+03  0.88980313914E+02 -0.82846254625E+02  0.37214720108E+03  0.00000000000E+00 0. -1.
         -2    1    5    5    0  503  0.18300929313E+02  0.26783926198E+02 -0.87891776492E+00  0.32451120362E+02  0.00000000000E+00 0.  1.
         -3    1    6    6    0  502 -0.10791330149E+03 -0.39182598385E+02  0.59452835811E+01  0.11496044124E+03  0.00000000000E+00 0.  1.
<mgrwt>
<rscale>  0 0.14911141E+04</rscale>
<asrwt>0</asrwt>
<pdfrwt beam="1">  1        1 0.76062238E-01 0.14911141E+04</pdfrwt>
<pdfrwt beam="2">  1       -1 0.17296808E+00 0.14911141E+04</pdfrwt>
<totfact> 0.10198045E+01</totfact>
</mgrwt>
</event>
<event>
12    1  0.1467288E-007  0.1648350E+04  0.7818608E-02  0.8791383E-01
          2   -1    0    0  501    0  0.00000000000E+00  0.00000000000E+00  0.85890555997E+03  0.85890555997E+03  0.00000000000E+00 0. -1.
         -2   -1    0    0    0  501 -0.00000000000E+00 -0.00000000000E+00 -0.79084866257E+03  0.79084866257E+03  0.00000000000E+00 0.  1.
         23    2    1    2    0    0  0.28896901791E+03  0.37663987218E+03 -0.30475151207E+03  0.57148896158E+03  0.91462902147E+02 0.  0.
        254    2    1    2    0    0 -0.28896901791E+03 -0.37663987218E+03  0.37280840948E+03  0.10782652610E+04  0.89348149180E+03 0.  0.
        -24    2    4    4    0    0  0.26078125194E+02  0.21032655514E+03  0.33816515847E+03  0.40693914991E+03  0.79539103059E+02 0.  0.
         24    2    4    4    0    0 -0.31504714310E+03 -0.58696642732E+03  0.34643251010E+02  0.67132611105E+03  0.75460608058E+02 0.  0.
         11    1    3    3    0    0 -0.59557372912E+01  0.46575287697E+01 -0.10633795699E+02  0.13047643155E+02  0.00000000000E+00 0.  1.
        -11    1    3    3    0    0  0.29492475520E+03  0.37198234341E+03 -0.29411771638E+03  0.55844131842E+03  0.00000000000E+00 0. -1.
          4    1    6    6  502    0 -0.63124672640E+02 -0.86404620086E+02  0.29196310000E+02  0.11091847090E+03  0.00000000000E+00 0. -1.
          3    1    5    5  503    0  0.45853702460E+02  0.65466450210E+02  0.11068179261E+03  0.13652427384E+03  0.00000000000E+00 0. -1.
         -4    1    5    5    0  503 -0.19775577265E+02  0.14486010493E+03  0.22748336586E+03  0.27041487607E+03  0.00000000000E+00 0.  1.
         -3    1    6    6    0  502 -0.25192247046E+03 -0.50056180723E+03  0.54469410104E+01  0.56040764016E+03  0.00000000000E+00 0.  1.
<mgrwt>
<rscale>  0 0.16483499E+04</rscale>
<asrwt>0</asrwt>
<pdfrwt beam="1">  1        2 0.13213932E+00 0.16483499E+04</pdfrwt>
<pdfrwt beam="2">  1       -2 0.12166902E+00 0.16483499E+04</pdfrwt>
<totfact> 0.15335107E+01</totfact>
</mgrwt>
</event>
<event>
12    1  0.1467288E-007  0.1487033E+04  0.7818608E-02  0.8893122E-01
          1   -1    0    0  501    0  0.00000000000E+00  0.00000000000E+00  0.37292911915E+04  0.37292911915E+04  0.00000000000E+00 0. -1.
         -1   -1    0    0    0  501 -0.00000000000E+00 -0.00000000000E+00 -0.14823633474E+03  0.14823633474E+03  0.00000000000E+00 0.  1.
         23    2    1    2    0    0 -0.37012308409E+03  0.23129400034E+03  0.15529037645E+04  0.16156691370E+04  0.91589554572E+02 0.  0.
        254    2    1    2    0    0  0.37012308409E+03 -0.23129400034E+03  0.20281510923E+04  0.22618583893E+04  0.90117618034E+03 0.  0.
        -24    2    4    4    0    0  0.24070990607E+03 -0.56004477055E+03  0.10230163346E+04  0.11935320435E+04  0.79780412217E+02 0.  0.
         24    2    4    4    0    0  0.12941317801E+03  0.32875077021E+03  0.10051347577E+04  0.10683263458E+04  0.78743001825E+02 0.  0.
         11    1    3    3    0    0 -0.96154953124E+02  0.72318143817E+02  0.58533213169E+03  0.59756957195E+03  0.00000000000E+00 0. -1.
        -11    1    3    3    0    0 -0.27396813096E+03  0.15897585652E+03  0.96757163276E+03  0.10180995650E+04  0.00000000000E+00 0.  1.
          2    1    6    6  502    0  0.61209206752E+02  0.23512576707E+03  0.61139349099E+03  0.65790021596E+03  0.00000000000E+00 0. -1.
          1    1    5    5  503    0  0.14210314667E+03 -0.23333504827E+03  0.47388554430E+03  0.54699731091E+03  0.00000000000E+00 0. -1.
         -2    1    5    5    0  503  0.98606759406E+02 -0.32670972227E+03  0.54913079032E+03  0.64653473263E+03  0.00000000000E+00 0.  1.
         -1    1    6    6    0  502  0.68203971262E+02  0.93625003142E+02  0.39374126673E+03  0.41042612982E+03  0.00000000000E+00 0.  1.
<mgrwt>
<rscale>  0 0.14870326E+04</rscale>
<asrwt>0</asrwt>
<pdfrwt beam="1">  1        1 0.57373703E+00 0.14870326E+04</pdfrwt>
<pdfrwt beam="2">  1       -1 0.22805593E-01 0.14870326E+04</pdfrwt>
<totfact> 0.26303147E+00</totfact>
</mgrwt>
</event>
<event>
12    1  0.1467288E-007  0.2856528E+04  0.7818608E-02  0.8285930E-01
          2   -1    0    0  501    0  0.00000000000E+00  0.00000000000E+00  0.15882327058E+04  0.15882327058E+04  0.00000000000E+00 0. -1.
         -2   -1    0    0    0  501 -0.00000000000E+00 -0.00000000000E+00 -0.12844073954E+04  0.12844073954E+04  0.00000000000E+00 0.  1.
         23    2    1    2    0    0 -0.91903014548E+03  0.38299768743E+03  0.94821068751E+03  0.13778241267E+04  0.89398989524E+02 0.  0.
        254    2    1    2    0    0  0.91903014548E+03 -0.38299768743E+03 -0.64438537714E+03  0.14948159745E+04  0.90991133996E+03 0.  0.
        -24    2    4    4    0    0  0.99980617417E+03 -0.23046471920E+03 -0.25295777440E+03  0.10595872935E+04  0.77532085109E+02 0.  0.
         24    2    4    4    0    0 -0.80776028688E+02 -0.15253296823E+03 -0.39142760273E+03  0.43522868104E+03  0.80108447788E+02 0.  0.
         11    1    3    3    0    0 -0.83585845486E+03  0.36255347738E+03  0.89403471499E+03  0.12764804942E+04  0.00000000000E+00 0. -1.
        -11    1    3    3    0    0 -0.83171690618E+02  0.20444210054E+02  0.54175972514E+02  0.10134363247E+03  0.00000000000E+00 0.  1.
          2    1    6    6  502    0 -0.54979869668E+02 -0.13974801781E+03 -0.25619155618E+03  0.29696196391E+03  0.00000000000E+00 0. -1.
          1    1    5    5  503    0  0.93997279586E+03 -0.21674130940E+03 -0.25631120801E+03  0.99810875535E+03  0.00000000000E+00 0. -1.
         -2    1    5    5    0  503  0.59833378313E+02 -0.13723409797E+02  0.33534336067E+01  0.61478538156E+02  0.00000000000E+00 0.  1.
         -1    1    6    6    0  502 -0.25796159020E+02 -0.12784950419E+02 -0.13523604656E+03  0.13826671713E+03  0.00000000000E+00 0.  1.
<mgrwt>
<rscale>  0 0.28565278E+04</rscale>
<asrwt>0</asrwt>
<pdfrwt beam="1">  1        2 0.24434349E+00 0.28565278E+04</pdfrwt>
<pdfrwt beam="2">  1       -2 0.19760114E+00 0.28565278E+04</pdfrwt>
<totfact> 0.13528301E+00</totfact>
</mgrwt>
</event>
<event>
12    1  0.1467288E-007  0.1211293E+04  0.7818608E-02  0.9103029E-01
         -2   -1    0    0    0  501 -0.00000000000E+00  0.00000000000E+00  0.10593921050E+04  0.10593921050E+04  0.00000000000E+00 0.  1.
          2   -1    0    0  501    0  0.00000000000E+00 -0.00000000000E+00 -0.34624336680E+03  0.34624336680E+03  0.00000000000E+00 0. -1.
         23    2    1    2    0    0  0.17130977401E+03  0.81451015251E+02  0.35028162175E+03  0.40873836009E+03  0.91588896274E+02 0.  0.
        254    2    1    2    0    0 -0.17130977401E+03 -0.81451015251E+02  0.36286711648E+03  0.99689711173E+03  0.90892794026E+03 0.  0.
        -24    2    4    4    0    0  0.30782555152E+03 -0.99665585444E+02 -0.76074535591E+02  0.34206532535E+03  0.80818022432E+02 0.  0.
         24    2    4    4    0    0 -0.47913532554E+03  0.18214570193E+02  0.43894165207E+03  0.65483178638E+03  0.78945954834E+02 0.  0.
         11    1    3    3    0    0  0.62948987208E+02  0.47168723987E+02  0.66358581004E+02  0.10291221884E+03  0.00000000000E+00 0. -1.
        -11    1    3    3    0    0  0.10836078680E+03  0.34282291264E+02  0.28392304074E+03  0.30582614126E+03  0.00000000000E+00 0.  1.
          4    1    6    6  502    0 -0.44504108556E+03 -0.18365110452E+01  0.41548940237E+03  0.60884840814E+03  0.00000000000E+00 0. -1.
          1    1    5    5  503    0  0.26665818916E+03 -0.10031631867E+03 -0.89710181822E+02  0.29869360615E+03  0.00000000000E+00 0. -1.
         -2    1    5    5    0  503  0.41167362367E+02  0.65073322242E+00  0.13635646231E+02  0.43371719197E+02  0.00000000000E+00 0.  1.
         -3    1    6    6    0  502 -0.34094239975E+02  0.20051081239E+02  0.23452249698E+02  0.45983378238E+02  0.00000000000E+00 0.  1.
<mgrwt>
<rscale>  0 0.12112927E+04</rscale>
<asrwt>0</asrwt>
<pdfrwt beam="1">  1        2 0.53268211E-01 0.12112927E+04</pdfrwt>
<pdfrwt beam="2">  1       -2 0.16298340E+00 0.12112927E+04</pdfrwt>
<totfact> 0.22060148E+01</totfact>
</mgrwt>
</event>
<event>
12    1  0.1467288E-007  0.1493279E+04  0.7818608E-02  0.8888935E-01
         -2   -1    0    0    0  501 -0.00000000000E+00  0.00000000000E+00  0.27505620280E+03  0.27505620280E+03  0.00000000000E+00 0. -1.
          2   -1    0    0  501    0  0.00000000000E+00 -0.00000000000E+00 -0.20267512192E+04  0.20267512192E+04  0.00000000000E+00 0.  1.
         23    2    1    2    0    0 -0.18171897029E+03 -0.10156264864E+03  0.89210354201E+02  0.24359604029E+03  0.89687166211E+02 0.  0.
        254    2    1    2    0    0  0.18171897029E+03  0.10156264864E+03 -0.18409053706E+04  0.20582113817E+04  0.89664081578E+03 0.  0.
        -24    2    4    4    0    0  0.26167249002E+02 -0.19147346883E+03 -0.16566166265E+04  0.16695714720E+04  0.75785478340E+02 0.  0.
         24    2    4    4    0    0  0.15555172129E+03  0.29303611748E+03 -0.18428874407E+03  0.38863990968E+03  0.83738486146E+02 0.  0.
         11    1    3    3    0    0 -0.13703908827E+03 -0.10573253965E+03  0.41287017557E+02  0.17794296691E+03  0.00000000000E+00 0. -1.
        -11    1    3    3    0    0 -0.44679882021E+02  0.41698910053E+01  0.47923336645E+02  0.65653073375E+02  0.00000000000E+00 0.  1.
          2    1    6    6  502    0  0.13063874454E+03  0.26604295108E+03 -0.18912948709E+03  0.35158967032E+03  0.00000000000E+00 0. -1.
          3    1    5    5  503    0 -0.32369318663E+01 -0.17177988964E+03 -0.14097996741E+04  0.14202302381E+04  0.00000000000E+00 0. -1.
         -4    1    5    5    0  503  0.29404180868E+02 -0.19693579198E+02 -0.24681695241E+03  0.24934123388E+03  0.00000000000E+00 0.  1.
         -1    1    6    6    0  502  0.24912976753E+02  0.26993166399E+02  0.48407430253E+01  0.37050239351E+02  0.00000000000E+00 0.  1.
<mgrwt>
<rscale>  0 0.14932789E+04</rscale>
<asrwt>0</asrwt>
<pdfrwt beam="1">  1        2 0.31180789E+00 0.14932789E+04</pdfrwt>
<pdfrwt beam="2">  1       -2 0.42316338E-01 0.14932789E+04</pdfrwt>
<totfact> 0.33049911E+01</totfact>
</mgrwt>
</event>
<event>
12    1  0.1467288E-007  0.1609818E+04  0.7818608E-02  0.8814539E-01
          1   -1    0    0  501    0  0.00000000000E+00  0.00000000000E+00  0.37576556913E+04  0.37576556913E+04  0.00000000000E+00 0. -1.
         -1   -1    0    0    0  501 -0.00000000000E+00 -0.00000000000E+00 -0.17241571387E+03  0.17241571387E+03  0.00000000000E+00 0.  1.
         23    2    1    2    0    0 -0.17160877009E+03 -0.42409050002E+03  0.19796362545E+04  0.20339752327E+04  0.93772197047E+02 0.  0.
        254    2    1    2    0    0  0.17160877009E+03  0.42409050002E+03  0.16056037230E+04  0.18960961725E+04  0.89884095258E+03 0.  0.
        -24    2    4    4    0    0  0.21104420382E+03  0.48543476433E+03  0.16809801104E+04  0.17641242681E+04  0.79080561264E+02 0.  0.
         24    2    4    4    0    0 -0.39435433735E+02 -0.61344264308E+02 -0.75376387453E+02  0.13197190445E+03  0.80104379286E+02 0.  0.
         11    1    3    3    0    0 -0.57267209562E+02 -0.21390016168E+03  0.11188083546E+04  0.11405108271E+04  0.00000000000E+00 0. -1.
        -11    1    3    3    0    0 -0.11434156052E+03 -0.21019033833E+03  0.86082789988E+03  0.89346440556E+03  0.00000000000E+00 0.  1.
          2    1    6    6  502    0 -0.19699306832E+02 -0.76357014772E+02 -0.39069496140E+02  0.88005010784E+02  0.00000000000E+00 0. -1.
          3    1    5    5  503    0  0.16703954678E+03  0.37133881237E+03  0.13921103812E+04  0.14504364989E+04  0.00000000000E+00 0. -1.
         -4    1    5    5    0  503  0.44004657044E+02  0.11409595196E+03  0.28886972922E+03  0.31368776921E+03  0.00000000000E+00 0.  1.
         -1    1    6    6    0  502 -0.19736126903E+02  0.15012750463E+02 -0.36306891313E+02  0.43966893664E+02  0.00000000000E+00 0.  1.
<mgrwt>
<rscale>  0 0.16098185E+04</rscale>
<asrwt>0</asrwt>
<pdfrwt beam="1">  1        1 0.57810081E+00 0.16098185E+04</pdfrwt>
<pdfrwt beam="2">  1       -1 0.26525497E-01 0.16098185E+04</pdfrwt>
<totfact> 0.18986732E+00</totfact>
</mgrwt>
</event>
<event>
12    1  0.1467288E-007  0.1211317E+04  0.7818608E-02  0.9103008E-01
         -1   -1    0    0    0  501 -0.00000000000E+00  0.00000000000E+00  0.41815269552E+03  0.41815269552E+03  0.00000000000E+00 0.  1.
          1   -1    0    0  501    0  0.00000000000E+00 -0.00000000000E+00 -0.87724439796E+03  0.87724439796E+03  0.00000000000E+00 0. -1.
         23    2    1    2    0    0 -0.17956535445E+03  0.18438220274E+03 -0.66957680520E+02  0.28112621471E+03  0.91148803652E+02 0.  0.
        254    2    1    2    0    0  0.17956535445E+03 -0.18438220274E+03 -0.39213402191E+03  0.10142708788E+04  0.89929739863E+03 0.  0.
        -24    2    4    4    0    0 -0.27606715589E+03 -0.33165429938E+03 -0.10534574042E+03  0.45097000788E+03  0.77901053383E+02 0.  0.
         24    2    4    4    0    0  0.45563251035E+03  0.14727209664E+03 -0.28678828149E+03  0.56330087089E+03  0.75962476357E+02 0.  0.
         13    1    3    3    0    0 -0.16228089287E+03  0.12638638847E+03 -0.77292660660E+02  0.21973339021E+03  0.00000000000E+00 0.  1.
        -13    1    3    3    0    0 -0.17284461584E+02  0.57995814274E+02  0.10334980140E+02  0.61392824500E+02  0.00000000000E+00 0. -1.
          4    1    6    6  502    0  0.41805044603E+02  0.38509648585E+02 -0.37541246209E+02  0.68117545136E+02  0.00000000000E+00 0. -1.
          3    1    5    5  503    0 -0.11916193019E+03 -0.13354196854E+03 -0.82929831772E+02  0.19725714174E+03  0.00000000000E+00 0. -1.
         -4    1    5    5    0  503 -0.15690522570E+03 -0.19811233085E+03 -0.22415908649E+02  0.25371286614E+03  0.00000000000E+00 0.  1.
         -3    1    6    6    0  502  0.41382746574E+03  0.10876244805E+03 -0.24924703528E+03  0.49518332576E+03  0.00000000000E+00 0.  1.
<mgrwt>
<rscale>  0 0.12113168E+04</rscale>
<asrwt>0</asrwt>
<pdfrwt beam="1">  1        1 0.13496067E+00 0.12113168E+04</pdfrwt>
<pdfrwt beam="2">  1       -1 0.64331185E-01 0.12113168E+04</pdfrwt>
<totfact> 0.46051379E+01</totfact>
</mgrwt>
</event>
<event>
12    1  0.1467288E-007  0.2424394E+04  0.7818608E-02  0.8430427E-01
         -2   -1    0    0    0  501 -0.00000000000E+00  0.00000000000E+00  0.67253638331E+03  0.67253638331E+03  0.00000000000E+00 0.  1.
          2   -1    0    0  501    0  0.00000000000E+00 -0.00000000000E+00 -0.21848961085E+04  0.21848961085E+04  0.00000000000E+00 0. -1.
         23    2    1    2    0    0  0.16127782120E+03  0.53368275821E+03 -0.16486944456E+04  0.17427889811E+04  0.91061713371E+02 0.  0.
        254    2    1    2    0    0 -0.16127782120E+03 -0.53368275821E+03  0.13633472042E+03  0.11146435107E+04  0.95551827715E+03 0.  0.
        -24    2    4    4    0    0 -0.99238447270E+02  0.15422429190E+03 -0.24872916623E+03  0.31986762808E+03  0.82557251236E+02 0.  0.
         24    2    4    4    0    0 -0.62039373932E+02 -0.68790705011E+03  0.38506388665E+03  0.79477588263E+03  0.79558238408E+02 0.  0.
         13    1    3    3    0    0  0.47800872419E+01  0.55895727031E+02 -0.25734308993E+03  0.26338687794E+03  0.00000000000E+00 0.  1.
        -13    1    3    3    0    0  0.15649773396E+03  0.47778703118E+03 -0.13913513557E+04  0.14794021032E+04  0.00000000000E+00 0. -1.
          4    1    6    6  502    0  0.11096611870E+02 -0.23668023637E+02  0.22573537026E+02  0.34538018353E+02  0.00000000000E+00 0. -1.
          3    1    5    5  503    0  0.44204167246E+01  0.59149576491E+02 -0.89960141002E+02  0.10775453333E+03  0.00000000000E+00 0. -1.
         -4    1    5    5    0  503 -0.10365886399E+03  0.95074715409E+02 -0.15876902523E+03  0.21211309476E+03  0.00000000000E+00 0.  1.
         -3    1    6    6    0  502 -0.73135985802E+02 -0.66423902648E+03  0.36249034963E+03  0.76023786428E+03  0.00000000000E+00 0.  1.
<mgrwt>
<rscale>  0 0.24243945E+04</rscale>
<asrwt>0</asrwt>
<pdfrwt beam="1">  1        2 0.33613786E+00 0.24243945E+04</pdfrwt>
<pdfrwt beam="2">  1       -2 0.10346714E+00 0.24243945E+04</pdfrwt>
<totfact> 0.35981480E+00</totfact>
</mgrwt>
</event>
<event>
12    1  0.1467288E-007  0.1032965E+04  0.7818608E-02  0.9273111E-01
         -1   -1    0    0    0  501 -0.00000000000E+00  0.00000000000E+00  0.11499668380E+03  0.11499668380E+03  0.00000000000E+00 0.  1.
          1   -1    0    0  501    0  0.00000000000E+00 -0.00000000000E+00 -0.23196675923E+04  0.23196675923E+04  0.00000000000E+00 0. -1.
         23    2    1    2    0    0 -0.19355801824E+03 -0.28751122284E+01 -0.94541776307E+03  0.96932171165E+03  0.91087108007E+02 0.  0.
        254    2    1    2    0    0  0.19355801824E+03  0.28751122284E+01 -0.12592531454E+04  0.14653425645E+04  0.72390425765E+03 0.  0.
        -24    2    4    4    0    0 -0.18157028575E+02 -0.30833025120E+03 -0.82904356090E+03  0.88816753061E+03  0.78301437171E+02 0.  0.
         24    2    4    4    0    0  0.21171504682E+03  0.31120536343E+03 -0.43020958454E+03  0.57717503386E+03  0.79866725252E+02 0.  0.
         11    1    3    3    0    0 -0.12335091820E+02 -0.28096319612E+02 -0.11912604442E+03  0.12301451998E+03  0.00000000000E+00 0.  1.
        -11    1    3    3    0    0 -0.18122292642E+03  0.25221207383E+02 -0.82629171865E+03  0.84630719167E+03  0.00000000000E+00 0. -1.
          2    1    6    6  502    0  0.19622026198E+03  0.27506189026E+03 -0.41466086024E+03  0.53488789826E+03  0.00000000000E+00 0. -1.
          1    1    5    5  503    0  0.18845663199E+02 -0.18922920657E+03 -0.56517244307E+03  0.59630759012E+03  0.00000000000E+00 0. -1.
         -2    1    5    5    0  503 -0.37002691774E+02 -0.11910104464E+03 -0.26387111784E+03  0.29185994049E+03  0.00000000000E+00 0.  1.
         -1    1    6    6    0  502  0.15494784833E+02  0.36143473173E+02 -0.15548724297E+02  0.42287135601E+02  0.00000000000E+00 0.  1.
<mgrwt>
<rscale>  0 0.10329648E+04</rscale>
<asrwt>0</asrwt>
<pdfrwt beam="1">  1        1 0.35687195E+00 0.10329648E+04</pdfrwt>
<pdfrwt beam="2">  1       -1 0.17691797E-01 0.10329648E+04</pdfrwt>
<totfact> 0.45678233E+01</totfact>
</mgrwt>
</event>
<event>
12    1  0.1467288E-007  0.1681001E+04  0.7818608E-02  0.8772275E-01
         -2   -1    0    0    0  501 -0.00000000000E+00  0.00000000000E+00  0.62485622868E+03  0.62485622868E+03  0.00000000000E+00 0.  1.
          2   -1    0    0  501    0  0.00000000000E+00 -0.00000000000E+00 -0.11305663891E+04  0.11305663891E+04  0.00000000000E+00 0. -1.
         23    2    1    2    0    0 -0.16686608994E+03 -0.41580894977E+03 -0.59091153532E+03  0.74725303834E+03  0.92028724128E+02 0.  0.
        254    2    1    2    0    0  0.16686608994E+03  0.41580894977E+03  0.85201374940E+02  0.10081695794E+04  0.89911359230E+03 0.  0.
        -24    2    4    4    0    0 -0.17862725248E+03 -0.17916650162E+03  0.15984481367E+03  0.31158003804E+03  0.86737679349E+02 0.  0.
         24    2    4    4    0    0  0.34549334242E+03  0.59497545138E+03 -0.74643438730E+02  0.69658954136E+03  0.79397158535E+02 0.  0.
         11    1    3    3    0    0 -0.49462801660E+01 -0.17893774393E+02 -0.25411187529E+01  0.18737933024E+02  0.00000000000E+00 0.  1.
        -11    1    3    3    0    0 -0.16191980978E+03 -0.39791517537E+03 -0.58837041657E+03  0.72851510532E+03  0.00000000000E+00 0. -1.
          4    1    6    6  502    0  0.30048545626E+02  0.27438750207E+02 -0.18973334270E+02  0.44897522432E+02  0.00000000000E+00 0. -1.
          1    1    5    5  503    0 -0.81697273158E+02 -0.31569610825E+02  0.76628555975E+02  0.11637448329E+03  0.00000000000E+00 0. -1.
         -2    1    5    5    0  503 -0.96929979318E+02 -0.14759689079E+03  0.83216257695E+02  0.19520555476E+03  0.00000000000E+00 0.  1.
         -3    1    6    6    0  502  0.31544479679E+03  0.56753670118E+03 -0.55670104460E+02  0.65169201893E+03  0.00000000000E+00 0.  1.
<mgrwt>
<rscale>  0 0.16810014E+04</rscale>
<asrwt>0</asrwt>
<pdfrwt beam="1">  1        2 0.17393329E+00 0.16810014E+04</pdfrwt>
<pdfrwt beam="2">  1       -2 0.96131727E-01 0.16810014E+04</pdfrwt>
<totfact> 0.18026807E+01</totfact>
</mgrwt>
</event>
<event>
12    1  0.1467288E-007  0.1768300E+04  0.7818608E-02  0.8723341E-01
          1   -1    0    0  501    0  0.00000000000E+00  0.00000000000E+00  0.10962529483E+04  0.10962529483E+04  0.00000000000E+00 0. -1.
         -1   -1    0    0    0  501 -0.00000000000E+00 -0.00000000000E+00 -0.71308501087E+03  0.71308501087E+03  0.00000000000E+00 0.  1.
         23    2    1    2    0    0  0.35319838209E+03  0.26952634618E+03 -0.40485599609E+03  0.60802624827E+03  0.91618735051E+02 0.  0.
        254    2    1    2    0    0 -0.35319838209E+03 -0.26952634618E+03  0.78802393348E+03  0.12013117108E+04  0.79042682045E+03 0.  0.
        -24    2    4    4    0    0 -0.38064796486E+03 -0.26186244291E+03  0.92811085906E+03  0.10398379730E+04  0.80052677428E+02 0.  0.
         24    2    4    4    0    0  0.27449582764E+02 -0.76639032761E+01 -0.14008692558E+03  0.16147373788E+03  0.75081331239E+02 0.  0.
         13    1    3    3    0    0  0.22007617662E+03  0.15122654810E+03 -0.29887775705E+03  0.40078785663E+03  0.00000000000E+00 0. -1.
        -13    1    3    3    0    0  0.13312220548E+03  0.11829979808E+03 -0.10597823904E+03  0.20723839164E+03  0.00000000000E+00 0.  1.
          4    1    6    6  502    0  0.51103730487E+02 -0.16154659284E+01 -0.11779433391E+03  0.12841225059E+03  0.00000000000E+00 0. -1.
          3    1    5    5  503    0 -0.27807362994E+03 -0.17480441064E+03  0.72849371460E+03  0.79911489653E+03  0.00000000000E+00 0. -1.
         -4    1    5    5    0  503 -0.10257433492E+03 -0.87058032270E+02  0.19961714446E+03  0.24072307644E+03  0.00000000000E+00 0.  1.
         -3    1    6    6    0  502 -0.23654147723E+02 -0.60484373476E+01 -0.22292591667E+02  0.33061487294E+02  0.00000000000E+00 0.  1.
<mgrwt>
<rscale>  0 0.17683004E+04</rscale>
<asrwt>0</asrwt>
<pdfrwt beam="1">  1        1 0.16865430E+00 0.17683004E+04</pdfrwt>
<pdfrwt beam="2">  1       -1 0.10970539E+00 0.17683004E+04</pdfrwt>
<totfact> 0.92750773E+00</totfact>
</mgrwt>
</event>
<event>
12    1  0.1467288E-007  0.1336856E+04  0.7818608E-02  0.9000838E-01
          2   -1    0    0  501    0  0.00000000000E+00  0.00000000000E+00  0.33738817072E+03  0.33738817072E+03  0.00000000000E+00 0. -1.
         -2   -1    0    0    0  501 -0.00000000000E+00 -0.00000000000E+00 -0.13242787296E+04  0.13242787296E+04  0.00000000000E+00 0.  1.
         23    2    1    2    0    0  0.14861320147E+02 -0.38980335730E+03 -0.11673719953E+03  0.41728123074E+03  0.91260810758E+02 0.  0.
        254    2    1    2    0    0 -0.14861320147E+02  0.38980335730E+03 -0.87015335930E+03  0.12443856695E+04  0.79947564668E+03 0.  0.
        -24    2    4    4    0    0  0.16929530581E+03  0.33585547875E+03 -0.94670490586E+03  0.10219852923E+04  0.82121590593E+02 0.  0.
         24    2    4    4    0    0 -0.18415662596E+03  0.53947878546E+02  0.76551546556E+02  0.22240037727E+03  0.82327103958E+02 0.  0.
         13    1    3    3    0    0 -0.86814820900E+01 -0.87671373278E+02  0.10266798125E+02  0.88696363891E+02  0.00000000000E+00 0.  1.
        -13    1    3    3    0    0  0.23542802237E+02 -0.30213198402E+03 -0.12700399765E+03  0.32858486685E+03  0.00000000000E+00 0. -1.
          2    1    6    6  502    0 -0.15949557493E+03  0.31345626683E+02  0.90631580436E+02  0.18610607220E+03  0.00000000000E+00 0. -1.
          1    1    5    5  503    0  0.15120556945E+03  0.32365536492E+03 -0.92323977122E+03  0.98994322798E+03  0.00000000000E+00 0. -1.
         -2    1    5    5    0  503  0.18089736367E+02  0.12200113835E+02 -0.23465134639E+02  0.32042064276E+02  0.00000000000E+00 0.  1.
         -1    1    6    6    0  502 -0.24661051025E+02  0.22602251862E+02 -0.14080033880E+02  0.36294305076E+02  0.00000000000E+00 0.  1.
<mgrwt>
<rscale>  0 0.13368560E+04</rscale>
<asrwt>0</asrwt>
<pdfrwt beam="1">  1        2 0.51905873E-01 0.13368560E+04</pdfrwt>
<pdfrwt beam="2">  1       -2 0.20373519E+00 0.13368560E+04</pdfrwt>
<totfact> 0.11825678E+01</totfact>
</mgrwt>
</event>
<event>
12    1  0.1467288E-007  0.1371263E+04  0.7818608E-02  0.8974887E-01
         -2   -1    0    0    0  501 -0.00000000000E+00  0.00000000000E+00  0.75193568886E+03  0.75193568886E+03  0.00000000000E+00 0.  1.
          2   -1    0    0  501    0  0.00000000000E+00 -0.00000000000E+00 -0.62517357761E+03  0.62517357761E+03  0.00000000000E+00 0. -1.
         23    2    1    2    0    0  0.95828097992E+02  0.34586537138E+02  0.39377012435E+03  0.41636446228E+03  0.89023601934E+02 0.  0.
        254    2    1    2    0    0 -0.95828097992E+02 -0.34586537138E+02 -0.26700801309E+03  0.96074480419E+03  0.91725571506E+03 0.  0.
        -24    2    4    4    0    0  0.19222366979E+03  0.35797845968E+03 -0.34419214969E+02  0.41528738495E+03  0.78615602270E+02 0.  0.
         24    2    4    4    0    0 -0.28805176778E+03 -0.39256499682E+03 -0.23258879812E+03  0.54545741924E+03  0.79656446990E+02 0.  0.
         11    1    3    3    0    0  0.48449086067E+02  0.38709743769E+02  0.92503785263E+02  0.11136744808E+03  0.00000000000E+00 0. -1.
        -11    1    3    3    0    0  0.47379011924E+02 -0.41232066316E+01  0.30126633909E+03  0.30499701420E+03  0.00000000000E+00 0.  1.
          2    1    6    6  502    0 -0.58020560156E+02 -0.12688883742E+03 -0.42157177389E+02  0.14575455419E+03  0.00000000000E+00 0. -1.
          1    1    5    5  503    0 -0.61569334827E+01  0.26823365346E+02 -0.63171704785E+01  0.28236632258E+02  0.00000000000E+00 0. -1.
         -2    1    5    5    0  503  0.19838060327E+03  0.33115509433E+03 -0.28102044490E+02  0.38705075269E+03  0.00000000000E+00 0.  1.
         -1    1    6    6    0  502 -0.23003120763E+03 -0.26567615939E+03 -0.19043162073E+03  0.39970286505E+03  0.00000000000E+00 0.  1.
<mgrwt>
<rscale>  0 0.13712627E+04</rscale>
<asrwt>0</asrwt>
<pdfrwt beam="1">  1        2 0.96180551E-01 0.13712627E+04</pdfrwt>
<pdfrwt beam="2">  1       -2 0.11568241E+00 0.13712627E+04</pdfrwt>
<totfact> 0.26736576E+01</totfact>
</mgrwt>
</event>
<event>
12    1  0.1467288E-007  0.1059483E+04  0.7818608E-02  0.9245608E-01
          1   -1    0    0  501    0  0.00000000000E+00  0.00000000000E+00  0.67830426723E+03  0.67830426723E+03  0.00000000000E+00 0. -1.
         -1   -1    0    0    0  501 -0.00000000000E+00 -0.00000000000E+00 -0.41371691604E+03  0.41371691604E+03  0.00000000000E+00 0.  1.
         23    2    1    2    0    0  0.41624051922E+02 -0.85188535418E+02  0.51460324320E+01  0.13057830364E+03  0.89635726509E+02 0.  0.
        254    2    1    2    0    0 -0.41624051922E+02  0.85188535418E+02  0.25944131876E+03  0.96144287963E+03  0.92090877108E+03 0.  0.
        -24    2    4    4    0    0  0.11046581282E+03  0.28725630256E+03 -0.23869448621E+03  0.39711602705E+03  0.77506141882E+02 0.  0.
         24    2    4    4    0    0 -0.15208986475E+03 -0.20206776714E+03  0.49813580497E+03  0.56432685258E+03  0.79767204279E+02 0.  0.
         13    1    3    3    0    0  0.14562056371E+02 -0.80963221744E+02  0.35586022782E+02  0.89629580934E+02  0.00000000000E+00 0. -1.
        -13    1    3    3    0    0  0.27061995551E+02 -0.42253136741E+01 -0.30439990350E+02  0.40948722707E+02  0.00000000000E+00 0.  1.
          4    1    6    6  502    0  0.44245378377E+01  0.32311914635E+01  0.38817676260E+01  0.67145553280E+01  0.00000000000E+00 0. -1.
          1    1    5    5  503    0  0.45578005327E+02  0.10195632033E+03 -0.42318445635E+02  0.11942904448E+03  0.00000000000E+00 0. -1.
         -2    1    5    5    0  503  0.64887807498E+02  0.18529998223E+03 -0.19637604057E+03  0.27768698257E+03  0.00000000000E+00 0.  1.
         -3    1    6    6    0  502 -0.15651440258E+03 -0.20529895860E+03  0.49425403734E+03  0.55761229726E+03  0.00000000000E+00 0.  1.
<mgrwt>
<rscale>  0 0.10594828E+04</rscale>
<asrwt>0</asrwt>
<pdfrwt beam="1">  1        1 0.10435450E+00 0.10594828E+04</pdfrwt>
<pdfrwt beam="2">  1       -1 0.63648756E-01 0.10594828E+04</pdfrwt>
<totfact> 0.71485852E+01</totfact>
</mgrwt>
</event>
<event>
12    1  0.1467288E-007  0.1919591E+04  0.7818608E-02  0.8645166E-01
          1   -1    0    0  501    0  0.00000000000E+00  0.00000000000E+00  0.94916781699E+03  0.94916781699E+03  0.00000000000E+00 0. -1.
         -1   -1    0    0    0  501 -0.00000000000E+00 -0.00000000000E+00 -0.97054175027E+03  0.97054175027E+03  0.00000000000E+00 0.  1.
         23    2    1    2    0    0 -0.59566244488E+03  0.18313945459E+03  0.39891310899E+03  0.74539285940E+03  0.90138994033E+02 0.  0.
        254    2    1    2    0    0  0.59566244488E+03 -0.18313945459E+03 -0.42028704228E+03  0.11743167079E+04  0.90223318737E+03 0.  0.
        -24    2    4    4    0    0  0.33954275112E+03  0.31220506849E+03  0.61632372424E+01  0.46783167095E+03  0.77892247517E+02 0.  0.
         24    2    4    4    0    0  0.25611969377E+03 -0.49534452308E+03 -0.42645027952E+03  0.70648503691E+03  0.79358505522E+02 0.  0.
         11    1    3    3    0    0 -0.11083875523E+03  0.52098599549E+01  0.47328526206E+02  0.12063316996E+03  0.00000000000E+00 0.  1.
        -11    1    3    3    0    0 -0.48482368966E+03  0.17792959463E+03  0.35158458278E+03  0.62475968944E+03  0.00000000000E+00 0. -1.
          2    1    6    6  502    0  0.15248172194E+03 -0.21829698236E+03 -0.22492935195E+03  0.34856485968E+03  0.00000000000E+00 0. -1.
          3    1    5    5  503    0  0.11616443696E+03  0.15757256113E+03 -0.63381198070E+01  0.19586592403E+03  0.00000000000E+00 0. -1.
         -4    1    5    5    0  503  0.22337831415E+03  0.15463250737E+03  0.12501357049E+02  0.27196574692E+03  0.00000000000E+00 0.  1.
         -1    1    6    6    0  502  0.10363797183E+03 -0.27704754072E+03 -0.20152092757E+03  0.35792017723E+03  0.00000000000E+00 0.  1.
<mgrwt>
<rscale>  0 0.19195906E+04</rscale>
<asrwt>0</asrwt>
<pdfrwt beam="1">  1        1 0.14602582E+00 0.19195906E+04</pdfrwt>
<pdfrwt beam="2">  1       -1 0.14931412E+00 0.19195906E+04</pdfrwt>
<totfact> 0.54776481E+00</totfact>
</mgrwt>
</event>
<event>
12    1  0.1467288E-007  0.2239547E+04  0.7818608E-02  0.8502146E-01
         -2   -1    0    0    0  501 -0.00000000000E+00  0.00000000000E+00  0.82523436123E+03  0.82523436123E+03  0.00000000000E+00 0.  1.
          2   -1    0    0  501    0  0.00000000000E+00 -0.00000000000E+00 -0.15194388386E+04  0.15194388386E+04  0.00000000000E+00 0. -1.
         23    2    1    2    0    0 -0.52033951784E+02 -0.22822510240E+03 -0.12430226497E+04  0.12693248496E+04  0.10623576037E+03 0.  0.
        254    2    1    2    0    0  0.52033951784E+02  0.22822510240E+03  0.54881817233E+03  0.10753483502E+04  0.89463873067E+03 0.  0.
        -24    2    4    4    0    0 -0.27240450645E+03 -0.68989771196E+02 -0.79005364367E+02  0.30452297679E+03  0.86767460093E+02 0.  0.
         24    2    4    4    0    0  0.32443845824E+03  0.29721487360E+03  0.62782353670E+03  0.77082537337E+03  0.80077267217E+02 0.  0.
         13    1    3    3    0    0 -0.59375484029E+02 -0.23462745439E+03 -0.12264446979E+04  0.12500968312E+04  0.00000000000E+00 0. -1.
        -13    1    3    3    0    0  0.73415322449E+01  0.64023519833E+01 -0.16577951818E+02  0.19228018439E+02  0.00000000000E+00 0.  1.
          4    1    6    6  502    0  0.16057697163E+03  0.18703765593E+03  0.30196128503E+03  0.38980593404E+03  0.00000000000E+00 0. -1.
          1    1    5    5  503    0 -0.21986835260E+03 -0.31822640947E+02 -0.89140252855E+02  0.23937576659E+03  0.00000000000E+00 0. -1.
         -2    1    5    5    0  503 -0.52536153855E+02 -0.37167130249E+02  0.10134888488E+02  0.65147210205E+02  0.00000000000E+00 0.  1.
         -3    1    6    6    0  502  0.16386148661E+03  0.11017721767E+03  0.32586225167E+03  0.38101943933E+03  0.00000000000E+00 0.  1.
<mgrwt>
<rscale>  0 0.22395474E+04</rscale>
<asrwt>0</asrwt>
<pdfrwt beam="1">  1        2 0.23375982E+00 0.22395474E+04</pdfrwt>
<pdfrwt beam="2">  1       -2 0.12695913E+00 0.22395474E+04</pdfrwt>
<totfact> 0.52002810E+00</totfact>
</mgrwt>
</event>
<event>
12    1  0.1467288E-007  0.4499109E+04  0.7818608E-02  0.7910793E-01
          2   -1    0    0  501    0  0.00000000000E+00  0.00000000000E+00  0.33457095741E+04  0.33457095741E+04  0.00000000000E+00 0. -1.
         -2   -1    0    0    0  501 -0.00000000000E+00 -0.00000000000E+00 -0.15125325113E+04  0.15125325113E+04  0.00000000000E+00 0.  1.
         23    2    1    2    0    0  0.14932872579E+04  0.65196263403E+03  0.24150022507E+04  0.29147190060E+04  0.91590950768E+02 0.  0.
        254    2    1    2    0    0 -0.14932872579E+04 -0.65196263403E+03 -0.58182518788E+03  0.19435230794E+04  0.88532440389E+03 0.  0.
        -24    2    4    4    0    0 -0.86955664640E+03 -0.69799973649E+03 -0.67483194496E+03  0.13057209006E+04  0.78590856788E+02 0.  0.
         24    2    4    4    0    0 -0.62373061148E+03  0.46037102460E+02  0.93006757081E+02  0.63780217882E+03  0.83558793391E+02 0.  0.
         13    1    3    3    0    0  0.26898332297E+03  0.13575885489E+03  0.39226296663E+03  0.49462382647E+03  0.00000000000E+00 0.  1.
        -13    1    3    3    0    0  0.12243039349E+04  0.51620377914E+03  0.20227392840E+04  0.24200951795E+04  0.00000000000E+00 0. -1.
          4    1    6    6  502    0 -0.59890246479E+03  0.36189967368E+02  0.10395844642E+03  0.60893450769E+03  0.00000000000E+00 0. -1.
          3    1    5    5  503    0 -0.71573222609E+03 -0.56881769457E+03 -0.58717859395E+03  0.10865564368E+04  0.00000000000E+00 0. -1.
         -4    1    5    5    0  503 -0.15382442031E+03 -0.12918204192E+03 -0.87653351017E+02  0.21916446377E+03  0.00000000000E+00 0.  1.
         -3    1    6    6    0  502 -0.24828146685E+02  0.98471350913E+01 -0.10951689341E+02  0.28867671135E+02  0.00000000000E+00 0.  1.
<mgrwt>
<rscale>  0 0.44991086E+04</rscale>
<asrwt>0</asrwt>
<pdfrwt beam="1">  1        2 0.51472455E+00 0.44991086E+04</pdfrwt>
<pdfrwt beam="2">  1       -2 0.23269731E+00 0.44991086E+04</pdfrwt>
<totfact> 0.64590297E-02</totfact>
</mgrwt>
</event>
<event>
12    1  0.1467288E-007  0.1781753E+04  0.7818608E-02  0.8716064E-01
          2   -1    0    0  501    0  0.00000000000E+00  0.00000000000E+00  0.37639294497E+04  0.37639294497E+04  0.00000000000E+00 0.  1.
         -2   -1    0    0    0  501 -0.00000000000E+00 -0.00000000000E+00 -0.21085959158E+03  0.21085959158E+03  0.00000000000E+00 0. -1.
         23    2    1    2    0    0 -0.57209456978E+03  0.35880442093E+03  0.16251952847E+04  0.17623267835E+04  0.92212629610E+02 0.  0.
        254    2    1    2    0    0  0.57209456978E+03 -0.35880442093E+03  0.19278745734E+04  0.22124622578E+04  0.84985649505E+03 0.  0.
        -24    2    4    4    0    0  0.42036347729E+03 -0.62519630780E+03  0.12143096198E+04  0.14314385372E+04  0.83021423900E+02 0.  0.
         24    2    4    4    0    0  0.15173109249E+03  0.26639188687E+03  0.71356495360E+03  0.78102372057E+03  0.82680996977E+02 0.  0.
         11    1    3    3    0    0 -0.18186696791E+03  0.10898381087E+03  0.40543179917E+03  0.45752377952E+03  0.00000000000E+00 0. -1.
        -11    1    3    3    0    0 -0.39022760187E+03  0.24982061007E+03  0.12197634855E+04  0.13048030040E+04  0.00000000000E+00 0.  1.
          4    1    6    6  502    0  0.59731680921E+02  0.42172817900E+02  0.13037883965E+03  0.14948264817E+03  0.00000000000E+00 0. -1.
          3    1    5    5  503    0  0.12051639429E+03 -0.15892754659E+03  0.39026889353E+03  0.43828298577E+03  0.00000000000E+00 0. -1.
         -4    1    5    5    0  503  0.29984708300E+03 -0.46626876121E+03  0.82404072628E+03  0.99315555147E+03  0.00000000000E+00 0.  1.
         -3    1    6    6    0  502  0.91999411569E+02  0.22421906897E+03  0.58318611395E+03  0.63154107240E+03  0.00000000000E+00 0.  1.
<mgrwt>
<rscale>  0 0.17817527E+04</rscale>
<asrwt>0</asrwt>
<pdfrwt beam="1">  1        2 0.57906602E+00 0.17817527E+04</pdfrwt>
<pdfrwt beam="2">  1       -2 0.32439940E-01 0.17817527E+04</pdfrwt>
<totfact> 0.44289566E+00</totfact>
</mgrwt>
</event>
<event>
12    1  0.1467288E-007  0.1164283E+04  0.7818608E-02  0.9144707E-01
         -2   -1    0    0    0  501 -0.00000000000E+00  0.00000000000E+00  0.25647216671E+03  0.25647216671E+03  0.00000000000E+00 0.  1.
          2   -1    0    0  501    0  0.00000000000E+00 -0.00000000000E+00 -0.13213465489E+04  0.13213465489E+04  0.00000000000E+00 0. -1.
         23    2    1    2    0    0  0.89936839176E+02  0.18064194253E+03 -0.12914355904E+03  0.25554433926E+03  0.88908402564E+02 0.  0.
        254    2    1    2    0    0 -0.89936839176E+02 -0.18064194253E+03 -0.93573082311E+03  0.13222743763E+04  0.91219362334E+03 0.  0.
        -24    2    4    4    0    0 -0.20476799400E+03 -0.45021682889E+03 -0.22632050513E+03  0.55011494522E+03  0.82342926421E+02 0.  0.
         24    2    4    4    0    0  0.11483115482E+03  0.26957488636E+03 -0.70941031798E+03  0.77215943108E+03  0.84323035282E+02 0.  0.
         13    1    3    3    0    0  0.83298342591E+02  0.81183261111E+02 -0.94993071081E+02  0.15017662706E+03  0.00000000000E+00 0.  1.
        -13    1    3    3    0    0  0.66384965857E+01  0.99458681416E+02 -0.34150487957E+02  0.10536771220E+03  0.00000000000E+00 0. -1.
          2    1    6    6  502    0  0.83614364701E+02  0.23934169424E+03 -0.52936684694E+03  0.58694554025E+03  0.00000000000E+00 0. -1.
          1    1    5    5  503    0 -0.89909497026E+02 -0.27729096079E+03 -0.10603667906E+03  0.31018989651E+03  0.00000000000E+00 0. -1.
         -2    1    5    5    0  503 -0.11485849697E+03 -0.17292586810E+03 -0.12028382607E+03  0.23992504871E+03  0.00000000000E+00 0.  1.
         -1    1    6    6    0  502  0.31216790122E+02  0.30233192119E+02 -0.18004347104E+03  0.18521389083E+03  0.00000000000E+00 0.  1.
<mgrwt>
<rscale>  0 0.11642828E+04</rscale>
<asrwt>0</asrwt>
<pdfrwt beam="1">  1        2 0.20328408E+00 0.11642828E+04</pdfrwt>
<pdfrwt beam="2">  1       -2 0.39457257E-01 0.11642828E+04</pdfrwt>
<totfact> 0.96445089E+01</totfact>
</mgrwt>
</event>
<event>
12    1  0.1467288E-007  0.1679401E+04  0.7818608E-02  0.8773201E-01
          1   -1    0    0  501    0  0.00000000000E+00  0.00000000000E+00  0.29604805108E+03  0.29604805108E+03  0.00000000000E+00 0. -1.
         -1   -1    0    0    0  501 -0.00000000000E+00 -0.00000000000E+00 -0.23816984774E+04  0.23816984774E+04  0.00000000000E+00 0.  1.
         23    2    1    2    0    0  0.84270043890E+02 -0.17415249773E+03 -0.16862587629E+04  0.16997284712E+04  0.90430789720E+02 0.  0.
        254    2    1    2    0    0 -0.84270043890E+02  0.17415249773E+03 -0.39939166340E+03  0.97801805721E+03  0.87153605013E+03 0.  0.
        -24    2    4    4    0    0  0.36419789666E+01  0.17884131489E+03  0.24973864627E+03  0.31833897684E+03  0.83503489825E+02 0.  0.
         24    2    4    4    0    0 -0.87912022856E+02 -0.46888171531E+01 -0.64913030967E+03  0.65967908037E+03  0.77819158115E+02 0.  0.
         13    1    3    3    0    0  0.64373099043E+02 -0.18068801239E+03 -0.15594092810E+04  0.15711617865E+04  0.00000000000E+00 0.  1.
        -13    1    3    3    0    0  0.19896944847E+02  0.65355146592E+01 -0.12684948191E+03  0.12856668475E+03  0.00000000000E+00 0. -1.
          4    1    6    6  502    0 -0.29851437778E+02  0.30385270544E+02 -0.36912739377E+03  0.37157691779E+03  0.00000000000E+00 0. -1.
          3    1    5    5  503    0 -0.16028993817E+02  0.63970385528E+00  0.97330519107E+01  0.18763532805E+02  0.00000000000E+00 0. -1.
         -4    1    5    5    0  503  0.19670972784E+02  0.17820161103E+03  0.24000559436E+03  0.29957544404E+03  0.00000000000E+00 0.  1.
         -3    1    6    6    0  502 -0.58060585078E+02 -0.35074087697E+02 -0.28000291591E+03  0.28810216258E+03  0.00000000000E+00 0.  1.
<mgrwt>
<rscale>  0 0.16794013E+04</rscale>
<asrwt>0</asrwt>
<pdfrwt beam="1">  1        1 0.45545853E-01 0.16794013E+04</pdfrwt>
<pdfrwt beam="2">  1       -1 0.36641516E+00 0.16794013E+04</pdfrwt>
<totfact> 0.10308719E+00</totfact>
</mgrwt>
</event>
<event>
12    1  0.1467288E-007  0.2608887E+04  0.7818608E-02  0.8365189E-01
         -2   -1    0    0    0  501 -0.00000000000E+00  0.00000000000E+00  0.10990775699E+04  0.10990775699E+04  0.00000000000E+00 0.  1.
          2   -1    0    0  501    0  0.00000000000E+00 -0.00000000000E+00 -0.15481823626E+04  0.15481823626E+04  0.00000000000E+00 0. -1.
         23    2    1    2    0    0  0.42579595690E+03  0.71426632775E+03 -0.10140847938E+04  0.13146159266E+04  0.91479406065E+02 0.  0.
        254    2    1    2    0    0 -0.42579595690E+03 -0.71426632775E+03  0.56498000105E+03  0.13326440059E+04  0.87479086706E+03 0.  0.
        -24    2    4    4    0    0 -0.60953286172E+03 -0.72349540316E+03  0.29145072650E+03  0.99315912867E+03  0.80284624753E+02 0.  0.
         24    2    4    4    0    0  0.18373690481E+03  0.92290754096E+01  0.27352927455E+03  0.33948487727E+03  0.81162133002E+02 0.  0.
         11    1    3    3    0    0  0.24007436574E+03  0.31527312898E+03 -0.49465167006E+03  0.63380842660E+03  0.00000000000E+00 0.  1.
        -11    1    3    3    0    0  0.18572159116E+03  0.39899319877E+03 -0.51943312371E+03  0.68080750003E+03  0.00000000000E+00 0. -1.
          4    1    6    6  502    0  0.72013614831E+02  0.32148556300E+02  0.66669724214E+02  0.10326830356E+03  0.00000000000E+00 0. -1.
          3    1    5    5  503    0 -0.30289382247E+03 -0.36613458804E+03  0.18813621382E+03  0.51107185327E+03  0.00000000000E+00 0. -1.
         -4    1    5    5    0  503 -0.30663903925E+03 -0.35736081512E+03  0.10331451268E+03  0.48208727540E+03  0.00000000000E+00 0.  1.
         -3    1    6    6    0  502  0.11172328998E+03 -0.22919480891E+02  0.20685955034E+03  0.23621657371E+03  0.00000000000E+00 0.  1.
<mgrwt>
<rscale>  0 0.26088867E+04</rscale>
<asrwt>0</asrwt>
<pdfrwt beam="1">  1        2 0.23818190E+00 0.26088867E+04</pdfrwt>
<pdfrwt beam="2">  1       -2 0.16908886E+00 0.26088867E+04</pdfrwt>
<totfact> 0.22806350E+00</totfact>
</mgrwt>
</event>
<event>
12    1  0.1467288E-007  0.1971700E+04  0.7818608E-02  0.8619967E-01
         -2   -1    0    0    0  501 -0.00000000000E+00  0.00000000000E+00  0.45505052613E+03  0.45505052613E+03  0.00000000000E+00 0.  1.
          2   -1    0    0  501    0  0.00000000000E+00 -0.00000000000E+00 -0.21358075803E+04  0.21358075803E+04  0.00000000000E+00 0. -1.
         23    2    1    2    0    0  0.26457779822E+03 -0.39792580613E+03 -0.14559580858E+04  0.15361869469E+04  0.10821289005E+03 0.  0.
        254    2    1    2    0    0 -0.26457779822E+03  0.39792580613E+03 -0.22479896833E+03  0.10546711595E+04  0.91293500323E+03 0.  0.
        -24    2    4    4    0    0  0.33267069139E+03  0.18578870194E+03 -0.46737911748E+02  0.39212812419E+03  0.79955004285E+02 0.  0.
         24    2    4    4    0    0 -0.59724848961E+03  0.21213710419E+03 -0.17806105658E+03  0.66254303535E+03  0.74495801987E+02 0.  0.
         11    1    3    3    0    0  0.15967612716E+03 -0.16153024524E+03 -0.58145025679E+03  0.62423784476E+03  0.00000000000E+00 0. -1.
        -11    1    3    3    0    0  0.10490167106E+03 -0.23639556088E+03 -0.87450782903E+03  0.91194910210E+03  0.00000000000E+00 0.  1.
          2    1    6    6  502    0 -0.12746645188E+02  0.17876906662E+02 -0.26535046235E+01  0.22115646998E+02  0.00000000000E+00 0. -1.
          1    1    5    5  503    0  0.20783064783E+03  0.78964151830E+02 -0.40322302838E+01  0.22236270895E+03  0.00000000000E+00 0. -1.
         -4    1    5    5    0  503  0.12484004356E+03  0.10682455011E+03 -0.42705681464E+02  0.16976541524E+03  0.00000000000E+00 0.  1.
         -1    1    6    6    0  502 -0.58450184442E+03  0.19426019752E+03 -0.17540755195E+03  0.64042738836E+03  0.00000000000E+00 0.  1.
<mgrwt>
<rscale>  0 0.19717001E+04</rscale>
<asrwt>0</asrwt>
<pdfrwt beam="1">  1        2 0.32858578E+00 0.19717001E+04</pdfrwt>
<pdfrwt beam="2">  1       -2 0.70007773E-01 0.19717001E+04</pdfrwt>
<totfact> 0.97099000E+00</totfact>
</mgrwt>
</event>
<event>
12    1  0.1467288E-007  0.1402289E+04  0.7818608E-02  0.8952164E-01
          2   -1    0    0  501    0  0.00000000000E+00  0.00000000000E+00  0.10459986090E+04  0.10459986090E+04  0.00000000000E+00 0. -1.
         -2   -1    0    0    0  501 -0.00000000000E+00 -0.00000000000E+00 -0.46998471377E+03  0.46998471377E+03  0.00000000000E+00 0.  1.
         23    2    1    2    0    0 -0.36673304087E+03  0.11399806784E+03  0.18409102958E+02  0.39530407319E+03  0.91857130743E+02 0.  0.
        254    2    1    2    0    0  0.36673304087E+03 -0.11399806784E+03  0.55760479232E+03  0.11206792496E+04  0.89303426215E+03 0.  0.
        -24    2    4    4    0    0  0.24940791599E+03 -0.24261265726E+03 -0.15020142036E+03  0.38723282846E+03  0.79520982994E+02 0.  0.
         24    2    4    4    0    0  0.11732512488E+03  0.12861458943E+03  0.70780621267E+03  0.73344642116E+03  0.81529874705E+02 0.  0.
         11    1    3    3    0    0 -0.19698169679E+03  0.58129266485E+02  0.55586746967E+02  0.21276909298E+03  0.00000000000E+00 0. -1.
        -11    1    3    3    0    0 -0.16975134409E+03  0.55868801350E+02 -0.37177644009E+02  0.18253498020E+03  0.00000000000E+00 0.  1.
          2    1    6    6  502    0 -0.14720817611E+00  0.15886834448E+02  0.15292420038E+02  0.22051559800E+02  0.00000000000E+00 0. -1.
          1    1    5    5  503    0  0.95738470255E+02 -0.63547664030E+02 -0.16684959817E+02  0.11611437540E+03  0.00000000000E+00 0. -1.
         -2    1    5    5    0  503  0.15366944574E+03 -0.17906499323E+03 -0.13351646054E+03  0.27111845306E+03  0.00000000000E+00 0.  1.
         -1    1    6    6    0  502  0.11747233305E+03  0.11272775498E+03  0.69251379264E+03  0.71139486136E+03  0.00000000000E+00 0.  1.
<mgrwt>
<rscale>  0 0.14022886E+04</rscale>
<asrwt>0</asrwt>
<pdfrwt beam="1">  1        2 0.16092286E+00 0.14022886E+04</pdfrwt>
<pdfrwt beam="2">  1       -2 0.72305341E-01 0.14022886E+04</pdfrwt>
<totfact> 0.39677667E+01</totfact>
</mgrwt>
</event>
<event>
12    1  0.1467288E-007  0.1398566E+04  0.7818608E-02  0.8954857E-01
          2   -1    0    0  501    0  0.00000000000E+00  0.00000000000E+00  0.12290967691E+04  0.12290967691E+04  0.00000000000E+00 0.  1.
         -2   -1    0    0    0  501 -0.00000000000E+00 -0.00000000000E+00 -0.39785069776E+03  0.39785069776E+03  0.00000000000E+00 0. -1.
         23    2    1    2    0    0 -0.36298095880E+03 -0.15479001621E+03  0.21067920769E+03  0.45663039673E+03  0.91708587940E+02 0.  0.
        254    2    1    2    0    0  0.36298095880E+03  0.15479001621E+03  0.62056686362E+03  0.11703170701E+04  0.91039754326E+03 0.  0.
        -24    2    4    4    0    0  0.28002901955E+03 -0.77859622160E+02  0.80005593649E+03  0.85511642145E+03  0.81585661449E+02 0.  0.
         24    2    4    4    0    0  0.82951939246E+02  0.23264963837E+03 -0.17948907287E+03  0.31520064866E+03  0.78283096334E+02 0.  0.
         13    1    3    3    0    0 -0.33702236160E+03 -0.14010854516E+03  0.21902745998E+03  0.42566125601E+03  0.00000000000E+00 0. -1.
        -13    1    3    3    0    0 -0.25958597196E+02 -0.14681471059E+02 -0.83482522914E+01  0.30969140723E+02  0.00000000000E+00 0.  1.
          2    1    6    6  502    0  0.30447091559E+02  0.25128428214E+02 -0.65645960837E+01  0.40019460399E+02  0.00000000000E+00 0. -1.
          3    1    5    5  503    0  0.32756488507E+02 -0.17235744198E+01  0.37285259755E+02  0.49660334706E+02  0.00000000000E+00 0. -1.
         -2    1    5    5    0  503  0.24727253104E+03 -0.76136047740E+02  0.76277067674E+03  0.80545608674E+03  0.00000000000E+00 0.  1.
         -1    1    6    6    0  502  0.52504847687E+02  0.20752121016E+03 -0.17292447679E+03  0.27518118826E+03  0.00000000000E+00 0.  1.
<mgrwt>
<rscale>  0 0.13985664E+04</rscale>
<asrwt>0</asrwt>
<pdfrwt beam="1">  1        2 0.18909181E+00 0.13985664E+04</pdfrwt>
<pdfrwt beam="2">  1       -2 0.61207800E-01 0.13985664E+04</pdfrwt>
<totfact> 0.43981365E+01</totfact>
</mgrwt>
</event>
<event>
12    1  0.1467288E-007  0.1281802E+04  0.7818608E-02  0.9044122E-01
          2   -1    0    0  501    0  0.00000000000E+00  0.00000000000E+00  0.13213763781E+04  0.13213763781E+04  0.00000000000E+00 0. -1.
         -2   -1    0    0    0  501 -0.00000000000E+00 -0.00000000000E+00 -0.31085326727E+03  0.31085326727E+03  0.00000000000E+00 0.  1.
         23    2    1    2    0    0  0.29568838272E+03 -0.12270675963E+03  0.21926481019E+03  0.39874324384E+03  0.91818021061E+02 0.  0.
        254    2    1    2    0    0 -0.29568838272E+03  0.12270675963E+03  0.79125830064E+03  0.12334864015E+04  0.89045518465E+03 0.  0.
        -24    2    4    4    0    0 -0.39136900393E+03  0.35867060892E+03  0.80362958601E+03  0.96630955762E+03  0.78226253324E+02 0.  0.
         24    2    4    4    0    0  0.95680621214E+02 -0.23596384929E+03 -0.12371285371E+02  0.26717684390E+03  0.79979358378E+02 0.  0.
         13    1    3    3    0    0  0.32886740342E+02 -0.42116925039E+02  0.62776959562E+02  0.82439794498E+02  0.00000000000E+00 0. -1.
        -13    1    3    3    0    0  0.26280164237E+03 -0.80589834588E+02  0.15648785063E+03  0.31630344934E+03  0.00000000000E+00 0.  1.
          4    1    6    6  502    0  0.10857182807E+03 -0.21010783060E+03 -0.20917580630E+01  0.23651113669E+03  0.00000000000E+00 0. -1.
          3    1    5    5  503    0 -0.19568528994E+03  0.22599052543E+03  0.41602130062E+03  0.51228719763E+03  0.00000000000E+00 0. -1.
         -4    1    5    5    0  503 -0.19568371399E+03  0.13268008348E+03  0.38760828539E+03  0.45402236000E+03  0.00000000000E+00 0.  1.
         -3    1    6    6    0  502 -0.12891206853E+02 -0.25856018692E+02 -0.10279527308E+02  0.30665707205E+02  0.00000000000E+00 0.  1.
<mgrwt>
<rscale>  0 0.12818021E+04</rscale>
<asrwt>0</asrwt>
<pdfrwt beam="1">  1        2 0.20328867E+00 0.12818021E+04</pdfrwt>
<pdfrwt beam="2">  1       -2 0.47823580E-01 0.12818021E+04</pdfrwt>
<totfact> 0.65291274E+01</totfact>
</mgrwt>
</event>
<event>
12    1  0.1467288E-007  0.1390821E+04  0.7818608E-02  0.8960489E-01
          1   -1    0    0  501    0  0.00000000000E+00  0.00000000000E+00  0.19920821219E+04  0.19920821219E+04  0.00000000000E+00 0. -1.
         -1   -1    0    0    0  501 -0.00000000000E+00 -0.00000000000E+00 -0.24275907274E+03  0.24275907274E+03  0.00000000000E+00 0.  1.
         23    2    1    2    0    0 -0.15935422343E+03  0.16437250842E+02  0.11464716148E+04  0.11611348128E+04  0.90404304472E+02 0.  0.
        254    2    1    2    0    0  0.15935422343E+03 -0.16437250842E+02  0.60285143436E+03  0.10737063818E+04  0.87392882473E+03 0.  0.
        -24    2    4    4    0    0 -0.25063280136E+03 -0.11899470317E+03  0.57410113975E+03  0.64254552443E+03  0.79347916146E+02 0.  0.
         24    2    4    4    0    0  0.40998702480E+03  0.10255745233E+03  0.28750294612E+02  0.43116085739E+03  0.80409663435E+02 0.  0.
         13    1    3    3    0    0 -0.13048728263E+03 -0.17891239111E+02  0.97661104680E+03  0.98545226373E+03  0.00000000000E+00 0. -1.
        -13    1    3    3    0    0 -0.28866940806E+02  0.34328489952E+02  0.16986056803E+03  0.17568254912E+03  0.00000000000E+00 0.  1.
          4    1    6    6  502    0  0.10637084898E+03 -0.83892144084E+01  0.13466709377E+02  0.10754761129E+03  0.00000000000E+00 0. -1.
          3    1    5    5  503    0 -0.10891164132E+03 -0.46255333009E+02  0.33459433067E+03  0.35490092641E+03  0.00000000000E+00 0. -1.
         -4    1    5    5    0  503 -0.14172116004E+03 -0.72739370160E+02  0.23950680908E+03  0.28764459802E+03  0.00000000000E+00 0.  1.
         -3    1    6    6    0  502  0.30361617582E+03  0.11094666674E+03  0.15283585235E+02  0.32361324610E+03  0.00000000000E+00 0.  1.
<mgrwt>
<rscale>  0 0.13908214E+04</rscale>
<asrwt>0</asrwt>
<pdfrwt beam="1">  1        1 0.30647416E+00 0.13908214E+04</pdfrwt>
<pdfrwt beam="2">  1       -1 0.37347551E-01 0.13908214E+04</pdfrwt>
<totfact> 0.20338760E+01</totfact>
</mgrwt>
</event>
<event>
12    1  0.1467288E-007  0.3136835E+04  0.7818608E-02  0.8205701E-01
         -1   -1    0    0    0  501 -0.00000000000E+00  0.00000000000E+00  0.11956446357E+04  0.11956446357E+04  0.00000000000E+00 0.  1.
          1   -1    0    0  501    0  0.00000000000E+00 -0.00000000000E+00 -0.20574124840E+04  0.20574124840E+04  0.00000000000E+00 0. -1.
         23    2    1    2    0    0 -0.27352632929E+03 -0.21476311510E+03  0.10516010970E+04  0.11114216717E+04  0.91942464040E+02 0.  0.
        254    2    1    2    0    0  0.27352632929E+03  0.21476311510E+03 -0.19133689453E+04  0.21416354481E+04  0.89704059177E+03 0.  0.
        -24    2    4    4    0    0 -0.21358033204E+03 -0.65270515744E+02 -0.12324166190E+04  0.12550958501E+04  0.80858342962E+02 0.  0.
         24    2    4    4    0    0  0.48710666132E+03  0.28003363084E+03 -0.68095232625E+03  0.88653959797E+03  0.81022553887E+02 0.  0.
         13    1    3    3    0    0  0.17593012542E+01 -0.37215022017E+01  0.28937496753E-01  0.41164981378E+01  0.00000000000E+00 0. -1.
        -13    1    3    3    0    0 -0.27528563054E+03 -0.21104161290E+03  0.10515721595E+04  0.11073051735E+04  0.00000000000E+00 0.  1.
          4    1    6    6  502    0  0.73223745871E+02  0.49197899877E+02 -0.15681337392E+03  0.17992382986E+03  0.00000000000E+00 0. -1.
          3    1    5    5  503    0 -0.11353182873E+03 -0.75978285628E+02 -0.67889074387E+03  0.69249896616E+03  0.00000000000E+00 0. -1.
         -4    1    5    5    0  503 -0.10004850331E+03  0.10707769884E+02 -0.55352587517E+03  0.56259688396E+03  0.00000000000E+00 0.  1.
         -3    1    6    6    0  502  0.41388291545E+03  0.23083573097E+03 -0.52413895233E+03  0.70661576811E+03  0.00000000000E+00 0.  1.
<mgrwt>
<rscale>  0 0.31368355E+04</rscale>
<asrwt>0</asrwt>
<pdfrwt beam="1">  1        1 0.31652499E+00 0.31368355E+04</pdfrwt>
<pdfrwt beam="2">  1       -1 0.18394533E+00 0.31368355E+04</pdfrwt>
<totfact> 0.44685835E-01</totfact>
</mgrwt>
</event>
<event>
12    1  0.1467288E-007  0.1623150E+04  0.7818608E-02  0.8806451E-01
          2   -1    0    0  501    0  0.00000000000E+00  0.00000000000E+00  0.14933345817E+04  0.14933345817E+04  0.00000000000E+00 0. -1.
         -2   -1    0    0    0  501 -0.00000000000E+00 -0.00000000000E+00 -0.44106230623E+03  0.44106230623E+03  0.00000000000E+00 0.  1.
         23    2    1    2    0    0 -0.18602586477E+03 -0.40374447130E+03 -0.43195061944E+02  0.45551132116E+03  0.89495976785E+02 0.  0.
        254    2    1    2    0    0  0.18602586477E+03  0.40374447130E+03  0.10954673374E+04  0.14788855668E+04  0.88850358007E+03 0.  0.
        -24    2    4    4    0    0  0.40616929119E+03  0.57180716334E+03  0.79724865016E+03  0.10646821444E+04  0.77496665469E+02 0.  0.
         24    2    4    4    0    0 -0.22014342643E+03 -0.16806269204E+03  0.29821868725E+03  0.41420342242E+03  0.76953837233E+02 0.  0.
         11    1    3    3    0    0 -0.25603690217E+02 -0.86417747551E+01 -0.31834871449E+01  0.27209627231E+02  0.00000000000E+00 0. -1.
        -11    1    3    3    0    0 -0.16042217455E+03 -0.39510269655E+03 -0.40011574799E+02  0.42830169393E+03  0.00000000000E+00 0.  1.
          2    1    6    6  502    0 -0.92287201771E+02 -0.29406646398E+02  0.12489035412E+03  0.15804834392E+03  0.00000000000E+00 0. -1.
          3    1    5    5  503    0  0.24718427074E+03  0.28132978885E+03  0.42669908727E+03  0.56773112022E+03  0.00000000000E+00 0. -1.
         -2    1    5    5    0  503  0.15898502045E+03  0.29047737449E+03  0.37054956290E+03  0.49695102413E+03  0.00000000000E+00 0.  1.
         -1    1    6    6    0  502 -0.12785622465E+03 -0.13865604564E+03  0.17332833313E+03  0.25615507850E+03  0.00000000000E+00 0.  1.
<mgrwt>
<rscale>  0 0.16231495E+04</rscale>
<asrwt>0</asrwt>
<pdfrwt beam="1">  1        2 0.22974378E+00 0.16231495E+04</pdfrwt>
<pdfrwt beam="2">  1       -2 0.67855740E-01 0.16231495E+04</pdfrwt>
<totfact> 0.24381079E+01</totfact>
</mgrwt>
</event>
<event>
12    1  0.1467288E-007  0.1385559E+04  0.7818608E-02  0.8964339E-01
          2   -1    0    0  501    0  0.00000000000E+00  0.00000000000E+00  0.11782648315E+04  0.11782648315E+04  0.00000000000E+00 0. -1.
         -2   -1    0    0    0  501 -0.00000000000E+00 -0.00000000000E+00 -0.40733057323E+03  0.40733057323E+03  0.00000000000E+00 0.  1.
         23    2    1    2    0    0  0.37850154432E+03 -0.34450237460E+02  0.35330036157E+03  0.52671060829E+03  0.90292200573E+02 0.  0.
        254    2    1    2    0    0 -0.37850154432E+03  0.34450237460E+02  0.41763389665E+03  0.10588847964E+04  0.89575035722E+03 0.  0.
        -24    2    4    4    0    0 -0.99478985775E+02 -0.25631113162E+03  0.55537270818E+03  0.62469920605E+03  0.78859294012E+02 0.  0.
         24    2    4    4    0    0 -0.27902255855E+03  0.29076136908E+03 -0.13773881153E+03  0.43418559033E+03  0.84554034320E+02 0.  0.
         13    1    3    3    0    0  0.67129923634E+02  0.71585377529E+01  0.11126522987E+03  0.13014462220E+03  0.00000000000E+00 0.  1.
        -13    1    3    3    0    0  0.31137162069E+03 -0.41608775213E+02  0.24203513170E+03  0.39656598609E+03  0.00000000000E+00 0. -1.
          2    1    6    6  502    0 -0.36392207630E+02  0.19560561008E+02 -0.39739942272E+02  0.57326009236E+02  0.00000000000E+00 0. -1.
          1    1    5    5  503    0 -0.70044923831E+02 -0.86173815369E+02  0.17966652770E+03  0.21121619016E+03  0.00000000000E+00 0. -1.
         -2    1    5    5    0  503 -0.29434061943E+02 -0.17013731625E+03  0.37570618048E+03  0.41348301589E+03  0.00000000000E+00 0.  1.
         -1    1    6    6    0  502 -0.24263035092E+03  0.27120080807E+03 -0.97998869254E+02  0.37685958109E+03  0.00000000000E+00 0.  1.
<mgrwt>
<rscale>  0 0.13855588E+04</rscale>
<asrwt>0</asrwt>
<pdfrwt beam="1">  1        2 0.18127151E+00 0.13855588E+04</pdfrwt>
<pdfrwt beam="2">  1       -2 0.62666243E-01 0.13855588E+04</pdfrwt>
<totfact> 0.44905477E+01</totfact>
</mgrwt>
</event>
<event>
12    1  0.1467288E-007  0.2527284E+04  0.7818608E-02  0.8393329E-01
         -2   -1    0    0    0  501 -0.00000000000E+00  0.00000000000E+00  0.13323513259E+04  0.13323513259E+04  0.00000000000E+00 0.  1.
          2   -1    0    0  501    0  0.00000000000E+00 -0.00000000000E+00 -0.11984760080E+04  0.11984760080E+04  0.00000000000E+00 0. -1.
         23    2    1    2    0    0 -0.10631142952E+04  0.13679299708E+03  0.32808083171E+03  0.11246676337E+04  0.91191696578E+02 0.  0.
        254    2    1    2    0    0  0.10631142952E+04 -0.13679299708E+03 -0.19420551379E+03  0.14061597002E+04  0.88918220413E+03 0.  0.
        -24    2    4    4    0    0  0.52296178369E+03  0.36488866932E+03 -0.92350305712E+01  0.64203889645E+03  0.74134273912E+02 0.  0.
         24    2    4    4    0    0  0.54015251151E+03 -0.50168166639E+03 -0.18497048322E+03  0.76412080374E+03  0.78849812673E+02 0.  0.
         13    1    3    3    0    0 -0.22853559960E+03  0.74347215663E+01  0.10207434250E+03  0.25040560450E+03  0.00000000000E+00 0. -1.
        -13    1    3    3    0    0 -0.83457869559E+03  0.12935827551E+03  0.22600648921E+03  0.87426202923E+03  0.00000000000E+00 0.  1.
          2    1    6    6  502    0  0.49591116237E+03 -0.46850381585E+03 -0.19110802642E+03  0.70848146354E+03  0.00000000000E+00 0. -1.
          1    1    5    5  503    0  0.46310530967E+03  0.29476277835E+03  0.34966369481E+01  0.54896616454E+03  0.00000000000E+00 0. -1.
         -2    1    5    5    0  503  0.59856474017E+02  0.70125890974E+02 -0.12731667519E+02  0.93072731906E+02  0.00000000000E+00 0.  1.
         -1    1    6    6    0  502  0.44241349141E+02 -0.33177850549E+02  0.61375431998E+01  0.55639340195E+02  0.00000000000E+00 0.  1.
<mgrwt>
<rscale>  0 0.25272840E+04</rscale>
<asrwt>0</asrwt>
<pdfrwt beam="1">  1        2 0.18438092E+00 0.25272840E+04</pdfrwt>
<pdfrwt beam="2">  1       -2 0.20497713E+00 0.25272840E+04</pdfrwt>
<totfact> 0.20842548E+00</totfact>
</mgrwt>
</event>
<event>
12    1  0.1467288E-007  0.2192558E+04  0.7818608E-02  0.8521532E-01
         -2   -1    0    0    0  501 -0.00000000000E+00  0.00000000000E+00  0.64980191543E+03  0.64980191543E+03  0.00000000000E+00 0. -1.
          2   -1    0    0  501    0  0.00000000000E+00 -0.00000000000E+00 -0.18495290831E+04  0.18495290831E+04  0.00000000000E+00 0.  1.
         23    2    1    2    0    0  0.38511734608E+02 -0.13951618939E+03  0.52190730109E+03  0.54929702905E+03  0.91608265951E+02 0.  0.
        254    2    1    2    0    0 -0.38511734608E+02  0.13951618939E+03 -0.17216344687E+04  0.19500339695E+04  0.90424516440E+03 0.  0.
        -24    2    4    4    0    0  0.27045103788E+03 -0.74441144800E+01 -0.11358130497E+03  0.30402415273E+03  0.79566286030E+02 0.  0.
         24    2    4    4    0    0 -0.30896277249E+03  0.14696030387E+03 -0.16080531638E+04  0.16460098167E+04  0.80361767118E+02 0.  0.
         13    1    3    3    0    0 -0.29554502238E+02 -0.32356353647E+02  0.11604953446E+03  0.12404796117E+03  0.00000000000E+00 0.  1.
        -13    1    3    3    0    0  0.68066236846E+02 -0.10715983574E+03  0.40585776663E+03  0.42524906787E+03  0.00000000000E+00 0. -1.
          2    1    6    6  502    0 -0.30459223309E+03  0.14189217572E+03 -0.16023906964E+04  0.16372433423E+04  0.00000000000E+00 0. -1.
          1    1    5    5  503    0  0.27074473872E+03 -0.17303528021E+02 -0.10485739860E+03  0.29085597753E+03  0.00000000000E+00 0. -1.
         -2    1    5    5    0  503 -0.29370083941E+00  0.98594135407E+01 -0.87239063741E+01  0.13168175195E+02  0.00000000000E+00 0.  1.
         -1    1    6    6    0  502 -0.43705394037E+01  0.50681281425E+01 -0.56624673732E+01  0.87664744511E+01  0.00000000000E+00 0.  1.
<mgrwt>
<rscale>  0 0.21925579E+04</rscale>
<asrwt>0</asrwt>
<pdfrwt beam="1">  1        2 0.28454293E+00 0.21925579E+04</pdfrwt>
<pdfrwt beam="2">  1       -2 0.99969528E-01 0.21925579E+04</pdfrwt>
<totfact> 0.61232899E+00</totfact>
</mgrwt>
</event>
<event>
12    1  0.1467288E-007  0.1159966E+04  0.7818608E-02  0.9148638E-01
         -2   -1    0    0    0  501 -0.00000000000E+00  0.00000000000E+00  0.11325350705E+03  0.11325350705E+03  0.00000000000E+00 0. -1.
          2   -1    0    0  501    0  0.00000000000E+00 -0.00000000000E+00 -0.29701530032E+04  0.29701530032E+04  0.00000000000E+00 0.  1.
         23    2    1    2    0    0 -0.57005266524E+02  0.21417037722E+03 -0.60315232642E+03  0.64902434753E+03  0.91221291016E+02 0.  0.
        254    2    1    2    0    0  0.57005266524E+02 -0.21417037722E+03 -0.22537471697E+04  0.24343821627E+04  0.89315265111E+03 0.  0.
        -24    2    4    4    0    0 -0.35594594292E+03  0.11521454513E+03 -0.83577838106E+03  0.91924698584E+03  0.80731735041E+02 0.  0.
         24    2    4    4    0    0  0.41295120944E+03 -0.32938492235E+03 -0.14179687886E+04  0.15151351768E+04  0.77304528379E+02 0.  0.
         13    1    3    3    0    0 -0.80429309506E+02  0.18826621076E+03 -0.51266082987E+03  0.55202732398E+03  0.00000000000E+00 0. -1.
        -13    1    3    3    0    0  0.23424042982E+02  0.25904166463E+02 -0.90491496550E+02  0.96997023551E+02  0.00000000000E+00 0.  1.
          2    1    6    6  502    0  0.16881314317E+03 -0.13259673434E+03 -0.47130188655E+03  0.51788535365E+03  0.00000000000E+00 0. -1.
          1    1    5    5  503    0 -0.16645769873E+03  0.72662113299E+02 -0.49127304091E+03  0.52377203906E+03  0.00000000000E+00 0. -1.
         -2    1    5    5    0  503 -0.18948824419E+03  0.42552431831E+02 -0.34450534015E+03  0.39547494679E+03  0.00000000000E+00 0.  1.
         -1    1    6    6    0  502  0.24413806627E+03 -0.19678818801E+03 -0.94666690207E+03  0.99724982317E+03  0.00000000000E+00 0.  1.
<mgrwt>
<rscale>  0 0.11599659E+04</rscale>
<asrwt>0</asrwt>
<pdfrwt beam="1">  1        2 0.45694655E+00 0.11599659E+04</pdfrwt>
<pdfrwt beam="2">  1       -2 0.17423619E-01 0.11599659E+04</pdfrwt>
<totfact> 0.49636528E+01</totfact>
</mgrwt>
</event>
<event>
12    1  0.1467288E-007  0.1674785E+04  0.7818608E-02  0.8775878E-01
         -2   -1    0    0    0  501 -0.00000000000E+00  0.00000000000E+00  0.28289168871E+03  0.28289168871E+03  0.00000000000E+00 0.  1.
          2   -1    0    0  501    0  0.00000000000E+00 -0.00000000000E+00 -0.24787785693E+04  0.24787785693E+04  0.00000000000E+00 0. -1.
         23    2    1    2    0    0  0.24870498181E+03 -0.80574906540E+02 -0.16923741649E+04  0.17146845793E+04  0.87558030334E+02 0.  0.
        254    2    1    2    0    0 -0.24870498181E+03  0.80574906540E+02 -0.50351271569E+03  0.10469856788E+04  0.87994742636E+03 0.  0.
        -24    2    4    4    0    0 -0.34138793257E+03 -0.42350863788E+02 -0.70066395722E+03  0.78452863992E+03  0.78840914072E+02 0.  0.
         24    2    4    4    0    0  0.92682950762E+02  0.12292577033E+03  0.19715124153E+03  0.26245703886E+03  0.79462008762E+02 0.  0.
         11    1    3    3    0    0  0.18059350117E+03 -0.68643795840E+02 -0.14438994986E+04  0.14567675674E+04  0.00000000000E+00 0. -1.
        -11    1    3    3    0    0  0.68111480639E+02 -0.11931110700E+02 -0.24847466637E+03  0.25791701189E+03  0.00000000000E+00 0.  1.
          2    1    6    6  502    0  0.93441606628E+02  0.74927198754E+02  0.10834010171E+03  0.16150231144E+03  0.00000000000E+00 0. -1.
          3    1    5    5  503    0 -0.33039077786E+03 -0.36765936380E+02 -0.62541142251E+03  0.70827201524E+03  0.00000000000E+00 0. -1.
         -4    1    5    5    0  503 -0.10997154713E+02 -0.55849274083E+01 -0.75252534716E+02  0.76256624677E+02  0.00000000000E+00 0.  1.
         -1    1    6    6    0  502 -0.75865586555E+00  0.47998571574E+02  0.88811139815E+02  0.10095472741E+03  0.00000000000E+00 0.  1.
<mgrwt>
<rscale>  0 0.16747846E+04</rscale>
<asrwt>0</asrwt>
<pdfrwt beam="1">  1        2 0.38135054E+00 0.16747846E+04</pdfrwt>
<pdfrwt beam="2">  1       -2 0.43521800E-01 0.16747846E+04</pdfrwt>
<totfact> 0.17120755E+01</totfact>
</mgrwt>
</event>
<event>
12    1  0.1467288E-007  0.1878496E+04  0.7818608E-02  0.8665635E-01
          1   -1    0    0  501    0  0.00000000000E+00  0.00000000000E+00  0.25947657019E+04  0.25947657019E+04  0.00000000000E+00 0.  1.
         -1   -1    0    0    0  501 -0.00000000000E+00 -0.00000000000E+00 -0.33998701545E+03  0.33998701545E+03  0.00000000000E+00 0. -1.
         23    2    1    2    0    0  0.87701123575E+02 -0.61328601988E+03  0.29217332425E+03  0.69167669927E+03  0.96125832404E+02 0.  0.
        254    2    1    2    0    0 -0.87701123575E+02  0.61328601988E+03  0.19626053622E+04  0.22430760180E+04  0.89205324164E+03 0.  0.
        -24    2    4    4    0    0 -0.41547539557E+03  0.67963318428E+02  0.59908444062E+03  0.73651290453E+03  0.79437236635E+02 0.  0.
         24    2    4    4    0    0  0.32777427200E+03  0.54532270145E+03  0.13635209215E+04  0.15065631135E+04  0.75698675343E+02 0.  0.
         13    1    3    3    0    0  0.74642223378E+02 -0.50176312260E+03  0.19599145120E+03  0.54382933137E+03  0.00000000000E+00 0. -1.
        -13    1    3    3    0    0  0.13058900196E+02 -0.11152289728E+03  0.96181873058E+02  0.14784736791E+03  0.00000000000E+00 0.  1.
          2    1    6    6  502    0  0.19229801714E+03  0.32773398869E+03  0.89924271638E+03  0.97623027903E+03  0.00000000000E+00 0. -1.
          3    1    5    5  503    0 -0.15031860820E+03  0.62755771905E+02  0.21411615051E+03  0.26903475015E+03  0.00000000000E+00 0. -1.
         -4    1    5    5    0  503 -0.26515678737E+03  0.52075465233E+01  0.38496829011E+03  0.46747815438E+03  0.00000000000E+00 0.  1.
         -1    1    6    6    0  502  0.13547625486E+03  0.21758871276E+03  0.46427820516E+03  0.53033283449E+03  0.00000000000E+00 0.  1.
<mgrwt>
<rscale>  0 0.18784958E+04</rscale>
<asrwt>0</asrwt>
<pdfrwt beam="1">  1        1 0.39919471E+00 0.18784958E+04</pdfrwt>
<pdfrwt beam="2">  1       -1 0.52305696E-01 0.18784958E+04</pdfrwt>
<totfact> 0.40200696E+00</totfact>
</mgrwt>
</event>
<event>
12    1  0.1467288E-007  0.2892207E+04  0.7818608E-02  0.8275200E-01
          2   -1    0    0  501    0  0.00000000000E+00  0.00000000000E+00  0.93790755315E+03  0.93790755315E+03  0.00000000000E+00 0.  1.
         -2   -1    0    0    0  501 -0.00000000000E+00 -0.00000000000E+00 -0.22296607233E+04  0.22296607233E+04  0.00000000000E+00 0. -1.
         23    2    1    2    0    0 -0.12093303969E+04 -0.48018854969E+03 -0.58032245822E+03  0.14275970743E+04  0.90543906268E+02 0.  0.
        254    2    1    2    0    0  0.12093303969E+04  0.48018854969E+03 -0.71143071189E+03  0.17399712021E+04  0.91011267111E+03 0.  0.
        -24    2    4    4    0    0  0.56606030223E+03  0.69190131360E+03 -0.31848493036E+03  0.95235163309E+03  0.79933026080E+02 0.  0.
         24    2    4    4    0    0  0.64327009468E+03 -0.21171276391E+03 -0.39294578154E+03  0.78761956900E+03  0.85554012930E+02 0.  0.
         13    1    3    3    0    0 -0.40533188795E+03 -0.12550860463E+03 -0.21843655704E+03  0.47724299752E+03  0.00000000000E+00 0. -1.
        -13    1    3    3    0    0 -0.80399850896E+03 -0.35467994506E+03 -0.36188590119E+03  0.95035407681E+03  0.00000000000E+00 0.  1.
          4    1    6    6  502    0  0.48335373457E+03 -0.19215267482E+03 -0.32059636239E+03  0.61101187446E+03  0.00000000000E+00 0. -1.
          3    1    5    5  503    0  0.48354266111E+03  0.62413600576E+03 -0.29627023410E+03  0.84328839101E+03  0.00000000000E+00 0. -1.
         -4    1    5    5    0  503  0.82517641121E+02  0.67765307844E+02 -0.22214696257E+02  0.10906324208E+03  0.00000000000E+00 0.  1.
         -3    1    6    6    0  502  0.15991636011E+03 -0.19560089089E+02 -0.72349419148E+02  0.17660769453E+03  0.00000000000E+00 0.  1.
<mgrwt>
<rscale>  0 0.28922072E+04</rscale>
<asrwt>0</asrwt>
<pdfrwt beam="1">  1        2 0.14429347E+00 0.28922072E+04</pdfrwt>
<pdfrwt beam="2">  1       -2 0.34302472E+00 0.28922072E+04</pdfrwt>
<totfact> 0.41103594E-01</totfact>
</mgrwt>
</event>
<event>
12    1  0.1467288E-007  0.3014202E+04  0.7818608E-02  0.8239687E-01
          2   -1    0    0  501    0  0.00000000000E+00  0.00000000000E+00  0.34715035840E+04  0.34715035840E+04  0.00000000000E+00 0. -1.
         -2   -1    0    0    0  501 -0.00000000000E+00 -0.00000000000E+00 -0.65428530211E+03  0.65428530211E+03  0.00000000000E+00 0.  1.
         23    2    1    2    0    0 -0.15670132210E+03 -0.52080388893E+02 -0.58064606953E+03  0.60759330826E+03  0.68935469235E+02 0.  0.
        254    2    1    2    0    0  0.15670132210E+03  0.52080388893E+02  0.33978643514E+04  0.35181955778E+04  0.89719022621E+03 0.  0.
        -24    2    4    4    0    0 -0.11651742772E+03 -0.21185489782E+03  0.29015068374E+03  0.38634386751E+03  0.81334838756E+02 0.  0.
         24    2    4    4    0    0  0.27321874982E+03  0.26393528671E+03  0.31077136677E+04  0.31318517103E+04  0.79376157531E+02 0.  0.
         13    1    3    3    0    0  0.34365503783E+01 -0.11449772088E+02 -0.66164585154E+02  0.67235849723E+02  0.00000000000E+00 0. -1.
        -13    1    3    3    0    0 -0.16013787248E+03 -0.40630616805E+02 -0.51448148438E+03  0.54035745854E+03  0.00000000000E+00 0.  1.
          4    1    6    6  502    0  0.27776055139E+03  0.25796084188E+03  0.30756210856E+04  0.30988933157E+04  0.00000000000E+00 0. -1.
          1    1    5    5  503    0 -0.17761463180E+02 -0.56744072620E+02  0.26971453251E+02  0.65290264529E+02  0.00000000000E+00 0. -1.
         -2    1    5    5    0  503 -0.98755964537E+02 -0.15511082520E+03  0.26317923049E+03  0.32105360298E+03  0.00000000000E+00 0.  1.
         -3    1    6    6    0  502 -0.45418015701E+01  0.59744448276E+01  0.32092582067E+02  0.32958394625E+02  0.00000000000E+00 0.  1.
<mgrwt>
<rscale>  0 0.30142022E+04</rscale>
<asrwt>0</asrwt>
<pdfrwt beam="1">  1        2 0.53407746E+00 0.30142022E+04</pdfrwt>
<pdfrwt beam="2">  1       -2 0.10065928E+00 0.30142022E+04</pdfrwt>
<totfact> 0.59127309E-01</totfact>
</mgrwt>
</event>
<event>
12    1  0.1467288E-007  0.2105907E+04  0.7818608E-02  0.8558646E-01
          1   -1    0    0  501    0  0.00000000000E+00  0.00000000000E+00  0.18258601494E+04  0.18258601494E+04  0.00000000000E+00 0. -1.
         -1   -1    0    0    0  501 -0.00000000000E+00 -0.00000000000E+00 -0.60722697669E+03  0.60722697669E+03  0.00000000000E+00 0.  1.
         23    2    1    2    0    0  0.51108997700E+03 -0.20722282263E+03 -0.24960992222E+03  0.61237688244E+03  0.92444956953E+02 0.  0.
        254    2    1    2    0    0 -0.51108997700E+03  0.20722282263E+03  0.14682430949E+04  0.18207102436E+04  0.92471278933E+03 0.  0.
        -24    2    4    4    0    0 -0.23624057975E+02  0.30341974444E+03  0.12204801778E+04  0.12602811535E+04  0.78199002696E+02 0.  0.
         24    2    4    4    0    0 -0.48746591902E+03 -0.96196921803E+02  0.24776291711E+03  0.56042909014E+03  0.76272091960E+02 0.  0.
         13    1    3    3    0    0  0.36207057470E+03 -0.13540029091E+03 -0.21854419155E+03  0.44406069799E+03  0.00000000000E+00 0. -1.
        -13    1    3    3    0    0  0.14901940230E+03 -0.71822531719E+02 -0.31065730671E+02  0.16831618444E+03  0.00000000000E+00 0.  1.
          4    1    6    6  502    0 -0.29631759882E+03 -0.56776407060E+02  0.10832378218E+03  0.32056469168E+03  0.00000000000E+00 0. -1.
          1    1    5    5  503    0 -0.44244468312E+02  0.10592263617E+03  0.40304288854E+03  0.41907129206E+03  0.00000000000E+00 0. -1.
         -2    1    5    5    0  503  0.20620410337E+02  0.19749710827E+03  0.81743728927E+03  0.84120986145E+03  0.00000000000E+00 0.  1.
         -3    1    6    6    0  502 -0.19114832021E+03 -0.39420514743E+02  0.13943913493E+03  0.23986439846E+03  0.00000000000E+00 0.  1.
<mgrwt>
<rscale>  0 0.21059074E+04</rscale>
<asrwt>0</asrwt>
<pdfrwt beam="1">  1        1 0.28090156E+00 0.21059074E+04</pdfrwt>
<pdfrwt beam="2">  1       -1 0.93419536E-01 0.21059074E+04</pdfrwt>
<totfact> 0.39979298E+00</totfact>
</mgrwt>
</event>
<event>
12    1  0.1467288E-007  0.1254358E+04  0.7818608E-02  0.9066564E-01
          2   -1    0    0  501    0  0.00000000000E+00  0.00000000000E+00  0.72683889025E+03  0.72683889025E+03  0.00000000000E+00 0. -1.
         -2   -1    0    0    0  501 -0.00000000000E+00 -0.00000000000E+00 -0.54118401756E+03  0.54118401756E+03  0.00000000000E+00 0.  1.
         23    2    1    2    0    0  0.14542359877E+03 -0.45798549133E+02 -0.10842938256E+03  0.20825893934E+03  0.91484012996E+02 0.  0.
        254    2    1    2    0    0 -0.14542359877E+03  0.45798549133E+02  0.29408425524E+03  0.10597639685E+04  0.10066621029E+04 0.  0.
        -24    2    4    4    0    0 -0.37096025518E+02 -0.38440178525E+03  0.43529223155E+03  0.58742827218E+03  0.80323100638E+02 0.  0.
         24    2    4    4    0    0 -0.10832757325E+03  0.43020033438E+03 -0.14120797630E+03  0.47233569629E+03  0.79712775605E+02 0.  0.
         11    1    3    3    0    0  0.14928540003E+01 -0.31690993124E+02 -0.97897675619E+01  0.33202216902E+02  0.00000000000E+00 0. -1.
        -11    1    3    3    0    0  0.14393074477E+03 -0.14107556009E+02 -0.98639614994E+02  0.17505672244E+03  0.00000000000E+00 0.  1.
          4    1    6    6  502    0 -0.10736978264E+03  0.27458946026E+03 -0.84405468037E+02  0.30667886289E+03  0.00000000000E+00 0. -1.
          3    1    5    5  503    0 -0.29068325262E+02 -0.45918725514E+02  0.43515141163E+02  0.69620861793E+02  0.00000000000E+00 0. -1.
         -4    1    5    5    0  503 -0.80277002562E+01 -0.33848305973E+03  0.39177709039E+03  0.51780741038E+03  0.00000000000E+00 0.  1.
         -3    1    6    6    0  502 -0.95779060881E+00  0.15561087412E+03 -0.56802508268E+02  0.16565683340E+03  0.00000000000E+00 0.  1.
<mgrwt>
<rscale>  0 0.12543581E+04</rscale>
<asrwt>0</asrwt>
<pdfrwt beam="1">  1        2 0.11182137E+00 0.12543581E+04</pdfrwt>
<pdfrwt beam="2">  1       -2 0.83259080E-01 0.12543581E+04</pdfrwt>
<totfact> 0.48514918E+01</totfact>
</mgrwt>
</event>
<event>
12    1  0.1467288E-007  0.1270136E+04  0.7818608E-02  0.9053588E-01
         -1   -1    0    0    0  501 -0.00000000000E+00  0.00000000000E+00  0.37901854090E+03  0.37901854090E+03  0.00000000000E+00 0.  1.
          1   -1    0    0  501    0  0.00000000000E+00 -0.00000000000E+00 -0.10640947240E+04  0.10640947240E+04  0.00000000000E+00 0. -1.
         23    2    1    2    0    0  0.51812959661E+02  0.13678775081E+03  0.12504546118E+03  0.21302065596E+03  0.91356231017E+02 0.  0.
        254    2    1    2    0    0 -0.51812959661E+02 -0.13678775081E+03 -0.81012164423E+03  0.12300926089E+04  0.91402148576E+03 0.  0.
        -24    2    4    4    0    0 -0.78518545834E+02 -0.51714419556E+03 -0.39227655562E+03  0.65882483886E+03  0.81030803871E+02 0.  0.
         24    2    4    4    0    0  0.26705586174E+02  0.38035644475E+03 -0.41784508862E+03  0.57126777003E+03  0.79800586444E+02 0.  0.
         11    1    3    3    0    0 -0.88338720335E+01 -0.56868223605E-01 -0.86211958137E+01  0.12343643966E+02  0.00000000000E+00 0. -1.
        -11    1    3    3    0    0  0.60646831694E+02  0.13684461903E+03  0.13366665700E+03  0.20067701200E+03  0.00000000000E+00 0.  1.
          2    1    6    6  502    0  0.18138932271E+02  0.31782657605E+03 -0.38672604140E+03  0.50089897625E+03  0.00000000000E+00 0. -1.
          1    1    5    5  503    0 -0.69241411243E+02 -0.50109665657E+03 -0.35755653944E+03  0.61946663442E+03  0.00000000000E+00 0. -1.
         -2    1    5    5    0  503 -0.92771345917E+01 -0.16047538981E+02 -0.34720016178E+02  0.39358204443E+02  0.00000000000E+00 0.  1.
         -1    1    6    6    0  502  0.85666539028E+01  0.62529868696E+02 -0.31119047213E+02  0.70368793778E+02  0.00000000000E+00 0.  1.
<mgrwt>
<rscale>  0 0.12701364E+04</rscale>
<asrwt>0</asrwt>
<pdfrwt beam="1">  1        1 0.16370688E+00 0.12701364E+04</pdfrwt>
<pdfrwt beam="2">  1       -1 0.58310546E-01 0.12701364E+04</pdfrwt>
<totfact> 0.39612278E+01</totfact>
</mgrwt>
</event>
<event>
12    1  0.1467288E-007  0.1152882E+04  0.7818608E-02  0.9155129E-01
          1   -1    0    0  501    0  0.00000000000E+00  0.00000000000E+00  0.13155040585E+04  0.13155040585E+04  0.00000000000E+00 0. -1.
         -1   -1    0    0    0  501 -0.00000000000E+00 -0.00000000000E+00 -0.25259085403E+03  0.25259085403E+03  0.00000000000E+00 0.  1.
         23    2    1    2    0    0  0.75023534995E+00 -0.19318872175E+03  0.11084096589E+03  0.24123171446E+03  0.92652983121E+02 0.  0.
        254    2    1    2    0    0 -0.75023534995E+00  0.19318872175E+03  0.95207223855E+03  0.13268631980E+04  0.90377096315E+03 0.  0.
        -24    2    4    4    0    0 -0.27688994328E+03  0.52848854649E+02  0.96331707251E+03  0.10069219920E+04  0.80318575586E+02 0.  0.
         24    2    4    4    0    0  0.27613970793E+03  0.14033986710E+03 -0.11244833964E+02  0.31994120607E+03  0.79293836189E+02 0.  0.
         11    1    3    3    0    0  0.14886522958E+02 -0.60755215141E+02  0.85042877906E+02  0.10557033587E+03  0.00000000000E+00 0.  1.
        -11    1    3    3    0    0 -0.14136287608E+02 -0.13243350660E+03  0.25798087981E+02  0.13566137860E+03  0.00000000000E+00 0. -1.
          4    1    6    6  502    0  0.21580125719E+03  0.12296791372E+03  0.21170929254E+02  0.24927795461E+03  0.00000000000E+00 0. -1.
          1    1    5    5  503    0 -0.18087954199E+03  0.70533991918E+02  0.68489193263E+03  0.71187738559E+03  0.00000000000E+00 0. -1.
         -2    1    5    5    0  503 -0.96010401287E+02 -0.17685137268E+02  0.27842513988E+03  0.29504460638E+03  0.00000000000E+00 0.  1.
         -3    1    6    6    0  502  0.60338450739E+02  0.17371953381E+02 -0.32415763218E+02  0.70663251460E+02  0.00000000000E+00 0.  1.
<mgrwt>
<rscale>  0 0.11528821E+04</rscale>
<asrwt>0</asrwt>
<pdfrwt beam="1">  1        1 0.20238524E+00 0.11528821E+04</pdfrwt>
<pdfrwt beam="2">  1       -1 0.38860132E-01 0.11528821E+04</pdfrwt>
<totfact> 0.56196636E+01</totfact>
</mgrwt>
</event>
<event>
12    1  0.1467288E-007  0.2711270E+04  0.7818608E-02  0.8331358E-01
          1   -1    0    0  501    0  0.00000000000E+00  0.00000000000E+00  0.11424365627E+04  0.11424365627E+04  0.00000000000E+00 0. -1.
         -1   -1    0    0    0  501 -0.00000000000E+00 -0.00000000000E+00 -0.16086194793E+04  0.16086194793E+04  0.00000000000E+00 0.  1.
         23    2    1    2    0    0 -0.26801570285E+03 -0.60861015339E+03  0.81152996851E+03  0.10527540337E+04  0.86437433257E+02 0.  0.
        254    2    1    2    0    0  0.26801570285E+03  0.60861015339E+03 -0.12777128851E+04  0.16983020083E+04  0.89968925697E+03 0.  0.
        -24    2    4    4    0    0  0.91594211788E+02  0.78106600550E+03 -0.66480719782E+03  0.10328264567E+04  0.79424649100E+02 0.  0.
         24    2    4    4    0    0  0.17642149107E+03 -0.17245585211E+03 -0.61290568724E+03  0.66547555160E+03  0.79616360701E+02 0.  0.
         13    1    3    3    0    0 -0.73817546363E+02 -0.22446930321E+03  0.34302739871E+03  0.41653726664E+03  0.00000000000E+00 0. -1.
        -13    1    3    3    0    0 -0.19419815649E+03 -0.38414085018E+03  0.46850256980E+03  0.63621676704E+03  0.00000000000E+00 0.  1.
          2    1    6    6  502    0  0.16370401323E+03 -0.16732012251E+03 -0.50397719581E+03  0.55568699935E+03  0.00000000000E+00 0. -1.
          3    1    5    5  503    0  0.79429927227E+02  0.76232943725E+03 -0.63353649165E+03  0.99439618386E+03  0.00000000000E+00 0. -1.
         -4    1    5    5    0  503  0.12164284561E+02  0.18736568255E+02 -0.31270706172E+02  0.38430272876E+02  0.00000000000E+00 0.  1.
         -1    1    6    6    0  502  0.12717477832E+02 -0.51357295975E+01 -0.10892849143E+03  0.10978855226E+03  0.00000000000E+00 0.  1.
<mgrwt>
<rscale>  0 0.27112696E+04</rscale>
<asrwt>0</asrwt>
<pdfrwt beam="1">  1        1 0.17575947E+00 0.27112696E+04</pdfrwt>
<pdfrwt beam="2">  1       -1 0.24747992E+00 0.27112696E+04</pdfrwt>
<totfact> 0.74436049E-01</totfact>
</mgrwt>
</event>
<event>
12    1  0.1467288E-007  0.1960466E+04  0.7818608E-02  0.8625331E-01
          2   -1    0    0  501    0  0.00000000000E+00  0.00000000000E+00  0.18773459091E+04  0.18773459091E+04  0.00000000000E+00 0.  1.
         -2   -1    0    0    0  501 -0.00000000000E+00 -0.00000000000E+00 -0.51181632413E+03  0.51181632413E+03  0.00000000000E+00 0. -1.
         23    2    1    2    0    0  0.42065665328E+03 -0.56026967410E+03  0.13074265502E+03  0.71849257062E+03  0.91015408161E+02 0.  0.
        254    2    1    2    0    0 -0.42065665328E+03  0.56026967410E+03  0.12347869299E+04  0.16706696626E+04  0.88067260176E+03 0.  0.
        -24    2    4    4    0    0 -0.30763344788E+03  0.76115399260E+03  0.69813372254E+03  0.10811600765E+04  0.86733372156E+02 0.  0.
         24    2    4    4    0    0 -0.11302320540E+03 -0.20088431850E+03  0.53665320739E+03  0.58950958605E+03  0.79975825466E+02 0.  0.
         11    1    3    3    0    0  0.82178467055E+02 -0.11492287520E+03 -0.10149913255E+02  0.14164599688E+03  0.00000000000E+00 0. -1.
        -11    1    3    3    0    0  0.33847818622E+03 -0.44534679890E+03  0.14089256827E+03  0.57684657374E+03  0.00000000000E+00 0.  1.
          4    1    6    6  502    0 -0.14072627590E+02 -0.27363959775E+02  0.23099677126E+02  0.38476229352E+02  0.00000000000E+00 0. -1.
          3    1    5    5  503    0 -0.99175905930E+02  0.15176104516E+03  0.14393619542E+03  0.23148413228E+03  0.00000000000E+00 0. -1.
         -4    1    5    5    0  503 -0.20845754195E+03  0.60939294744E+03  0.55419752712E+03  0.84967594426E+03  0.00000000000E+00 0.  1.
         -3    1    6    6    0  502 -0.98950577809E+02 -0.17352035872E+03  0.51355353027E+03  0.55103335669E+03  0.00000000000E+00 0.  1.
<mgrwt>
<rscale>  0 0.19604655E+04</rscale>
<asrwt>0</asrwt>
<pdfrwt beam="1">  1        2 0.28882244E+00 0.19604655E+04</pdfrwt>
<pdfrwt beam="2">  1       -2 0.78740974E-01 0.19604655E+04</pdfrwt>
<totfact> 0.10434957E+01</totfact>
</mgrwt>
</event>
<event>
12    1  0.1467288E-007  0.2602729E+04  0.7818608E-02  0.8367275E-01
         -2   -1    0    0    0  501 -0.00000000000E+00  0.00000000000E+00  0.51490466546E+03  0.51490466546E+03  0.00000000000E+00 0.  1.
          2   -1    0    0  501    0  0.00000000000E+00 -0.00000000000E+00 -0.32890547521E+04  0.32890547521E+04  0.00000000000E+00 0. -1.
         23    2    1    2    0    0  0.56350198742E+03 -0.51045001221E+03  0.24051963486E+02  0.76622305372E+03  0.91790883544E+02 0.  0.
        254    2    1    2    0    0 -0.56350198742E+03  0.51045001221E+03 -0.27982020501E+04  0.30377363639E+04  0.90543569519E+03 0.  0.
        -24    2    4    4    0    0  0.21079005609E+03  0.21863615707E+03 -0.11488353535E+04  0.11906958493E+04  0.75496483323E+02 0.  0.
         24    2    4    4    0    0 -0.77429204351E+03  0.29181385514E+03 -0.16493666966E+04  0.18470405146E+04  0.80403159243E+02 0.  0.
         11    1    3    3    0    0  0.46716484214E+03 -0.38945510451E+03 -0.80564144288E+01  0.60826242196E+03  0.00000000000E+00 0.  1.
        -11    1    3    3    0    0  0.96337145282E+02 -0.12099490770E+03  0.32108377915E+02  0.15796063175E+03  0.00000000000E+00 0. -1.
          4    1    6    6  502    0 -0.15698391827E+03  0.90203779639E+02 -0.39614261600E+03  0.43555670661E+03  0.00000000000E+00 0. -1.
          3    1    5    5  503    0  0.14305481372E+01  0.28185185542E+02 -0.73301366993E+02  0.78546429295E+02  0.00000000000E+00 0. -1.
         -4    1    5    5    0  503  0.20935950795E+03  0.19045097153E+03 -0.10755339865E+04  0.11121494200E+04  0.00000000000E+00 0.  1.
         -1    1    6    6    0  502 -0.61730812524E+03  0.20161007550E+03 -0.12532240806E+04  0.14114838080E+04  0.00000000000E+00 0.  1.
<mgrwt>
<rscale>  0 0.26027291E+04</rscale>
<asrwt>0</asrwt>
<pdfrwt beam="1">  1        2 0.50600844E+00 0.26027291E+04</pdfrwt>
<pdfrwt beam="2">  1       -2 0.79216100E-01 0.26027291E+04</pdfrwt>
<totfact> 0.14160989E+00</totfact>
</mgrwt>
</event>
<event>
12    1  0.1467288E-007  0.2463343E+04  0.7818608E-02  0.8416162E-01
          1   -1    0    0  501    0  0.00000000000E+00  0.00000000000E+00  0.59509165503E+03  0.59509165503E+03  0.00000000000E+00 0. -1.
         -1   -1    0    0    0  501 -0.00000000000E+00 -0.00000000000E+00 -0.25492128389E+04  0.25492128389E+04  0.00000000000E+00 0.  1.
         23    2    1    2    0    0  0.52290689049E+03 -0.55035572210E+03 -0.17975983573E+04  0.19534481022E+04  0.90975803165E+02 0.  0.
        254    2    1    2    0    0 -0.52290689049E+03  0.55035572210E+03 -0.15652282652E+03  0.11908563917E+04  0.90405559202E+03 0.  0.
        -24    2    4    4    0    0  0.62204097131E+02  0.19468437219E+03 -0.40284323860E+03  0.45880590099E+03  0.80304579128E+02 0.  0.
         24    2    4    4    0    0 -0.58511098762E+03  0.35567134991E+03  0.24632041207E+03  0.73205049070E+03  0.79794727624E+02 0.  0.
         11    1    3    3    0    0  0.43126011583E+03 -0.42822306779E+03 -0.15124653870E+04  0.16300036289E+04  0.00000000000E+00 0.  1.
        -11    1    3    3    0    0  0.91646774659E+02 -0.12213265431E+03 -0.28513297033E+03  0.32344447332E+03  0.00000000000E+00 0. -1.
          4    1    6    6  502    0 -0.54506585270E+03  0.34410111529E+03  0.24716956349E+03  0.69035871432E+03  0.00000000000E+00 0. -1.
          1    1    5    5  503    0  0.35668939998E+02  0.15454439788E+03 -0.36369308471E+03  0.39677311409E+03  0.00000000000E+00 0. -1.
         -2    1    5    5    0  503  0.26535157133E+02  0.40139974319E+02 -0.39150153883E+02  0.62032786907E+02  0.00000000000E+00 0.  1.
         -3    1    6    6    0  502 -0.40045134921E+02  0.11570234621E+02 -0.84915141573E+00  0.41691776385E+02  0.00000000000E+00 0.  1.
<mgrwt>
<rscale>  0 0.24633435E+04</rscale>
<asrwt>0</asrwt>
<pdfrwt beam="1">  1        1 0.91552563E-01 0.24633435E+04</pdfrwt>
<pdfrwt beam="2">  1       -1 0.39218659E+00 0.24633435E+04</pdfrwt>
<totfact> 0.24988292E-01</totfact>
</mgrwt>
</event>
<event>
12    1  0.2270390E-007  0.2353640E+04  0.7818608E-02  0.8457067E-01
          1   -1    0    0  501    0  0.00000000000E+00  0.00000000000E+00  0.21204649555E+04  0.21204649555E+04  0.00000000000E+00 0. -1.
         -1   -1    0    0    0  501 -0.00000000000E+00 -0.00000000000E+00 -0.65311408597E+03  0.65311408597E+03  0.00000000000E+00 0.  1.
         23    2    1    2    0    0  0.36495484366E+03  0.91390621228E+03  0.40548114948E+03  0.10682662795E+04  0.91440027581E+02 0.  0.
        254    2    1    2    0    0 -0.36495484366E+03 -0.91390621228E+03  0.10618697201E+04  0.17053127620E+04  0.90117018980E+03 0.  0.
        -24    2    4    4    0    0 -0.55797828761E+03 -0.87930123295E+03  0.61818560214E+03  0.12137170808E+04  0.80282537725E+02 0.  0.
         24    2    4    4    0    0  0.19302344395E+03 -0.34604979329E+02  0.44368411796E+03  0.49159568117E+03  0.79719274403E+02 0.  0.
         13    1    3    3    0    0  0.35323067841E+03  0.86843471346E+03  0.40511180854E+03  0.10213061936E+04  0.00000000000E+00 0. -1.
        -13    1    3    3    0    0  0.11724165245E+02  0.45471498814E+02  0.36934093738E+00  0.46960085901E+02  0.00000000000E+00 0.  1.
          2    1    6    6  502    0  0.26838649544E+02 -0.31085921879E+02  0.53223274362E+02  0.67226219455E+02  0.00000000000E+00 0. -1.
          1    1    5    5  503    0 -0.44938110246E+02 -0.37119032048E+02  0.31599748840E+02  0.66300832720E+02  0.00000000000E+00 0. -1.
         -2    1    5    5    0  503 -0.51304017736E+03 -0.84218220090E+03  0.58658585330E+03  0.11474162481E+04  0.00000000000E+00 0.  1.
         -1    1    6    6    0  502  0.16618479441E+03 -0.35190574497E+01  0.39046084359E+03  0.42436946172E+03  0.00000000000E+00 0.  1.
<mgrwt>
<rscale>  0 0.23536402E+04</rscale>
<asrwt>0</asrwt>
<pdfrwt beam="1">  1        1 0.32622538E+00 0.23536402E+04</pdfrwt>
<pdfrwt beam="2">  1       -1 0.10047909E+00 0.23536402E+04</pdfrwt>
<totfact> 0.20928999E+00</totfact>
</mgrwt>
</event>
<event>
12    1  0.1467288E-007  0.2480975E+04  0.7818608E-02  0.8409795E-01
          2   -1    0    0  501    0  0.00000000000E+00  0.00000000000E+00  0.16113038758E+04  0.16113038758E+04  0.00000000000E+00 0.  1.
         -2   -1    0    0    0  501 -0.00000000000E+00 -0.00000000000E+00 -0.95500865810E+03  0.95500865810E+03  0.00000000000E+00 0. -1.
         23    2    1    2    0    0 -0.89109163672E+03  0.56424998572E+03  0.48708921187E+03  0.11655085167E+04  0.93444372738E+02 0.  0.
        254    2    1    2    0    0  0.89109163672E+03 -0.56424998572E+03  0.16920600580E+03  0.14008040172E+04  0.90620023762E+03 0.  0.
        -24    2    4    4    0    0  0.33859498068E+03 -0.75766971542E+02  0.47915347539E+03  0.59692186770E+03  0.79627057249E+02 0.  0.
         24    2    4    4    0    0  0.55249665604E+03 -0.48848301418E+03 -0.30994746959E+03  0.80388214945E+03  0.79314981085E+02 0.  0.
         11    1    3    3    0    0 -0.80777048272E+03  0.52163984197E+03  0.47036586311E+03  0.10704416484E+04  0.00000000000E+00 0.  1.
        -11    1    3    3    0    0 -0.83321154004E+02  0.42610143748E+02  0.16723348761E+02  0.95066868302E+02  0.00000000000E+00 0. -1.
          2    1    6    6  502    0  0.40656244959E+03 -0.31565559801E+03 -0.23252006165E+03  0.56479824809E+03  0.00000000000E+00 0. -1.
          1    1    5    5  503    0  0.32377467173E+03 -0.88970166544E+02  0.44576233121E+03  0.55807686255E+03  0.00000000000E+00 0. -1.
         -2    1    5    5    0  503  0.14820308948E+02  0.13203195002E+02  0.33391144181E+02  0.38845005153E+02  0.00000000000E+00 0.  1.
         -1    1    6    6    0  502  0.14593420645E+03 -0.17282741616E+03 -0.77427407934E+02  0.23908390136E+03  0.00000000000E+00 0.  1.
<mgrwt>
<rscale>  0 0.24809749E+04</rscale>
<asrwt>0</asrwt>
<pdfrwt beam="1">  1        2 0.24789290E+00 0.24809749E+04</pdfrwt>
<pdfrwt beam="2">  1       -2 0.14692441E+00 0.24809749E+04</pdfrwt>
<totfact> 0.31077932E+00</totfact>
</mgrwt>
</event>
<event>
12    1  0.1611138E-007  0.3743311E+04  0.7818608E-02  0.8058431E-01
          2   -1    0    0  501    0  0.00000000000E+00  0.00000000000E+00  0.28299699985E+04  0.28299699985E+04  0.00000000000E+00 0.  1.
         -2   -1    0    0    0  501 -0.00000000000E+00 -0.00000000000E+00 -0.12378556371E+04  0.12378556371E+04  0.00000000000E+00 0. -1.
         23    2    1    2    0    0  0.54821587283E+03 -0.17499884718E+03 -0.10596757581E+04  0.12092418679E+04  0.90487253495E+02 0.  0.
        254    2    1    2    0    0 -0.54821587283E+03  0.17499884718E+03  0.26517901196E+04  0.28585837677E+04  0.89908012936E+03 0.  0.
        -24    2    4    4    0    0 -0.11286869729E+03 -0.19606617207E+03  0.13349789500E+03  0.27492738898E+03  0.81130108995E+02 0.  0.
         24    2    4    4    0    0 -0.43534717554E+03  0.37106501925E+03  0.25182922246E+04  0.25836563787E+04  0.79171606126E+02 0.  0.
         11    1    3    3    0    0  0.59989321003E+02 -0.31362567450E+02 -0.18880380704E+03  0.20057219853E+03  0.00000000000E+00 0.  1.
        -11    1    3    3    0    0  0.48822655182E+03 -0.14363627973E+03 -0.87087195108E+03  0.10086696694E+04  0.00000000000E+00 0. -1.
          4    1    6    6  502    0 -0.38924010686E+01 -0.40581579948E+01  0.19634067860E+02  0.20423419232E+02  0.00000000000E+00 0. -1.
          1    1    5    5  503    0  0.11852894186E+02 -0.31836737100E+02  0.15572940533E+02  0.37370916588E+02  0.00000000000E+00 0. -1.
         -2    1    5    5    0  503 -0.12472159148E+03 -0.16422943497E+03  0.11792495446E+03  0.23755647239E+03  0.00000000000E+00 0.  1.
         -3    1    6    6    0  502 -0.43145477447E+03  0.37512317724E+03  0.24986581567E+04  0.25632329595E+04  0.00000000000E+00 0.  1.
<mgrwt>
<rscale>  0 0.37433110E+04</rscale>
<asrwt>0</asrwt>
<pdfrwt beam="1">  1        2 0.43538000E+00 0.37433110E+04</pdfrwt>
<pdfrwt beam="2">  1       -2 0.19043933E+00 0.37433110E+04</pdfrwt>
<totfact> 0.27489901E-01</totfact>
</mgrwt>
</event>
<event>
12    1  0.1467288E-007  0.1284247E+04  0.7818608E-02  0.9042152E-01
         -2   -1    0    0    0  501 -0.00000000000E+00  0.00000000000E+00  0.19979108407E+03  0.19979108407E+03  0.00000000000E+00 0.  1.
          2   -1    0    0  501    0  0.00000000000E+00 -0.00000000000E+00 -0.20637687538E+04  0.20637687538E+04  0.00000000000E+00 0. -1.
         23    2    1    2    0    0  0.10325577393E+03  0.28877101874E+03 -0.63438748438E+03  0.71309156823E+03  0.10955203432E+03 0.  0.
        254    2    1    2    0    0 -0.10325577393E+03 -0.28877101874E+03 -0.12295901854E+04  0.15504682697E+04  0.89331370479E+03 0.  0.
        -24    2    4    4    0    0 -0.27870554052E+03 -0.36112910310E+03 -0.12597952858E+04  0.13421778161E+04  0.79158830946E+02 0.  0.
         24    2    4    4    0    0  0.17544976658E+03  0.72358084360E+02  0.30205100386E+02  0.20829045359E+03  0.80338359459E+02 0.  0.
         13    1    3    3    0    0  0.87257137830E+02  0.17728461569E+03 -0.50073395834E+03  0.53831044955E+03  0.00000000000E+00 0.  1.
        -13    1    3    3    0    0  0.15998636101E+02  0.11148640305E+03 -0.13365352604E+03  0.17478111868E+03  0.00000000000E+00 0. -1.
          2    1    6    6  502    0  0.17644010779E+03  0.82734818495E+02  0.24503739568E+02  0.19640925406E+03  0.00000000000E+00 0. -1.
          1    1    5    5  503    0 -0.25762513617E+03 -0.28585433043E+03 -0.10476646793E+04  0.11161024547E+04  0.00000000000E+00 0. -1.
         -2    1    5    5    0  503 -0.21080404347E+02 -0.75274772671E+02 -0.21213060648E+03  0.22607536145E+03  0.00000000000E+00 0.  1.
         -1    1    6    6    0  502 -0.99034120763E+00 -0.10376734135E+02  0.57013608173E+01  0.11881199526E+02  0.00000000000E+00 0.  1.
<mgrwt>
<rscale>  0 0.12842470E+04</rscale>
<asrwt>0</asrwt>
<pdfrwt beam="1">  1        2 0.31750288E+00 0.12842470E+04</pdfrwt>
<pdfrwt beam="2">  1       -2 0.30737090E-01 0.12842470E+04</pdfrwt>
<totfact> 0.59269578E+01</totfact>
</mgrwt>
</event>
<event>
12    1  0.1467288E-007  0.1359042E+04  0.7818608E-02  0.8984012E-01
          2   -1    0    0  501    0  0.00000000000E+00  0.00000000000E+00  0.30511370115E+04  0.30511370115E+04  0.00000000000E+00 0. -1.
         -2   -1    0    0    0  501 -0.00000000000E+00 -0.00000000000E+00 -0.15133663564E+03  0.15133663564E+03  0.00000000000E+00 0.  1.
         23    2    1    2    0    0  0.17844897421E+02  0.35265300519E+03  0.49877755228E+03  0.61784681105E+03  0.90956323723E+02 0.  0.
        254    2    1    2    0    0 -0.17844897421E+02 -0.35265300519E+03  0.24010228235E+04  0.25846268361E+04  0.88921465355E+03 0.  0.
        -24    2    4    4    0    0 -0.40421743969E+03  0.81016411049E+01  0.12369054220E+04  0.13037495314E+04  0.79815051358E+02 0.  0.
         24    2    4    4    0    0  0.38637254227E+03 -0.36075464629E+03  0.11641174015E+04  0.12808773047E+04  0.77779745877E+02 0.  0.
         11    1    3    3    0    0 -0.18248194302E+02  0.47018501142E+02  0.35555240180E+02  0.61708274560E+02  0.00000000000E+00 0. -1.
        -11    1    3    3    0    0  0.36093091723E+02  0.30563450405E+03  0.46322231210E+03  0.55613853649E+03  0.00000000000E+00 0.  1.
          4    1    6    6  502    0  0.20047761849E+03 -0.23737965783E+03  0.65060609877E+03  0.72099145156E+03  0.00000000000E+00 0. -1.
          3    1    5    5  503    0 -0.25304679774E+03  0.18285605073E+02  0.88418407875E+03  0.91986332154E+03  0.00000000000E+00 0. -1.
         -4    1    5    5    0  503 -0.15117064195E+03 -0.10183963968E+02  0.35272134325E+03  0.38388620982E+03  0.00000000000E+00 0.  1.
         -3    1    6    6    0  502  0.18589492378E+03 -0.12337498846E+03  0.51351130277E+03  0.55988585313E+03  0.00000000000E+00 0.  1.
<mgrwt>
<rscale>  0 0.13590420E+04</rscale>
<asrwt>0</asrwt>
<pdfrwt beam="1">  1        2 0.46940565E+00 0.13590420E+04</pdfrwt>
<pdfrwt beam="2">  1       -2 0.23282562E-01 0.13590420E+04</pdfrwt>
<totfact> 0.26023351E+01</totfact>
</mgrwt>
</event>
<event>
12    1  0.1467288E-007  0.1581029E+04  0.7818608E-02  0.8832288E-01
         -2   -1    0    0    0  501 -0.00000000000E+00  0.00000000000E+00  0.38682081647E+03  0.38682081647E+03  0.00000000000E+00 0.  1.
          2   -1    0    0  501    0  0.00000000000E+00 -0.00000000000E+00 -0.16155097863E+04  0.16155097863E+04  0.00000000000E+00 0. -1.
         23    2    1    2    0    0 -0.25751538941E+03 -0.14010623066E+03  0.11590066291E+03  0.32808290430E+03  0.90892776296E+02 0.  0.
        254    2    1    2    0    0  0.25751538941E+03  0.14010623066E+03 -0.13445896327E+04  0.16742476984E+04  0.95354084531E+03 0.  0.
        -24    2    4    4    0    0 -0.30630103898E+03  0.54981550852E+02 -0.16393441310E+03  0.36075606869E+03  0.80169519667E+02 0.  0.
         24    2    4    4    0    0  0.56381642839E+03  0.85124679806E+02 -0.11806552196E+04  0.13134916298E+04  0.78602403257E+02 0.  0.
         11    1    3    3    0    0 -0.75853090069E+02 -0.90734220983E+02  0.36470634886E+02  0.12375983734E+03  0.00000000000E+00 0. -1.
        -11    1    3    3    0    0 -0.18166229934E+03 -0.49372009675E+02  0.79430028020E+02  0.20432306696E+03  0.00000000000E+00 0.  1.
          4    1    6    6  502    0  0.37341725556E+03  0.88326960264E+02 -0.83196469663E+03  0.91619176764E+03  0.00000000000E+00 0. -1.
          1    1    5    5  503    0 -0.31132134199E+03  0.52841080824E+02 -0.15977619647E+03  0.35389488659E+03  0.00000000000E+00 0. -1.
         -2    1    5    5    0  503  0.50203030053E+01  0.21404700277E+01 -0.41582166386E+01  0.68611821006E+01  0.00000000000E+00 0.  1.
         -3    1    6    6    0  502  0.19039917282E+03 -0.32022804578E+01 -0.34869052298E+03  0.39729986211E+03  0.00000000000E+00 0.  1.
<mgrwt>
<rscale>  0 0.15810285E+04</rscale>
<asrwt>0</asrwt>
<pdfrwt beam="1">  1        2 0.24853997E+00 0.15810285E+04</pdfrwt>
<pdfrwt beam="2">  1       -2 0.59510894E-01 0.15810285E+04</pdfrwt>
<totfact> 0.27658997E+01</totfact>
</mgrwt>
</event>
<event>
12    1  0.1467288E-007  0.2549609E+04  0.7818608E-02  0.8385522E-01
         -1   -1    0    0    0  501 -0.00000000000E+00  0.00000000000E+00  0.17956715817E+04  0.17956715817E+04  0.00000000000E+00 0.  1.
          1   -1    0    0  501    0  0.00000000000E+00 -0.00000000000E+00 -0.90502454101E+03  0.90502454101E+03  0.00000000000E+00 0. -1.
         23    2    1    2    0    0 -0.76164217344E+03  0.59625783424E+03 -0.19941875748E+03  0.99181124762E+03  0.91101618040E+02 0.  0.
        254    2    1    2    0    0  0.76164217344E+03 -0.59625783424E+03  0.10900657982E+04  0.17088848751E+04  0.89242471207E+03 0.  0.
        -24    2    4    4    0    0  0.29326839429E+03 -0.41273913778E+03  0.74126442414E+01  0.51248293779E+03  0.78891490596E+02 0.  0.
         24    2    4    4    0    0  0.46837377915E+03 -0.18351869646E+03  0.10826531539E+04  0.11964019373E+04  0.78655164583E+02 0.  0.
         13    1    3    3    0    0 -0.12467692285E+03  0.62092073149E+02 -0.13174342799E+02  0.13990469595E+03  0.00000000000E+00 0.  1.
        -13    1    3    3    0    0 -0.63696525059E+03  0.53416576109E+03 -0.18624441468E+03  0.85190655167E+03  0.00000000000E+00 0. -1.
          2    1    6    6  502    0  0.46320891304E+03 -0.16885162705E+03  0.10384676590E+04  0.11495601106E+04  0.00000000000E+00 0. -1.
          3    1    5    5  503    0  0.29385904958E+03 -0.40884588757E+03  0.15233938052E+02  0.50372628845E+03  0.00000000000E+00 0. -1.
         -4    1    5    5    0  503 -0.59065529545E+00 -0.38932502155E+01 -0.78212938108E+01  0.87566493474E+01  0.00000000000E+00 0.  1.
         -1    1    6    6    0  502  0.51648661084E+01 -0.14667069414E+02  0.44185494918E+02  0.46841826697E+02  0.00000000000E+00 0.  1.
<mgrwt>
<rscale>  0 0.25496093E+04</rscale>
<asrwt>0</asrwt>
<pdfrwt beam="1">  1        1 0.13923454E+00 0.25496093E+04</pdfrwt>
<pdfrwt beam="2">  1       -1 0.27625717E+00 0.25496093E+04</pdfrwt>
<totfact> 0.75036604E-01</totfact>
</mgrwt>
</event>
<event>
12    1  0.1467288E-007  0.1646705E+04  0.7818608E-02  0.8792358E-01
          1   -1    0    0  501    0  0.00000000000E+00  0.00000000000E+00  0.13295008933E+04  0.13295008933E+04  0.00000000000E+00 0. -1.
         -1   -1    0    0    0  501 -0.00000000000E+00 -0.00000000000E+00 -0.50989758659E+03  0.50989758659E+03  0.00000000000E+00 0.  1.
         23    2    1    2    0    0 -0.27271360932E+03 -0.46274412287E+03  0.49334302805E+03  0.73487184723E+03  0.90246620751E+02 0.  0.
        254    2    1    2    0    0  0.27271360932E+03  0.46274412287E+03  0.32626027865E+03  0.11045266327E+04  0.90831078210E+03 0.  0.
        -24    2    4    4    0    0  0.13518190053E+03  0.70025711792E+03  0.70314996940E+02  0.72098153504E+03  0.78968333240E+02 0.  0.
         24    2    4    4    0    0  0.13753170879E+03 -0.23751299504E+03  0.25594528171E+03  0.38354509762E+03  0.79192556089E+02 0.  0.
         13    1    3    3    0    0 -0.24369065336E+03 -0.39301982840E+03  0.37933386606E+03  0.59811696347E+03  0.00000000000E+00 0. -1.
        -13    1    3    3    0    0 -0.29022955952E+02 -0.69724294470E+02  0.11400916200E+03  0.13675488376E+03  0.00000000000E+00 0.  1.
          2    1    6    6  502    0  0.94407304449E+02 -0.88815733716E+02  0.13430787684E+03  0.18665363503E+03  0.00000000000E+00 0. -1.
          1    1    5    5  503    0  0.13626843375E+03  0.65706709938E+03  0.49079406992E+02  0.67284102677E+03  0.00000000000E+00 0. -1.
         -2    1    5    5    0  503 -0.10865332217E+01  0.43190018540E+02  0.21235589948E+02  0.48140508269E+02  0.00000000000E+00 0.  1.
         -1    1    6    6    0  502  0.43124404339E+02 -0.14869726133E+03  0.12163740487E+03  0.19689146258E+03  0.00000000000E+00 0.  1.
<mgrwt>
<rscale>  0 0.16467049E+04</rscale>
<asrwt>0</asrwt>
<pdfrwt beam="1">  1        1 0.20453860E+00 0.16467049E+04</pdfrwt>
<pdfrwt beam="2">  1       -1 0.78445783E-01 0.16467049E+04</pdfrwt>
<totfact> 0.13396835E+01</totfact>
</mgrwt>
</event>
<event>
12    1  0.1467288E-007  0.1589698E+04  0.7818608E-02  0.8826902E-01
          2   -1    0    0  501    0  0.00000000000E+00  0.00000000000E+00  0.12245459453E+04  0.12245459453E+04  0.00000000000E+00 0.  1.
         -2   -1    0    0    0  501 -0.00000000000E+00 -0.00000000000E+00 -0.51593372903E+03  0.51593372903E+03  0.00000000000E+00 0. -1.
         23    2    1    2    0    0 -0.40507364244E+03 -0.44941236276E+02 -0.13849649088E+03  0.44287514589E+03  0.10417651532E+03 0.  0.
        254    2    1    2    0    0  0.40507364244E+03  0.44941236276E+02  0.84710870710E+03  0.12976045284E+04  0.89447190003E+03 0.  0.
        -24    2    4    4    0    0  0.10859878516E+03 -0.40790466888E+03  0.45250224718E+03  0.62291962392E+03  0.71348855115E+02 0.  0.
         24    2    4    4    0    0  0.29647485728E+03  0.45284590516E+03  0.39460645992E+03  0.67468490447E+03  0.80738511844E+02 0.  0.
         13    1    3    3    0    0 -0.39812816246E+03 -0.26531824517E+02 -0.12213492494E+03  0.41728516790E+03  0.00000000000E+00 0. -1.
        -13    1    3    3    0    0 -0.69454799758E+01 -0.18409411759E+02 -0.16361565946E+02  0.25589977991E+02  0.00000000000E+00 0.  1.
          2    1    6    6  502    0  0.42833319164E+02  0.12835511231E+03  0.92647463152E+02  0.16399170868E+03  0.00000000000E+00 0. -1.
          1    1    5    5  503    0  0.24379147788E+01 -0.29150091923E+02  0.62467047937E+02  0.68976832093E+02  0.00000000000E+00 0. -1.
         -2    1    5    5    0  503  0.10616087039E+03 -0.37875457696E+03  0.39003519924E+03  0.55394279183E+03  0.00000000000E+00 0.  1.
         -1    1    6    6    0  502  0.25364153811E+03  0.32449079285E+03  0.30195899677E+03  0.51069319579E+03  0.00000000000E+00 0.  1.
<mgrwt>
<rscale>  0 0.15896975E+04</rscale>
<asrwt>0</asrwt>
<pdfrwt beam="1">  1        2 0.18839168E+00 0.15896975E+04</pdfrwt>
<pdfrwt beam="2">  1       -2 0.79374420E-01 0.15896975E+04</pdfrwt>
<totfact> 0.24728941E+01</totfact>
</mgrwt>
</event>
<event>
12    1  0.1467288E-007  0.1633357E+04  0.7818608E-02  0.8800313E-01
         -1   -1    0    0    0  501 -0.00000000000E+00  0.00000000000E+00  0.36750447481E+03  0.36750447481E+03  0.00000000000E+00 0.  1.
          1   -1    0    0  501    0  0.00000000000E+00 -0.00000000000E+00 -0.18148463165E+04  0.18148463165E+04  0.00000000000E+00 0. -1.
         23    2    1    2    0    0  0.39475120552E+03  0.34830621937E+03 -0.77615548750E+03  0.94177255676E+03  0.85863095474E+02 0.  0.
        254    2    1    2    0    0 -0.39475120552E+03 -0.34830621937E+03 -0.67118635415E+03  0.12405782345E+04  0.90077605279E+03 0.  0.
        -24    2    4    4    0    0  0.12226008152E+03 -0.47597758574E+03 -0.39335848649E+03  0.63471243574E+03  0.81405082998E+02 0.  0.
         24    2    4    4    0    0 -0.51701128704E+03  0.12767136636E+03 -0.27782786767E+03  0.60586579879E+03  0.79274165885E+02 0.  0.
         11    1    3    3    0    0  0.39605818255E+03  0.33217829403E+03 -0.74671094916E+03  0.90817495262E+03  0.00000000000E+00 0. -1.
        -11    1    3    3    0    0 -0.13069770264E+01  0.16127925348E+02 -0.29444538346E+02  0.33597604131E+02  0.00000000000E+00 0.  1.
          4    1    6    6  502    0 -0.37613759578E+03  0.11177420362E+03 -0.23668032158E+03  0.45824724568E+03  0.00000000000E+00 0. -1.
          3    1    5    5  503    0  0.13449976523E+03 -0.43277641341E+03 -0.35591825751E+03  0.57624943981E+03  0.00000000000E+00 0. -1.
         -4    1    5    5    0  503 -0.12239683710E+02 -0.43201172324E+02 -0.37440228974E+02  0.58462995930E+02  0.00000000000E+00 0.  1.
         -3    1    6    6    0  502 -0.14087369126E+03  0.15897162742E+02 -0.41147546089E+02  0.14761855311E+03  0.00000000000E+00 0.  1.
<mgrwt>
<rscale>  0 0.16333575E+04</rscale>
<asrwt>0</asrwt>
<pdfrwt beam="1">  1        1 0.27920713E+00 0.16333575E+04</pdfrwt>
<pdfrwt beam="2">  1       -1 0.56539149E-01 0.16333575E+04</pdfrwt>
<totfact> 0.12060459E+01</totfact>
</mgrwt>
</event>
<event>
12    1  0.1467288E-007  0.2072868E+04  0.7818608E-02  0.8573291E-01
          1   -1    0    0  501    0  0.00000000000E+00  0.00000000000E+00  0.79765081183E+03  0.79765081183E+03  0.00000000000E+00 0. -1.
         -1   -1    0    0    0  501 -0.00000000000E+00 -0.00000000000E+00 -0.13466982374E+04  0.13466982374E+04  0.00000000000E+00 0.  1.
         23    2    1    2    0    0  0.99253171427E+02 -0.67343941507E+03 -0.71886106094E+03  0.99401512459E+03  0.89067419243E+02 0.  0.
        254    2    1    2    0    0 -0.99253171427E+02  0.67343941507E+03  0.16981363542E+03  0.11503339246E+04  0.91162471965E+03 0.  0.
        -24    2    4    4    0    0  0.20838319144E+03  0.14834713029E+03 -0.28204117232E+03  0.38823652568E+03  0.75828434276E+02 0.  0.
         24    2    4    4    0    0 -0.30763636287E+03  0.52509228477E+03  0.45185480774E+03  0.76209739891E+03  0.79105239112E+02 0.  0.
         11    1    3    3    0    0  0.11275402595E+03 -0.62755234444E+03 -0.65343633700E+03  0.91297013198E+03  0.00000000000E+00 0.  1.
        -11    1    3    3    0    0 -0.13500854527E+02 -0.45887070624E+02 -0.65424723945E+02  0.81044992607E+02  0.00000000000E+00 0. -1.
          2    1    6    6  502    0 -0.12386385971E+03  0.28607885053E+03  0.21502602608E+03  0.37870774531E+03  0.00000000000E+00 0. -1.
          1    1    5    5  503    0  0.11129112773E+03  0.45797402675E+02 -0.16833283147E+03  0.20692766696E+03  0.00000000000E+00 0. -1.
         -2    1    5    5    0  503  0.97092063711E+02  0.10254972762E+03 -0.11370834086E+03  0.18130885872E+03  0.00000000000E+00 0.  1.
         -3    1    6    6    0  502 -0.18377250316E+03  0.23901343424E+03  0.23682878166E+03  0.38338965360E+03  0.00000000000E+00 0.  1.
<mgrwt>
<rscale>  0 0.20728675E+04</rscale>
<asrwt>0</asrwt>
<pdfrwt beam="1">  1        1 0.12271551E+00 0.20728675E+04</pdfrwt>
<pdfrwt beam="2">  1       -1 0.20718434E+00 0.20728675E+04</pdfrwt>
<totfact> 0.27510555E+00</totfact>
</mgrwt>
</event>
<event>
12    1  0.1467288E-007  0.1967416E+04  0.7818608E-02  0.8622008E-01
         -2   -1    0    0    0  501 -0.00000000000E+00  0.00000000000E+00  0.30066855553E+03  0.30066855553E+03  0.00000000000E+00 0.  1.
          2   -1    0    0  501    0  0.00000000000E+00 -0.00000000000E+00 -0.32184316825E+04  0.32184316825E+04  0.00000000000E+00 0. -1.
         23    2    1    2    0    0  0.26539371734E+03  0.20202192499E+01 -0.24119893124E+04  0.24282194449E+04  0.90107284952E+02 0.  0.
        254    2    1    2    0    0 -0.26539371734E+03 -0.20202192499E+01 -0.50577381457E+03  0.10908807932E+04  0.92939542010E+03 0.  0.
        -24    2    4    4    0    0 -0.24384065366E+02 -0.44217786684E+03 -0.16500298010E+03  0.47907858359E+03  0.78577714688E+02 0.  0.
         24    2    4    4    0    0 -0.24100965198E+03  0.44015764759E+03 -0.34077083448E+03  0.61180220958E+03  0.79704296809E+02 0.  0.
         13    1    3    3    0    0  0.22827112493E+02 -0.47114858812E+01 -0.71932272129E+02  0.75614330239E+02  0.00000000000E+00 0.  1.
        -13    1    3    3    0    0  0.24256660485E+03  0.67317051310E+01 -0.23400570403E+04  0.23526051146E+04  0.00000000000E+00 0. -1.
          4    1    6    6  502    0 -0.15114485072E+03  0.30417523631E+03 -0.18705524424E+03  0.38775895177E+03  0.00000000000E+00 0. -1.
          1    1    5    5  503    0 -0.47289252385E+02 -0.38301599959E+03 -0.13454775998E+03  0.40870604235E+03  0.00000000000E+00 0. -1.
         -2    1    5    5    0  503  0.22905187019E+02 -0.59161867248E+02 -0.30455220113E+02  0.70372541241E+02  0.00000000000E+00 0.  1.
         -3    1    6    6    0  502 -0.89864801259E+02  0.13598241128E+03 -0.15371559024E+03  0.22404325780E+03  0.00000000000E+00 0.  1.
<mgrwt>
<rscale>  0 0.19674158E+04</rscale>
<asrwt>0</asrwt>
<pdfrwt beam="1">  1        2 0.49514333E+00 0.19674158E+04</pdfrwt>
<pdfrwt beam="2">  1       -2 0.46256702E-01 0.19674158E+04</pdfrwt>
<totfact> 0.52264000E+00</totfact>
</mgrwt>
</event>
<event>
12    1  0.1467288E-007  0.2031470E+04  0.7818608E-02  0.8592047E-01
          2   -1    0    0  501    0  0.00000000000E+00  0.00000000000E+00  0.21040164599E+04  0.21040164599E+04  0.00000000000E+00 0. -1.
         -2   -1    0    0    0  501 -0.00000000000E+00 -0.00000000000E+00 -0.49035634646E+03  0.49035634646E+03  0.00000000000E+00 0.  1.
         23    2    1    2    0    0  0.77295958339E+02  0.31014691097E+03 -0.30619366030E+03  0.45174863617E+03  0.90313349580E+02 0.  0.
        254    2    1    2    0    0 -0.77295958339E+02 -0.31014691097E+03  0.19198537738E+04  0.21426241702E+04  0.89601007283E+03 0.  0.
        -24    2    4    4    0    0  0.32687955754E+03 -0.32855182717E+03  0.14122057789E+04  0.14884190434E+04  0.79180418272E+02 0.  0.
         24    2    4    4    0    0 -0.40417551588E+03  0.18404916197E+02  0.50764799492E+03  0.65420512683E+03  0.81125043331E+02 0.  0.
         11    1    3    3    0    0  0.56393651314E+02  0.27089439990E+03 -0.29777137974E+03  0.40648716388E+03  0.00000000000E+00 0.  1.
        -11    1    3    3    0    0  0.20902307025E+02  0.39252511071E+02 -0.84222805657E+01  0.45261472295E+02  0.00000000000E+00 0. -1.
          2    1    6    6  502    0 -0.16965681876E+03  0.11544536013E+02  0.27810051166E+03  0.32597025485E+03  0.00000000000E+00 0. -1.
          3    1    5    5  503    0  0.10510815458E+02 -0.96410229812E+01  0.14666369613E+02  0.20457980432E+02  0.00000000000E+00 0. -1.
         -4    1    5    5    0  503  0.31636874208E+03 -0.31891080419E+03  0.13975394093E+04  0.14679610630E+04  0.00000000000E+00 0.  1.
         -1    1    6    6    0  502 -0.23451869712E+03  0.68603801840E+01  0.22954748326E+03  0.32823487198E+03  0.00000000000E+00 0.  1.
<mgrwt>
<rscale>  0 0.20314702E+04</rscale>
<asrwt>0</asrwt>
<pdfrwt beam="1">  1        2 0.32369483E+00 0.20314702E+04</pdfrwt>
<pdfrwt beam="2">  1       -2 0.75439439E-01 0.20314702E+04</pdfrwt>
<totfact> 0.85379589E+00</totfact>
</mgrwt>
</event>
<event>
12    1  0.1467288E-007  0.1692729E+04  0.7818608E-02  0.8765522E-01
          1   -1    0    0  501    0  0.00000000000E+00  0.00000000000E+00  0.13878557031E+04  0.13878557031E+04  0.00000000000E+00 0. -1.
         -1   -1    0    0    0  501 -0.00000000000E+00 -0.00000000000E+00 -0.51614366295E+03  0.51614366295E+03  0.00000000000E+00 0.  1.
         23    2    1    2    0    0  0.29502342068E+03  0.52218241750E+03  0.32783244188E+03  0.68942315083E+03  0.90093701582E+02 0.  0.
        254    2    1    2    0    0 -0.29502342068E+03 -0.52218241750E+03  0.54387959830E+03  0.12145762152E+04  0.90536018759E+03 0.  0.
        -24    2    4    4    0    0 -0.41534019236E+03  0.11074354596E+03  0.21930521894E+03  0.48897648809E+03  0.78940601015E+02 0.  0.
         24    2    4    4    0    0  0.12031677168E+03 -0.63292596346E+03  0.32457437937E+03  0.72559972715E+03  0.77942514239E+02 0.  0.
         11    1    3    3    0    0  0.85834776690E+02  0.16438625661E+03  0.55793264323E+02  0.19365778734E+03  0.00000000000E+00 0.  1.
        -11    1    3    3    0    0  0.20918864399E+03  0.35779616089E+03  0.27203917755E+03  0.49576536350E+03  0.00000000000E+00 0. -1.
          2    1    6    6  502    0  0.45260742376E+02 -0.29963514760E+03  0.19425228269E+03  0.35994958787E+03  0.00000000000E+00 0. -1.
          1    1    5    5  503    0 -0.81917870311E+02  0.47411227846E+01  0.13766465849E+02  0.83201750603E+02  0.00000000000E+00 0. -1.
         -2    1    5    5    0  503 -0.33342232205E+03  0.10600242317E+03  0.20553875309E+03  0.40577473749E+03  0.00000000000E+00 0.  1.
         -1    1    6    6    0  502  0.75056029308E+02 -0.33329081586E+03  0.13032209668E+03  0.36565013928E+03  0.00000000000E+00 0.  1.
<mgrwt>
<rscale>  0 0.16927291E+04</rscale>
<asrwt>0</asrwt>
<pdfrwt beam="1">  1        1 0.21351626E+00 0.16927291E+04</pdfrwt>
<pdfrwt beam="2">  1       -1 0.79406718E-01 0.16927291E+04</pdfrwt>
<totfact> 0.11824386E+01</totfact>
</mgrwt>
</event>
<event>
12    1  0.1467288E-007  0.1123930E+04  0.7818608E-02  0.9182177E-01
          1   -1    0    0  501    0  0.00000000000E+00  0.00000000000E+00  0.11477473963E+04  0.11477473963E+04  0.00000000000E+00 0. -1.
         -1   -1    0    0    0  501 -0.00000000000E+00 -0.00000000000E+00 -0.27515154461E+03  0.27515154461E+03  0.00000000000E+00 0.  1.
         23    2    1    2    0    0 -0.60979768346E+01 -0.18517059426E+03  0.49001373751E+02  0.21331626231E+03  0.93687559680E+02 0.  0.
        254    2    1    2    0    0  0.60979768346E+01  0.18517059426E+03  0.82359447798E+03  0.12095826786E+04  0.86628924616E+03 0.  0.
        -24    2    4    4    0    0 -0.12586726829E+03 -0.20349879858E+03 -0.34568675475E+02  0.25492004952E+03  0.80838778276E+02 0.  0.
         24    2    4    4    0    0  0.13196524512E+03  0.38866939284E+03  0.85816315345E+03  0.95466262912E+03  0.80361773486E+02 0.  0.
         13    1    3    3    0    0  0.24400684123E+02 -0.91226651180E+02  0.63056060106E+02  0.11355070228E+03  0.00000000000E+00 0.  1.
        -13    1    3    3    0    0 -0.30498660958E+02 -0.93943943079E+02 -0.14054686355E+02  0.99765560039E+02  0.00000000000E+00 0. -1.
          2    1    6    6  502    0  0.14762692818E+02  0.51063942783E+02  0.18543959391E+03  0.19290750721E+03  0.00000000000E+00 0. -1.
          1    1    5    5  503    0 -0.19862928454E+02  0.30033748240E+01 -0.64690563547E+01  0.21104617439E+02  0.00000000000E+00 0. -1.
         -2    1    5    5    0  503 -0.10600433983E+03 -0.20650217341E+03 -0.28099619120E+02  0.23381543208E+03  0.00000000000E+00 0.  1.
         -1    1    6    6    0  502  0.11720255230E+03  0.33760545006E+03  0.67272355954E+03  0.76175512190E+03  0.00000000000E+00 0.  1.
<mgrwt>
<rscale>  0 0.11239297E+04</rscale>
<asrwt>0</asrwt>
<pdfrwt beam="1">  1        1 0.17657652E+00 0.11239297E+04</pdfrwt>
<pdfrwt beam="2">  1       -1 0.42331008E-01 0.11239297E+04</pdfrwt>
<totfact> 0.63713745E+01</totfact>
</mgrwt>
</event>
<event>
12    1  0.1467288E-007  0.2353428E+04  0.7818608E-02  0.8457148E-01
          2   -1    0    0  501    0  0.00000000000E+00  0.00000000000E+00  0.15335950033E+04  0.15335950033E+04  0.00000000000E+00 0. -1.
         -2   -1    0    0    0  501 -0.00000000000E+00 -0.00000000000E+00 -0.90288263564E+03  0.90288263564E+03  0.00000000000E+00 0.  1.
         23    2    1    2    0    0  0.27848864080E+03  0.92876764924E+03  0.55225344289E+03  0.11196281634E+04  0.91750149075E+02 0.  0.
        254    2    1    2    0    0 -0.27848864080E+03 -0.92876764924E+03  0.78458924755E+02  0.13168494755E+04  0.88756490968E+03 0.  0.
        -24    2    4    4    0    0 -0.63530637569E+02 -0.24017687644E+02 -0.29375167765E+03  0.31195867674E+03  0.80094797835E+02 0.  0.
         24    2    4    4    0    0 -0.21495800323E+03 -0.90474996159E+03  0.37221060241E+03  0.10048907987E+04  0.80531662748E+02 0.  0.
         11    1    3    3    0    0  0.32514392093E+02  0.14573478859E+03  0.50378333217E+02  0.15758740672E+03  0.00000000000E+00 0.  1.
        -11    1    3    3    0    0  0.24597424870E+03  0.78303286065E+03  0.50187510967E+03  0.96204075672E+03  0.00000000000E+00 0. -1.
          2    1    6    6  502    0 -0.35653681447E+02 -0.12967566980E+03  0.84958812209E+02  0.15907534099E+03  0.00000000000E+00 0. -1.
          1    1    5    5  503    0 -0.53112025947E+01  0.92027795761E+01  0.31555130708E-01  0.10625489196E+02  0.00000000000E+00 0. -1.
         -2    1    5    5    0  503 -0.58219434974E+02 -0.33220467220E+02 -0.29378323278E+03  0.30133318754E+03  0.00000000000E+00 0.  1.
         -1    1    6    6    0  502 -0.17930432178E+03 -0.77507429180E+03  0.28725179020E+03  0.84581545776E+03  0.00000000000E+00 0.  1.
<mgrwt>
<rscale>  0 0.23534284E+04</rscale>
<asrwt>0</asrwt>
<pdfrwt beam="1">  1        2 0.23593769E+00 0.23534284E+04</pdfrwt>
<pdfrwt beam="2">  1       -2 0.13890502E+00 0.23534284E+04</pdfrwt>
<totfact> 0.40215037E+00</totfact>
</mgrwt>
</event>
<event>
12    1  0.2033913E-007  0.1635447E+04  0.7818608E-02  0.8799063E-01
         -2   -1    0    0    0  501 -0.00000000000E+00  0.00000000000E+00  0.56915059659E+03  0.56915059659E+03  0.00000000000E+00 0.  1.
          2   -1    0    0  501    0  0.00000000000E+00 -0.00000000000E+00 -0.11748585673E+04  0.11748585673E+04  0.00000000000E+00 0. -1.
         23    2    1    2    0    0  0.46395248793E+03 -0.18811468024E+03 -0.47296193834E+03  0.69771269914E+03  0.11167350377E+03 0.  0.
        254    2    1    2    0    0 -0.46395248793E+03  0.18811468024E+03 -0.13274603234E+03  0.10462964647E+04  0.90910711085E+03 0.  0.
        -24    2    4    4    0    0  0.23954880813E+03  0.16004597272E+03  0.75075384194E+02  0.30824039338E+03  0.79859138110E+02 0.  0.
         24    2    4    4    0    0 -0.70350129606E+03  0.28068707514E+02 -0.20782141653E+03  0.73805607134E+03  0.76387809062E+02 0.  0.
         11    1    3    3    0    0  0.40836464920E+03 -0.15578658055E+03 -0.45506505158E+03  0.63096382350E+03  0.00000000000E+00 0. -1.
        -11    1    3    3    0    0  0.55587838728E+02 -0.32328099681E+02 -0.17896886768E+02  0.66748875641E+02  0.00000000000E+00 0.  1.
          4    1    6    6  502    0 -0.11649761363E+02 -0.18577643170E+01  0.60842254262E+01  0.13273508470E+02  0.00000000000E+00 0. -1.
          3    1    5    5  503    0 -0.27074079422E+01 -0.50666708248E+01  0.21501902839E+01  0.61338837020E+01  0.00000000000E+00 0. -1.
         -4    1    5    5    0  503  0.24225621607E+03  0.16511264355E+03  0.72925193910E+02  0.30210650968E+03  0.00000000000E+00 0.  1.
         -3    1    6    6    0  502 -0.69185153469E+03  0.29926471831E+02 -0.21390564196E+03  0.72478256287E+03  0.00000000000E+00 0.  1.
<mgrwt>
<rscale>  0 0.16354467E+04</rscale>
<asrwt>0</asrwt>
<pdfrwt beam="1">  1        2 0.18074747E+00 0.16354467E+04</pdfrwt>
<pdfrwt beam="2">  1       -2 0.87561631E-01 0.16354467E+04</pdfrwt>
<totfact> 0.21117430E+01</totfact>
</mgrwt>
</event>
<event>
12    1  0.1467288E-007  0.3242197E+04  0.7818608E-02  0.8177761E-01
         -1   -1    0    0    0  501 -0.00000000000E+00  0.00000000000E+00  0.14734942933E+04  0.14734942933E+04  0.00000000000E+00 0.  1.
          1   -1    0    0  501    0  0.00000000000E+00 -0.00000000000E+00 -0.17834890084E+04  0.17834890084E+04  0.00000000000E+00 0. -1.
         23    2    1    2    0    0 -0.67889222669E+03  0.13299287469E+04 -0.10586634755E+03  0.14996553278E+04  0.90295577531E+02 0.  0.
        254    2    1    2    0    0  0.67889222669E+03 -0.13299287469E+04 -0.20412836763E+03  0.17573279739E+04  0.90384074383E+03 0.  0.
        -24    2    4    4    0    0  0.37585043740E+03 -0.13757162381E+04 -0.17490579187E+03  0.14394386913E+04  0.86792804186E+02 0.  0.
         24    2    4    4    0    0  0.30304178928E+03  0.45787491201E+02 -0.29222575766E+02  0.31788928265E+03  0.79175859251E+02 0.  0.
         11    1    3    3    0    0 -0.53286364542E+03  0.11107007991E+04 -0.10329369758E+03  0.12362319838E+04  0.00000000000E+00 0. -1.
        -11    1    3    3    0    0 -0.14602858126E+03  0.21922794775E+03 -0.25726499698E+01  0.26342334397E+03  0.00000000000E+00 0.  1.
          2    1    6    6  502    0  0.26847865321E+03  0.59592798603E+02 -0.42695778657E+02  0.27830741706E+03  0.00000000000E+00 0. -1.
          1    1    5    5  503    0  0.37043142772E+03 -0.13736892514E+04 -0.17251829438E+03  0.14331797389E+04  0.00000000000E+00 0. -1.
         -2    1    5    5    0  503  0.54190096838E+01 -0.20269867229E+01 -0.23874974832E+01  0.62589524172E+01  0.00000000000E+00 0.  1.
         -1    1    6    6    0  502  0.34563136069E+02 -0.13805307402E+02  0.13473202891E+02  0.39581865589E+02  0.00000000000E+00 0.  1.
<mgrwt>
<rscale>  0 0.32421973E+04</rscale>
<asrwt>0</asrwt>
<pdfrwt beam="1">  1        1 0.27438292E+00 0.32421973E+04</pdfrwt>
<pdfrwt beam="2">  1       -1 0.22669143E+00 0.32421973E+04</pdfrwt>
<totfact> 0.34608475E-01</totfact>
</mgrwt>
</event>
<event>
12    1  0.1467288E-007  0.1896216E+04  0.7818608E-02  0.8656742E-01
          2   -1    0    0  501    0  0.00000000000E+00  0.00000000000E+00  0.66711265257E+03  0.66711265257E+03  0.00000000000E+00 0. -1.
         -2   -1    0    0    0  501 -0.00000000000E+00 -0.00000000000E+00 -0.13474618274E+04  0.13474618274E+04  0.00000000000E+00 0.  1.
         23    2    1    2    0    0  0.39345524095E+03 -0.14977536876E+03  0.36848994964E+03  0.56691865525E+03  0.91499895953E+02 0.  0.
        254    2    1    2    0    0 -0.39345524095E+03  0.14977536876E+03 -0.10488391244E+04  0.14476558247E+04  0.90465694608E+03 0.  0.
        -24    2    4    4    0    0 -0.49927850213E+03  0.44560786137E+03 -0.73074040394E+03  0.99376966214E+03  0.75836763061E+02 0.  0.
         24    2    4    4    0    0  0.10582326117E+03 -0.29583249261E+03 -0.31809872049E+03  0.45388616254E+03  0.78169215696E+02 0.  0.
         13    1    3    3    0    0  0.38669374415E+03 -0.15694657767E+03  0.34508727865E+03  0.54152517014E+03  0.00000000000E+00 0. -1.
        -13    1    3    3    0    0  0.67614968010E+01  0.71712089143E+01  0.23402670992E+02  0.25393485106E+02  0.00000000000E+00 0.  1.
          4    1    6    6  502    0  0.28182152197E+02 -0.19209988176E+03 -0.18722173610E+03  0.26971944079E+03  0.00000000000E+00 0. -1.
          1    1    5    5  503    0 -0.15286464210E+03  0.17983613396E+03 -0.23287818136E+03  0.33157334217E+03  0.00000000000E+00 0. -1.
         -2    1    5    5    0  503 -0.34641386002E+03  0.26577172741E+03 -0.49786222259E+03  0.66219631998E+03  0.00000000000E+00 0.  1.
         -1    1    6    6    0  502  0.77641108978E+02 -0.10373261085E+03 -0.13087698439E+03  0.18416672175E+03  0.00000000000E+00 0.  1.
<mgrwt>
<rscale>  0 0.18962161E+04</rscale>
<asrwt>0</asrwt>
<pdfrwt beam="1">  1        2 0.10263272E+00 0.18962161E+04</pdfrwt>
<pdfrwt beam="2">  1       -2 0.20730182E+00 0.18962161E+04</pdfrwt>
<totfact> 0.48576239E+00</totfact>
</mgrwt>
</event>
<event>
12    1  0.1467288E-007  0.2103036E+04  0.7818608E-02  0.8559907E-01
         -2   -1    0    0    0  501 -0.00000000000E+00  0.00000000000E+00  0.90382674692E+03  0.90382674692E+03  0.00000000000E+00 0. -1.
          2   -1    0    0  501    0  0.00000000000E+00 -0.00000000000E+00 -0.12233425452E+04  0.12233425452E+04  0.00000000000E+00 0.  1.
         23    2    1    2    0    0 -0.47659844571E+03  0.67803968201E+03 -0.35895567385E+03  0.90711000686E+03  0.84353422813E+02 0.  0.
        254    2    1    2    0    0  0.47659844571E+03 -0.67803968201E+03  0.39439875617E+02  0.12200592852E+04  0.89448603499E+03 0.  0.
        -24    2    4    4    0    0  0.37344586945E+03  0.76352475558E+02  0.20124175894E+03  0.43762847798E+03  0.75689637737E+02 0.  0.
         24    2    4    4    0    0  0.10315257625E+03 -0.75439215756E+03 -0.16180188332E+03  0.78243080723E+03  0.79184198368E+02 0.  0.
         11    1    3    3    0    0 -0.38304738332E+03  0.48841825900E+03 -0.28607417540E+03  0.68345894348E+03  0.00000000000E+00 0.  1.
        -11    1    3    3    0    0 -0.93551062385E+02  0.18962142300E+03 -0.72881498448E+02  0.22365106338E+03  0.00000000000E+00 0. -1.
          4    1    6    6  502    0  0.91463796918E+02 -0.37868397094E+03 -0.87042642578E+02  0.39917865377E+03  0.00000000000E+00 0. -1.
          3    1    5    5  503    0  0.20688179075E+03  0.79030016754E+02  0.12648578927E+03  0.25503818102E+03  0.00000000000E+00 0. -1.
         -4    1    5    5    0  503  0.16656407870E+03 -0.26775411953E+01  0.74755969672E+02  0.18259029696E+03  0.00000000000E+00 0.  1.
         -3    1    6    6    0  502  0.11688779336E+02 -0.37570818662E+03 -0.74759240743E+02  0.38325215346E+03  0.00000000000E+00 0.  1.
<mgrwt>
<rscale>  0 0.21030356E+04</rscale>
<asrwt>0</asrwt>
<pdfrwt beam="1">  1        2 0.18820654E+00 0.21030356E+04</pdfrwt>
<pdfrwt beam="2">  1       -2 0.13905027E+00 0.21030356E+04</pdfrwt>
<totfact> 0.61788517E+00</totfact>
</mgrwt>
</event>
<event>
12    1  0.1467288E-007  0.1734540E+04  0.7818608E-02  0.8741906E-01
         -2   -1    0    0    0  501 -0.00000000000E+00  0.00000000000E+00  0.57988174768E+03  0.57988174768E+03  0.00000000000E+00 0.  1.
          2   -1    0    0  501    0  0.00000000000E+00 -0.00000000000E+00 -0.12970873731E+04  0.12970873731E+04  0.00000000000E+00 0. -1.
         23    2    1    2    0    0  0.36554718986E+03  0.92379833306E+01  0.29064063354E+03  0.47586497195E+03  0.90914274524E+02 0.  0.
        254    2    1    2    0    0 -0.36554718986E+03 -0.92379833306E+01 -0.10078462589E+04  0.14011041488E+04  0.90201367270E+03 0.  0.
        -24    2    4    4    0    0 -0.61023400096E+03 -0.18714743318E+03 -0.79542650228E+03  0.10229981896E+04  0.80076698763E+02 0.  0.
         24    2    4    4    0    0  0.24468681110E+03  0.17790944985E+03 -0.21241975664E+03  0.37810595919E+03  0.79489342026E+02 0.  0.
         11    1    3    3    0    0  0.25972788766E+03 -0.33319068849E+01  0.25367803794E+03  0.36307330412E+03  0.00000000000E+00 0.  1.
        -11    1    3    3    0    0  0.10581930220E+03  0.12569890216E+02  0.36962595605E+02  0.11279166783E+03  0.00000000000E+00 0. -1.
          2    1    6    6  502    0  0.13337888983E+03  0.12476689533E+03 -0.16444270355E+03  0.24576026768E+03  0.00000000000E+00 0. -1.
          3    1    5    5  503    0 -0.97360548906E+01 -0.12373349046E+02 -0.35304574527E+02  0.38656222189E+02  0.00000000000E+00 0. -1.
         -2    1    5    5    0  503 -0.60049794607E+03 -0.17477408413E+03 -0.76012192776E+03  0.98434196740E+03  0.00000000000E+00 0.  1.
         -1    1    6    6    0  502  0.11130792127E+03  0.53142554519E+02 -0.47977053098E+02  0.13234569151E+03  0.00000000000E+00 0.  1.
<mgrwt>
<rscale>  0 0.17345400E+04</rscale>
<asrwt>0</asrwt>
<pdfrwt beam="1">  1        2 0.19955190E+00 0.17345400E+04</pdfrwt>
<pdfrwt beam="2">  1       -2 0.89212577E-01 0.17345400E+04</pdfrwt>
<totfact> 0.16987180E+01</totfact>
</mgrwt>
</event>
<event>
12    1  0.1627568E-007  0.1844891E+04  0.7818608E-02  0.8682785E-01
         -2   -1    0    0    0  501 -0.00000000000E+00  0.00000000000E+00  0.36810701169E+03  0.36810701169E+03  0.00000000000E+00 0.  1.
          2   -1    0    0  501    0  0.00000000000E+00 -0.00000000000E+00 -0.23115703359E+04  0.23115703359E+04  0.00000000000E+00 0. -1.
         23    2    1    2    0    0  0.54161046147E+03  0.31893887191E+03 -0.40505404915E+03  0.75342471141E+03  0.92282810134E+02 0.  0.
        254    2    1    2    0    0 -0.54161046147E+03 -0.31893887191E+03 -0.15384092750E+04  0.19262526362E+04  0.97400319547E+03 0.  0.
        -24    2    4    4    0    0 -0.43522313000E+03 -0.90309651813E+02 -0.15934539096E+04  0.16558987282E+04  0.73008423518E+02 0.  0.
         24    2    4    4    0    0 -0.10638733148E+03 -0.22862922009E+03  0.55044634585E+02  0.27035390794E+03  0.80447120305E+02 0.  0.
         11    1    3    3    0    0  0.57243758395E+02  0.92534576592E+01 -0.19386157878E+02  0.61141618159E+02  0.00000000000E+00 0. -1.
        -11    1    3    3    0    0  0.48436670308E+03  0.30968541425E+03 -0.38566789127E+03  0.69228309325E+03  0.00000000000E+00 0.  1.
          4    1    6    6  502    0 -0.10906118467E+03 -0.17870466879E+03  0.65327793225E+02  0.21931124279E+03  0.00000000000E+00 0. -1.
          3    1    5    5  503    0 -0.40737903496E+03 -0.88399158269E+02 -0.14098866863E+04  0.14702219416E+04  0.00000000000E+00 0. -1.
         -4    1    5    5    0  503 -0.27844095040E+02 -0.19104935438E+01 -0.18356722333E+03  0.18567678664E+03  0.00000000000E+00 0.  1.
         -3    1    6    6    0  502  0.26738531960E+01 -0.49924551305E+02 -0.10283158640E+02  0.51042665150E+02  0.00000000000E+00 0.  1.
<mgrwt>
<rscale>  0 0.18448905E+04</rscale>
<asrwt>0</asrwt>
<pdfrwt beam="1">  1        2 0.35562621E+00 0.18448905E+04</pdfrwt>
<pdfrwt beam="2">  1       -2 0.56631847E-01 0.18448905E+04</pdfrwt>
<totfact> 0.12291795E+01</totfact>
</mgrwt>
</event>
<event>
12    1  0.1467288E-007  0.1185011E+04  0.7818608E-02  0.9126078E-01
          2   -1    0    0  501    0  0.00000000000E+00  0.00000000000E+00  0.24062129113E+03  0.24062129113E+03  0.00000000000E+00 0.  1.
         -2   -1    0    0    0  501 -0.00000000000E+00 -0.00000000000E+00 -0.14589846101E+04  0.14589846101E+04  0.00000000000E+00 0. -1.
         23    2    1    2    0    0  0.40978451670E+01  0.21145526879E+03 -0.79714312774E+02  0.24429688850E+03  0.92717177691E+02 0.  0.
        254    2    1    2    0    0 -0.40978451670E+01 -0.21145526879E+03 -0.11386490062E+04  0.14553090128E+04  0.88129032685E+03 0.  0.
        -24    2    4    4    0    0 -0.12902961701E+03  0.31555188909E+03 -0.35029357298E+03  0.49528149258E+03  0.79853195573E+02 0.  0.
         24    2    4    4    0    0  0.12493177184E+03 -0.52700715788E+03 -0.78835543326E+03  0.96002752019E+03  0.82486715900E+02 0.  0.
         13    1    3    3    0    0  0.36623657260E+02  0.18278259778E+03 -0.54866088103E+02  0.19432204699E+03  0.00000000000E+00 0.  1.
        -13    1    3    3    0    0 -0.32525812093E+02  0.28672671002E+02 -0.24848224671E+02  0.49974841510E+02  0.00000000000E+00 0. -1.
          4    1    6    6  502    0  0.97591119920E+02 -0.46541099763E+03 -0.72806459631E+03  0.86960305875E+03  0.00000000000E+00 0. -1.
          1    1    5    5  503    0 -0.10146563930E+03  0.28353004677E+03 -0.26956932111E+03  0.40416850726E+03  0.00000000000E+00 0. -1.
         -2    1    5    5    0  503 -0.27563977710E+02  0.32021842326E+02 -0.80724251874E+02  0.91112985319E+02  0.00000000000E+00 0.  1.
         -3    1    6    6    0  502  0.27340651923E+02 -0.61596160254E+02 -0.60290836954E+02  0.90424461437E+02  0.00000000000E+00 0.  1.
<mgrwt>
<rscale>  0 0.11850110E+04</rscale>
<asrwt>0</asrwt>
<pdfrwt beam="1">  1        2 0.37018661E-01 0.11850110E+04</pdfrwt>
<pdfrwt beam="2">  1       -2 0.22445916E+00 0.11850110E+04</pdfrwt>
<totfact> 0.12864101E+01</totfact>
</mgrwt>
</event>
<event>
12    1  0.1467288E-007  0.1991368E+04  0.7818608E-02  0.8610667E-01
          1   -1    0    0  501    0  0.00000000000E+00  0.00000000000E+00  0.94401043651E+03  0.94401043651E+03  0.00000000000E+00 0. -1.
         -1   -1    0    0    0  501 -0.00000000000E+00 -0.00000000000E+00 -0.10501857213E+04  0.10501857213E+04  0.00000000000E+00 0.  1.
         23    2    1    2    0    0 -0.14612994794E+02  0.69776598428E+03  0.32339086888E+03  0.77352191209E+03  0.81630790631E+02 0.  0.
        254    2    1    2    0    0  0.14612994794E+02 -0.69776598428E+03 -0.42956615369E+03  0.12206742457E+04  0.90466989858E+03 0.  0.
        -24    2    4    4    0    0  0.15244627640E+03 -0.31641258429E+03 -0.65673141816E+03  0.74911995311E+03  0.80794541050E+02 0.  0.
         24    2    4    4    0    0 -0.13783328161E+03 -0.38135339999E+03  0.22716526447E+03  0.47155429263E+03  0.79567357074E+02 0.  0.
         13    1    3    3    0    0  0.44258725736E+01  0.52007580080E+03  0.27527202835E+03  0.58844975700E+03  0.00000000000E+00 0. -1.
        -13    1    3    3    0    0 -0.19038867367E+02  0.17769018348E+03  0.48118840531E+02  0.18507215509E+03  0.00000000000E+00 0.  1.
          4    1    6    6  502    0 -0.10718095228E+03 -0.31377930770E+03  0.21791846996E+03  0.39677911994E+03  0.00000000000E+00 0. -1.
          3    1    5    5  503    0  0.89842784390E+02 -0.23142898431E+03 -0.52146401211E+03  0.57754291322E+03  0.00000000000E+00 0. -1.
         -4    1    5    5    0  503  0.62603492014E+02 -0.84983599982E+02 -0.13526740605E+03  0.17157703989E+03  0.00000000000E+00 0.  1.
         -3    1    6    6    0  502 -0.30652329334E+02 -0.67574092285E+02  0.92467945195E+01  0.74775172689E+02  0.00000000000E+00 0.  1.
<mgrwt>
<rscale>  0 0.19913677E+04</rscale>
<asrwt>0</asrwt>
<pdfrwt beam="1">  1        1 0.14523237E+00 0.19913677E+04</pdfrwt>
<pdfrwt beam="2">  1       -1 0.16156703E+00 0.19913677E+04</pdfrwt>
<totfact> 0.44244429E+00</totfact>
</mgrwt>
</event>
<event>
12    1  0.1467288E-007  0.1560457E+04  0.7818608E-02  0.8845216E-01
          4   -1    0    0  501    0  0.00000000000E+00  0.00000000000E+00  0.10440569237E+04  0.10440569237E+04  0.00000000000E+00 0. -1.
         -4   -1    0    0    0  501 -0.00000000000E+00 -0.00000000000E+00 -0.58306847757E+03  0.58306847757E+03  0.00000000000E+00 0.  1.
         23    2    1    2    0    0  0.14600645029E+03 -0.35978199280E+03  0.52725530404E+03  0.66066812000E+03  0.87881984911E+02 0.  0.
        254    2    1    2    0    0 -0.14600645029E+03  0.35978199280E+03 -0.66266857905E+02  0.96645728127E+03  0.88254598418E+03 0.  0.
        -24    2    4    4    0    0 -0.32885588513E+02  0.99713504481E+02  0.39647533068E+03  0.41782671057E+03  0.79763571338E+02 0.  0.
         24    2    4    4    0    0 -0.11312086178E+03  0.26006848832E+03 -0.46274218859E+03  0.54863057070E+03  0.80207368871E+02 0.  0.
         13    1    3    3    0    0  0.15093815348E+03 -0.36235486251E+03  0.51954860847E+03  0.65116367307E+03  0.00000000000E+00 0. -1.
        -13    1    3    3    0    0 -0.49317031913E+01  0.25728697026E+01  0.77066955700E+01  0.95044469320E+01  0.00000000000E+00 0.  1.
          2    1    6    6  502    0 -0.75127245117E+02  0.10105280625E+03 -0.25385860004E+03  0.28337247824E+03  0.00000000000E+00 0. -1.
          3    1    5    5  503    0 -0.28304168799E+02  0.73366718656E+02  0.37602961661E+03  0.38416412371E+03  0.00000000000E+00 0. -1.
         -4    1    5    5    0  503 -0.45814197140E+01  0.26346785825E+02  0.20445714079E+02  0.33662586859E+02  0.00000000000E+00 0.  1.
         -1    1    6    6    0  502 -0.37993616660E+02  0.15901568207E+03 -0.20888358855E+03  0.26525809247E+03  0.00000000000E+00 0.  1.
<mgrwt>
<rscale>  0 0.15604572E+04</rscale>
<asrwt>0</asrwt>
<pdfrwt beam="1">  1        4 0.16062414E+00 0.15604572E+04</pdfrwt>
<pdfrwt beam="2">  1       -4 0.89702843E-01 0.15604572E+04</pdfrwt>
<totfact> 0.50780411E-01</totfact>
</mgrwt>
</event>
<event>
12    1  0.1467288E-007  0.1060089E+04  0.7818608E-02  0.9244989E-01
         -2   -1    0    0    0  501 -0.00000000000E+00  0.00000000000E+00  0.19351258360E+03  0.19351258360E+03  0.00000000000E+00 0.  1.
          2   -1    0    0  501    0  0.00000000000E+00 -0.00000000000E+00 -0.14518286497E+04  0.14518286497E+04  0.00000000000E+00 0. -1.
         23    2    1    2    0    0  0.38142128398E+02 -0.83079010925E+02 -0.26872312344E+03  0.29842280098E+03  0.92125496250E+02 0.  0.
        254    2    1    2    0    0 -0.38142128398E+02  0.83079010925E+02 -0.98959294265E+03  0.13469184323E+04  0.90914142306E+03 0.  0.
        -24    2    4    4    0    0  0.13657378549E+03 -0.98972728772E+02  0.10977308732E+03  0.21607663813E+03  0.78682799395E+02 0.  0.
         24    2    4    4    0    0 -0.17471591389E+03  0.18205173970E+03 -0.10993660300E+04  0.11308417942E+04  0.80802284090E+02 0.  0.
         13    1    3    3    0    0  0.33530264189E+02 -0.76354006653E+02 -0.27548459168E+03  0.28782976427E+03  0.00000000000E+00 0. -1.
        -13    1    3    3    0    0  0.46118642086E+01 -0.67250042718E+01  0.67614682402E+01  0.10593036708E+02  0.00000000000E+00 0.  1.
          4    1    6    6  502    0 -0.15718386699E+03  0.16515467333E+03 -0.10623127388E+04  0.10865041137E+04  0.00000000000E+00 0. -1.
          1    1    5    5  503    0  0.32039365510E+02 -0.13203103000E+02  0.64962320292E+02  0.73627073342E+02  0.00000000000E+00 0. -1.
         -4    1    5    5    0  503  0.10453441998E+03 -0.85769625772E+02  0.44810767027E+02  0.14244956479E+03  0.00000000000E+00 0.  1.
         -3    1    6    6    0  502 -0.17532046896E+02  0.16897066370E+02 -0.37053291211E+02  0.44337680474E+02  0.00000000000E+00 0.  1.
<mgrwt>
<rscale>  0 0.10600889E+04</rscale>
<asrwt>0</asrwt>
<pdfrwt beam="1">  1        2 0.22335826E+00 0.10600889E+04</pdfrwt>
<pdfrwt beam="2">  1       -2 0.29771166E-01 0.10600889E+04</pdfrwt>
<totfact> 0.13979669E+02</totfact>
</mgrwt>
</event>
<event>
12    1  0.1467288E-007  0.3726911E+04  0.7818608E-02  0.8062024E-01
          2   -1    0    0  501    0  0.00000000000E+00  0.00000000000E+00  0.32857289746E+04  0.32857289746E+04  0.00000000000E+00 0. -1.
         -2   -1    0    0    0  501 -0.00000000000E+00 -0.00000000000E+00 -0.10568329418E+04  0.10568329418E+04  0.00000000000E+00 0.  1.
         23    2    1    2    0    0  0.54170602360E+03  0.95961724172E+03 -0.53841602906E+03  0.12297951596E+04  0.90518769817E+02 0.  0.
        254    2    1    2    0    0 -0.54170602360E+03 -0.95961724172E+03  0.27673120619E+04  0.31127667568E+04  0.90387508424E+03 0.  0.
        -24    2    4    4    0    0 -0.28651926515E+03 -0.16492447217E+03  0.16325360797E+03  0.37706857410E+03  0.78965804230E+02 0.  0.
         24    2    4    4    0    0 -0.25518675845E+03 -0.79469276955E+03  0.26040584539E+04  0.27356981827E+04  0.79165875704E+02 0.  0.
         13    1    3    3    0    0  0.60075590958E+02  0.63120641509E+02 -0.29802491683E+02  0.92094953846E+02  0.00000000000E+00 0. -1.
        -13    1    3    3    0    0  0.48163043265E+03  0.89649660021E+03 -0.50861353738E+03  0.11377002058E+04  0.00000000000E+00 0.  1.
          4    1    6    6  502    0 -0.11795339288E+03 -0.47803693688E+03  0.14675011838E+04  0.15478992346E+04  0.00000000000E+00 0. -1.
          3    1    5    5  503    0 -0.14206043837E+03 -0.62625435195E+02  0.11616296537E+03  0.19389932390E+03  0.00000000000E+00 0. -1.
         -4    1    5    5    0  503 -0.14445882678E+03 -0.10229903698E+03  0.47090642595E+02  0.18316925020E+03  0.00000000000E+00 0.  1.
         -3    1    6    6    0  502 -0.13723336558E+03 -0.31665583267E+03  0.11365572701E+04  0.11877989481E+04  0.00000000000E+00 0.  1.
<mgrwt>
<rscale>  0 0.37269111E+04</rscale>
<asrwt>0</asrwt>
<pdfrwt beam="1">  1        2 0.50549676E+00 0.37269111E+04</pdfrwt>
<pdfrwt beam="2">  1       -2 0.16258969E+00 0.37269111E+04</pdfrwt>
<totfact> 0.22112082E-01</totfact>
</mgrwt>
</event>
<event>
12    1  0.1467288E-007  0.2186095E+04  0.7818608E-02  0.8524238E-01
         -1   -1    0    0    0  501 -0.00000000000E+00  0.00000000000E+00  0.46292639115E+03  0.46292639115E+03  0.00000000000E+00 0.  1.
          1   -1    0    0  501    0  0.00000000000E+00 -0.00000000000E+00 -0.25808707739E+04  0.25808707739E+04  0.00000000000E+00 0. -1.
         23    2    1    2    0    0 -0.73653339483E+03 -0.16529667544E+03 -0.18386314176E+03  0.78274745275E+03  0.95307330667E+02 0.  0.
        254    2    1    2    0    0  0.73653339483E+03  0.16529667544E+03 -0.19340812409E+04  0.22610497122E+04  0.89547256912E+03 0.  0.
        -24    2    4    4    0    0  0.20636301453E+03  0.26381776064E+03 -0.15664997729E+04  0.16038131989E+04  0.78164786759E+02 0.  0.
         24    2    4    4    0    0  0.53017038030E+03 -0.98521085202E+02 -0.36758146800E+03  0.65723651330E+03  0.77824561763E+02 0.  0.
         13    1    3    3    0    0 -0.46992134247E+03 -0.10187652560E+03 -0.69679227729E+02  0.48586015411E+03  0.00000000000E+00 0.  1.
        -13    1    3    3    0    0 -0.26661205236E+03 -0.63420149839E+02 -0.11418391403E+03  0.29688729864E+03  0.00000000000E+00 0. -1.
          2    1    6    6  502    0  0.12770858805E+02  0.85234568647E+01 -0.39918860693E+01  0.15864403737E+02  0.00000000000E+00 0. -1.
          3    1    5    5  503    0  0.12888354689E+03  0.11132292538E+03 -0.68340095646E+03  0.70430151900E+03  0.00000000000E+00 0. -1.
         -4    1    5    5    0  503  0.77479467635E+02  0.15249483527E+03 -0.88309881649E+03  0.89951167995E+03  0.00000000000E+00 0.  1.
         -1    1    6    6    0  502  0.51739952150E+03 -0.10704454207E+03 -0.36358958193E+03  0.64137210956E+03  0.00000000000E+00 0.  1.
<mgrwt>
<rscale>  0 0.21860953E+04</rscale>
<asrwt>0</asrwt>
<pdfrwt beam="1">  1        1 0.39705703E+00 0.21860953E+04</pdfrwt>
<pdfrwt beam="2">  1       -1 0.71219446E-01 0.21860953E+04</pdfrwt>
<totfact> 0.21630386E+00</totfact>
</mgrwt>
</event>
<event>
12    1  0.1467288E-007  0.2576474E+04  0.7818608E-02  0.8376237E-01
         -2   -1    0    0    0  501 -0.00000000000E+00  0.00000000000E+00  0.69967982200E+03  0.69967982200E+03  0.00000000000E+00 0.  1.
          2   -1    0    0  501    0  0.00000000000E+00 -0.00000000000E+00 -0.23718770779E+04  0.23718770779E+04  0.00000000000E+00 0. -1.
         23    2    1    2    0    0 -0.65400563760E+03 -0.28970330683E+03 -0.17718414090E+04  0.19137100535E+04  0.10589055665E+03 0.  0.
        254    2    1    2    0    0  0.65400563760E+03  0.28970330683E+03  0.99644153159E+02  0.11578468464E+04  0.90500220025E+03 0.  0.
        -24    2    4    4    0    0  0.34086210307E+03  0.21431773334E+03 -0.38987367207E+03  0.56611790301E+03  0.79805612660E+02 0.  0.
         24    2    4    4    0    0  0.31314353453E+03  0.75385573496E+02  0.48951782523E+03  0.59172894339E+03  0.82301781966E+02 0.  0.
         11    1    3    3    0    0 -0.60204409458E+03 -0.23150402613E+03 -0.15733630268E+04  0.17004477116E+04  0.00000000000E+00 0. -1.
        -11    1    3    3    0    0 -0.51961543019E+02 -0.58199280706E+02 -0.19847838227E+03  0.21326234187E+03  0.00000000000E+00 0.  1.
          4    1    6    6  502    0  0.16999826731E+03  0.75169564889E+02  0.23393432887E+03  0.29878946534E+03  0.00000000000E+00 0. -1.
          3    1    5    5  503    0  0.73323551786E+02  0.19473219511E+02 -0.10431520712E+03  0.12898531684E+03  0.00000000000E+00 0. -1.
         -4    1    5    5    0  503  0.26753855128E+03  0.19484451383E+03 -0.28555846495E+03  0.43713258617E+03  0.00000000000E+00 0.  1.
         -3    1    6    6    0  502  0.14314526722E+03  0.21600860686E+00  0.25558349636E+03  0.29293947804E+03  0.00000000000E+00 0.  1.
<mgrwt>
<rscale>  0 0.25764740E+04</rscale>
<asrwt>0</asrwt>
<pdfrwt beam="1">  1        2 0.36490416E+00 0.25764740E+04</pdfrwt>
<pdfrwt beam="2">  1       -2 0.10764305E+00 0.25764740E+04</pdfrwt>
<totfact> 0.25311554E+00</totfact>
</mgrwt>
</event>
<event>
12    1  0.1467288E-007  0.1373357E+04  0.7818608E-02  0.8973333E-01
          1   -1    0    0  501    0  0.00000000000E+00  0.00000000000E+00  0.84119171853E+03  0.84119171853E+03  0.00000000000E+00 0. -1.
         -1   -1    0    0    0  501 -0.00000000000E+00 -0.00000000000E+00 -0.56054722412E+03  0.56054722412E+03  0.00000000000E+00 0.  1.
         23    2    1    2    0    0  0.22122830158E+03 -0.62554715591E+02 -0.22635788881E+03  0.33559671783E+03  0.92369959023E+02 0.  0.
        254    2    1    2    0    0 -0.22122830158E+03  0.62554715591E+02  0.50700238322E+03  0.10661422248E+04  0.90925946411E+03 0.  0.
        -24    2    4    4    0    0 -0.13211848426E+03  0.35704554479E+03 -0.81465840777E+02  0.39734953532E+03  0.79455365256E+02 0.  0.
         24    2    4    4    0    0 -0.89109817323E+02 -0.29449082920E+03  0.58846822400E+03  0.66879268949E+03  0.79519826664E+02 0.  0.
         13    1    3    3    0    0  0.24665571878E+02 -0.11901348250E+02 -0.82168377619E+02  0.86612209340E+02  0.00000000000E+00 0.  1.
        -13    1    3    3    0    0  0.19656272971E+03 -0.50653367341E+02 -0.14418951119E+03  0.24898450849E+03  0.00000000000E+00 0. -1.
          4    1    6    6  502    0 -0.58354131658E+02 -0.27384693481E+03  0.50384457189E+03  0.57641712415E+03  0.00000000000E+00 0. -1.
          3    1    5    5  503    0 -0.11166889662E+03  0.34511318990E+03 -0.87038039010E+02  0.37302637514E+03  0.00000000000E+00 0. -1.
         -4    1    5    5    0  503 -0.20449587644E+02  0.11932354890E+02  0.55721982335E+01  0.24323160181E+02  0.00000000000E+00 0.  1.
         -3    1    6    6    0  502 -0.30755685665E+02 -0.20643894391E+02  0.84623652108E+02  0.92375565343E+02  0.00000000000E+00 0.  1.
<mgrwt>
<rscale>  0 0.13733575E+04</rscale>
<asrwt>0</asrwt>
<pdfrwt beam="1">  1        1 0.12941411E+00 0.13733575E+04</pdfrwt>
<pdfrwt beam="2">  1       -1 0.86238034E-01 0.13733575E+04</pdfrwt>
<totfact> 0.26421466E+01</totfact>
</mgrwt>
</event>
<event>
12    1  0.1467288E-007  0.1607104E+04  0.7818608E-02  0.8816196E-01
          2   -1    0    0  501    0  0.00000000000E+00  0.00000000000E+00  0.10311742137E+04  0.10311742137E+04  0.00000000000E+00 0. -1.
         -2   -1    0    0    0  501 -0.00000000000E+00 -0.00000000000E+00 -0.62617516749E+03  0.62617516749E+03  0.00000000000E+00 0.  1.
         23    2    1    2    0    0  0.33172676368E+03 -0.42407275493E+03  0.23630868443E+03  0.59522275350E+03  0.92563409271E+02 0.  0.
        254    2    1    2    0    0 -0.33172676368E+03  0.42407275493E+03  0.16869036182E+03  0.10621266277E+04  0.89987565139E+03 0.  0.
        -24    2    4    4    0    0 -0.21839437297E+03  0.63932680587E+03 -0.10426493964E+03  0.68826187110E+03  0.79989741400E+02 0.  0.
         24    2    4    4    0    0 -0.11333239070E+03 -0.21525405094E+03  0.27295530146E+03  0.37386475663E+03  0.78049487019E+02 0.  0.
         11    1    3    3    0    0  0.76310275939E+02 -0.16153495411E+03  0.57907952058E+02  0.18780343587E+03  0.00000000000E+00 0.  1.
        -11    1    3    3    0    0  0.25541648774E+03 -0.26253780081E+03  0.17840073237E+03  0.40741931763E+03  0.00000000000E+00 0. -1.
          2    1    6    6  502    0 -0.11704939899E+03 -0.20282003887E+03  0.27447881189E+03  0.36079793257E+03  0.00000000000E+00 0. -1.
          1    1    5    5  503    0 -0.20915789290E+03  0.53918026985E+03 -0.72847030009E+02  0.58289714130E+03  0.00000000000E+00 0. -1.
         -2    1    5    5    0  503 -0.92364800777E+01  0.10014653602E+03 -0.31417909634E+02  0.10536472981E+03  0.00000000000E+00 0.  1.
         -1    1    6    6    0  502  0.37170082923E+01 -0.12434012073E+02 -0.15235104295E+01  0.13066824056E+02  0.00000000000E+00 0.  1.
<mgrwt>
<rscale>  0 0.16071038E+04</rscale>
<asrwt>0</asrwt>
<pdfrwt beam="1">  1        2 0.15864219E+00 0.16071038E+04</pdfrwt>
<pdfrwt beam="2">  1       -2 0.96334641E-01 0.16071038E+04</pdfrwt>
<totfact> 0.20803625E+01</totfact>
</mgrwt>
</event>
<event>
12    1  0.1467288E-007  0.1348780E+04  0.7818608E-02  0.8991752E-01
         -2   -1    0    0    0  501 -0.00000000000E+00  0.00000000000E+00  0.10809475379E+04  0.10809475379E+04  0.00000000000E+00 0.  1.
          2   -1    0    0  501    0  0.00000000000E+00 -0.00000000000E+00 -0.42074389893E+03  0.42074389893E+03  0.00000000000E+00 0. -1.
         23    2    1    2    0    0  0.30009422314E+03 -0.41338416957E+02 -0.52719103694E+02  0.31903278645E+03  0.85071778286E+02 0.  0.
        254    2    1    2    0    0 -0.30009422314E+03  0.41338416957E+02  0.71292274267E+03  0.11826586504E+04  0.89367624945E+03 0.  0.
        -24    2    4    4    0    0 -0.17000082807E+03  0.79060743327E+02 -0.18244172916E+03  0.27360583915E+03  0.80151656257E+02 0.  0.
         24    2    4    4    0    0 -0.13009339507E+03 -0.37722326371E+02  0.89536447183E+03  0.90905281123E+03  0.79700758109E+02 0.  0.
         11    1    3    3    0    0  0.20272286640E+02  0.18740661068E+02  0.18834966579E+01  0.27671746287E+02  0.00000000000E+00 0.  1.
        -11    1    3    3    0    0  0.27982193650E+03 -0.60079078025E+02 -0.54602600352E+02  0.29136104017E+03  0.00000000000E+00 0. -1.
          4    1    6    6  502    0 -0.11389355173E+03 -0.14555760212E+02  0.82906651097E+03  0.83697962394E+03  0.00000000000E+00 0. -1.
          1    1    5    5  503    0 -0.16583992395E+03  0.55350981760E+02 -0.17727797094E+03  0.24898612519E+03  0.00000000000E+00 0. -1.
         -2    1    5    5    0  503 -0.41609041252E+01  0.23709761568E+02 -0.51637582161E+01  0.24619713963E+02  0.00000000000E+00 0.  1.
         -3    1    6    6    0  502 -0.16199843338E+02 -0.23166566159E+02  0.66297960857E+02  0.72073187286E+02  0.00000000000E+00 0.  1.
<mgrwt>
<rscale>  0 0.13487803E+04</rscale>
<asrwt>0</asrwt>
<pdfrwt beam="1">  1        2 0.64729831E-01 0.13487803E+04</pdfrwt>
<pdfrwt beam="2">  1       -2 0.16629962E+00 0.13487803E+04</pdfrwt>
<totfact> 0.16599671E+01</totfact>
</mgrwt>
</event>
<event>
12    1  0.1467288E-007  0.3740792E+04  0.7818608E-02  0.8058981E-01
         -2   -1    0    0    0  501 -0.00000000000E+00  0.00000000000E+00  0.94867775491E+03  0.94867775491E+03  0.00000000000E+00 0.  1.
          2   -1    0    0  501    0  0.00000000000E+00 -0.00000000000E+00 -0.36876389988E+04  0.36876389988E+04  0.00000000000E+00 0. -1.
         23    2    1    2    0    0 -0.56459879099E+03 -0.14911973544E+04 -0.22139392623E+04  0.27298812792E+04  0.91013169141E+02 0.  0.
        254    2    1    2    0    0  0.56459879099E+03  0.14911973544E+04 -0.52502198158E+03  0.19064354745E+04  0.90355231879E+03 0.  0.
        -24    2    4    4    0    0  0.19147496981E+03  0.92498498861E+03  0.13394390277E+03  0.95738348666E+03  0.79889162128E+02 0.  0.
         24    2    4    4    0    0  0.37312382118E+03  0.56621236575E+03 -0.65896588435E+03  0.94905198782E+03  0.81521836277E+02 0.  0.
         13    1    3    3    0    0 -0.50908684766E+03 -0.13985516186E+04 -0.20845263027E+04  0.25613211347E+04  0.00000000000E+00 0. -1.
        -13    1    3    3    0    0 -0.55511943332E+02 -0.92645735805E+02 -0.12941295960E+03  0.16856014454E+03  0.00000000000E+00 0.  1.
          2    1    6    6  502    0  0.15150694216E+03  0.20138510326E+03 -0.19542220444E+03  0.31890461164E+03  0.00000000000E+00 0. -1.
          1    1    5    5  503    0  0.11940037369E+02  0.14388741279E+02  0.94342232206E+01  0.20942897024E+02  0.00000000000E+00 0. -1.
         -2    1    5    5    0  503  0.17953493244E+03  0.91059624733E+03  0.12450967955E+03  0.93644058964E+03  0.00000000000E+00 0.  1.
         -1    1    6    6    0  502  0.22161687902E+03  0.36482726250E+03 -0.46354367991E+03  0.63014737618E+03  0.00000000000E+00 0.  1.
<mgrwt>
<rscale>  0 0.37407919E+04</rscale>
<asrwt>0</asrwt>
<pdfrwt beam="1">  1        2 0.56732908E+00 0.37407919E+04</pdfrwt>
<pdfrwt beam="2">  1       -2 0.14595042E+00 0.37407919E+04</pdfrwt>
<totfact> 0.15434455E-01</totfact>
</mgrwt>
</event>
<event>
12    1  0.1467288E-007  0.1720160E+04  0.7818608E-02  0.8749949E-01
          4   -1    0    0  501    0  0.00000000000E+00  0.00000000000E+00  0.31947565444E+03  0.31947565444E+03  0.00000000000E+00 0. -1.
         -4   -1    0    0    0  501 -0.00000000000E+00 -0.00000000000E+00 -0.23154737964E+04  0.23154737964E+04  0.00000000000E+00 0.  1.
         23    2    1    2    0    0  0.42533976424E+01  0.17950299154E+03  0.18060647612E+03  0.27045080760E+03  0.91024857872E+02 0.  0.
        254    2    1    2    0    0 -0.42533976424E+01 -0.17950299154E+03 -0.21766046181E+04  0.23644986432E+04  0.90609423079E+03 0.  0.
        -24    2    4    4    0    0 -0.21722773325E+03 -0.24765908147E+03 -0.24506792778E+03  0.41843368619E+03  0.80657000845E+02 0.  0.
         24    2    4    4    0    0  0.21297433561E+03  0.68156089930E+02 -0.19315366903E+04  0.19460649570E+04  0.79570791520E+02 0.  0.
         13    1    3    3    0    0  0.28463829080E+02  0.22619767279E+02  0.10634685059E+02  0.37880601421E+02  0.00000000000E+00 0.  1.
        -13    1    3    3    0    0 -0.24210431438E+02  0.15688322426E+03  0.16997179106E+03  0.23257020618E+03  0.00000000000E+00 0. -1.
          4    1    6    6  502    0  0.17731151157E+03  0.21519326093E+02 -0.14663417719E+04  0.14771799639E+04  0.00000000000E+00 0. -1.
          3    1    5    5  503    0 -0.20776439426E+03 -0.25243408172E+03 -0.22891290149E+03  0.39911167059E+03  0.00000000000E+00 0. -1.
         -4    1    5    5    0  503 -0.94633389863E+01  0.47750002516E+01 -0.16155026289E+02  0.19322015593E+02  0.00000000000E+00 0.  1.
         -3    1    6    6    0  502  0.35662824039E+02  0.46636763837E+02 -0.46519491837E+03  0.46888499318E+03  0.00000000000E+00 0.  1.
<mgrwt>
<rscale>  0 0.17201599E+04</rscale>
<asrwt>0</asrwt>
<pdfrwt beam="1">  1        4 0.49150101E-01 0.17201599E+04</pdfrwt>
<pdfrwt beam="2">  1       -4 0.35622674E+00 0.17201599E+04</pdfrwt>
<totfact> 0.10336829E-01</totfact>
</mgrwt>
</event>
<event>
12    1  0.1467288E-007  0.1767743E+04  0.7818608E-02  0.8723644E-01
         -1   -1    0    0    0  501 -0.00000000000E+00  0.00000000000E+00  0.70267300180E+03  0.70267300180E+03  0.00000000000E+00 0.  1.
          1   -1    0    0  501    0  0.00000000000E+00 -0.00000000000E+00 -0.11117962258E+04  0.11117962258E+04  0.00000000000E+00 0. -1.
         23    2    1    2    0    0  0.55429415738E+03  0.26622933576E+03  0.67385196605E+02  0.62527273986E+03  0.91132663561E+02 0.  0.
        254    2    1    2    0    0 -0.55429415738E+03 -0.26622933576E+03 -0.47650842061E+03  0.11891964878E+04  0.89944868639E+03 0.  0.
        -24    2    4    4    0    0 -0.47250178402E+03  0.35092802063E+02  0.13417824552E+03  0.49880643674E+03  0.79464577668E+02 0.  0.
         24    2    4    4    0    0 -0.81792373358E+02 -0.30132213782E+03 -0.61068666614E+03  0.69039005102E+03  0.78836509702E+02 0.  0.
         11    1    3    3    0    0  0.34117681204E+03  0.14372905162E+03 -0.64778750070E+00  0.37021625705E+03  0.00000000000E+00 0. -1.
        -11    1    3    3    0    0  0.21311734534E+03  0.12250028414E+03  0.68032984106E+02  0.25505648281E+03  0.00000000000E+00 0.  1.
          2    1    6    6  502    0 -0.41467249416E+02 -0.26230457938E+03 -0.49147550656E+03  0.55863351017E+03  0.00000000000E+00 0. -1.
          1    1    5    5  503    0 -0.35458252564E+03  0.27534661669E+01  0.12579657093E+03  0.37624609809E+03  0.00000000000E+00 0. -1.
         -2    1    5    5    0  503 -0.11791925837E+03  0.32339335896E+02  0.83816745955E+01  0.12256033865E+03  0.00000000000E+00 0.  1.
         -1    1    6    6    0  502 -0.40325123943E+02 -0.39017558450E+02 -0.11921115958E+03  0.13175654085E+03  0.00000000000E+00 0.  1.
<mgrwt>
<rscale>  0 0.17677434E+04</rscale>
<asrwt>0</asrwt>
<pdfrwt beam="1">  1        1 0.17104557E+00 0.17677434E+04</pdfrwt>
<pdfrwt beam="2">  1       -1 0.10810354E+00 0.17677434E+04</pdfrwt>
<totfact> 0.93477577E+00</totfact>
</mgrwt>
</event>
<event>
12    1  0.1467288E-007  0.1911310E+04  0.7818608E-02  0.8649247E-01
          2   -1    0    0  501    0  0.00000000000E+00  0.00000000000E+00  0.10757347964E+04  0.10757347964E+04  0.00000000000E+00 0. -1.
         -2   -1    0    0    0  501 -0.00000000000E+00 -0.00000000000E+00 -0.84897957338E+03  0.84897957338E+03  0.00000000000E+00 0.  1.
         23    2    1    2    0    0 -0.51387651701E+03 -0.42410895779E+03 -0.24254603861E+03  0.71518606523E+03  0.93407945306E+02 0.  0.
        254    2    1    2    0    0  0.51387651701E+03  0.42410895779E+03  0.46930126158E+03  0.12095283045E+04  0.89374356641E+03 0.  0.
        -24    2    4    4    0    0  0.55324745729E+03 -0.61021399846E+02  0.54646914545E+02  0.56532773027E+03  0.82479070727E+02 0.  0.
         24    2    4    4    0    0 -0.39370940281E+02  0.48513035763E+03  0.41465434704E+03  0.64420057425E+03  0.78451370322E+02 0.  0.
         13    1    3    3    0    0 -0.30639912206E+03 -0.25058088438E+03 -0.94906093412E+02  0.40703607725E+03  0.00000000000E+00 0. -1.
        -13    1    3    3    0    0 -0.20747739495E+03 -0.17352807341E+03 -0.14763994519E+03  0.30814998798E+03  0.00000000000E+00 0.  1.
          4    1    6    6  502    0 -0.20542421078E+02  0.97101519905E+02  0.12503586402E+03  0.15963916663E+03  0.00000000000E+00 0. -1.
          1    1    5    5  503    0  0.18334248506E+03 -0.59166343887E+02  0.24208203199E+02  0.19416786598E+03  0.00000000000E+00 0. -1.
         -2    1    5    5    0  503  0.36990497222E+03 -0.18550559585E+01  0.30438711346E+02  0.37115986429E+03  0.00000000000E+00 0.  1.
         -3    1    6    6    0  502 -0.18828519203E+02  0.38802883773E+03  0.28961848302E+03  0.48456140762E+03  0.00000000000E+00 0.  1.
<mgrwt>
<rscale>  0 0.19113104E+04</rscale>
<asrwt>0</asrwt>
<pdfrwt beam="1">  1        2 0.16549766E+00 0.19113104E+04</pdfrwt>
<pdfrwt beam="2">  1       -2 0.13061224E+00 0.19113104E+04</pdfrwt>
<totfact> 0.90579850E+00</totfact>
</mgrwt>
</event>
<event>
12    1  0.1467288E-007  0.2565922E+04  0.7818608E-02  0.8379870E-01
          1   -1    0    0  501    0  0.00000000000E+00  0.00000000000E+00  0.33291647109E+04  0.33291647109E+04  0.00000000000E+00 0. -1.
         -1   -1    0    0    0  501 -0.00000000000E+00 -0.00000000000E+00 -0.49441497952E+03  0.49441497952E+03  0.00000000000E+00 0.  1.
         23    2    1    2    0    0 -0.28040549512E+03 -0.93265778419E+03  0.47449790375E+03  0.10872791678E+04  0.92465907272E+02 0.  0.
        254    2    1    2    0    0  0.28040549512E+03  0.93265778419E+03  0.23602518276E+04  0.27363005226E+04  0.98390755460E+03 0.  0.
        -24    2    4    4    0    0  0.29026308571E+03  0.71665968406E+03  0.65794301858E+03  0.10184100391E+04  0.80101375125E+02 0.  0.
         24    2    4    4    0    0 -0.98575905877E+01  0.21599810013E+03  0.17023088090E+04  0.17178904835E+04  0.80870765242E+02 0.  0.
         13    1    3    3    0    0 -0.14275176402E+03 -0.34775438997E+03  0.15367137458E+03  0.40611091249E+03  0.00000000000E+00 0. -1.
        -13    1    3    3    0    0 -0.13765373110E+03 -0.58490339423E+03  0.32082652916E+03  0.68116825534E+03  0.00000000000E+00 0.  1.
          2    1    6    6  502    0 -0.69696320076E+00  0.20513004757E+03  0.16705356226E+04  0.16830829120E+04  0.00000000000E+00 0. -1.
          1    1    5    5  503    0  0.28820774697E+03  0.71652801776E+03  0.64770582961E+03  0.10079677313E+04  0.00000000000E+00 0. -1.
         -2    1    5    5    0  503  0.20553387378E+01  0.13166629950E+00  0.10237188971E+02  0.10442307761E+02  0.00000000000E+00 0.  1.
         -1    1    6    6    0  502 -0.91606273869E+01  0.10868052568E+02  0.31773186421E+02  0.34807571534E+02  0.00000000000E+00 0.  1.
<mgrwt>
<rscale>  0 0.25659220E+04</rscale>
<asrwt>0</asrwt>
<pdfrwt beam="1">  1        1 0.51217917E+00 0.25659220E+04</pdfrwt>
<pdfrwt beam="2">  1       -1 0.76063845E-01 0.25659220E+04</pdfrwt>
<totfact> 0.52033028E-01</totfact>
</mgrwt>
</event>
<event>
12    1  0.1467288E-007  0.2016127E+04  0.7818608E-02  0.8599118E-01
          1   -1    0    0  501    0  0.00000000000E+00  0.00000000000E+00  0.41096102842E+04  0.41096102842E+04  0.00000000000E+00 0. -1.
         -1   -1    0    0    0  501 -0.00000000000E+00 -0.00000000000E+00 -0.24727214726E+03  0.24727214726E+03  0.00000000000E+00 0.  1.
         23    2    1    2    0    0 -0.80387762795E+02 -0.33378366504E+03 -0.29945224706E+02  0.35666179757E+03  0.91854199212E+02 0.  0.
        254    2    1    2    0    0  0.80387762795E+02  0.33378366504E+03  0.38922833616E+04  0.40002206339E+04  0.85675062007E+03 0.  0.
        -24    2    4    4    0    0  0.38125073347E+03 -0.87817122668E+02  0.17484199398E+04  0.17934056548E+04  0.79168099500E+02 0.  0.
         24    2    4    4    0    0 -0.30086297067E+03  0.42160078770E+03  0.21438634218E+04  0.22068149790E+04  0.74941504389E+02 0.  0.
         11    1    3    3    0    0 -0.96165205050E+02 -0.31768975902E+03 -0.34348950012E+02  0.33369803717E+03  0.00000000000E+00 0.  1.
        -11    1    3    3    0    0  0.15777442255E+02 -0.16093906018E+02  0.44037253059E+01  0.22963760398E+02  0.00000000000E+00 0. -1.
          4    1    6    6  502    0 -0.13907797053E+03  0.13734462600E+03  0.74369767051E+03  0.76895542998E+03  0.00000000000E+00 0. -1.
          3    1    5    5  503    0  0.11111861097E+03  0.10638596420E+02  0.48060106446E+03  0.49339427297E+03  0.00000000000E+00 0. -1.
         -4    1    5    5    0  503  0.27013212250E+03 -0.98455719088E+02  0.12678188754E+04  0.13000113819E+04  0.00000000000E+00 0.  1.
         -3    1    6    6    0  502 -0.16178500015E+03  0.28425616170E+03  0.14001657513E+04  0.14378595491E+04  0.00000000000E+00 0.  1.
<mgrwt>
<rscale>  0 0.20161271E+04</rscale>
<asrwt>0</asrwt>
<pdfrwt beam="1">  1        1 0.63224769E+00 0.20161271E+04</pdfrwt>
<pdfrwt beam="2">  1       -1 0.38041872E-01 0.20161271E+04</pdfrwt>
<totfact> 0.47784498E-01</totfact>
</mgrwt>
</event>
<event>
12    1  0.1467288E-007  0.1393931E+04  0.7818608E-02  0.8958223E-01
         -1   -1    0    0    0  501 -0.00000000000E+00  0.00000000000E+00  0.48621500781E+03  0.48621500781E+03  0.00000000000E+00 0.  1.
          1   -1    0    0  501    0  0.00000000000E+00 -0.00000000000E+00 -0.99906647818E+03  0.99906647818E+03  0.00000000000E+00 0. -1.
         23    2    1    2    0    0  0.20825309178E+03 -0.59818709972E+02 -0.49881047100E+03  0.55169920306E+03  0.92803536402E+02 0.  0.
        254    2    1    2    0    0 -0.20825309178E+03  0.59818709972E+02 -0.14040999371E+02  0.93358228294E+03  0.90798188366E+03 0.  0.
        -24    2    4    4    0    0 -0.16674487218E+03  0.44190243728E+03  0.15925211196E+03  0.50454958518E+03  0.78277916897E+02 0.  0.
         24    2    4    4    0    0 -0.41508219606E+02 -0.38208372731E+03 -0.17329311133E+03  0.42903269775E+03  0.79546504263E+02 0.  0.
         11    1    3    3    0    0  0.18447866524E+03 -0.82905837221E+02 -0.41808005991E+03  0.46443157975E+03  0.00000000000E+00 0. -1.
        -11    1    3    3    0    0  0.23774426544E+02  0.23087127249E+02 -0.80730411099E+02  0.87267623311E+02  0.00000000000E+00 0.  1.
          4    1    6    6  502    0 -0.10889763176E+02 -0.11833573462E+03 -0.95203727521E+02  0.15226845624E+03  0.00000000000E+00 0. -1.
          3    1    5    5  503    0 -0.76497395979E+02  0.23195326093E+03  0.12197320197E+03  0.27300481469E+03  0.00000000000E+00 0. -1.
         -4    1    5    5    0  503 -0.90247476200E+02  0.20994917635E+03  0.37278909985E+02  0.23154477049E+03  0.00000000000E+00 0.  1.
         -3    1    6    6    0  502 -0.30618456430E+02 -0.26374799269E+03 -0.78089383807E+02  0.27676424152E+03  0.00000000000E+00 0.  1.
<mgrwt>
<rscale>  0 0.13939313E+04</rscale>
<asrwt>0</asrwt>
<pdfrwt beam="1">  1        1 0.15370253E+00 0.13939313E+04</pdfrwt>
<pdfrwt beam="2">  1       -1 0.74802310E-01 0.13939313E+04</pdfrwt>
<totfact> 0.26587104E+01</totfact>
</mgrwt>
</event>
<event>
12    1  0.1467288E-007  0.1299010E+04  0.7818608E-02  0.9030351E-01
         -2   -1    0    0    0  501 -0.00000000000E+00  0.00000000000E+00  0.12686268674E+03  0.12686268674E+03  0.00000000000E+00 0.  1.
          2   -1    0    0  501    0  0.00000000000E+00 -0.00000000000E+00 -0.33253009151E+04  0.33253009151E+04  0.00000000000E+00 0. -1.
         23    2    1    2    0    0  0.11921627455E+03 -0.30220372993E+03 -0.76336249720E+03  0.83455058442E+03  0.90624286626E+02 0.  0.
        254    2    1    2    0    0 -0.11921627455E+03  0.30220372993E+03 -0.24350757312E+04  0.26176130174E+04  0.90375022986E+03 0.  0.
        -24    2    4    4    0    0 -0.35083567887E+01  0.10607343813E+03 -0.23626603359E+04  0.23665771242E+04  0.85202928737E+02 0.  0.
         24    2    4    4    0    0 -0.11570791776E+03  0.19613029181E+03 -0.72415395252E+02  0.25103589322E+03  0.76939044832E+02 0.  0.
         13    1    3    3    0    0  0.12582230086E+03 -0.27665797630E+03 -0.73720153907E+03  0.79739387787E+03  0.00000000000E+00 0. -1.
        -13    1    3    3    0    0 -0.66060263121E+01 -0.25545753626E+02 -0.26160958128E+02  0.37156706557E+02  0.00000000000E+00 0.  1.
          2    1    6    6  502    0 -0.53398954960E+02  0.15507577373E+03 -0.63547096473E+02  0.17589251678E+03  0.00000000000E+00 0. -1.
          1    1    5    5  503    0 -0.25181013264E+02  0.35369514755E+02 -0.15365950659E+04  0.15372083407E+04  0.00000000000E+00 0. -1.
         -2    1    5    5    0  503  0.21672656475E+02  0.70703923371E+02 -0.82606526999E+03  0.82936878354E+03  0.00000000000E+00 0.  1.
         -3    1    6    6    0  502 -0.62308962800E+02  0.41054518071E+02 -0.88682987792E+01  0.75143376438E+02  0.00000000000E+00 0.  1.
<mgrwt>
<rscale>  0 0.12990098E+04</rscale>
<asrwt>0</asrwt>
<pdfrwt beam="1">  1        2 0.51158473E+00 0.12990098E+04</pdfrwt>
<pdfrwt beam="2">  1       -2 0.19517338E-01 0.12990098E+04</pdfrwt>
<totfact> 0.23837916E+01</totfact>
</mgrwt>
</event>
<event>
12    1  0.1850134E-007  0.1650264E+04  0.7818608E-02  0.8790251E-01
         -1   -1    0    0    0  501 -0.00000000000E+00  0.00000000000E+00  0.35039428011E+03  0.35039428011E+03  0.00000000000E+00 0.  1.
          1   -1    0    0  501    0  0.00000000000E+00 -0.00000000000E+00 -0.19430752928E+04  0.19430752928E+04  0.00000000000E+00 0. -1.
         23    2    1    2    0    0 -0.29055117511E+03 -0.24656769832E+03 -0.11975911828E+04  0.12603001178E+04  0.94425264599E+02 0.  0.
        254    2    1    2    0    0  0.29055117511E+03  0.24656769832E+03 -0.39508982986E+03  0.10331694551E+04  0.87528711520E+03 0.  0.
        -24    2    4    4    0    0  0.43977006905E+03 -0.18278816694E+03 -0.12468743740E+03  0.49824291693E+03  0.76745160267E+02 0.  0.
         24    2    4    4    0    0 -0.14921889394E+03  0.42935586526E+03 -0.27040239246E+03  0.53492653815E+03  0.80101248565E+02 0.  0.
         13    1    3    3    0    0 -0.37777001513E+01  0.76561867443E+01 -0.40680278991E+02  0.41566492667E+02  0.00000000000E+00 0.  1.
        -13    1    3    3    0    0 -0.28677347496E+03 -0.25422388506E+03 -0.11569109038E+04  0.12187336251E+04  0.00000000000E+00 0. -1.
          4    1    6    6  502    0 -0.42986434594E+02  0.12401491885E+03 -0.37592159469E+02  0.13653096393E+03  0.00000000000E+00 0. -1.
          3    1    5    5  503    0  0.26119128421E+02 -0.19999850043E+02 -0.28273271204E+02  0.43377191423E+02  0.00000000000E+00 0. -1.
         -2    1    5    5    0  503  0.41365094063E+03 -0.16278831690E+03 -0.96414166195E+02  0.45486572551E+03  0.00000000000E+00 0.  1.
         -3    1    6    6    0  502 -0.10623245935E+03  0.30534094641E+03 -0.23281023299E+03  0.39839557422E+03  0.00000000000E+00 0.  1.
<mgrwt>
<rscale>  0 0.16502636E+04</rscale>
<asrwt>0</asrwt>
<pdfrwt beam="1">  1        1 0.29893466E+00 0.16502636E+04</pdfrwt>
<pdfrwt beam="2">  1       -1 0.53906812E-01 0.16502636E+04</pdfrwt>
<totfact> 0.10814866E+01</totfact>
</mgrwt>
</event>
<event>
12    1  0.1467288E-007  0.2384545E+04  0.7818608E-02  0.8445312E-01
         -2   -1    0    0    0  501 -0.00000000000E+00  0.00000000000E+00  0.89856536508E+03  0.89856536508E+03  0.00000000000E+00 0.  1.
          2   -1    0    0  501    0  0.00000000000E+00 -0.00000000000E+00 -0.15819820083E+04  0.15819820083E+04  0.00000000000E+00 0. -1.
         23    2    1    2    0    0  0.67017386855E+03 -0.32744548544E+03 -0.10018516796E+04  0.12523442142E+04  0.91135519794E+02 0.  0.
        254    2    1    2    0    0 -0.67017386855E+03  0.32744548544E+03  0.31843503638E+03  0.12282031592E+04  0.92234948244E+03 0.  0.
        -24    2    4    4    0    0 -0.41682151420E+02 -0.18032452369E+03  0.36261986065E+03  0.41530890219E+03  0.82060863432E+02 0.  0.
         24    2    4    4    0    0 -0.62849171713E+03  0.50777000914E+03 -0.44184824272E+02  0.81289425697E+03  0.77540657977E+02 0.  0.
         11    1    3    3    0    0  0.61101588958E+03 -0.28943966843E+03 -0.94481612176E+03  0.11618060264E+04  0.00000000000E+00 0. -1.
        -11    1    3    3    0    0  0.59157978962E+02 -0.38005817013E+02 -0.57035557860E+02  0.90538187866E+02  0.00000000000E+00 0.  1.
          4    1    6    6  502    0 -0.56429955824E+03  0.43671916520E+03 -0.18661279150E+02  0.71379679463E+03  0.00000000000E+00 0. -1.
          1    1    5    5  503    0 -0.33707236944E+01 -0.83195359724E+02  0.24121270554E+03  0.25517915074E+03  0.00000000000E+00 0. -1.
         -2    1    5    5    0  503 -0.38311427725E+02 -0.97129163967E+02  0.12140715511E+03  0.16012975145E+03  0.00000000000E+00 0.  1.
         -3    1    6    6    0  502 -0.64192158891E+02  0.71050843932E+02 -0.25523545122E+02  0.99097462340E+02  0.00000000000E+00 0.  1.
<mgrwt>
<rscale>  0 0.23845454E+04</rscale>
<asrwt>0</asrwt>
<pdfrwt beam="1">  1        2 0.24338185E+00 0.23845454E+04</pdfrwt>
<pdfrwt beam="2">  1       -2 0.13824083E+00 0.23845454E+04</pdfrwt>
<totfact> 0.38149367E+00</totfact>
</mgrwt>
</event>
<event>
12    1  0.1467288E-007  0.1324097E+04  0.7818608E-02  0.9010672E-01
          1   -1    0    0  501    0  0.00000000000E+00  0.00000000000E+00  0.26962678146E+04  0.26962678146E+04  0.00000000000E+00 0. -1.
         -1   -1    0    0    0  501 -0.00000000000E+00 -0.00000000000E+00 -0.16256101381E+03  0.16256101381E+03  0.00000000000E+00 0.  1.
         23    2    1    2    0    0  0.14218638399E+03  0.31011898504E+03  0.79717946128E+03  0.87175366705E+03  0.89825441035E+02 0.  0.
        254    2    1    2    0    0 -0.14218638399E+03 -0.31011898504E+03  0.17365273395E+04  0.19870751614E+04  0.90363142010E+03 0.  0.
        -24    2    4    4    0    0 -0.15908208178E+03 -0.39454398882E+03  0.18023927699E+04  0.18534770894E+04  0.76062844012E+02 0.  0.
         24    2    4    4    0    0  0.16895697790E+02  0.84425003788E+02 -0.65865430391E+02  0.13359807193E+03  0.78084211167E+02 0.  0.
         13    1    3    3    0    0  0.93555411960E+02  0.16166223175E+03  0.33058618062E+03  0.37970319343E+03  0.00000000000E+00 0.  1.
        -13    1    3    3    0    0  0.48630972027E+02  0.14845675329E+03  0.46659328066E+03  0.49205047363E+03  0.00000000000E+00 0. -1.
          4    1    6    6  502    0  0.34552419067E+02  0.88300975419E+02 -0.65985317473E+02  0.11552053517E+03  0.00000000000E+00 0. -1.
          1    1    5    5  503    0 -0.14835084559E+03 -0.39413526422E+03  0.17669962590E+04  0.18164873683E+04  0.00000000000E+00 0. -1.
         -2    1    5    5    0  503 -0.10731236192E+02 -0.40872460857E+00  0.35396510860E+02  0.36989721100E+02  0.00000000000E+00 0.  1.
         -3    1    6    6    0  502 -0.17656721278E+02 -0.38759716310E+01  0.11988708217E+00  0.18077536759E+02  0.00000000000E+00 0.  1.
<mgrwt>
<rscale>  0 0.13240967E+04</rscale>
<asrwt>0</asrwt>
<pdfrwt beam="1">  1        1 0.41481040E+00 0.13240967E+04</pdfrwt>
<pdfrwt beam="2">  1       -1 0.25009389E-01 0.13240967E+04</pdfrwt>
<totfact> 0.13638492E+01</totfact>
</mgrwt>
</event>
<event>
12    1  0.1467288E-007  0.1202065E+04  0.7818608E-02  0.9111051E-01
         -1   -1    0    0    0  501 -0.00000000000E+00  0.00000000000E+00  0.36787188602E+03  0.36787188602E+03  0.00000000000E+00 0.  1.
          1   -1    0    0  501    0  0.00000000000E+00 -0.00000000000E+00 -0.98197203141E+03  0.98197203141E+03  0.00000000000E+00 0. -1.
         23    2    1    2    0    0 -0.17498844897E+03 -0.11276246609E+03  0.25896108821E+02  0.22898387761E+03  0.91796931982E+02 0.  0.
        254    2    1    2    0    0  0.17498844897E+03  0.11276246609E+03 -0.63999625420E+03  0.11208600398E+04  0.89632343071E+03 0.  0.
        -24    2    4    4    0    0 -0.11975127163E+03  0.27376763234E+02 -0.76585253463E+03  0.77978880019E+03  0.80315713865E+02 0.  0.
         24    2    4    4    0    0  0.29473972060E+03  0.85385702852E+02  0.12585628042E+03  0.34107123962E+03  0.79545999434E+02 0.  0.
         11    1    3    3    0    0 -0.16693100459E+03 -0.10322212733E+03  0.49382287102E+02  0.20238423393E+03  0.00000000000E+00 0.  1.
        -11    1    3    3    0    0 -0.80574443795E+01 -0.95403387601E+01 -0.23486178281E+02  0.26599643679E+02  0.00000000000E+00 0. -1.
          2    1    6    6  502    0  0.67836606328E+02 -0.26177064171E+01  0.18130235272E+01  0.67911299496E+02  0.00000000000E+00 0. -1.
          1    1    5    5  503    0 -0.76302799033E+02  0.40139598356E+02 -0.31233827978E+03  0.32401929805E+03  0.00000000000E+00 0. -1.
         -2    1    5    5    0  503 -0.43448472594E+02 -0.12762835122E+02 -0.45351425485E+03  0.45576950214E+03  0.00000000000E+00 0.  1.
         -1    1    6    6    0  502  0.22690311427E+03  0.88003409269E+02  0.12404325690E+03  0.27315994013E+03  0.00000000000E+00 0.  1.
<mgrwt>
<rscale>  0 0.12020647E+04</rscale>
<asrwt>0</asrwt>
<pdfrwt beam="1">  1        1 0.15107262E+00 0.12020647E+04</pdfrwt>
<pdfrwt beam="2">  1       -1 0.56595675E-01 0.12020647E+04</pdfrwt>
<totfact> 0.48879153E+01</totfact>
</mgrwt>
</event>
<event>
12    1  0.1467288E-007  0.2308399E+04  0.7818608E-02  0.8474617E-01
         -1   -1    0    0    0  501 -0.00000000000E+00  0.00000000000E+00  0.57231918705E+03  0.57231918705E+03  0.00000000000E+00 0.  1.
          1   -1    0    0  501    0  0.00000000000E+00 -0.00000000000E+00 -0.23276816988E+04  0.23276816988E+04  0.00000000000E+00 0. -1.
         23    2    1    2    0    0 -0.25131228123E+01  0.94644981269E+03 -0.46445784491E+03  0.10581081916E+04  0.89990508777E+02 0.  0.
        254    2    1    2    0    0  0.25131228123E+01 -0.94644981269E+03 -0.12909046668E+04  0.18418926943E+04  0.91124106284E+03 0.  0.
        -24    2    4    4    0    0  0.48556497764E+01 -0.34992652565E+03  0.57894444229E+02  0.36490270818E+03  0.85615822590E+02 0.  0.
         24    2    4    4    0    0 -0.23425269641E+01 -0.59652328704E+03 -0.13487991111E+04  0.14769899861E+04  0.79967853346E+02 0.  0.
         13    1    3    3    0    0  0.37877520376E+02  0.25911237830E+03 -0.11554767456E+03  0.28622577842E+03  0.00000000000E+00 0. -1.
        -13    1    3    3    0    0 -0.40390643188E+02  0.68733743439E+03 -0.34891017036E+03  0.77188241317E+03  0.00000000000E+00 0.  1.
          4    1    6    6  502    0 -0.80995738348E+00 -0.53672991282E+03 -0.11443032906E+04  0.12639262938E+04  0.00000000000E+00 0. -1.
          1    1    5    5  503    0 -0.17893801264E+02 -0.22955292492E+02  0.19192868360E+02  0.34864018313E+02  0.00000000000E+00 0. -1.
         -2    1    5    5    0  503  0.22749451040E+02 -0.32697123316E+03  0.38701575869E+02  0.33003868987E+03  0.00000000000E+00 0.  1.
         -3    1    6    6    0  502 -0.15325695806E+01 -0.59793374219E+02 -0.20449582050E+03  0.21306369228E+03  0.00000000000E+00 0.  1.
<mgrwt>
<rscale>  0 0.23083994E+04</rscale>
<asrwt>0</asrwt>
<pdfrwt beam="1">  1        1 0.35810487E+00 0.23083994E+04</pdfrwt>
<pdfrwt beam="2">  1       -1 0.88049107E-01 0.23083994E+04</pdfrwt>
<totfact> 0.20394793E+00</totfact>
</mgrwt>
</event>
<event>
12    1  0.1467288E-007  0.2424470E+04  0.7818608E-02  0.8430399E-01
          2   -1    0    0  501    0  0.00000000000E+00  0.00000000000E+00  0.11694209456E+04  0.11694209456E+04  0.00000000000E+00 0. -1.
         -2   -1    0    0    0  501 -0.00000000000E+00 -0.00000000000E+00 -0.12566162032E+04  0.12566162032E+04  0.00000000000E+00 0.  1.
         23    2    1    2    0    0 -0.39880534210E+03 -0.42416148728E+03  0.83175566147E+03  0.10192015828E+04  0.89418777288E+02 0.  0.
        254    2    1    2    0    0  0.39880534210E+03  0.42416148728E+03 -0.91895091909E+03  0.14068355660E+04  0.89205204437E+03 0.  0.
        -24    2    4    4    0    0  0.48616020334E+03 -0.96686013701E+02 -0.28345538439E+03  0.57671282502E+03  0.80937006643E+02 0.  0.
         24    2    4    4    0    0 -0.87354861236E+02  0.52084750099E+03 -0.63549553470E+03  0.83012274098E+03  0.79600247459E+02 0.  0.
         11    1    3    3    0    0 -0.33451231291E+03 -0.39557019616E+03  0.71648769265E+03  0.88415433116E+03  0.00000000000E+00 0. -1.
        -11    1    3    3    0    0 -0.64293029189E+02 -0.28591291120E+02  0.11526796882E+03  0.13504725160E+03  0.00000000000E+00 0.  1.
          4    1    6    6  502    0 -0.83002549904E+02  0.25454497903E+03 -0.32149278358E+03  0.41837803424E+03  0.00000000000E+00 0. -1.
          1    1    5    5  503    0  0.68375938198E+02 -0.29897719443E+01 -0.11279694540E+02  0.69364538272E+02  0.00000000000E+00 0. -1.
         -4    1    5    5    0  503  0.41778426514E+03 -0.93696241757E+02 -0.27217568985E+03  0.50734828674E+03  0.00000000000E+00 0.  1.
         -3    1    6    6    0  502 -0.43523113315E+01  0.26630252195E+03 -0.31400275112E+03  0.41174470674E+03  0.00000000000E+00 0.  1.
<mgrwt>
<rscale>  0 0.24244697E+04</rscale>
<asrwt>0</asrwt>
<pdfrwt beam="1">  1        2 0.17991091E+00 0.24244697E+04</pdfrwt>
<pdfrwt beam="2">  1       -2 0.19332557E+00 0.24244697E+04</pdfrwt>
<totfact> 0.26111331E+00</totfact>
</mgrwt>
</event>
<event>
12    1  0.1467288E-007  0.1195109E+04  0.7818608E-02  0.9117148E-01
         -1   -1    0    0    0  501 -0.00000000000E+00  0.00000000000E+00  0.54903328909E+03  0.54903328909E+03  0.00000000000E+00 0.  1.
          1   -1    0    0  501    0  0.00000000000E+00 -0.00000000000E+00 -0.65036385991E+03  0.65036385991E+03  0.00000000000E+00 0. -1.
         23    2    1    2    0    0 -0.58293375609E+02 -0.14257798988E+03  0.17382623838E+03  0.24961872208E+03  0.91473189653E+02 0.  0.
        254    2    1    2    0    0  0.58293375609E+02  0.14257798988E+03 -0.27515680920E+03  0.94977842692E+03  0.89590244434E+03 0.  0.
        -24    2    4    4    0    0  0.37276367818E+03  0.22872066971E+03 -0.39377892833E+03  0.59408212684E+03  0.81276223524E+02 0.  0.
         24    2    4    4    0    0 -0.31447030258E+03 -0.86142679837E+02  0.11862211913E+03  0.35569630008E+03  0.78335932063E+02 0.  0.
         11    1    3    3    0    0 -0.51931689685E+02 -0.30955598387E+02  0.30126169879E+02  0.67548024224E+02  0.00000000000E+00 0. -1.
        -11    1    3    3    0    0 -0.63616859243E+01 -0.11162239149E+03  0.14370006851E+03  0.18207069786E+03  0.00000000000E+00 0.  1.
          4    1    6    6  502    0  0.27066458014E+01 -0.11904952851E+01  0.90803692252E+01  0.95496762136E+01  0.00000000000E+00 0. -1.
          1    1    5    5  503    0  0.47824394147E+02  0.40911319754E+02 -0.96915914582E+02  0.11555779186E+03  0.00000000000E+00 0. -1.
         -4    1    5    5    0  503  0.32493928404E+03  0.18780934996E+03 -0.29686301375E+03  0.47852433499E+03  0.00000000000E+00 0.  1.
         -3    1    6    6    0  502 -0.31717694838E+03 -0.84952184552E+02  0.10954174991E+03  0.34614662387E+03  0.00000000000E+00 0.  1.
<mgrwt>
<rscale>  0 0.11951090E+04</rscale>
<asrwt>0</asrwt>
<pdfrwt beam="1">  1        1 0.10005598E+00 0.11951090E+04</pdfrwt>
<pdfrwt beam="2">  1       -1 0.84466660E-01 0.11951090E+04</pdfrwt>
<totfact> 0.41838839E+01</totfact>
</mgrwt>
</event>
<event>
12    1  0.1467288E-007  0.2662439E+04  0.7818608E-02  0.8347296E-01
         -1   -1    0    0    0  501 -0.00000000000E+00  0.00000000000E+00  0.86565921376E+03  0.86565921376E+03  0.00000000000E+00 0.  1.
          1   -1    0    0  501    0  0.00000000000E+00 -0.00000000000E+00 -0.20471622170E+04  0.20471622170E+04  0.00000000000E+00 0. -1.
         23    2    1    2    0    0  0.85646695353E+03  0.54141340484E+03 -0.11785842649E+04  0.15569193604E+04  0.90955527652E+02 0.  0.
        254    2    1    2    0    0 -0.85646695353E+03 -0.54141340484E+03 -0.29187383211E+01  0.13559020703E+04  0.90099821741E+03 0.  0.
        -24    2    4    4    0    0 -0.91108278936E+03 -0.69919995126E+03  0.78640848808E+02  0.11538811504E+04  0.79403433538E+02 0.  0.
         24    2    4    4    0    0  0.54615835828E+02  0.15778654642E+03 -0.81559587129E+02  0.20202091989E+03  0.79252773251E+02 0.  0.
         13    1    3    3    0    0  0.19390487995E+03  0.10943968558E+03 -0.20614995265E+03  0.30343689661E+03  0.00000000000E+00 0.  1.
        -13    1    3    3    0    0  0.66256207358E+03  0.43197371926E+03 -0.97243431223E+03  0.12534824638E+04  0.00000000000E+00 0. -1.
          2    1    6    6  502    0  0.30090011022E+02  0.84154835374E+01 -0.26427083559E+02  0.40922119592E+02  0.00000000000E+00 0. -1.
          3    1    5    5  503    0 -0.24656542566E+03 -0.17694978958E+03 -0.12868888330E+02  0.30376198816E+03  0.00000000000E+00 0. -1.
         -4    1    5    5    0  503 -0.66451736370E+03 -0.52225016168E+03  0.91509737138E+02  0.85011916225E+03  0.00000000000E+00 0.  1.
         -1    1    6    6    0  502  0.24525824806E+02  0.14937106288E+03 -0.55132503570E+02  0.16109880030E+03  0.00000000000E+00 0.  1.
<mgrwt>
<rscale>  0 0.26624386E+04</rscale>
<asrwt>0</asrwt>
<pdfrwt beam="1">  1        1 0.31494803E+00 0.26624386E+04</pdfrwt>
<pdfrwt beam="2">  1       -1 0.13317834E+00 0.26624386E+04</pdfrwt>
<totfact> 0.11563290E+00</totfact>
</mgrwt>
</event>
<event>
12    1  0.1467288E-007  0.1346965E+04  0.7818608E-02  0.8993128E-01
         -1   -1    0    0    0  501 -0.00000000000E+00  0.00000000000E+00  0.67109798485E+03  0.67109798485E+03  0.00000000000E+00 0.  1.
          1   -1    0    0  501    0  0.00000000000E+00 -0.00000000000E+00 -0.67587596131E+03  0.67587596131E+03  0.00000000000E+00 0. -1.
         23    2    1    2    0    0 -0.29776852400E+02 -0.28450499335E+03 -0.23298316325E+03  0.37918285175E+03  0.87571276824E+02 0.  0.
        254    2    1    2    0    0  0.29776852400E+02  0.28450499335E+03  0.22820518680E+03  0.96779109441E+03  0.89594209799E+03 0.  0.
        -24    2    4    4    0    0 -0.55094229296E+02  0.42637311028E+03  0.48435405233E+03  0.65258858395E+03  0.80272091198E+02 0.  0.
         24    2    4    4    0    0  0.84871081696E+02 -0.14186811693E+03 -0.25614886554E+03  0.31520251046E+03  0.80066960559E+02 0.  0.
         11    1    3    3    0    0 -0.51474867398E+02 -0.96912016127E+02 -0.97176895407E+02  0.14657745340E+03  0.00000000000E+00 0. -1.
        -11    1    3    3    0    0  0.21698014998E+02 -0.18759297722E+03 -0.13580626784E+03  0.23260539835E+03  0.00000000000E+00 0.  1.
          2    1    6    6  502    0  0.17307761253E+02  0.61306759196E-01 -0.67320434168E+02  0.69509734675E+02  0.00000000000E+00 0. -1.
          3    1    5    5  503    0 -0.26269953519E+02  0.15710030657E+03  0.23867246448E+03  0.28694104287E+03  0.00000000000E+00 0. -1.
         -4    1    5    5    0  503 -0.28824275777E+02  0.26927280371E+03  0.24568158786E+03  0.36564754109E+03  0.00000000000E+00 0.  1.
         -1    1    6    6    0  502  0.67563320444E+02 -0.14192942369E+03 -0.18882843137E+03  0.24569277578E+03  0.00000000000E+00 0.  1.
<mgrwt>
<rscale>  0 0.13469655E+04</rscale>
<asrwt>0</asrwt>
<pdfrwt beam="1">  1        1 0.10398092E+00 0.13469655E+04</pdfrwt>
<pdfrwt beam="2">  1       -1 0.10324584E+00 0.13469655E+04</pdfrwt>
<totfact> 0.24916256E+01</totfact>
</mgrwt>
</event>
<event>
12    1  0.1467288E-007  0.1491050E+04  0.7818608E-02  0.8890427E-01
         -1   -1    0    0    0  501 -0.00000000000E+00  0.00000000000E+00  0.66986642551E+03  0.66986642551E+03  0.00000000000E+00 0.  1.
          1   -1    0    0  501    0  0.00000000000E+00 -0.00000000000E+00 -0.82972848626E+03  0.82972848626E+03  0.00000000000E+00 0. -1.
         23    2    1    2    0    0  0.44734867002E+02  0.30470984188E+03 -0.40711799561E+03  0.51823743777E+03  0.89306682279E+02 0.  0.
        254    2    1    2    0    0 -0.44734867002E+02 -0.30470984188E+03  0.24725593485E+03  0.98135747400E+03  0.89837503215E+03 0.  0.
        -24    2    4    4    0    0  0.16265889756E+03 -0.47367089639E+03  0.41513939592E+03  0.65532290409E+03  0.79280234168E+02 0.  0.
         24    2    4    4    0    0 -0.20739376456E+03  0.16896105451E+03 -0.16788346107E+03  0.32603456991E+03  0.80954757475E+02 0.  0.
         11    1    3    3    0    0  0.62413355457E+02  0.24471226025E+03 -0.36081045328E+03  0.44041310204E+03  0.00000000000E+00 0. -1.
        -11    1    3    3    0    0 -0.17678488455E+02  0.59997581632E+02 -0.46307542329E+02  0.77824335733E+02  0.00000000000E+00 0.  1.
          2    1    6    6  502    0 -0.36839998873E+01 -0.76397084967E+01 -0.91635505384E-01  0.84820633192E+01  0.00000000000E+00 0. -1.
          1    1    5    5  503    0  0.42478311827E+01 -0.27192608110E+01  0.19580018029E+02  0.20219187796E+02  0.00000000000E+00 0. -1.
         -2    1    5    5    0  503  0.15841106637E+03 -0.47095163558E+03  0.39555937789E+03  0.63510371629E+03  0.00000000000E+00 0.  1.
         -1    1    6    6    0  502 -0.20370976467E+03  0.17660076301E+03 -0.16779182556E+03  0.31755250659E+03  0.00000000000E+00 0.  1.
<mgrwt>
<rscale>  0 0.14910496E+04</rscale>
<asrwt>0</asrwt>
<pdfrwt beam="1">  1        1 0.12765054E+00 0.14910496E+04</pdfrwt>
<pdfrwt beam="2">  1       -1 0.10305637E+00 0.14910496E+04</pdfrwt>
<totfact> 0.17943746E+01</totfact>
</mgrwt>
</event>
<event>
12    1  0.1467288E-007  0.1899666E+04  0.7818608E-02  0.8655023E-01
         -2   -1    0    0    0  501 -0.00000000000E+00  0.00000000000E+00  0.73944624419E+03  0.73944624419E+03  0.00000000000E+00 0.  1.
          2   -1    0    0  501    0  0.00000000000E+00 -0.00000000000E+00 -0.12200787825E+04  0.12200787825E+04  0.00000000000E+00 0. -1.
         23    2    1    2    0    0  0.12549883467E+03  0.70110321749E+03 -0.17330846075E+02  0.71884647062E+03  0.95625368021E+02 0.  0.
        254    2    1    2    0    0 -0.12549883467E+03 -0.70110321749E+03 -0.46330169221E+03  0.12406785561E+04  0.90406810716E+03 0.  0.
        -24    2    4    4    0    0 -0.37230809859E+03 -0.82415167269E+00 -0.27484829806E+03  0.47001020831E+03  0.82182780845E+02 0.  0.
         24    2    4    4    0    0  0.24680926392E+03 -0.70027906582E+03 -0.18845339415E+03  0.77066834775E+03  0.84317481427E+02 0.  0.
         13    1    3    3    0    0  0.31089252542E+00  0.93393709478E+02  0.25761240525E+02  0.96882006263E+02  0.00000000000E+00 0.  1.
        -13    1    3    3    0    0  0.12518794215E+03  0.60770950801E+03 -0.43092086600E+02  0.62196446435E+03  0.00000000000E+00 0. -1.
          2    1    6    6  502    0  0.23430186495E+03 -0.66503780169E+03 -0.19740531180E+03  0.73221683860E+03  0.00000000000E+00 0. -1.
          3    1    5    5  503    0 -0.27801433727E+03  0.10471747728E+02 -0.15983651715E+03  0.32085719790E+03  0.00000000000E+00 0. -1.
         -4    1    5    5    0  503 -0.94293761323E+02 -0.11295899400E+02 -0.11501178091E+03  0.14915301042E+03  0.00000000000E+00 0.  1.
         -1    1    6    6    0  502  0.12507398963E+02 -0.35241264125E+02  0.89519176544E+01  0.38451509147E+02  0.00000000000E+00 0.  1.
<mgrwt>
<rscale>  0 0.18996659E+04</rscale>
<asrwt>0</asrwt>
<pdfrwt beam="1">  1        2 0.18770443E+00 0.18996659E+04</pdfrwt>
<pdfrwt beam="2">  1       -2 0.11376096E+00 0.18996659E+04</pdfrwt>
<totfact> 0.10450030E+01</totfact>
</mgrwt>
</event>
<event>
12    1  0.1467288E-007  0.1596535E+04  0.7818608E-02  0.8822679E-01
         -1   -1    0    0    0  501 -0.00000000000E+00  0.00000000000E+00  0.59746741183E+03  0.59746741183E+03  0.00000000000E+00 0.  1.
          1   -1    0    0  501    0  0.00000000000E+00 -0.00000000000E+00 -0.10665541978E+04  0.10665541978E+04  0.00000000000E+00 0. -1.
         23    2    1    2    0    0  0.30967502054E+03  0.43055089195E+03 -0.26266845998E+03  0.59842842584E+03  0.88595553390E+02 0.  0.
        254    2    1    2    0    0 -0.30967502054E+03 -0.43055089195E+03 -0.20641832603E+03  0.10655931838E+04  0.90089267906E+03 0.  0.
        -24    2    4    4    0    0  0.11044171445E+03  0.21718702083E+03  0.16053728769E+02  0.25761936522E+03  0.82112367021E+02 0.  0.
         24    2    4    4    0    0 -0.42011673500E+03 -0.64773791278E+03 -0.22247205479E+03  0.80797381861E+03  0.85237325834E+02 0.  0.
         11    1    3    3    0    0  0.30670552288E+03  0.43381113152E+03 -0.25438307466E+03  0.58904254878E+03  0.00000000000E+00 0. -1.
        -11    1    3    3    0    0  0.29694976616E+01 -0.32602395687E+01 -0.82853853187E+01  0.93858770654E+01  0.00000000000E+00 0.  1.
          4    1    6    6  502    0 -0.38009220740E+03 -0.59619810949E+03 -0.22690244579E+03  0.74256783649E+03  0.00000000000E+00 0. -1.
          3    1    5    5  503    0  0.10782165221E+03  0.22465631558E+03  0.15998669698E+02  0.24970367688E+03  0.00000000000E+00 0. -1.
         -2    1    5    5    0  503  0.26200622399E+01 -0.74692947528E+01  0.55059070939E-01  0.79156883306E+01  0.00000000000E+00 0.  1.
         -3    1    6    6    0  502 -0.40024527594E+02 -0.51539803292E+02  0.44303909932E+01  0.65405982118E+02  0.00000000000E+00 0.  1.
<mgrwt>
<rscale>  0 0.15965355E+04</rscale>
<asrwt>0</asrwt>
<pdfrwt beam="1">  1        1 0.16408526E+00 0.15965355E+04</pdfrwt>
<pdfrwt beam="2">  1       -1 0.91918064E-01 0.15965355E+04</pdfrwt>
<totfact> 0.14874600E+01</totfact>
</mgrwt>
</event>
<event>
12    1  0.1467288E-007  0.1702454E+04  0.7818608E-02  0.8759966E-01
         -2   -1    0    0    0  501 -0.00000000000E+00  0.00000000000E+00  0.40143672434E+03  0.40143672434E+03  0.00000000000E+00 0.  1.
          2   -1    0    0  501    0  0.00000000000E+00 -0.00000000000E+00 -0.18049855715E+04  0.18049855715E+04  0.00000000000E+00 0. -1.
         23    2    1    2    0    0 -0.14290400033E+03  0.42319003305E+03 -0.10428495478E+04  0.11380279170E+04  0.89783089126E+02 0.  0.
        254    2    1    2    0    0  0.14290400033E+03 -0.42319003305E+03 -0.36069929937E+03  0.10683943789E+04  0.90102786130E+03 0.  0.
        -24    2    4    4    0    0  0.46747066838E+02  0.14628682733E+03  0.19641128282E+03  0.26197157423E+03  0.80415107912E+02 0.  0.
         24    2    4    4    0    0  0.96156933489E+02 -0.56947686038E+03 -0.55711058219E+03  0.80642280463E+03  0.79971799259E+02 0.  0.
         13    1    3    3    0    0 -0.42869411772E+01  0.13795216156E+03 -0.29348020458E+03  0.32431436481E+03  0.00000000000E+00 0.  1.
        -13    1    3    3    0    0 -0.13861705915E+03  0.28523787149E+03 -0.74936934325E+03  0.81371355219E+03  0.00000000000E+00 0. -1.
          4    1    6    6  502    0  0.98223279433E+02 -0.35566407752E+03 -0.36397944824E+03  0.51829121872E+03  0.00000000000E+00 0. -1.
          3    1    5    5  503    0  0.16168079667E+02  0.13711235934E+03  0.17747540132E+03  0.22485267167E+03  0.00000000000E+00 0. -1.
         -4    1    5    5    0  503  0.30578987171E+02  0.91744679828E+01  0.18935881501E+02  0.37118902562E+02  0.00000000000E+00 0.  1.
         -3    1    6    6    0  502 -0.20663459438E+01 -0.21381278285E+03 -0.19313113395E+03  0.28813158591E+03  0.00000000000E+00 0.  1.
<mgrwt>
<rscale>  0 0.17024541E+04</rscale>
<asrwt>0</asrwt>
<pdfrwt beam="1">  1        2 0.27769009E+00 0.17024541E+04</pdfrwt>
<pdfrwt beam="2">  1       -2 0.61759496E-01 0.17024541E+04</pdfrwt>
<totfact> 0.19866860E+01</totfact>
</mgrwt>
</event>
<event>
12    1  0.1467288E-007  0.2095501E+04  0.7818608E-02  0.8563228E-01
         -2   -1    0    0    0  501 -0.00000000000E+00  0.00000000000E+00  0.69770711298E+03  0.69770711298E+03  0.00000000000E+00 0.  1.
          2   -1    0    0  501    0  0.00000000000E+00 -0.00000000000E+00 -0.15734130696E+04  0.15734130696E+04  0.00000000000E+00 0. -1.
         23    2    1    2    0    0  0.24365734122E+03  0.19431509400E+03 -0.12158851838E+04  0.12585455735E+04  0.91830958380E+02 0.  0.
        254    2    1    2    0    0 -0.24365734122E+03 -0.19431509400E+03  0.34017922716E+03  0.10125746090E+04  0.90136461908E+03 0.  0.
        -24    2    4    4    0    0 -0.33513530743E+03 -0.27553868686E+03 -0.17736376476E+03  0.47554273091E+03  0.80285376212E+02 0.  0.
         24    2    4    4    0    0  0.91477966203E+02  0.81223592867E+02  0.51754299192E+03  0.53703187809E+03  0.74746232435E+02 0.  0.
         13    1    3    3    0    0  0.14716991573E+02  0.53332322741E+02 -0.24050849674E+03  0.24678991773E+03  0.00000000000E+00 0.  1.
        -13    1    3    3    0    0  0.22894034965E+03  0.14098277126E+03 -0.97537668701E+03  0.10117556558E+04  0.00000000000E+00 0. -1.
          4    1    6    6  502    0  0.40189346270E+02  0.63679625637E+02  0.17926262414E+03  0.19443602210E+03  0.00000000000E+00 0. -1.
          3    1    5    5  503    0 -0.24171151856E+03 -0.22411603037E+03 -0.10230722226E+03  0.34513652516E+03  0.00000000000E+00 0. -1.
         -4    1    5    5    0  503 -0.93423788870E+02 -0.51422656496E+02 -0.75056542503E+02  0.13040620576E+03  0.00000000000E+00 0.  1.
         -3    1    6    6    0  502  0.51288619933E+02  0.17543967230E+02  0.33828036778E+03  0.34259585600E+03  0.00000000000E+00 0.  1.
<mgrwt>
<rscale>  0 0.20955014E+04</rscale>
<asrwt>0</asrwt>
<pdfrwt beam="1">  1        2 0.24206355E+00 0.20955014E+04</pdfrwt>
<pdfrwt beam="2">  1       -2 0.10733956E+00 0.20955014E+04</pdfrwt>
<totfact> 0.74177521E+00</totfact>
</mgrwt>
</event>
<event>
12    1  0.1467288E-007  0.1573413E+04  0.7818608E-02  0.8837050E-01
         -2   -1    0    0    0  501 -0.00000000000E+00  0.00000000000E+00  0.33409531188E+03  0.33409531188E+03  0.00000000000E+00 0.  1.
          2   -1    0    0  501    0  0.00000000000E+00 -0.00000000000E+00 -0.18524869577E+04  0.18524869577E+04  0.00000000000E+00 0. -1.
         23    2    1    2    0    0  0.33551977058E+03 -0.31108331217E+03 -0.86537677303E+03  0.98306871583E+03  0.90558253015E+02 0.  0.
        254    2    1    2    0    0 -0.33551977058E+03  0.31108331217E+03 -0.65301487280E+03  0.12035135538E+04  0.90148217198E+03 0.  0.
        -24    2    4    4    0    0 -0.34904190603E+03 -0.74520504190E+02 -0.71565345800E+03  0.80459200034E+03  0.88458223707E+02 0.  0.
         24    2    4    4    0    0  0.13522135452E+02  0.38560381636E+03  0.62638585204E+02  0.39892155342E+03  0.79634553324E+02 0.  0.
         13    1    3    3    0    0  0.14625591391E+03 -0.13133103711E+03 -0.46831615021E+03  0.50789629868E+03  0.00000000000E+00 0. -1.
        -13    1    3    3    0    0  0.18926385667E+03 -0.17975227506E+03 -0.39706062281E+03  0.47517241715E+03  0.00000000000E+00 0.  1.
          2    1    6    6  502    0  0.29704121252E+01  0.38311280571E+03  0.61303400679E+02  0.38799787652E+03  0.00000000000E+00 0. -1.
          1    1    5    5  503    0 -0.33272290597E+03 -0.71631715710E+02 -0.61780523980E+03  0.70535023157E+03  0.00000000000E+00 0. -1.
         -2    1    5    5    0  503 -0.16319000060E+02 -0.28887884801E+01 -0.97848218205E+02  0.99241768766E+02  0.00000000000E+00 0.  1.
         -1    1    6    6    0  502  0.10551723327E+02  0.24910106508E+01  0.13351845247E+01  0.10923676897E+02  0.00000000000E+00 0.  1.
<mgrwt>
<rscale>  0 0.15734131E+04</rscale>
<asrwt>0</asrwt>
<pdfrwt beam="1">  1        2 0.28499800E+00 0.15734131E+04</pdfrwt>
<pdfrwt beam="2">  1       -2 0.51399277E-01 0.15734131E+04</pdfrwt>
<totfact> 0.27727154E+01</totfact>
</mgrwt>
</event>
<event>
12    1  0.1467288E-007  0.1348760E+04  0.7818608E-02  0.8991767E-01
          2   -1    0    0  501    0  0.00000000000E+00  0.00000000000E+00  0.70034837241E+03  0.70034837241E+03  0.00000000000E+00 0.  1.
         -2   -1    0    0    0  501 -0.00000000000E+00 -0.00000000000E+00 -0.64937443125E+03  0.64937443125E+03  0.00000000000E+00 0. -1.
         23    2    1    2    0    0 -0.43990070144E+02 -0.20016168940E+03 -0.29174785706E+03  0.36796238897E+03  0.90992743782E+02 0.  0.
        254    2    1    2    0    0  0.43990070144E+02  0.20016168940E+03  0.34272179822E+03  0.98176041470E+03  0.89688095794E+03 0.  0.
        -24    2    4    4    0    0 -0.75903068638E+02 -0.33799494983E+03  0.73654165710E+02  0.36297082314E+03  0.79504845029E+02 0.  0.
         24    2    4    4    0    0  0.11989313878E+03  0.53815663923E+03  0.26906763251E+03  0.61878959156E+03  0.80723197897E+02 0.  0.
         11    1    3    3    0    0 -0.57380670875E+02 -0.70758721743E+02 -0.91135822123E+02  0.12886068511E+03  0.00000000000E+00 0.  1.
        -11    1    3    3    0    0  0.13390600731E+02 -0.12940296765E+03 -0.20061203494E+03  0.23910170386E+03  0.00000000000E+00 0. -1.
          2    1    6    6  502    0  0.96770474740E+02  0.49202614235E+03  0.26463787201E+03  0.56699863566E+03  0.00000000000E+00 0. -1.
          3    1    5    5  503    0 -0.70649571595E+02 -0.14008491756E+03  0.42577552408E+02  0.16256689104E+03  0.00000000000E+00 0. -1.
         -4    1    5    5    0  503 -0.52534970432E+01 -0.19791003227E+03  0.31076613302E+02  0.20040393210E+03  0.00000000000E+00 0.  1.
         -1    1    6    6    0  502  0.23122664042E+02  0.46130496881E+02  0.44297605051E+01  0.51790955899E+02  0.00000000000E+00 0.  1.
<mgrwt>
<rscale>  0 0.13487599E+04</rscale>
<asrwt>0</asrwt>
<pdfrwt beam="1">  1        2 0.10774590E+00 0.13487599E+04</pdfrwt>
<pdfrwt beam="2">  1       -2 0.99903759E-01 0.13487599E+04</pdfrwt>
<totfact> 0.33123721E+01</totfact>
</mgrwt>
</event>
<event>
12    1  0.1467288E-007  0.2417718E+04  0.7818608E-02  0.8432900E-01
          2   -1    0    0  501    0  0.00000000000E+00  0.00000000000E+00  0.35604940611E+04  0.35604940611E+04  0.00000000000E+00 0.  1.
         -2   -1    0    0    0  501 -0.00000000000E+00 -0.00000000000E+00 -0.41043184866E+03  0.41043184866E+03  0.00000000000E+00 0. -1.
         23    2    1    2    0    0  0.10080523111E+04 -0.98848971091E+01  0.17683770917E+04  0.20375319561E+04  0.90065313791E+02 0.  0.
        254    2    1    2    0    0 -0.10080523111E+04  0.98848971091E+01  0.13816851207E+04  0.19333939536E+04  0.90149389012E+03 0.  0.
        -24    2    4    4    0    0  0.16516960176E+02  0.10945564835E+03 -0.66444918858E+02  0.15479330726E+03  0.85397258742E+02 0.  0.
         24    2    4    4    0    0 -0.10245692713E+04 -0.99570751243E+02  0.14481300396E+04  0.17786006464E+04  0.81750360859E+02 0.  0.
         13    1    3    3    0    0  0.55218721428E+03 -0.43067596448E+02  0.10176174318E+04  0.11585813631E+04  0.00000000000E+00 0. -1.
        -13    1    3    3    0    0  0.45586509682E+03  0.33182699339E+02  0.75075965994E+03  0.87895059305E+03  0.00000000000E+00 0.  1.
          2    1    6    6  502    0 -0.86513326544E+03 -0.59023361389E+02  0.12446791552E+04  0.15169593019E+04  0.00000000000E+00 0. -1.
          3    1    5    5  503    0  0.31977676384E+02  0.11691187999E+03 -0.65083125215E+02  0.13757460760E+03  0.00000000000E+00 0. -1.
         -4    1    5    5    0  503 -0.15460716207E+02 -0.74562316381E+01 -0.13617936421E+01  0.17218699655E+02  0.00000000000E+00 0.  1.
         -1    1    6    6    0  502 -0.15943600584E+03 -0.40547389854E+02  0.20345088441E+03  0.26164134450E+03  0.00000000000E+00 0.  1.
<mgrwt>
<rscale>  0 0.24177181E+04</rscale>
<asrwt>0</asrwt>
<pdfrwt beam="1">  1        2 0.54776830E+00 0.24177181E+04</pdfrwt>
<pdfrwt beam="2">  1       -2 0.63143364E-01 0.24177181E+04</pdfrwt>
<totfact> 0.15402850E+00</totfact>
</mgrwt>
</event>
<event>
12    1  0.1467288E-007  0.2528377E+04  0.7818608E-02  0.8392945E-01
         -1   -1    0    0    0  501 -0.00000000000E+00  0.00000000000E+00  0.65456464389E+03  0.65456464389E+03  0.00000000000E+00 0.  1.
          1   -1    0    0  501    0  0.00000000000E+00 -0.00000000000E+00 -0.24415814911E+04  0.24415814911E+04  0.00000000000E+00 0. -1.
         23    2    1    2    0    0  0.97413212463E+03 -0.43767217450E+03 -0.48755761945E+03  0.11772163346E+04  0.87381563132E+02 0.  0.
        254    2    1    2    0    0 -0.97413212463E+03  0.43767217450E+03 -0.12994592278E+04  0.19189298005E+04  0.92369202973E+03 0.  0.
        -24    2    4    4    0    0 -0.25045789800E+03 -0.15531841228E+03  0.12310164765E+02  0.30573249265E+03  0.80422938518E+02 0.  0.
         24    2    4    4    0    0 -0.72367422663E+03  0.59299058678E+03 -0.13117693926E+04  0.16131973078E+04  0.79526048125E+02 0.  0.
         13    1    3    3    0    0  0.86665936170E+03 -0.36785760375E+03 -0.45101519170E+03  0.10439503671E+04  0.00000000000E+00 0.  1.
        -13    1    3    3    0    0  0.10747276293E+03 -0.69814570747E+02 -0.36542427745E+02  0.13326596747E+03  0.00000000000E+00 0. -1.
          4    1    6    6  502    0 -0.53475613201E+03  0.46868759016E+03 -0.95185549033E+03  0.11881334320E+04  0.00000000000E+00 0. -1.
          3    1    5    5  503    0 -0.17919576947E+03 -0.14138033597E+03 -0.13543840288E+02  0.22865467151E+03  0.00000000000E+00 0. -1.
         -4    1    5    5    0  503 -0.71262128529E+02 -0.13938076315E+02  0.25854005053E+02  0.77077821136E+02  0.00000000000E+00 0.  1.
         -3    1    6    6    0  502 -0.18891809462E+03  0.12430299662E+03 -0.35991390224E+03  0.42506387575E+03  0.00000000000E+00 0.  1.
<mgrwt>
<rscale>  0 0.25283773E+04</rscale>
<asrwt>0</asrwt>
<pdfrwt beam="1">  1        1 0.37562792E+00 0.25283773E+04</pdfrwt>
<pdfrwt beam="2">  1       -1 0.10070225E+00 0.25283773E+04</pdfrwt>
<totfact> 0.12356527E+00</totfact>
</mgrwt>
</event>
<event>
12    1  0.1467288E-007  0.1575962E+04  0.7818608E-02  0.8835453E-01
          1   -1    0    0  501    0  0.00000000000E+00  0.00000000000E+00  0.26790420532E+04  0.26790420532E+04  0.00000000000E+00 0. -1.
         -1   -1    0    0    0  501 -0.00000000000E+00 -0.00000000000E+00 -0.23176732296E+03  0.23176732296E+03  0.00000000000E+00 0.  1.
         23    2    1    2    0    0 -0.37179637232E+03  0.33925841667E+03  0.53068841124E+03  0.73674742029E+03  0.88531100328E+02 0.  0.
        254    2    1    2    0    0  0.37179637232E+03 -0.33925841667E+03  0.19165863190E+04  0.21740619559E+04  0.89437880900E+03 0.  0.
        -24    2    4    4    0    0 -0.14568753080E+03  0.85137716553E+02  0.56692821294E+02  0.19585670318E+03  0.81685278871E+02 0.  0.
         24    2    4    4    0    0  0.51748390313E+03 -0.42439613322E+03  0.18598934977E+04  0.19782052527E+04  0.78679927717E+02 0.  0.
         13    1    3    3    0    0 -0.35919517449E+03  0.31588163503E+03  0.52373386296E+03  0.70929510074E+03  0.00000000000E+00 0. -1.
        -13    1    3    3    0    0 -0.12601197838E+02  0.23376781635E+02  0.69545482722E+01  0.27452319542E+02  0.00000000000E+00 0.  1.
          4    1    6    6  502    0  0.46646413445E+02 -0.30212055415E+02  0.10215596039E+03  0.11629486843E+03  0.00000000000E+00 0. -1.
          3    1    5    5  503    0 -0.28945953097E+02 -0.15785981375E+02  0.13312762235E+02  0.35556926850E+02  0.00000000000E+00 0. -1.
         -4    1    5    5    0  503 -0.11674157770E+03  0.10092369793E+03  0.43380059059E+02  0.16029977633E+03  0.00000000000E+00 0.  1.
         -3    1    6    6    0  502  0.47083748968E+03 -0.39418407781E+03  0.17577375373E+04  0.18619103843E+04  0.00000000000E+00 0.  1.
<mgrwt>
<rscale>  0 0.15759624E+04</rscale>
<asrwt>0</asrwt>
<pdfrwt beam="1">  1        1 0.41216030E+00 0.15759624E+04</pdfrwt>
<pdfrwt beam="2">  1       -1 0.35656513E-01 0.15759624E+04</pdfrwt>
<totfact> 0.73489210E+00</totfact>
</mgrwt>
</event>
<event>
12    1  0.1467288E-007  0.1408165E+04  0.7818608E-02  0.8947930E-01
         -1   -1    0    0    0  501 -0.00000000000E+00  0.00000000000E+00  0.16798359100E+03  0.16798359100E+03  0.00000000000E+00 0.  1.
          1   -1    0    0  501    0  0.00000000000E+00 -0.00000000000E+00 -0.29510739105E+04  0.29510739105E+04  0.00000000000E+00 0. -1.
         23    2    1    2    0    0  0.40380100266E+03 -0.15900717117E+03 -0.57270923087E+03  0.72424814353E+03  0.90559262659E+02 0.  0.
        254    2    1    2    0    0 -0.40380100266E+03  0.15900717117E+03 -0.22103810886E+04  0.23948093580E+04  0.81301216090E+03 0.  0.
        -24    2    4    4    0    0 -0.52841304592E+03  0.36327637902E+03 -0.13272864229E+04  0.14763458674E+04  0.81962170055E+02 0.  0.
         24    2    4    4    0    0  0.12461204326E+03 -0.20426920786E+03 -0.88309466577E+03  0.91846349053E+03  0.80404751853E+02 0.  0.
         13    1    3    3    0    0  0.91744175823E+02 -0.11491829923E+02 -0.77668499248E+02  0.12075368205E+03  0.00000000000E+00 0.  1.
        -13    1    3    3    0    0  0.31205682684E+03 -0.14751534124E+03 -0.49504073162E+03  0.60349446149E+03  0.00000000000E+00 0. -1.
          4    1    6    6  502    0  0.47337886649E+01 -0.57264779100E+00 -0.52886877126E+00  0.47975392435E+01  0.00000000000E+00 0. -1.
          3    1    5    5  503    0 -0.11830292763E+03  0.12381084950E+03 -0.33191044526E+03  0.37348260041E+03  0.00000000000E+00 0. -1.
         -2    1    5    5    0  503 -0.41011011829E+03  0.23946552953E+03 -0.99537597761E+03  0.11028632670E+04  0.00000000000E+00 0.  1.
         -3    1    6    6    0  502  0.11987825459E+03 -0.20369656007E+03 -0.88256579700E+03  0.91366595129E+03  0.00000000000E+00 0.  1.
<mgrwt>
<rscale>  0 0.14081648E+04</rscale>
<asrwt>0</asrwt>
<pdfrwt beam="1">  1        1 0.45401135E+00 0.14081648E+04</pdfrwt>
<pdfrwt beam="2">  1       -1 0.25843631E-01 0.14081648E+04</pdfrwt>
<totfact> 0.84253649E+00</totfact>
</mgrwt>
</event>
<event>
12    1  0.1467288E-007  0.1341205E+04  0.7818608E-02  0.8997513E-01
          1   -1    0    0  501    0  0.00000000000E+00  0.00000000000E+00  0.12974222924E+04  0.12974222924E+04  0.00000000000E+00 0. -1.
         -1   -1    0    0    0  501 -0.00000000000E+00 -0.00000000000E+00 -0.34661636974E+03  0.34661636974E+03  0.00000000000E+00 0.  1.
         23    2    1    2    0    0 -0.34927775944E+03 -0.12019881954E+03  0.28572784932E+03  0.47631222919E+03  0.93756206950E+02 0.  0.
        254    2    1    2    0    0  0.34927775944E+03  0.12019881954E+03  0.66507807336E+03  0.11677264330E+04  0.88589698563E+03 0.  0.
        -24    2    4    4    0    0 -0.12956234614E+03  0.27655400747E+02  0.65522812114E+03  0.67347762427E+03  0.81835181526E+02 0.  0.
         24    2    4    4    0    0  0.47884010558E+03  0.92543418798E+02  0.98499522186E+01  0.49424880871E+03  0.79578466161E+02 0.  0.
         13    1    3    3    0    0 -0.25076220175E+03 -0.12504544328E+03  0.23324525695E+03  0.36458386498E+03  0.00000000000E+00 0.  1.
        -13    1    3    3    0    0 -0.98515557687E+02  0.48466237356E+01  0.52482592373E+02  0.11172836421E+03  0.00000000000E+00 0. -1.
          4    1    6    6  502    0  0.47277306026E+03  0.98046265443E+02  0.17347974928E+02  0.48314427339E+03  0.00000000000E+00 0. -1.
          3    1    5    5  503    0 -0.10916606201E+03 -0.60903270040E+01  0.55702355955E+03  0.56765268173E+03  0.00000000000E+00 0. -1.
         -4    1    5    5    0  503 -0.20396284129E+02  0.33745727751E+02  0.98204561587E+02  0.10582494254E+03  0.00000000000E+00 0.  1.
         -1    1    6    6    0  502  0.60670453208E+01 -0.55028466450E+01 -0.74980227093E+01  0.11104535320E+02  0.00000000000E+00 0.  1.
<mgrwt>
<rscale>  0 0.13412051E+04</rscale>
<asrwt>0</asrwt>
<pdfrwt beam="1">  1        1 0.19960343E+00 0.13412051E+04</pdfrwt>
<pdfrwt beam="2">  1       -1 0.53325596E-01 0.13412051E+04</pdfrwt>
<totfact> 0.31558740E+01</totfact>
</mgrwt>
</event>
<event>
12    1  0.1467288E-007  0.2484553E+04  0.7818608E-02  0.8408509E-01
         -1   -1    0    0    0  501 -0.00000000000E+00  0.00000000000E+00  0.15616896436E+04  0.15616896436E+04  0.00000000000E+00 0.  1.
          1   -1    0    0  501    0  0.00000000000E+00 -0.00000000000E+00 -0.98819347056E+03  0.98819347056E+03  0.00000000000E+00 0. -1.
         23    2    1    2    0    0  0.96018914809E+03  0.46812403650E+03  0.93668675322E+02  0.10764663653E+04  0.94354127077E+02 0.  0.
        254    2    1    2    0    0 -0.96018914809E+03 -0.46812403650E+03  0.47982749769E+03  0.14734167488E+04  0.89421427770E+03 0.  0.
        -24    2    4    4    0    0 -0.90263785869E+03 -0.33907826209E+03  0.70427945283E+03  0.11965030814E+04  0.76687054590E+02 0.  0.
         24    2    4    4    0    0 -0.57551289397E+02 -0.12904577441E+03 -0.22445195514E+03  0.27691366740E+03  0.79608644133E+02 0.  0.
         11    1    3    3    0    0  0.13865736518E+03  0.71686207341E+02  0.47318484071E+02  0.16310676312E+03  0.00000000000E+00 0.  1.
        -11    1    3    3    0    0  0.82153178291E+03  0.39643782916E+03  0.46350191251E+02  0.91335960221E+03  0.00000000000E+00 0. -1.
          2    1    6    6  502    0 -0.55634444849E+02 -0.73996364912E+02 -0.19155962079E+03  0.21275747177E+03  0.00000000000E+00 0. -1.
          3    1    5    5  503    0 -0.40762933666E+03 -0.18633801695E+03  0.35429007709E+03  0.57131864260E+03  0.00000000000E+00 0. -1.
         -4    1    5    5    0  503 -0.49500852204E+03 -0.15274024514E+03  0.34998937574E+03  0.62518443879E+03  0.00000000000E+00 0.  1.
         -1    1    6    6    0  502 -0.19168445474E+01 -0.55049409499E+02 -0.32892334350E+02  0.64156195634E+02  0.00000000000E+00 0.  1.
<mgrwt>
<rscale>  0 0.24845535E+04</rscale>
<asrwt>0</asrwt>
<pdfrwt beam="1">  1        1 0.15202977E+00 0.24845535E+04</pdfrwt>
<pdfrwt beam="2">  1       -1 0.24025994E+00 0.24845535E+04</pdfrwt>
<totfact> 0.11103904E+00</totfact>
</mgrwt>
</event>
<event>
12    1  0.1467288E-007  0.1841163E+04  0.7818608E-02  0.8684711E-01
          1   -1    0    0  501    0  0.00000000000E+00  0.00000000000E+00  0.27485173103E+04  0.27485173103E+04  0.00000000000E+00 0. -1.
         -1   -1    0    0    0  501 -0.00000000000E+00 -0.00000000000E+00 -0.30833724153E+03  0.30833724153E+03  0.00000000000E+00 0.  1.
         23    2    1    2    0    0 -0.44826272760E+02  0.40268618322E+03 -0.92373704588E+01  0.41461339512E+03  0.87483607135E+02 0.  0.
        254    2    1    2    0    0  0.44826272760E+02 -0.40268618322E+03  0.24494174393E+04  0.26422411568E+04  0.90422728433E+03 0.  0.
        -24    2    4    4    0    0  0.25588264853E+03 -0.49925742234E+03  0.83664531127E+03  0.10108977856E+04  0.84882581052E+02 0.  0.
         24    2    4    4    0    0 -0.21105637577E+03  0.96571239123E+02  0.16127721280E+04  0.16313433711E+04  0.79852737052E+02 0.  0.
         11    1    3    3    0    0 -0.40273063779E+02  0.35276940265E+03  0.21678366680E+02  0.35572197387E+03  0.00000000000E+00 0.  1.
        -11    1    3    3    0    0 -0.45532089803E+01  0.49916780571E+02 -0.30915737138E+02  0.58891421255E+02  0.00000000000E+00 0. -1.
          4    1    6    6  502    0 -0.98101274977E+02  0.69859964757E+02  0.10384059127E+04  0.10453664977E+04  0.00000000000E+00 0. -1.
          1    1    5    5  503    0  0.18099189626E+02 -0.30240957665E+02  0.98379030137E+02  0.10450133854E+03  0.00000000000E+00 0. -1.
         -2    1    5    5    0  503  0.23778345891E+03 -0.46901646468E+03  0.73826628113E+03  0.90639644711E+03  0.00000000000E+00 0.  1.
         -3    1    6    6    0  502 -0.11295510079E+03  0.26711274366E+02  0.57436621526E+03  0.58597687344E+03  0.00000000000E+00 0.  1.
<mgrwt>
<rscale>  0 0.18411629E+04</rscale>
<asrwt>0</asrwt>
<pdfrwt beam="1">  1        1 0.42284880E+00 0.18411629E+04</pdfrwt>
<pdfrwt beam="2">  1       -1 0.47436500E-01 0.18411629E+04</pdfrwt>
<totfact> 0.37882405E+00</totfact>
</mgrwt>
</event>
<event>
12    1  0.1467288E-007  0.1223568E+04  0.7818608E-02  0.9092474E-01
          2   -1    0    0  501    0  0.00000000000E+00  0.00000000000E+00  0.23398223991E+04  0.23398223991E+04  0.00000000000E+00 0. -1.
         -2   -1    0    0    0  501 -0.00000000000E+00 -0.00000000000E+00 -0.15996064402E+03  0.15996064402E+03  0.00000000000E+00 0.  1.
         23    2    1    2    0    0  0.25065626454E+02  0.14874200198E+03  0.58909882145E+02  0.19089988346E+03  0.10109363237E+03 0.  0.
        254    2    1    2    0    0 -0.25065626454E+02 -0.14874200198E+03  0.21209518729E+04  0.23088831597E+04  0.89986228331E+03 0.  0.
        -24    2    4    4    0    0  0.32797858083E+03 -0.15361187156E+02  0.31435067911E+03  0.46162027908E+03  0.80442632037E+02 0.  0.
         24    2    4    4    0    0 -0.35304420729E+03 -0.13338081483E+03  0.18066011938E+04  0.18472628806E+04  0.78368503859E+02 0.  0.
         11    1    3    3    0    0 -0.11818952859E+02  0.14377279198E+03  0.49459779810E+02  0.15250105960E+03  0.00000000000E+00 0.  1.
        -11    1    3    3    0    0  0.36884579313E+02  0.49692100026E+01  0.94501023347E+01  0.38398823853E+02  0.00000000000E+00 0. -1.
          2    1    6    6  502    0 -0.44201788869E+02 -0.53612224542E+01  0.34801113224E+03  0.35084795711E+03  0.00000000000E+00 0. -1.
          1    1    5    5  503    0  0.12874661731E+02 -0.18754435524E+02  0.25069660451E+02  0.33852232447E+02  0.00000000000E+00 0. -1.
         -2    1    5    5    0  503  0.31510391910E+03  0.33932483683E+01  0.28928101866E+03  0.42776804664E+03  0.00000000000E+00 0.  1.
         -1    1    6    6    0  502 -0.30884241842E+03 -0.12801959237E+03  0.14585900616E+04  0.14964149235E+04  0.00000000000E+00 0.  1.
<mgrwt>
<rscale>  0 0.12235677E+04</rscale>
<asrwt>0</asrwt>
<pdfrwt beam="1">  1        2 0.35997265E+00 0.12235677E+04</pdfrwt>
<pdfrwt beam="2">  1       -2 0.24609332E-01 0.12235677E+04</pdfrwt>
<totfact> 0.62842156E+01</totfact>
</mgrwt>
</event>
<event>
12    1  0.1467288E-007  0.2146180E+04  0.7818608E-02  0.8541169E-01
          1   -1    0    0  501    0  0.00000000000E+00  0.00000000000E+00  0.65693109104E+03  0.65693109104E+03  0.00000000000E+00 0. -1.
         -1   -1    0    0    0  501 -0.00000000000E+00 -0.00000000000E+00 -0.17528816817E+04  0.17528816817E+04  0.00000000000E+00 0.  1.
         23    2    1    2    0    0 -0.31490769397E+03  0.74144443383E+03 -0.61122085786E+02  0.81303364113E+03  0.91548282619E+02 0.  0.
        254    2    1    2    0    0  0.31490769397E+03 -0.74144443383E+03 -0.10348285049E+04  0.15967791316E+04  0.91100321432E+03 0.  0.
        -24    2    4    4    0    0  0.17620625818E+03  0.18928019184E+03 -0.25968149066E+03  0.37506207832E+03  0.79758695791E+02 0.  0.
         24    2    4    4    0    0  0.13870143579E+03 -0.93072462567E+03 -0.77514701422E+03  0.12217170533E+04  0.79077478317E+02 0.  0.
         13    1    3    3    0    0 -0.14323627074E+03  0.29070674530E+03 -0.65784050098E+02  0.33068804373E+03  0.00000000000E+00 0. -1.
        -13    1    3    3    0    0 -0.17167142323E+03  0.45073768853E+03  0.46619643122E+01  0.48234559740E+03  0.00000000000E+00 0.  1.
          2    1    6    6  502    0  0.35393480093E+02 -0.21704148581E+03 -0.22575625334E+03  0.31515962768E+03  0.00000000000E+00 0. -1.
          3    1    5    5  503    0  0.29142308124E+02  0.55312854345E+02 -0.10840956952E+03  0.12514559817E+03  0.00000000000E+00 0. -1.
         -4    1    5    5    0  503  0.14706395005E+03  0.13396733749E+03 -0.15127192114E+03  0.24991648014E+03  0.00000000000E+00 0.  1.
         -1    1    6    6    0  502  0.10330795570E+03 -0.71368313986E+03 -0.54939076088E+03  0.90655742563E+03  0.00000000000E+00 0.  1.
<mgrwt>
<rscale>  0 0.21461803E+04</rscale>
<asrwt>0</asrwt>
<pdfrwt beam="1">  1        1 0.10106632E+00 0.21461803E+04</pdfrwt>
<pdfrwt beam="2">  1       -1 0.26967410E+00 0.21461803E+04</pdfrwt>
<totfact> 0.14259680E+00</totfact>
</mgrwt>
</event>
<event>
12    1  0.1467288E-007  0.1615182E+04  0.7818608E-02  0.8811275E-01
          1   -1    0    0  501    0  0.00000000000E+00  0.00000000000E+00  0.65855379602E+03  0.65855379602E+03  0.00000000000E+00 0. -1.
         -1   -1    0    0    0  501 -0.00000000000E+00 -0.00000000000E+00 -0.99035657789E+03  0.99035657789E+03  0.00000000000E+00 0.  1.
         23    2    1    2    0    0 -0.15118581151E+03 -0.21225072390E+03  0.34304281239E+03  0.44020464751E+03  0.90522047916E+02 0.  0.
        254    2    1    2    0    0  0.15118581151E+03  0.21225072390E+03 -0.67484559425E+03  0.12087057264E+04  0.96832093726E+03 0.  0.
        -24    2    4    4    0    0  0.23846987354E+03  0.43851600877E+03 -0.78246627713E+03  0.93142042378E+03  0.78271070377E+02 0.  0.
         24    2    4    4    0    0 -0.87284062026E+02 -0.22626528487E+03  0.10762068287E+03  0.27728530262E+03  0.80563273552E+02 0.  0.
         13    1    3    3    0    0 -0.12786482110E+03 -0.17685860729E+03  0.33040740636E+03  0.39597655692E+03  0.00000000000E+00 0. -1.
        -13    1    3    3    0    0 -0.23320990415E+02 -0.35392116613E+02  0.12635406024E+02  0.44228090595E+02  0.00000000000E+00 0.  1.
          4    1    6    6  502    0 -0.67300699361E+02 -0.71341405586E+02  0.55044494991E+02  0.11246722507E+03  0.00000000000E+00 0. -1.
          1    1    5    5  503    0  0.99989861852E+02  0.15906107958E+03 -0.36269049449E+03  0.40846394493E+03  0.00000000000E+00 0. -1.
         -2    1    5    5    0  503  0.13848001169E+03  0.27945492920E+03 -0.41977578263E+03  0.52295647885E+03  0.00000000000E+00 0.  1.
         -3    1    6    6    0  502 -0.19983362666E+02 -0.15492387928E+03  0.52576187881E+02  0.16481807755E+03  0.00000000000E+00 0.  1.
<mgrwt>
<rscale>  0 0.16151818E+04</rscale>
<asrwt>0</asrwt>
<pdfrwt beam="1">  1        1 0.10131597E+00 0.16151818E+04</pdfrwt>
<pdfrwt beam="2">  1       -1 0.15236255E+00 0.16151818E+04</pdfrwt>
<totfact> 0.95737563E+00</totfact>
</mgrwt>
</event>
<event>
12    1  0.1467288E-007  0.1052779E+04  0.7818608E-02  0.9252480E-01
          2   -1    0    0  501    0  0.00000000000E+00  0.00000000000E+00  0.90014269722E+03  0.90014269722E+03  0.00000000000E+00 0.  1.
         -2   -1    0    0    0  501 -0.00000000000E+00 -0.00000000000E+00 -0.30782437476E+03  0.30782437476E+03  0.00000000000E+00 0. -1.
         23    2    1    2    0    0 -0.52370415500E+02 -0.46819112073E+02 -0.20490164165E+02  0.11641713544E+03  0.90545087778E+02 0.  0.
        254    2    1    2    0    0  0.52370415500E+02  0.46819112073E+02  0.61280848662E+03  0.10915499366E+04  0.90056223163E+03 0.  0.
        -24    2    4    4    0    0  0.36986146062E+03 -0.13190232482E+02 -0.17090649795E+02  0.37911457292E+03  0.80400788563E+02 0.  0.
         24    2    4    4    0    0 -0.31749104512E+03  0.60009344555E+02  0.62989913642E+03  0.71243536363E+03  0.79934599063E+02 0.  0.
         13    1    3    3    0    0 -0.70859878077E+02 -0.58208950657E+02 -0.23037184130E+02  0.94552187231E+02  0.00000000000E+00 0. -1.
        -13    1    3    3    0    0  0.18489462576E+02  0.11389838583E+02  0.25470199647E+01  0.21864948205E+02  0.00000000000E+00 0.  1.
          4    1    6    6  502    0 -0.25415857941E+03  0.14721698912E+02  0.46698748997E+03  0.53187463532E+03  0.00000000000E+00 0. -1.
          3    1    5    5  503    0  0.35909432238E+03 -0.62220914594E+01 -0.30646235301E+02  0.36045337913E+03  0.00000000000E+00 0. -1.
         -4    1    5    5    0  503  0.10767138246E+02 -0.69681410227E+01  0.13555585506E+02  0.18661193792E+02  0.00000000000E+00 0.  1.
         -3    1    6    6    0  502 -0.63332465716E+02  0.45287645644E+02  0.16291164645E+03  0.18056072832E+03  0.00000000000E+00 0.  1.
<mgrwt>
<rscale>  0 0.10527789E+04</rscale>
<asrwt>0</asrwt>
<pdfrwt beam="1">  1        2 0.13848349E+00 0.10527789E+04</pdfrwt>
<pdfrwt beam="2">  1       -2 0.47357597E-01 0.10527789E+04</pdfrwt>
<totfact> 0.12329690E+02</totfact>
</mgrwt>
</event>
<event>
12    1  0.1834705E-007  0.1589144E+04  0.7818608E-02  0.8827245E-01
         -1   -1    0    0    0  501 -0.00000000000E+00  0.00000000000E+00  0.38205965584E+03  0.38205965584E+03  0.00000000000E+00 0.  1.
          1   -1    0    0  501    0  0.00000000000E+00 -0.00000000000E+00 -0.16524759770E+04  0.16524759770E+04  0.00000000000E+00 0. -1.
         23    2    1    2    0    0  0.52430681933E+03  0.41601524373E+02 -0.59044269394E+03  0.79707225621E+03  0.10036572710E+03 0.  0.
        254    2    1    2    0    0 -0.52430681933E+03 -0.41601524373E+02 -0.67997362720E+03  0.12374633766E+04  0.89012535472E+03 0.  0.
        -24    2    4    4    0    0 -0.50059649559E+03  0.12821182565E+03  0.91634896525E+01  0.52303142867E+03  0.80266943358E+02 0.  0.
         24    2    4    4    0    0 -0.23710323731E+02 -0.16981335002E+03 -0.68913711685E+03  0.71443194793E+03  0.78129950085E+02 0.  0.
         13    1    3    3    0    0  0.52625423354E+03  0.48146472865E+02 -0.58050273621E+03  0.78501275654E+03  0.00000000000E+00 0.  1.
        -13    1    3    3    0    0 -0.19474142171E+01 -0.65449484915E+01 -0.99399577271E+01  0.12059499679E+02  0.00000000000E+00 0. -1.
          2    1    6    6  502    0 -0.26257927960E+02 -0.94019813224E+01 -0.94028731791E+02  0.98077920225E+02  0.00000000000E+00 0. -1.
          1    1    5    5  503    0  0.26400336972E+01  0.20452520944E+01 -0.23650218052E+01  0.40922074961E+01  0.00000000000E+00 0. -1.
         -2    1    5    5    0  503 -0.50323652929E+03  0.12616657356E+03  0.11528511458E+02  0.51893922117E+03  0.00000000000E+00 0.  1.
         -1    1    6    6    0  502  0.25476042289E+01 -0.16041136870E+03 -0.59510838506E+03  0.61635402770E+03  0.00000000000E+00 0.  1.
<mgrwt>
<rscale>  0 0.15891437E+04</rscale>
<asrwt>0</asrwt>
<pdfrwt beam="1">  1        1 0.25422707E+00 0.15891437E+04</pdfrwt>
<pdfrwt beam="2">  1       -1 0.58778408E-01 0.15891437E+04</pdfrwt>
<totfact> 0.14470150E+01</totfact>
</mgrwt>
</event>
<event>
12    1  0.1467288E-007  0.1263875E+04  0.7818608E-02  0.9058714E-01
          2   -1    0    0  501    0  0.00000000000E+00  0.00000000000E+00  0.38529896687E+04  0.38529896687E+04  0.00000000000E+00 0. -1.
         -2   -1    0    0    0  501 -0.00000000000E+00 -0.00000000000E+00 -0.10364546147E+03  0.10364546147E+03  0.00000000000E+00 0.  1.
         23    2    1    2    0    0  0.25823651432E+03 -0.17142231521E+03  0.61928519083E+03  0.69859864217E+03  0.91946765968E+02 0.  0.
        254    2    1    2    0    0 -0.25823651432E+03  0.17142231521E+03  0.31300590164E+04  0.32580364880E+04  0.84938837029E+03 0.  0.
        -24    2    4    4    0    0 -0.27308287830E+03 -0.18733604828E+03  0.51723371265E+03  0.61946115338E+03  0.80822977159E+02 0.  0.
         24    2    4    4    0    0  0.14846363982E+02  0.35875836349E+03  0.26128253037E+04  0.26385753346E+04  0.79345766988E+02 0.  0.
         13    1    3    3    0    0  0.13329209262E+03 -0.74052451208E+02  0.20832188937E+03  0.25816381829E+03  0.00000000000E+00 0. -1.
        -13    1    3    3    0    0  0.12494442169E+03 -0.97369864005E+02  0.41096330147E+03  0.44043482388E+03  0.00000000000E+00 0.  1.
          4    1    6    6  502    0  0.29020684161E+02  0.19019871001E+03  0.11473676554E+04  0.11633874188E+04  0.00000000000E+00 0. -1.
          1    1    5    5  503    0 -0.27433610377E+03 -0.18982429512E+03  0.49420888117E+03  0.59626837840E+03  0.00000000000E+00 0. -1.
         -2    1    5    5    0  503  0.12532254762E+01  0.24882468423E+01  0.23024831481E+02  0.23192774978E+02  0.00000000000E+00 0.  1.
         -3    1    6    6    0  502 -0.14174320180E+02  0.16855965348E+03  0.14654576483E+04  0.14751879158E+04  0.00000000000E+00 0.  1.
<mgrwt>
<rscale>  0 0.12638748E+04</rscale>
<asrwt>0</asrwt>
<pdfrwt beam="1">  1        2 0.59276753E+00 0.12638748E+04</pdfrwt>
<pdfrwt beam="2">  1       -2 0.15945459E-01 0.12638748E+04</pdfrwt>
<totfact> 0.14352287E+01</totfact>
</mgrwt>
</event>
<event>
12    1  0.1467288E-007  0.1447698E+04  0.7818608E-02  0.8919998E-01
         -2   -1    0    0    0  501 -0.00000000000E+00  0.00000000000E+00  0.27061378345E+03  0.27061378345E+03  0.00000000000E+00 0. -1.
          2   -1    0    0  501    0  0.00000000000E+00 -0.00000000000E+00 -0.19361812421E+04  0.19361812421E+04  0.00000000000E+00 0.  1.
         23    2    1    2    0    0  0.22471416784E+03  0.24291197789E+03 -0.95269540023E+03  0.10128194046E+04  0.93123221769E+02 0.  0.
        254    2    1    2    0    0 -0.22471416784E+03 -0.24291197789E+03 -0.71287205847E+03  0.11939756210E+04  0.89882619322E+03 0.  0.
        -24    2    4    4    0    0 -0.34117030684E+03 -0.51228021661E+03 -0.61643157789E+03  0.87475199007E+03  0.79843317194E+02 0.  0.
         24    2    4    4    0    0  0.11645613900E+03  0.26936823873E+03 -0.96440480576E+02  0.31922363095E+03  0.80508881001E+02 0.  0.
         13    1    3    3    0    0  0.17816959559E+03  0.22122379900E+03 -0.70921540031E+03  0.76398354568E+03  0.00000000000E+00 0.  1.
        -13    1    3    3    0    0  0.46544572248E+02  0.21688178890E+02 -0.24347999992E+03  0.24883585889E+03  0.00000000000E+00 0. -1.
          2    1    6    6  502    0 -0.23102632801E+01  0.13460897154E+02 -0.24535154104E+02  0.28080364234E+02  0.00000000000E+00 0. -1.
          1    1    5    5  503    0 -0.11852930266E+03 -0.21173491879E+03 -0.29164058200E+03  0.37938779698E+03  0.00000000000E+00 0. -1.
         -2    1    5    5    0  503 -0.22264100417E+03 -0.30054529782E+03 -0.32479099589E+03  0.49536419309E+03  0.00000000000E+00 0.  1.
         -1    1    6    6    0  502  0.11876640228E+03  0.25590734157E+03 -0.71905326472E+02  0.29114326672E+03  0.00000000000E+00 0.  1.
<mgrwt>
<rscale>  0 0.14476979E+04</rscale>
<asrwt>0</asrwt>
<pdfrwt beam="1">  1        2 0.29787404E+00 0.14476979E+04</pdfrwt>
<pdfrwt beam="2">  1       -2 0.41632889E-01 0.14476979E+04</pdfrwt>
<totfact> 0.38453155E+01</totfact>
</mgrwt>
</event>
<event>
12    1  0.1467288E-007  0.3123672E+04  0.7818608E-02  0.8209271E-01
         -1   -1    0    0    0  501 -0.00000000000E+00  0.00000000000E+00  0.72023059183E+03  0.72023059183E+03  0.00000000000E+00 0.  1.
          1   -1    0    0  501    0  0.00000000000E+00 -0.00000000000E+00 -0.33868761308E+04  0.33868761308E+04  0.00000000000E+00 0. -1.
         23    2    1    2    0    0  0.73740168297E+03 -0.84177870274E+03 -0.23999413081E+04  0.26497260575E+04  0.94748462621E+02 0.  0.
        254    2    1    2    0    0 -0.73740168297E+03  0.84177870274E+03 -0.26670423088E+03  0.14573806651E+04  0.89469247782E+03 0.  0.
        -24    2    4    4    0    0 -0.76101257566E+03  0.59083744412E+03 -0.51440934849E+03  0.10951148734E+04  0.80190911917E+02 0.  0.
         24    2    4    4    0    0  0.23610892687E+02  0.25094125861E+03  0.24770511761E+03  0.36226579176E+03  0.79684936240E+02 0.  0.
         11    1    3    3    0    0  0.71578937514E+03 -0.83385168033E+03 -0.23654354259E+04  0.26082461173E+04  0.00000000000E+00 0.  1.
        -11    1    3    3    0    0  0.21612307835E+02 -0.79270224019E+01 -0.34505882241E+02  0.41479940253E+02  0.00000000000E+00 0. -1.
          2    1    6    6  502    0 -0.19873341946E+02  0.39022181037E+02  0.19880211372E+02  0.48092651593E+02  0.00000000000E+00 0. -1.
          1    1    5    5  503    0 -0.39595334867E+03  0.28010005675E+03 -0.29697599083E+03  0.56870891960E+03  0.00000000000E+00 0. -1.
         -2    1    5    5    0  503 -0.36505922699E+03  0.31073738737E+03 -0.21743335766E+03  0.52640595375E+03  0.00000000000E+00 0.  1.
         -1    1    6    6    0  502  0.43484234633E+02  0.21191907758E+03  0.22782490624E+03  0.31417314017E+03  0.00000000000E+00 0.  1.
<mgrwt>
<rscale>  0 0.31236721E+04</rscale>
<asrwt>0</asrwt>
<pdfrwt beam="1">  1        1 0.52105786E+00 0.31236721E+04</pdfrwt>
<pdfrwt beam="2">  1       -1 0.11080471E+00 0.31236721E+04</pdfrwt>
<totfact> 0.19326005E-01</totfact>
</mgrwt>
</event>
<event>
12    1  0.1467288E-007  0.1446640E+04  0.7818608E-02  0.8920733E-01
          3   -1    0    0  501    0  0.00000000000E+00  0.00000000000E+00  0.41507417223E+03  0.41507417223E+03  0.00000000000E+00 0. -1.
         -3   -1    0    0    0  501 -0.00000000000E+00 -0.00000000000E+00 -0.12604774057E+04  0.12604774057E+04  0.00000000000E+00 0.  1.
         23    2    1    2    0    0  0.41343963942E+03 -0.12775837380E+03 -0.34036251842E+03  0.55818197341E+03  0.92010510147E+02 0.  0.
        254    2    1    2    0    0 -0.41343963942E+03  0.12775837380E+03 -0.50504071503E+03  0.11173696045E+04  0.89788316150E+03 0.  0.
        -24    2    4    4    0    0 -0.59336931847E+03 -0.10961844823E+03 -0.53161133305E+03  0.80826583000E+03  0.81115289740E+02 0.  0.
         24    2    4    4    0    0  0.17992967906E+03  0.23737682203E+03  0.26570618013E+02  0.30910377450E+03  0.78209338472E+02 0.  0.
         11    1    3    3    0    0  0.19006288350E+03 -0.84038386266E+02 -0.11337101222E+03  0.23672629018E+03  0.00000000000E+00 0. -1.
        -11    1    3    3    0    0  0.22337675592E+03 -0.43719987536E+02 -0.22699150620E+03  0.32145568323E+03  0.00000000000E+00 0.  1.
          2    1    6    6  502    0  0.73101224085E+02  0.40956874116E+02  0.15679375387E+02  0.85247271585E+02  0.00000000000E+00 0. -1.
          1    1    5    5  503    0 -0.48782181870E+03 -0.58402233311E+02 -0.43749148107E+03  0.65785997269E+03  0.00000000000E+00 0. -1.
         -2    1    5    5    0  503 -0.10554749977E+03 -0.51216214916E+02 -0.94119851978E+02  0.15040585732E+03  0.00000000000E+00 0.  1.
         -1    1    6    6    0  502  0.10682845497E+03  0.19641994791E+03  0.10891242626E+02  0.22385650291E+03  0.00000000000E+00 0.  1.
<mgrwt>
<rscale>  0 0.14466397E+04</rscale>
<asrwt>0</asrwt>
<pdfrwt beam="1">  1        3 0.63857566E-01 0.14466397E+04</pdfrwt>
<pdfrwt beam="2">  1       -3 0.19391960E+00 0.14466397E+04</pdfrwt>
<totfact> 0.96826640E-01</totfact>
</mgrwt>
</event>
<event>
12    1  0.1467288E-007  0.1984279E+04  0.7818608E-02  0.8614006E-01
         -2   -1    0    0    0  501 -0.00000000000E+00  0.00000000000E+00  0.82633350076E+03  0.82633350076E+03  0.00000000000E+00 0.  1.
          2   -1    0    0  501    0  0.00000000000E+00 -0.00000000000E+00 -0.11912144449E+04  0.11912144449E+04  0.00000000000E+00 0. -1.
         23    2    1    2    0    0 -0.57775400242E+03 -0.36463394719E+03  0.17987352196E+03  0.71280685235E+03  0.94770892680E+02 0.  0.
        254    2    1    2    0    0  0.57775400242E+03  0.36463394719E+03 -0.54475446610E+03  0.13047410933E+04  0.96893461569E+03 0.  0.
        -24    2    4    4    0    0  0.69827007963E+03  0.29161599756E+03 -0.25964054711E+02  0.76107073544E+03  0.77029462307E+02 0.  0.
         24    2    4    4    0    0 -0.12051607721E+03  0.73017949626E+02 -0.51879041139E+03  0.54367035787E+03  0.81106234331E+02 0.  0.
         13    1    3    3    0    0 -0.87103720857E+02 -0.96861152351E+02  0.23349582303E+02  0.13234176973E+03  0.00000000000E+00 0. -1.
        -13    1    3    3    0    0 -0.49065028157E+03 -0.26777279484E+03  0.15652393966E+03  0.58046508262E+03  0.00000000000E+00 0.  1.
          4    1    6    6  502    0 -0.65306246371E+02  0.31381006861E+02 -0.39752755688E+03  0.40407651737E+03  0.00000000000E+00 0. -1.
          3    1    5    5  503    0  0.70036895843E+03  0.29037753507E+03 -0.25644320182E+02  0.75861282745E+03  0.00000000000E+00 0. -1.
         -4    1    5    5    0  503 -0.20988787976E+01  0.12384624884E+01 -0.31973452898E+00  0.24579079948E+01  0.00000000000E+00 0.  1.
         -3    1    6    6    0  502 -0.55209830840E+02  0.41636942765E+02 -0.12126285450E+03  0.13959384050E+03  0.00000000000E+00 0.  1.
<mgrwt>
<rscale>  0 0.19842786E+04</rscale>
<asrwt>0</asrwt>
<pdfrwt beam="1">  1        2 0.18326376E+00 0.19842786E+04</pdfrwt>
<pdfrwt beam="2">  1       -2 0.12712823E+00 0.19842786E+04</pdfrwt>
<totfact> 0.81967057E+00</totfact>
</mgrwt>
</event>
<event>
12    1  0.1467288E-007  0.1529889E+04  0.7818608E-02  0.8864817E-01
          2   -1    0    0  501    0  0.00000000000E+00  0.00000000000E+00  0.22275268528E+04  0.22275268528E+04  0.00000000000E+00 0. -1.
         -2   -1    0    0    0  501 -0.00000000000E+00 -0.00000000000E+00 -0.26268584538E+03  0.26268584538E+03  0.00000000000E+00 0.  1.
         23    2    1    2    0    0  0.33678222162E+03 -0.36067648452E+03  0.56505339510E+03  0.75580338357E+03  0.91889194156E+02 0.  0.
        254    2    1    2    0    0 -0.33678222162E+03  0.36067648452E+03  0.13997876124E+04  0.17344093146E+04  0.89736309248E+03 0.  0.
        -24    2    4    4    0    0 -0.12389560246E+03  0.20183884206E+03 -0.49942547556E+02  0.25809453401E+03  0.89607432480E+02 0.  0.
         24    2    4    4    0    0 -0.21288661916E+03  0.15883764246E+03  0.14497301599E+04  0.14763147806E+04  0.85074588969E+02 0.  0.
         13    1    3    3    0    0  0.24891371095E+03 -0.21936074924E+03  0.41852741423E+03  0.53408086491E+03  0.00000000000E+00 0.  1.
        -13    1    3    3    0    0  0.87868510674E+02 -0.14131573528E+03  0.14652598087E+03  0.22172251865E+03  0.00000000000E+00 0. -1.
          4    1    6    6  502    0 -0.59066958467E+02  0.15183929666E+02  0.20367886231E+03  0.21261358436E+03  0.00000000000E+00 0. -1.
          3    1    5    5  503    0  0.29590791033E+01  0.58885049192E+02  0.51663987670E+01  0.59185275565E+02  0.00000000000E+00 0. -1.
         -4    1    5    5    0  503 -0.12685468156E+03  0.14295379287E+03 -0.55108946323E+02  0.19890925845E+03  0.00000000000E+00 0.  1.
         -3    1    6    6    0  502 -0.15381966070E+03  0.14365371279E+03  0.12460512976E+04  0.12637011963E+04  0.00000000000E+00 0.  1.
<mgrwt>
<rscale>  0 0.15298886E+04</rscale>
<asrwt>0</asrwt>
<pdfrwt beam="1">  1        2 0.34269643E+00 0.15298886E+04</pdfrwt>
<pdfrwt beam="2">  1       -2 0.40413208E-01 0.15298886E+04</pdfrwt>
<totfact> 0.27871554E+01</totfact>
</mgrwt>
</event>
<event>
12    1  0.1467288E-007  0.2472594E+04  0.7818608E-02  0.8412815E-01
          2   -1    0    0  501    0  0.00000000000E+00  0.00000000000E+00  0.98013304572E+03  0.98013304572E+03  0.00000000000E+00 0.  1.
         -2   -1    0    0    0  501 -0.00000000000E+00 -0.00000000000E+00 -0.15594108360E+04  0.15594108360E+04  0.00000000000E+00 0. -1.
         23    2    1    2    0    0 -0.65490773559E+03 -0.47794061196E+03 -0.95759821585E+03  0.12581170510E+04  0.92373157877E+02 0.  0.
        254    2    1    2    0    0  0.65490773559E+03  0.47794061196E+03  0.37832042554E+03  0.12814268308E+04  0.91738596432E+03 0.  0.
        -24    2    4    4    0    0 -0.11727484631E+03  0.31146936762E+03 -0.98021719250E+02  0.35552233213E+03  0.77597130467E+02 0.  0.
         24    2    4    4    0    0  0.77218258190E+03  0.16647124434E+03  0.47634214479E+03  0.92590449863E+03  0.80116706827E+02 0.  0.
         13    1    3    3    0    0 -0.27345227541E+02 -0.61024104370E+01 -0.55618954432E+02  0.62277355231E+02  0.00000000000E+00 0.  1.
        -13    1    3    3    0    0 -0.62756250805E+03 -0.47183820153E+03 -0.90197926142E+03  0.11958396958E+04  0.00000000000E+00 0. -1.
          4    1    6    6  502    0  0.33481246462E+03  0.75103209275E+02  0.25342256405E+03  0.42657106615E+03  0.00000000000E+00 0. -1.
          1    1    5    5  503    0 -0.62347430920E+01  0.12176692569E+03 -0.34064286272E+02  0.12659554421E+03  0.00000000000E+00 0. -1.
         -2    1    5    5    0  503 -0.11104010322E+03  0.18970244193E+03 -0.63957432978E+02  0.22892678792E+03  0.00000000000E+00 0.  1.
         -3    1    6    6    0  502  0.43737011728E+03  0.91368035068E+02  0.22291958074E+03  0.49933343249E+03  0.00000000000E+00 0.  1.
<mgrwt>
<rscale>  0 0.24725939E+04</rscale>
<asrwt>0</asrwt>
<pdfrwt beam="1">  1        2 0.15078970E+00 0.24725939E+04</pdfrwt>
<pdfrwt beam="2">  1       -2 0.23990936E+00 0.24725939E+04</pdfrwt>
<totfact> 0.17198928E+00</totfact>
</mgrwt>
</event>
<event>
12    1  0.1467288E-007  0.1531973E+04  0.7818608E-02  0.8863465E-01
         -1   -1    0    0    0  501 -0.00000000000E+00  0.00000000000E+00  0.38979301133E+03  0.38979301133E+03  0.00000000000E+00 0.  1.
          1   -1    0    0  501    0  0.00000000000E+00 -0.00000000000E+00 -0.15052487987E+04  0.15052487987E+04  0.00000000000E+00 0. -1.
         23    2    1    2    0    0  0.43027220153E+03  0.14016742070E+03 -0.12582121921E+03  0.48049126046E+03  0.10129066561E+03 0.  0.
        254    2    1    2    0    0 -0.43027220153E+03 -0.14016742070E+03 -0.98963456812E+03  0.14145505495E+04  0.90376745101E+03 0.  0.
        -24    2    4    4    0    0 -0.43535142621E+03 -0.15870610974E+03 -0.52068151267E+02  0.47313966894E+03  0.80197009785E+02 0.  0.
         24    2    4    4    0    0  0.50792246783E+01  0.18538689042E+02 -0.93756641685E+03  0.94141088058E+03  0.82789966520E+02 0.  0.
         11    1    3    3    0    0  0.64001607687E+02  0.37398977068E+02 -0.57900770019E+02  0.94060557308E+02  0.00000000000E+00 0. -1.
        -11    1    3    3    0    0  0.36627059384E+03  0.10276844363E+03 -0.67920449190E+02  0.38643070315E+03  0.00000000000E+00 0.  1.
          4    1    6    6  502    0  0.23427295194E+02  0.38786990338E+02 -0.79243945070E+03  0.79373393010E+03  0.00000000000E+00 0. -1.
          1    1    5    5  503    0 -0.24235240640E+03 -0.10948592519E+03 -0.64263284380E+02  0.27359025279E+03  0.00000000000E+00 0. -1.
         -2    1    5    5    0  503 -0.19299901981E+03 -0.49220184552E+02  0.12195133114E+02  0.19954941616E+03  0.00000000000E+00 0.  1.
         -3    1    6    6    0  502 -0.18348070516E+02 -0.20248301295E+02 -0.14512696616E+03  0.14767695048E+03  0.00000000000E+00 0.  1.
<mgrwt>
<rscale>  0 0.15319732E+04</rscale>
<asrwt>0</asrwt>
<pdfrwt beam="1">  1        1 0.23157674E+00 0.15319732E+04</pdfrwt>
<pdfrwt beam="2">  1       -1 0.59968156E-01 0.15319732E+04</pdfrwt>
<totfact> 0.17646258E+01</totfact>
</mgrwt>
</event>
<event>
12    1  0.1467288E-007  0.1465385E+04  0.7818608E-02  0.8907803E-01
          1   -1    0    0  501    0  0.00000000000E+00  0.00000000000E+00  0.21714923514E+04  0.21714923514E+04  0.00000000000E+00 0. -1.
         -1   -1    0    0    0  501 -0.00000000000E+00 -0.00000000000E+00 -0.24722095158E+03  0.24722095158E+03  0.00000000000E+00 0.  1.
         23    2    1    2    0    0  0.32278570752E+03  0.22861289455E+03  0.12602479601E+04  0.13240426472E+04  0.91703555201E+02 0.  0.
        254    2    1    2    0    0 -0.32278570752E+03 -0.22861289455E+03  0.66402343963E+03  0.10946706557E+04  0.77519174892E+03 0.  0.
        -24    2    4    4    0    0 -0.97091918135E+02 -0.91002532388E+02  0.77969995376E+03  0.79492039304E+03  0.79108229118E+02 0.  0.
         24    2    4    4    0    0 -0.22569378938E+03 -0.13761036216E+03 -0.11567651413E+03  0.29975026268E+03  0.81208778562E+02 0.  0.
         13    1    3    3    0    0  0.32475717221E+03  0.23067521187E+03  0.12596407729E+04  0.13211257135E+04  0.00000000000E+00 0. -1.
        -13    1    3    3    0    0 -0.19714646892E+01 -0.20623173279E+01  0.60718729903E+00  0.29169336978E+01  0.00000000000E+00 0.  1.
          4    1    6    6  502    0 -0.17260276335E+03 -0.14130503422E+03 -0.98301955696E+02  0.24376648889E+03  0.00000000000E+00 0. -1.
          1    1    5    5  503    0 -0.58223537521E+02 -0.44433569493E+02  0.61608340239E+03  0.62042169620E+03  0.00000000000E+00 0. -1.
         -2    1    5    5    0  503 -0.38868380613E+02 -0.46568962894E+02  0.16361655137E+03  0.17449869684E+03  0.00000000000E+00 0.  1.
         -3    1    6    6    0  502 -0.53091026033E+02  0.36946720622E+01 -0.17374558434E+02  0.55983773789E+02  0.00000000000E+00 0.  1.
<mgrwt>
<rscale>  0 0.14653851E+04</rscale>
<asrwt>0</asrwt>
<pdfrwt beam="1">  1        1 0.33407573E+00 0.14653851E+04</pdfrwt>
<pdfrwt beam="2">  1       -1 0.38033994E-01 0.14653851E+04</pdfrwt>
<totfact> 0.14777476E+01</totfact>
</mgrwt>
</event>
<event>
12    1  0.1467288E-007  0.2016004E+04  0.7818608E-02  0.8599175E-01
         -1   -1    0    0    0  501 -0.00000000000E+00  0.00000000000E+00  0.80764053448E+03  0.80764053448E+03  0.00000000000E+00 0.  1.
          1   -1    0    0  501    0  0.00000000000E+00 -0.00000000000E+00 -0.12580699081E+04  0.12580699081E+04  0.00000000000E+00 0. -1.
         23    2    1    2    0    0  0.28677583963E+03  0.51966289020E+02 -0.95377469531E+03  0.10015213777E+04  0.91749785306E+02 0.  0.
        254    2    1    2    0    0 -0.28677583963E+03 -0.51966289020E+02  0.50334532166E+03  0.10641890649E+04  0.89117954181E+03 0.  0.
        -24    2    4    4    0    0 -0.77388912507E+02  0.58320412109E+02  0.72169680826E+03  0.73233497384E+03  0.77960994108E+02 0.  0.
         24    2    4    4    0    0 -0.20938692712E+03 -0.11028670113E+03 -0.21835148660E+03  0.33185409111E+03  0.80272812284E+02 0.  0.
         13    1    3    3    0    0  0.13155683283E+03  0.11063677380E+02 -0.29037808026E+03  0.31898124509E+03  0.00000000000E+00 0.  1.
        -13    1    3    3    0    0  0.15521900680E+03  0.40902611640E+02 -0.66339661505E+03  0.68254013257E+03  0.00000000000E+00 0. -1.
          4    1    6    6  502    0 -0.15065811539E+03 -0.69310065279E+02 -0.19619548180E+03  0.25689379121E+03  0.00000000000E+00 0. -1.
          3    1    5    5  503    0 -0.73028660893E+02  0.61855116443E+02  0.42737397742E+03  0.43795862512E+03  0.00000000000E+00 0. -1.
         -4    1    5    5    0  503 -0.43602516131E+01 -0.35347043334E+01  0.29432283084E+03  0.29437634871E+03  0.00000000000E+00 0.  1.
         -3    1    6    6    0  502 -0.58728811732E+02 -0.40976635850E+02 -0.22156004797E+02  0.74960299903E+02  0.00000000000E+00 0.  1.
<mgrwt>
<rscale>  0 0.20160042E+04</rscale>
<asrwt>0</asrwt>
<pdfrwt beam="1">  1        1 0.19354922E+00 0.20160042E+04</pdfrwt>
<pdfrwt beam="2">  1       -1 0.12425239E+00 0.20160042E+04</pdfrwt>
<totfact> 0.51025360E+00</totfact>
</mgrwt>
</event>
<event>
12    1  0.1467288E-007  0.2146386E+04  0.7818608E-02  0.8541081E-01
          1   -1    0    0  501    0  0.00000000000E+00  0.00000000000E+00  0.19726758525E+04  0.19726758525E+04  0.00000000000E+00 0. -1.
         -1   -1    0    0    0  501 -0.00000000000E+00 -0.00000000000E+00 -0.58384823881E+03  0.58384823881E+03  0.00000000000E+00 0.  1.
         23    2    1    2    0    0  0.46186155698E+03 -0.29455721282E+02 -0.32157057576E+03  0.57095698004E+03  0.91654244485E+02 0.  0.
        254    2    1    2    0    0 -0.46186155698E+03  0.29455721282E+02  0.17103981894E+04  0.19855671112E+04  0.89600839810E+03 0.  0.
        -24    2    4    4    0    0 -0.10687341481E+03 -0.34689045519E+02  0.15888897199E+04  0.15947936133E+04  0.78554887879E+02 0.  0.
         24    2    4    4    0    0 -0.35498814218E+03  0.64144766800E+02  0.12150846956E+03  0.39077349795E+03  0.88365639980E+02 0.  0.
         11    1    3    3    0    0  0.45912310841E+03 -0.17593103835E+02 -0.31085278743E+03  0.55473687585E+03  0.00000000000E+00 0.  1.
        -11    1    3    3    0    0  0.27384485722E+01 -0.11862617446E+02 -0.10717788331E+02  0.16220104191E+02  0.00000000000E+00 0. -1.
          4    1    6    6  502    0 -0.53160356703E+02  0.33854055338E+02 -0.24675213089E+01  0.63073046930E+02  0.00000000000E+00 0. -1.
          1    1    5    5  503    0 -0.13924097450E+02 -0.92558718033E+01  0.46820550485E+02  0.49716351439E+02  0.00000000000E+00 0. -1.
         -2    1    5    5    0  503 -0.92949317357E+02 -0.25433173715E+02  0.15420691694E+04  0.15450772618E+04  0.00000000000E+00 0.  1.
         -3    1    6    6    0  502 -0.30182778547E+03  0.30290711462E+02  0.12397599087E+03  0.32770045102E+03  0.00000000000E+00 0.  1.
<mgrwt>
<rscale>  0 0.21463861E+04</rscale>
<asrwt>0</asrwt>
<pdfrwt beam="1">  1        1 0.30348859E+00 0.21463861E+04</pdfrwt>
<pdfrwt beam="2">  1       -1 0.89822807E-01 0.21463861E+04</pdfrwt>
<totfact> 0.34556030E+00</totfact>
</mgrwt>
</event>
<event>
12    1  0.1467288E-007  0.1555614E+04  0.7818608E-02  0.8848290E-01
         -2   -1    0    0    0  501 -0.00000000000E+00  0.00000000000E+00  0.71651331068E+03  0.71651331068E+03  0.00000000000E+00 0.  1.
          2   -1    0    0  501    0  0.00000000000E+00 -0.00000000000E+00 -0.84434443070E+03  0.84434443070E+03  0.00000000000E+00 0. -1.
         23    2    1    2    0    0  0.28569200268E+03 -0.22011108033E+03  0.32830385679E+03  0.49637649014E+03  0.92397995135E+02 0.  0.
        254    2    1    2    0    0 -0.28569200268E+03  0.22011108033E+03 -0.45613497681E+03  0.10644812512E+04  0.89162346822E+03 0.  0.
        -24    2    4    4    0    0 -0.36688481690E+03  0.16663131372E+03 -0.68772609816E+03  0.80105294700E+03  0.79675430515E+02 0.  0.
         24    2    4    4    0    0  0.81192814225E+02  0.53479766606E+02  0.23159112135E+03  0.26342830423E+03  0.79420812546E+02 0.  0.
         13    1    3    3    0    0  0.20927047603E+03 -0.12102669696E+03  0.25489185209E+03  0.35129965810E+03  0.00000000000E+00 0.  1.
        -13    1    3    3    0    0  0.76421526644E+02 -0.99084383368E+02  0.73412004695E+02  0.14507683204E+03  0.00000000000E+00 0. -1.
          4    1    6    6  502    0  0.96443386595E+02  0.52426431940E+02  0.21019207890E+03  0.23712985391E+03  0.00000000000E+00 0. -1.
          1    1    5    5  503    0 -0.33463456032E+03  0.15345373592E+03 -0.66293200563E+03  0.75829228014E+03  0.00000000000E+00 0. -1.
         -2    1    5    5    0  503 -0.32250256586E+02  0.13177577803E+02 -0.24794092530E+02  0.42760666867E+02  0.00000000000E+00 0.  1.
         -3    1    6    6    0  502 -0.15250572371E+02  0.10533346658E+01  0.21399042446E+02  0.26298450318E+02  0.00000000000E+00 0.  1.
<mgrwt>
<rscale>  0 0.15556144E+04</rscale>
<asrwt>0</asrwt>
<pdfrwt beam="1">  1        2 0.12989914E+00 0.15556144E+04</pdfrwt>
<pdfrwt beam="2">  1       -2 0.11023282E+00 0.15556144E+04</pdfrwt>
<totfact> 0.20146294E+01</totfact>
</mgrwt>
</event>
<event>
12    1  0.1467288E-007  0.2064578E+04  0.7818608E-02  0.8577010E-01
         -2   -1    0    0    0  501 -0.00000000000E+00  0.00000000000E+00  0.12923819111E+04  0.12923819111E+04  0.00000000000E+00 0. -1.
          2   -1    0    0  501    0  0.00000000000E+00 -0.00000000000E+00 -0.82453961211E+03  0.82453961211E+03  0.00000000000E+00 0.  1.
         23    2    1    2    0    0 -0.55500207323E+03  0.51673326678E+03 -0.12628975339E+03  0.77862739810E+03  0.12357569736E+03 0.  0.
        254    2    1    2    0    0  0.55500207323E+03 -0.51673326678E+03  0.59413205241E+03  0.13382941251E+04  0.92897669475E+03 0.  0.
        -24    2    4    4    0    0  0.27848686399E+03 -0.39482179288E+03  0.81867968030E+03  0.95376591940E+03  0.77419819928E+02 0.  0.
         24    2    4    4    0    0  0.27651520925E+03 -0.12191147390E+03 -0.22454762789E+03  0.38452820574E+03  0.78212757286E+02 0.  0.
         13    1    3    3    0    0 -0.60000674461E+02  0.63245788899E+02  0.24540991565E+02  0.90566942182E+02  0.00000000000E+00 0.  1.
        -13    1    3    3    0    0 -0.49500139877E+03  0.45348747788E+03 -0.15083074496E+03  0.68806045592E+03  0.00000000000E+00 0. -1.
          4    1    6    6  502    0  0.19023733531E+03 -0.12097783575E+03 -0.17124084123E+03  0.28310652800E+03  0.00000000000E+00 0. -1.
          1    1    5    5  503    0  0.14883342644E+03 -0.16863121687E+03  0.43789165285E+03  0.49227733623E+03  0.00000000000E+00 0. -1.
         -2    1    5    5    0  503  0.12965343754E+03 -0.22619057601E+03  0.38078802745E+03  0.46148858316E+03  0.00000000000E+00 0.  1.
         -3    1    6    6    0  502  0.86277873940E+02 -0.93363814654E+00 -0.53306786661E+02  0.10142167774E+03  0.00000000000E+00 0.  1.
<mgrwt>
<rscale>  0 0.20645775E+04</rscale>
<asrwt>0</asrwt>
<pdfrwt beam="1">  1        2 0.12685225E+00 0.20645775E+04</pdfrwt>
<pdfrwt beam="2">  1       -2 0.19882799E+00 0.20645775E+04</pdfrwt>
<totfact> 0.41368372E+00</totfact>
</mgrwt>
</event>
<event>
12    1  0.1467288E-007  0.4215465E+04  0.7818608E-02  0.7962437E-01
         -2   -1    0    0    0  501 -0.00000000000E+00  0.00000000000E+00  0.19190613069E+04  0.19190613069E+04  0.00000000000E+00 0.  1.
          2   -1    0    0  501    0  0.00000000000E+00 -0.00000000000E+00 -0.23149527907E+04  0.23149527907E+04  0.00000000000E+00 0. -1.
         23    2    1    2    0    0  0.23927134413E+03  0.19573883826E+04  0.22811175442E+03  0.19872863008E+04  0.93015118433E+02 0.  0.
        254    2    1    2    0    0 -0.23927134413E+03 -0.19573883826E+04 -0.62400323823E+03  0.22467277969E+04  0.87737431898E+03 0.  0.
        -24    2    4    4    0    0 -0.24763199617E+03 -0.26805938956E+03  0.13041577526E+03  0.39477957882E+03  0.75267519946E+02 0.  0.
         24    2    4    4    0    0  0.83606520391E+01 -0.16893289930E+04 -0.75441901349E+03  0.18519482181E+04  0.81619895420E+02 0.  0.
         11    1    3    3    0    0  0.17535682854E+03  0.16347379777E+04  0.16509946265E+03  0.16523849750E+04  0.00000000000E+00 0.  1.
        -11    1    3    3    0    0  0.63914515589E+02  0.32265040493E+03  0.63012291773E+02  0.33490132580E+03  0.00000000000E+00 0. -1.
          2    1    6    6  502    0  0.24387173943E+02 -0.12649383199E+04 -0.59780640301E+03  0.13992984610E+04  0.00000000000E+00 0. -1.
          3    1    5    5  503    0 -0.11511669416E+03 -0.15479407502E+03  0.35021289990E+02  0.19606006653E+03  0.00000000000E+00 0. -1.
         -4    1    5    5    0  503 -0.13251530201E+03 -0.11326531454E+03  0.95394485271E+02  0.19871951229E+03  0.00000000000E+00 0.  1.
         -1    1    6    6    0  502 -0.16026521904E+02 -0.42439067311E+03 -0.15661261047E+03  0.45264975708E+03  0.00000000000E+00 0.  1.
<mgrwt>
<rscale>  0 0.42154650E+04</rscale>
<asrwt>0</asrwt>
<pdfrwt beam="1">  1        2 0.35614658E+00 0.42154650E+04</pdfrwt>
<pdfrwt beam="2">  1       -2 0.29524020E+00 0.42154650E+04</pdfrwt>
<totfact> 0.11715569E-01</totfact>
</mgrwt>
</event>
<event>
12    1  0.1467288E-007  0.2636003E+04  0.7818608E-02  0.8356074E-01
          2   -1    0    0  501    0  0.00000000000E+00  0.00000000000E+00  0.11330852248E+04  0.11330852248E+04  0.00000000000E+00 0. -1.
         -2   -1    0    0    0  501 -0.00000000000E+00 -0.00000000000E+00 -0.15330955725E+04  0.15330955725E+04  0.00000000000E+00 0.  1.
         23    2    1    2    0    0  0.26360724810E+03  0.91134881974E+03  0.50197240837E+03  0.10772506926E+04  0.91909212536E+02 0.  0.
        254    2    1    2    0    0 -0.26360724810E+03 -0.91134881974E+03 -0.90198275613E+03  0.15889301048E+04  0.90060009602E+03 0.  0.
        -24    2    4    4    0    0  0.10624326190E+03 -0.15772875006E+03  0.13939620601E+03  0.24892355899E+03  0.79785002814E+02 0.  0.
         24    2    4    4    0    0 -0.36985051000E+03 -0.75362006968E+03 -0.10413789621E+04  0.13400065458E+04  0.80092388837E+02 0.  0.
         11    1    3    3    0    0  0.12681915555E+03  0.38022926136E+03  0.26021316062E+03  0.47787893693E+03  0.00000000000E+00 0. -1.
        -11    1    3    3    0    0  0.13678809256E+03  0.53111955838E+03  0.24175924775E+03  0.59937175562E+03  0.00000000000E+00 0.  1.
          4    1    6    6  502    0 -0.22744374144E+03 -0.54637746871E+03 -0.73445396628E+03  0.94322935833E+03  0.00000000000E+00 0. -1.
          3    1    5    5  503    0  0.69784146334E+02 -0.52517387198E+02  0.95010003479E+02  0.12905349201E+03  0.00000000000E+00 0. -1.
         -4    1    5    5    0  503  0.36459115565E+02 -0.10521136286E+03  0.44386202532E+02  0.11987006698E+03  0.00000000000E+00 0.  1.
         -3    1    6    6    0  502 -0.14240676856E+03 -0.20724260097E+03 -0.30692499586E+03  0.39677718744E+03  0.00000000000E+00 0.  1.
<mgrwt>
<rscale>  0 0.26360030E+04</rscale>
<asrwt>0</asrwt>
<pdfrwt beam="1">  1        2 0.17432080E+00 0.26360030E+04</pdfrwt>
<pdfrwt beam="2">  1       -2 0.23586086E+00 0.26360030E+04</pdfrwt>
<totfact> 0.14409079E+00</totfact>
</mgrwt>
</event>
<event>
12    1  0.1467288E-007  0.1388800E+04  0.7818608E-02  0.8961965E-01
         -1   -1    0    0    0  501 -0.00000000000E+00  0.00000000000E+00  0.21760509452E+03  0.21760509452E+03  0.00000000000E+00 0.  1.
          1   -1    0    0  501    0  0.00000000000E+00 -0.00000000000E+00 -0.22159024373E+04  0.22159024373E+04  0.00000000000E+00 0. -1.
         23    2    1    2    0    0 -0.17364527743E+03 -0.11106111184E+03  0.10147504354E+02  0.22514549146E+03  0.90001486354E+02 0.  0.
        254    2    1    2    0    0  0.17364527743E+03  0.11106111184E+03 -0.20084448472E+04  0.22083620404E+04  0.89472059569E+03 0.  0.
        -24    2    4    4    0    0  0.14496778438E+03 -0.37133180091E+03 -0.67769963235E+03  0.79031863467E+03  0.80148535528E+02 0.  0.
         24    2    4    4    0    0  0.28677493048E+02  0.48239291275E+03 -0.13307452148E+04  0.14180434057E+04  0.80243085952E+02 0.  0.
         11    1    3    3    0    0 -0.91139582335E+02 -0.87594279919E+02 -0.30782202833E+02  0.13010274922E+03  0.00000000000E+00 0.  1.
        -11    1    3    3    0    0 -0.82505695095E+02 -0.23466831917E+02  0.40929707187E+02  0.95042742247E+02  0.00000000000E+00 0. -1.
          2    1    6    6  502    0  0.11448621639E+02  0.69953561575E+02 -0.28719704672E+03  0.29581533997E+03  0.00000000000E+00 0. -1.
          3    1    5    5  503    0  0.96055431076E+02 -0.25001050547E+03 -0.37751609163E+03  0.46287179448E+03  0.00000000000E+00 0. -1.
         -4    1    5    5    0  503  0.48912353306E+02 -0.12132129544E+03 -0.30018354072E+03  0.32744684019E+03  0.00000000000E+00 0.  1.
         -1    1    6    6    0  502  0.17228871409E+02  0.41243935117E+03 -0.10435481681E+04  0.11222280658E+04  0.00000000000E+00 0.  1.
<mgrwt>
<rscale>  0 0.13888004E+04</rscale>
<asrwt>0</asrwt>
<pdfrwt beam="1">  1        1 0.34090806E+00 0.13888004E+04</pdfrwt>
<pdfrwt beam="2">  1       -1 0.33477707E-01 0.13888004E+04</pdfrwt>
<totfact> 0.17456619E+01</totfact>
</mgrwt>
</event>
<event>
12    1  0.1467288E-007  0.1209152E+04  0.7818608E-02  0.9104883E-01
          2   -1    0    0  501    0  0.00000000000E+00  0.00000000000E+00  0.17240017430E+04  0.17240017430E+04  0.00000000000E+00 0. -1.
         -2   -1    0    0    0  501 -0.00000000000E+00 -0.00000000000E+00 -0.21201374465E+03  0.21201374465E+03  0.00000000000E+00 0.  1.
         23    2    1    2    0    0  0.37655557525E+02 -0.19980237457E+02 -0.65110113998E+02  0.12077693398E+03  0.92361192797E+02 0.  0.
        254    2    1    2    0    0 -0.37655557525E+02  0.19980237457E+02  0.15770981124E+04  0.18152385537E+04  0.89779474260E+03 0.  0.
        -24    2    4    4    0    0 -0.34638981107E+03 -0.28743060803E+03  0.80072077893E+03  0.92204605058E+03  0.80080571468E+02 0.  0.
         24    2    4    4    0    0  0.30873425355E+03  0.30741084549E+03  0.77637733343E+03  0.89319250310E+03  0.72199837221E+02 0.  0.
         11    1    3    3    0    0  0.31761768584E+02 -0.13342545028E+02 -0.88923109106E+02  0.95363267480E+02  0.00000000000E+00 0.  1.
        -11    1    3    3    0    0  0.58937889408E+01 -0.66376924291E+01  0.23812995108E+02  0.25413666498E+02  0.00000000000E+00 0. -1.
          4    1    6    6  502    0  0.41892815954E+01  0.12875419017E+02  0.79321429173E+01  0.15692207825E+02  0.00000000000E+00 0. -1.
          1    1    5    5  503    0 -0.54590659528E+02 -0.49771533349E+02  0.79384038755E+02  0.10843971251E+03  0.00000000000E+00 0. -1.
         -2    1    5    5    0  503 -0.29179915154E+03 -0.23765907468E+03  0.72133674018E+03  0.81360633807E+03  0.00000000000E+00 0.  1.
         -3    1    6    6    0  502  0.30454497195E+03  0.29453542647E+03  0.76844519052E+03  0.87750029528E+03  0.00000000000E+00 0.  1.
<mgrwt>
<rscale>  0 0.12091519E+04</rscale>
<asrwt>0</asrwt>
<pdfrwt beam="1">  1        2 0.26523103E+00 0.12091519E+04</pdfrwt>
<pdfrwt beam="2">  1       -2 0.32617500E-01 0.12091519E+04</pdfrwt>
<totfact> 0.82162697E+01</totfact>
</mgrwt>
</event>
<event>
12    1  0.1467288E-007  0.1688505E+04  0.7818608E-02  0.8767948E-01
          2   -1    0    0  501    0  0.00000000000E+00  0.00000000000E+00  0.20023815235E+04  0.20023815235E+04  0.00000000000E+00 0. -1.
         -2   -1    0    0    0  501 -0.00000000000E+00 -0.00000000000E+00 -0.35595711096E+03  0.35595711096E+03  0.00000000000E+00 0.  1.
         23    2    1    2    0    0 -0.54486079825E+03  0.19885934928E+03  0.32904989257E+03  0.67220608128E+03  0.84669083184E+02 0.  0.
        254    2    1    2    0    0  0.54486079825E+03 -0.19885934928E+03  0.13173745200E+04  0.16861325532E+04  0.87815091573E+03 0.  0.
        -24    2    4    4    0    0  0.11953149971E+03  0.32695064693E+03  0.32687483877E+03  0.48412303190E+03  0.79645745953E+02 0.  0.
         24    2    4    4    0    0  0.42532929853E+03 -0.52580999620E+03  0.99049968120E+03  0.12020095213E+04  0.79725193653E+02 0.  0.
         11    1    3    3    0    0 -0.61689602570E+01  0.14627026110E+02  0.15783834640E+02  0.22386053681E+02  0.00000000000E+00 0. -1.
        -11    1    3    3    0    0 -0.53869183799E+03  0.18423232317E+03  0.31326605793E+03  0.64982002760E+03  0.00000000000E+00 0.  1.
          4    1    6    6  502    0  0.80396999883E+02 -0.15196048317E+03  0.23262540524E+03  0.28925809444E+03  0.00000000000E+00 0. -1.
          1    1    5    5  503    0  0.96119735066E+02  0.27966043388E+03  0.31069680327E+03  0.42893060664E+03  0.00000000000E+00 0. -1.
         -2    1    5    5    0  503  0.23411764646E+02  0.47290213043E+02  0.16178035492E+02  0.55192425258E+02  0.00000000000E+00 0.  1.
         -3    1    6    6    0  502  0.34493229865E+03 -0.37384951304E+03  0.75787427596E+03  0.91275142685E+03  0.00000000000E+00 0.  1.
<mgrwt>
<rscale>  0 0.16885046E+04</rscale>
<asrwt>0</asrwt>
<pdfrwt beam="1">  1        2 0.30805869E+00 0.16885046E+04</pdfrwt>
<pdfrwt beam="2">  1       -2 0.54762634E-01 0.16885046E+04</pdfrwt>
<totfact> 0.19903516E+01</totfact>
</mgrwt>
</event>
<event>
12    1  0.1467288E-007  0.1857658E+04  0.7818608E-02  0.8676225E-01
          1   -1    0    0  501    0  0.00000000000E+00  0.00000000000E+00  0.91791567124E+03  0.91791567124E+03  0.00000000000E+00 0. -1.
         -1   -1    0    0    0  501 -0.00000000000E+00 -0.00000000000E+00 -0.93987212540E+03  0.93987212540E+03  0.00000000000E+00 0.  1.
         23    2    1    2    0    0 -0.14140154562E+03  0.45593973798E+03  0.54392761383E+03  0.72915089413E+03  0.89041201428E+02 0.  0.
        254    2    1    2    0    0  0.14140154562E+03 -0.45593973798E+03 -0.56588406799E+03  0.11286369025E+04  0.85189262090E+03 0.  0.
        -24    2    4    4    0    0  0.17047343348E+03  0.21766487695E+03 -0.24297722290E+03  0.37683382476E+03  0.80787439963E+02 0.  0.
         24    2    4    4    0    0 -0.29071887858E+02 -0.67360461493E+03 -0.32290684509E+03  0.75180307775E+03  0.79691186436E+02 0.  0.
         11    1    3    3    0    0 -0.15439677778E+01 -0.32803357937E+01 -0.78461169738E-01  0.36263749908E+01  0.00000000000E+00 0.  1.
        -11    1    3    3    0    0 -0.13985757784E+03  0.45922007377E+03  0.54400607499E+03  0.72552451913E+03  0.00000000000E+00 0. -1.
          2    1    6    6  502    0 -0.11520137266E+02 -0.62931773390E+03 -0.31377286394E+03  0.70329718748E+03  0.00000000000E+00 0. -1.
          3    1    5    5  503    0  0.15313442089E+03  0.13693575912E+03 -0.17055130723E+03  0.26700056438E+03  0.00000000000E+00 0. -1.
         -4    1    5    5    0  503  0.17339012595E+02  0.80729117834E+02 -0.72425915678E+02  0.10983326038E+03  0.00000000000E+00 0.  1.
         -1    1    6    6    0  502 -0.17551750592E+02 -0.44286881021E+02 -0.91339811494E+01  0.48505890272E+02  0.00000000000E+00 0.  1.
<mgrwt>
<rscale>  0 0.18576580E+04</rscale>
<asrwt>0</asrwt>
<pdfrwt beam="1">  1        1 0.14121780E+00 0.18576580E+04</pdfrwt>
<pdfrwt beam="2">  1       -1 0.14459571E+00 0.18576580E+04</pdfrwt>
<totfact> 0.63595528E+00</totfact>
</mgrwt>
</event>
<event>
12    1  0.1467288E-007  0.1381909E+04  0.7818608E-02  0.8967019E-01
         -2   -1    0    0    0  501 -0.00000000000E+00  0.00000000000E+00  0.54991054001E+03  0.54991054001E+03  0.00000000000E+00 0.  1.
          2   -1    0    0  501    0  0.00000000000E+00 -0.00000000000E+00 -0.86817416975E+03  0.86817416975E+03  0.00000000000E+00 0. -1.
         23    2    1    2    0    0  0.20543568393E+03 -0.26156585658E+03 -0.29378727644E+03  0.45821822307E+03  0.11415979414E+03 0.  0.
        254    2    1    2    0    0 -0.20543568393E+03  0.26156585658E+03 -0.24476353303E+02  0.95986648668E+03  0.90006892115E+03 0.  0.
        -24    2    4    4    0    0  0.25952451437E+03 -0.15748402190E+03 -0.85664208940E+02  0.32602722210E+03  0.82469401287E+02 0.  0.
         24    2    4    4    0    0 -0.46496019829E+03  0.41904987847E+03  0.61187855638E+02  0.63383926458E+03  0.78850954331E+02 0.  0.
         11    1    3    3    0    0  0.14300144710E+03 -0.11350249350E+03 -0.10618338967E+03  0.21120402966E+03  0.00000000000E+00 0.  1.
        -11    1    3    3    0    0  0.62434236826E+02 -0.14806336307E+03 -0.18760388677E+03  0.24701419341E+03  0.00000000000E+00 0. -1.
          4    1    6    6  502    0 -0.21786047067E+03  0.24934602742E+03  0.31308280699E+02  0.33259109205E+03  0.00000000000E+00 0. -1.
          3    1    5    5  503    0  0.26154039686E+03 -0.15967211865E+03 -0.75717232303E+02  0.31564483828E+03  0.00000000000E+00 0. -1.
         -4    1    5    5    0  503 -0.20158824967E+01  0.21880967512E+01 -0.99469766368E+01  0.10382383823E+02  0.00000000000E+00 0.  1.
         -3    1    6    6    0  502 -0.24709972762E+03  0.16970385106E+03  0.29879574938E+02  0.30124817253E+03  0.00000000000E+00 0.  1.
<mgrwt>
<rscale>  0 0.13819090E+04</rscale>
<asrwt>0</asrwt>
<pdfrwt beam="1">  1        2 0.13356526E+00 0.13819090E+04</pdfrwt>
<pdfrwt beam="2">  1       -2 0.84601622E-01 0.13819090E+04</pdfrwt>
<totfact> 0.36603543E+01</totfact>
</mgrwt>
</event>
<event>
12    1  0.1467288E-007  0.2714945E+04  0.7818608E-02  0.8330172E-01
          2   -1    0    0  501    0  0.00000000000E+00  0.00000000000E+00  0.15539687440E+04  0.15539687440E+04  0.00000000000E+00 0. -1.
         -2   -1    0    0    0  501 -0.00000000000E+00 -0.00000000000E+00 -0.11858223825E+04  0.11858223825E+04  0.00000000000E+00 0.  1.
         23    2    1    2    0    0 -0.32441512609E+02 -0.81289997451E+03  0.10958246404E+04  0.13677967949E+04  0.90430134594E+02 0.  0.
        254    2    1    2    0    0  0.32441512609E+02  0.81289997451E+03 -0.72767827887E+03  0.13719943316E+04  0.83126045752E+03 0.  0.
        -24    2    4    4    0    0  0.25840573745E+02  0.58007597227E+03 -0.89869854352E+03  0.10726869373E+04  0.76435099635E+02 0.  0.
         24    2    4    4    0    0  0.66009388642E+01  0.23282400223E+03  0.17102026465E+03  0.29930739435E+03  0.78015363730E+02 0.  0.
         13    1    3    3    0    0 -0.44755743046E+02 -0.53214611812E+03  0.65637759651E+03  0.84617617360E+03  0.00000000000E+00 0.  1.
        -13    1    3    3    0    0  0.12314230437E+02 -0.28075385639E+03  0.43944704390E+03  0.52162062128E+03  0.00000000000E+00 0. -1.
          4    1    6    6  502    0  0.28657552502E+02  0.13823115572E+03  0.13609404641E+03  0.19608849328E+03  0.00000000000E+00 0. -1.
          3    1    5    5  503    0  0.31667658035E+02  0.57747991223E+03 -0.88098566810E+03  0.10538603499E+04  0.00000000000E+00 0. -1.
         -4    1    5    5    0  503 -0.58270842897E+01  0.25960600467E+01 -0.17712875426E+02  0.18826587448E+02  0.00000000000E+00 0.  1.
         -3    1    6    6    0  502 -0.22056613638E+02  0.94592846519E+02  0.34926218240E+02  0.10321890107E+03  0.00000000000E+00 0.  1.
<mgrwt>
<rscale>  0 0.27149445E+04</rscale>
<asrwt>0</asrwt>
<pdfrwt beam="1">  1        2 0.23907212E+00 0.27149445E+04</pdfrwt>
<pdfrwt beam="2">  1       -2 0.18243421E+00 0.27149445E+04</pdfrwt>
<totfact> 0.18094515E+00</totfact>
</mgrwt>
</event>
<event>
12    1  0.1467288E-007  0.2935466E+04  0.7818608E-02  0.8262403E-01
         -1   -1    0    0    0  501 -0.00000000000E+00  0.00000000000E+00  0.16229120046E+04  0.16229120046E+04  0.00000000000E+00 0.  1.
          1   -1    0    0  501    0  0.00000000000E+00 -0.00000000000E+00 -0.13273920350E+04  0.13273920350E+04  0.00000000000E+00 0. -1.
         23    2    1    2    0    0  0.74121360216E+03  0.79521253178E+03  0.89509238088E+03  0.14111326169E+04  0.91347236073E+02 0.  0.
        254    2    1    2    0    0 -0.74121360216E+03 -0.79521253178E+03 -0.59957241132E+03  0.15391714226E+04  0.90983570887E+03 0.  0.
        -24    2    4    4    0    0 -0.22297154377E+01 -0.65491771892E+03 -0.29639452411E+03  0.72326167254E+03  0.79596123324E+02 0.  0.
         24    2    4    4    0    0 -0.73898388672E+03 -0.14029481286E+03 -0.30317788722E+03  0.81590975011E+03  0.89510165223E+02 0.  0.
         13    1    3    3    0    0  0.18508616852E+03  0.19154661633E+03  0.17037902487E+03  0.31618982925E+03  0.00000000000E+00 0. -1.
        -13    1    3    3    0    0  0.55612743364E+03  0.60366591545E+03  0.72471335602E+03  0.10949427877E+04  0.00000000000E+00 0.  1.
          2    1    6    6  502    0 -0.65147424393E+03 -0.15040361063E+03 -0.25568697018E+03  0.71583221729E+03  0.00000000000E+00 0. -1.
          1    1    5    5  503    0  0.35982203021E+02 -0.34742034173E+03 -0.17242781324E+03  0.38952145456E+03  0.00000000000E+00 0. -1.
         -2    1    5    5    0  503 -0.38211918459E+02 -0.30749737719E+03 -0.12396671087E+03  0.33374021798E+03  0.00000000000E+00 0.  1.
         -1    1    6    6    0  502 -0.87509642790E+02  0.10108797768E+02 -0.47490917040E+02  0.10007753282E+03  0.00000000000E+00 0.  1.
<mgrwt>
<rscale>  0 0.29354662E+04</rscale>
<asrwt>0</asrwt>
<pdfrwt beam="1">  1        1 0.20421416E+00 0.29354662E+04</pdfrwt>
<pdfrwt beam="2">  1       -1 0.24967877E+00 0.29354662E+04</pdfrwt>
<totfact> 0.51842008E-01</totfact>
</mgrwt>
</event>
<event>
12    1  0.1467288E-007  0.1762546E+04  0.7818608E-02  0.8726475E-01
          2   -1    0    0  501    0  0.00000000000E+00  0.00000000000E+00  0.35495631414E+04  0.35495631414E+04  0.00000000000E+00 0. -1.
         -2   -1    0    0    0  501 -0.00000000000E+00 -0.00000000000E+00 -0.21879930020E+03  0.21879930020E+03  0.00000000000E+00 0.  1.
         23    2    1    2    0    0 -0.33069251556E+03  0.10158146805E+03  0.24137539383E+04  0.24404228876E+04  0.98891156156E+02 0.  0.
        254    2    1    2    0    0  0.33069251556E+03 -0.10158146805E+03  0.91700990286E+03  0.13279395541E+04  0.89601337198E+03 0.  0.
        -24    2    4    4    0    0 -0.17108631342E+03 -0.29959054531E+03  0.14578190275E+03  0.38335379463E+03  0.81748071593E+02 0.  0.
         24    2    4    4    0    0  0.50177882898E+03  0.19800907726E+03  0.77122800011E+03  0.94458575943E+03  0.80374379394E+02 0.  0.
         13    1    3    3    0    0 -0.18766657289E+03  0.10802650327E+03  0.14797915202E+04  0.14955505379E+04  0.00000000000E+00 0. -1.
        -13    1    3    3    0    0 -0.14302594267E+03 -0.64450352249E+01  0.93396241814E+03  0.94487234971E+03  0.00000000000E+00 0.  1.
          2    1    6    6  502    0  0.32803384554E+03  0.16104913994E+03  0.47696610655E+03  0.60086578876E+03  0.00000000000E+00 0. -1.
          1    1    5    5  503    0 -0.39386263774E+01 -0.70208268767E+02  0.36431876519E+02  0.79195930500E+02  0.00000000000E+00 0. -1.
         -2    1    5    5    0  503 -0.16714768704E+03 -0.22938227654E+03  0.10935002623E+03  0.30415786413E+03  0.00000000000E+00 0.  1.
         -1    1    6    6    0  502  0.17374498344E+03  0.36959937320E+02  0.29426189356E+03  0.34371997067E+03  0.00000000000E+00 0.  1.
<mgrwt>
<rscale>  0 0.17625458E+04</rscale>
<asrwt>0</asrwt>
<pdfrwt beam="1">  1        2 0.54608659E+00 0.17625458E+04</pdfrwt>
<pdfrwt beam="2">  1       -2 0.33661433E-01 0.17625458E+04</pdfrwt>
<totfact> 0.59174704E+00</totfact>
</mgrwt>
</event>
<event>
12    1  0.1467288E-007  0.2282367E+04  0.7818608E-02  0.8484906E-01
         -2   -1    0    0    0  501 -0.00000000000E+00  0.00000000000E+00  0.47873201888E+03  0.47873201888E+03  0.00000000000E+00 0.  1.
          2   -1    0    0  501    0  0.00000000000E+00 -0.00000000000E+00 -0.27203112326E+04  0.27203112326E+04  0.00000000000E+00 0. -1.
         23    2    1    2    0    0  0.80498546641E+03 -0.29354324260E+03 -0.15631491556E+04  0.17851500168E+04  0.95687321698E+02 0.  0.
        254    2    1    2    0    0 -0.80498546641E+03  0.29354324260E+03 -0.67843005810E+03  0.14138932346E+04  0.89702703347E+03 0.  0.
        -24    2    4    4    0    0 -0.58366813068E+03  0.33710564428E+03 -0.87271514932E+03  0.11055423277E+04  0.79267927509E+02 0.  0.
         24    2    4    4    0    0 -0.22131733572E+03 -0.43562401676E+02  0.19428509122E+03  0.30835090691E+03  0.80340146810E+02 0.  0.
         11    1    3    3    0    0  0.64597334526E+03 -0.19483967650E+03 -0.12424965434E+04  0.14138747196E+04  0.00000000000E+00 0. -1.
        -11    1    3    3    0    0  0.15901212115E+03 -0.98703566102E+02 -0.32065261219E+03  0.37127529724E+03  0.00000000000E+00 0.  1.
          2    1    6    6  502    0 -0.79756078687E+02  0.22889177961E+02  0.71316879087E+02  0.10941226530E+03  0.00000000000E+00 0. -1.
          1    1    5    5  503    0 -0.30335688001E+02  0.14137843735E+01 -0.53538658255E+02  0.61551934824E+02  0.00000000000E+00 0. -1.
         -2    1    5    5    0  503 -0.55333244268E+03  0.33569185991E+03 -0.81917649107E+03  0.10439903929E+04  0.00000000000E+00 0.  1.
         -1    1    6    6    0  502 -0.14156125704E+03 -0.66451579637E+02  0.12296821214E+03  0.19893864161E+03  0.00000000000E+00 0.  1.
<mgrwt>
<rscale>  0 0.22823673E+04</rscale>
<asrwt>0</asrwt>
<pdfrwt beam="1">  1        2 0.41850941E+00 0.22823673E+04</pdfrwt>
<pdfrwt beam="2">  1       -2 0.73651081E-01 0.22823673E+04</pdfrwt>
<totfact> 0.38984799E+00</totfact>
</mgrwt>
</event>
<event>
12    1  0.1467288E-007  0.1774607E+04  0.7818608E-02  0.8719921E-01
         -2   -1    0    0    0  501 -0.00000000000E+00  0.00000000000E+00  0.56378274004E+03  0.56378274004E+03  0.00000000000E+00 0.  1.
          2   -1    0    0  501    0  0.00000000000E+00 -0.00000000000E+00 -0.13964729854E+04  0.13964729854E+04  0.00000000000E+00 0. -1.
         23    2    1    2    0    0  0.16248187893E+03  0.29343117558E+03 -0.93223491658E+03  0.99523379211E+03  0.94478280414E+02 0.  0.
        254    2    1    2    0    0 -0.16248187893E+03 -0.29343117558E+03  0.99544671261E+02  0.96502193329E+03  0.89936420563E+03 0.  0.
        -24    2    4    4    0    0  0.20207308526E+03 -0.38866412315E+03  0.29452079621E+03  0.53339682889E+03  0.76657323546E+02 0.  0.
         24    2    4    4    0    0 -0.36455496419E+03  0.95232947567E+02 -0.19497612495E+03  0.43162510440E+03  0.79466378004E+02 0.  0.
         13    1    3    3    0    0  0.11128928129E+03  0.25433503198E+03 -0.82132554247E+03  0.86697592778E+03  0.00000000000E+00 0. -1.
        -13    1    3    3    0    0  0.51192597636E+02  0.39096143604E+02 -0.11090937411E+03  0.12825786433E+03  0.00000000000E+00 0.  1.
          4    1    6    6  502    0 -0.41941929938E+02  0.22943256695E+00  0.17923147093E+01  0.41980835130E+02  0.00000000000E+00 0. -1.
          1    1    5    5  503    0  0.10243076566E+03 -0.11884963691E+03  0.96569456050E+02  0.18423614680E+03  0.00000000000E+00 0. -1.
         -2    1    5    5    0  503  0.99642319605E+02 -0.26981448624E+03  0.19795134016E+03  0.34916068208E+03  0.00000000000E+00 0.  1.
         -3    1    6    6    0  502 -0.32261303425E+03  0.95003515000E+02 -0.19676843966E+03  0.38964426927E+03  0.00000000000E+00 0.  1.
<mgrwt>
<rscale>  0 0.17746068E+04</rscale>
<asrwt>0</asrwt>
<pdfrwt beam="1">  1        2 0.21484199E+00 0.17746068E+04</pdfrwt>
<pdfrwt beam="2">  1       -2 0.86735807E-01 0.17746068E+04</pdfrwt>
<totfact> 0.15823942E+01</totfact>
</mgrwt>
</event>
