<event>
11    1  0.2406360E-008  0.2052198E+04  0.7818608E-02  0.8582598E-01
          2   -1    0    0  501    0  0.00000000000E+00  0.00000000000E+00  0.11027184106E+04  0.11027184106E+04  0.00000000000E+00 0. -1.
         -2   -1    0    0    0  501 -0.00000000000E+00 -0.00000000000E+00 -0.95480308443E+03  0.95480308443E+03  0.00000000000E+00 0.  1.
         23    2    1    2    0    0  0.45411863550E+03 -0.74076347436E+02 -0.62995510613E+03  0.78499038465E+03  0.87495302143E+02 0.  0.
        254    2    1    2    0    0 -0.45411863550E+03  0.74076347436E+02  0.77787043233E+03  0.12725311104E+04  0.89584707239E+03 0.  0.
        -24    2    4    4    0    0 -0.63242200717E+03  0.18373218919E+03  0.43995809770E+03  0.79603363066E+03  0.79945612195E+02 0.  0.
         13    1    3    3    0    0  0.44110208847E+03 -0.65438945318E+02 -0.57381047705E+03  0.72671299121E+03  0.00000000000E+00 0.  1.
        -13    1    3    3    0    0  0.13016547025E+02 -0.86374021186E+01 -0.56144629076E+02  0.58277393437E+02  0.00000000000E+00 0. -1.
          2    1    4    4  502    0 -0.67043527440E+02 -0.95189079033E+01  0.97428835416E+02  0.11864999852E+03  0.00000000000E+00 0. -1.
          3    1    5    5  503    0 -0.20589140395E+03  0.26444794723E+02  0.11586949864E+03  0.23773165145E+03  0.00000000000E+00 0. -1.
         -4    1    5    5    0  503 -0.42653060322E+03  0.15728739447E+03  0.32408859906E+03  0.55830197921E+03  0.00000000000E+00 0.  1.
         -1    1    4    4    0  502  0.24534689911E+03 -0.10013693385E+03  0.24048349921E+03  0.35784748122E+03  0.00000000000E+00 0.  1.
<mgrwt>
<rscale>  0 0.20521978E+04</rscale>
<asrwt>0</asrwt>
<pdfrwt beam="1">  1        2 0.16964899E+00 0.20521978E+04</pdfrwt>
<pdfrwt beam="2">  1       -2 0.14689278E+00 0.20521978E+04</pdfrwt>
<totfact> 0.63582020E+00</totfact>
</mgrwt>
</event>
<event>
11    1  0.2406360E-008  0.2380628E+04  0.7818608E-02  0.8446792E-01
         -2   -1    0    0    0  501 -0.00000000000E+00  0.00000000000E+00  0.82893294277E+03  0.82893294277E+03  0.00000000000E+00 0.  1.
          2   -1    0    0  501    0  0.00000000000E+00 -0.00000000000E+00 -0.17092425600E+04  0.17092425600E+04  0.00000000000E+00 0. -1.
         23    2    1    2    0    0 -0.47415607068E+03  0.83637586058E+03 -0.23093494168E+02  0.96634469810E+03  0.94552665489E+02 0.  0.
        254    2    1    2    0    0  0.47415607068E+03 -0.83637586058E+03 -0.85721612307E+03  0.15718308047E+04  0.90082408788E+03 0.  0.
        -24    2    4    4    0    0  0.54089792677E+03 -0.70944454565E+03 -0.32712945534E+03  0.95360816031E+03  0.80453168523E+02 0.  0.
         13    1    3    3    0    0 -0.32172888999E+03  0.62753024828E+03  0.12778592389E+02  0.70531339388E+03  0.00000000000E+00 0.  1.
        -13    1    3    3    0    0 -0.15242718069E+03  0.20884561230E+03 -0.35872086557E+02  0.26103130423E+03  0.00000000000E+00 0. -1.
          2    1    4    4  502    0 -0.46915820051E+02  0.69982625611E+02 -0.47707734034E+02  0.96822982525E+02  0.00000000000E+00 0. -1.
          1    1    5    5  503    0  0.61877732447E+02 -0.71225259443E+02 -0.98643134890E+01  0.94864092449E+02  0.00000000000E+00 0. -1.
         -2    1    5    5    0  503  0.47902019432E+03 -0.63821928621E+03 -0.31726514186E+03  0.85874406786E+03  0.00000000000E+00 0.  1.
         -1    1    4    4    0  502 -0.19826036037E+02 -0.19691394055E+03 -0.48237893369E+03  0.52139966183E+03  0.00000000000E+00 0.  1.
<mgrwt>
<rscale>  0 0.23806280E+04</rscale>
<asrwt>0</asrwt>
<pdfrwt beam="1">  1        2 0.26296039E+00 0.23806280E+04</pdfrwt>
<pdfrwt beam="2">  1       -2 0.12752815E+00 0.23806280E+04</pdfrwt>
<totfact> 0.39799742E+00</totfact>
</mgrwt>
</event>
<event>
12    1  0.2406360E-008  0.1784037E+04  0.7818608E-02  0.8714834E-01
         -2   -1    0    0    0  501 -0.00000000000E+00  0.00000000000E+00  0.11223897751E+04  0.11223897751E+04  0.00000000000E+00 0.  1.
          2   -1    0    0  501    0  0.00000000000E+00 -0.00000000000E+00 -0.70893146135E+03  0.70893146135E+03  0.00000000000E+00 0. -1.
         23    2    1    2    0    0 -0.43688603210E+03 -0.79266720905E+02  0.65939078508E+03  0.80039348749E+03  0.93171397316E+02 0.  0.
        254    2    1    2    0    0  0.43688603210E+03  0.79266720905E+02 -0.24593247130E+03  0.10309277490E+04  0.89731634617E+03 0.  0.
        -24    2    4    4    0    0  0.18623836751E+03  0.44572491129E+03 -0.30660979056E+03  0.57782500497E+03  0.80726368854E+02 0.  0.
         24    2    4    4    0    0  0.25064766460E+03 -0.36645819039E+03  0.60677319259E+02  0.45310274401E+03  0.67115590514E+02 0.  0.
         13    1    3    3    0    0 -0.65354930659E+02 -0.58696029357E+01  0.16538893445E+03  0.17793037638E+03  0.00000000000E+00 0.  1.
        -13    1    3    3    0    0 -0.37153110145E+03 -0.73397117969E+02  0.49400185063E+03  0.62246311111E+03  0.00000000000E+00 0. -1.
          2    1    6    6  502    0  0.14417851010E+03 -0.18648833276E+03  0.62956944098E+02  0.24398548695E+03  0.00000000000E+00 0. -1.
          1    1    5    5  503    0  0.19593482470E+02  0.98028011124E+02 -0.95463973066E+02  0.13822722479E+03  0.00000000000E+00 0. -1.
         -2    1    5    5    0  503  0.16664488504E+03  0.34769690017E+03 -0.21114581749E+03  0.43959778018E+03  0.00000000000E+00 0.  1.
         -1    1    6    6    0  502  0.10646915449E+03 -0.17996985763E+03 -0.22796248390E+01  0.20911725706E+03  0.00000000000E+00 0.  1.
<mgrwt>
<rscale>  0 0.17840375E+04</rscale>
<asrwt>0</asrwt>
<pdfrwt beam="1">  1        2 0.10906638E+00 0.17840375E+04</pdfrwt>
<pdfrwt beam="2">  1       -2 0.17267535E+00 0.17840375E+04</pdfrwt>
<totfact> 0.77704190E+00</totfact>
</mgrwt>
</event>
<event>
12    1  0.2406360E-008  0.2475447E+04  0.7818608E-02  0.8411785E-01
         -1   -1    0    0    0  501 -0.00000000000E+00  0.00000000000E+00  0.16738853977E+04  0.16738853977E+04  0.00000000000E+00 0.  1.
          1   -1    0    0  501    0  0.00000000000E+00 -0.00000000000E+00 -0.91521138658E+03  0.91521138658E+03  0.00000000000E+00 0. -1.
         23    2    1    2    0    0 -0.33913596190E+03  0.10119608564E+04  0.26085174124E+03  0.11025920736E+04  0.92669704615E+02 0.  0.
        254    2    1    2    0    0  0.33913596190E+03 -0.10119608564E+04  0.49782226991E+03  0.14865047107E+04  0.90707842384E+03 0.  0.
        -24    2    4    4    0    0  0.32636067573E+03  0.18943711000E+02  0.25758359246E+03  0.42330132045E+03  0.77230472877E+02 0.  0.
         24    2    4    4    0    0  0.12775286171E+02 -0.10309045674E+04  0.24023867745E+03  0.10632033903E+04  0.98789634414E+02 0.  0.
         13    1    3    3    0    0 -0.17889297787E+03  0.67265501919E+03  0.16689028988E+03  0.71576521376E+03  0.00000000000E+00 0. -1.
        -13    1    3    3    0    0 -0.16024298403E+03  0.33930583726E+03  0.93961451362E+02  0.38682685981E+03  0.00000000000E+00 0.  1.
          4    1    6    6  502    0 -0.25926514863E+02 -0.69905722131E+03  0.19386243137E+03  0.72590345441E+03  0.00000000000E+00 0. -1.
          3    1    5    5  503    0  0.22295638267E+03 -0.22988838210E+02  0.17858040563E+03  0.28658157047E+03  0.00000000000E+00 0. -1.
         -4    1    5    5    0  503  0.10340429305E+03  0.41932549210E+02  0.79003186827E+02  0.13671974998E+03  0.00000000000E+00 0.  1.
         -3    1    6    6    0  502  0.38701801034E+02 -0.33184734614E+03  0.46376246085E+02  0.33729993588E+03  0.00000000000E+00 0.  1.
<mgrwt>
<rscale>  0 0.24754466E+04</rscale>
<asrwt>0</asrwt>
<pdfrwt beam="1">  1        1 0.14080175E+00 0.24754466E+04</pdfrwt>
<pdfrwt beam="2">  1       -1 0.25752083E+00 0.24754466E+04</pdfrwt>
<totfact> 0.98028670E-01</totfact>
</mgrwt>
</event>
<event>
11    1  0.2406360E-008  0.1156141E+04  0.7818608E-02  0.9152136E-01
          2   -1    0    0  501    0  0.00000000000E+00  0.00000000000E+00  0.31730508269E+04  0.31730508269E+04  0.00000000000E+00 0. -1.
         -2   -1    0    0    0  501 -0.00000000000E+00 -0.00000000000E+00 -0.10531371788E+03  0.10531371788E+03  0.00000000000E+00 0.  1.
         23    2    1    2    0    0 -0.17539664364E+03 -0.41243624104E+02  0.33670334736E+03  0.39288523052E+03  0.92328983021E+02 0.  0.
        254    2    1    2    0    0  0.17539664364E+03  0.41243624104E+02  0.27310337617E+04  0.28854793143E+04  0.91377264491E+03 0.  0.
        -24    2    4    4    0    0  0.32447590439E+03  0.18597565573E+03  0.24975796786E+04  0.25266877031E+04  0.79843228357E+02 0.  0.
         13    1    3    3    0    0 -0.61370697260E+02 -0.55598504004E+02  0.18391753640E+03  0.20170080894E+03  0.00000000000E+00 0. -1.
        -13    1    3    3    0    0 -0.11402594638E+03  0.14354879900E+02  0.15278581096E+03  0.19118442159E+03  0.00000000000E+00 0.  1.
          4    1    4    4  502    0 -0.78264274974E+01 -0.35166676852E+01  0.13649849260E+03  0.13676789975E+03  0.00000000000E+00 0. -1.
          3    1    5    5  503    0  0.99702357052E+02  0.89137989466E+02  0.71701103254E+03  0.72937710545E+03  0.00000000000E+00 0. -1.
         -4    1    5    5    0  503  0.22477354734E+03  0.96837666261E+02  0.17805686460E+04  0.17973105977E+04  0.00000000000E+00 0.  1.
         -3    1    4    4    0  502 -0.14125283325E+03 -0.14121536394E+03  0.96955590523E+02  0.22202371145E+03  0.00000000000E+00 0.  1.
<mgrwt>
<rscale>  0 0.11561415E+04</rscale>
<asrwt>0</asrwt>
<pdfrwt beam="1">  1        2 0.48816159E+00 0.11561415E+04</pdfrwt>
<pdfrwt beam="2">  1       -2 0.16202113E-01 0.11561415E+04</pdfrwt>
<totfact> 0.41979244E+01</totfact>
</mgrwt>
</event>
<event>
11    1  0.2406360E-008  0.1189052E+04  0.7818608E-02  0.9122493E-01
         -2   -1    0    0    0  501 -0.00000000000E+00  0.00000000000E+00  0.59796601511E+03  0.59796601511E+03  0.00000000000E+00 0.  1.
          2   -1    0    0  501    0  0.00000000000E+00 -0.00000000000E+00 -0.59110596061E+03  0.59110596061E+03  0.00000000000E+00 0. -1.
         23    2    1    2    0    0 -0.21776922183E+03  0.54261136458E+02 -0.96483433962E+02  0.26025649584E+03  0.89759042404E+02 0.  0.
        254    2    1    2    0    0  0.21776922183E+03 -0.54261136458E+02  0.10334348847E+03  0.92881547988E+03  0.89534943689E+03 0.  0.
        -24    2    4    4    0    0  0.18315816475E+03 -0.28962204009E+03 -0.31664111915E+02  0.35115234043E+03  0.69839177992E+02 0.  0.
         13    1    3    3    0    0 -0.89679135903E+01  0.14449615977E+02  0.12763461151E+02  0.21263132803E+02  0.00000000000E+00 0.  1.
        -13    1    3    3    0    0 -0.20880130824E+03  0.39811520481E+02 -0.10924689511E+03  0.23899336304E+03  0.00000000000E+00 0. -1.
          4    1    4    4  502    0  0.88225696730E+02  0.79254112944E+02  0.31312185371E+03  0.33482873719E+03  0.00000000000E+00 0. -1.
          1    1    5    5  503    0  0.15204433232E+03 -0.25275747649E+03 -0.50705465992E+02  0.29929060325E+03  0.00000000000E+00 0. -1.
         -2    1    5    5    0  503  0.31113832426E+02 -0.36864563605E+02  0.19041354077E+02  0.51861737178E+02  0.00000000000E+00 0.  1.
         -3    1    4    4    0  502 -0.53614639652E+02  0.15610679069E+03 -0.17811425332E+03  0.24283440226E+03  0.00000000000E+00 0.  1.
<mgrwt>
<rscale>  0 0.11890522E+04</rscale>
<asrwt>0</asrwt>
<pdfrwt beam="1">  1        2 0.90939379E-01 0.11890522E+04</pdfrwt>
<pdfrwt beam="2">  1       -2 0.91994771E-01 0.11890522E+04</pdfrwt>
<totfact> 0.50111134E+01</totfact>
</mgrwt>
</event>
<event>
11    1  0.2406360E-008  0.1208834E+04  0.7818608E-02  0.9105159E-01
         -1   -1    0    0    0  501 -0.00000000000E+00  0.00000000000E+00  0.78521327284E+03  0.78521327284E+03  0.00000000000E+00 0.  1.
          1   -1    0    0  501    0  0.00000000000E+00 -0.00000000000E+00 -0.46524926782E+03  0.46524926782E+03  0.00000000000E+00 0. -1.
         23    2    1    2    0    0  0.22583518050E+02  0.12817621522E+03 -0.13119888297E+03  0.20189976111E+03  0.81309342699E+02 0.  0.
        254    2    1    2    0    0 -0.22583518050E+02 -0.12817621522E+03  0.45116288799E+03  0.10485627795E+04  0.93754828874E+03 0.  0.
        -24    2    4    4    0    0  0.36434430549E+03 -0.27717245507E+03  0.37597227117E+03  0.59780642013E+03  0.80287137649E+02 0.  0.
         13    1    3    3    0    0  0.16448024826E+02  0.73081941988E+02 -0.19819448472E+02  0.77487536437E+02  0.00000000000E+00 0.  1.
        -13    1    3    3    0    0  0.61354932238E+01  0.55094273230E+02 -0.11137943450E+03  0.12441222468E+03  0.00000000000E+00 0. -1.
          4    1    4    4  502    0 -0.26054094023E+03  0.91550950989E+02  0.12517503801E+03  0.30320281711E+03  0.00000000000E+00 0. -1.
          3    1    5    5  503    0  0.14836420463E+03 -0.67285106816E+02  0.11645589685E+03  0.20025283699E+03  0.00000000000E+00 0. -1.
         -2    1    5    5    0  503  0.21598010087E+03 -0.20988734825E+03  0.25951637432E+03  0.39755358314E+03  0.00000000000E+00 0.  1.
         -3    1    4    4    0  502 -0.12638688331E+03  0.57445288863E+02 -0.49984421178E+02  0.14755354230E+03  0.00000000000E+00 0.  1.
<mgrwt>
<rscale>  0 0.12088340E+04</rscale>
<asrwt>0</asrwt>
<pdfrwt beam="1">  1        1 0.71576811E-01 0.12088340E+04</pdfrwt>
<pdfrwt beam="2">  1       -1 0.12080204E+00 0.12088340E+04</pdfrwt>
<totfact> 0.29488405E+01</totfact>
</mgrwt>
</event>
<event>
11    1  0.2406360E-008  0.1438205E+04  0.7818608E-02  0.8926619E-01
          2   -1    0    0  501    0  0.00000000000E+00  0.00000000000E+00  0.30965063755E+04  0.30965063755E+04  0.00000000000E+00 0. -1.
         -2   -1    0    0    0  501 -0.00000000000E+00 -0.00000000000E+00 -0.16699740482E+03  0.16699740482E+03  0.00000000000E+00 0.  1.
         23    2    1    2    0    0 -0.16997288936E+02 -0.15901727522E+03 -0.93565576962E+01  0.18373146254E+03  0.89968347239E+02 0.  0.
        254    2    1    2    0    0  0.16997288936E+02  0.15901727522E+03  0.29388655283E+04  0.30797723178E+04  0.90691318981E+03 0.  0.
        -24    2    4    4    0    0  0.34631254674E+03  0.13951331197E+03  0.60243170032E+03  0.71360500913E+03  0.83137303708E+02 0.  0.
         11    1    3    3    0    0 -0.11528274983E+02 -0.16774607283E+03  0.23240584519E+01  0.16815780482E+03  0.00000000000E+00 0.  1.
        -11    1    3    3    0    0 -0.54690139530E+01  0.87287976056E+01 -0.11680616148E+02  0.15573657722E+02  0.00000000000E+00 0. -1.
          4    1    4    4  502    0 -0.21968254291E+03  0.87279477058E+02  0.12538854759E+04  0.12759729282E+04  0.00000000000E+00 0. -1.
          1    1    5    5  503    0  0.20920558868E+03  0.59890617545E+02  0.28301962060E+03  0.35700696079E+03  0.00000000000E+00 0. -1.
         -2    1    5    5    0  503  0.13710695806E+03  0.79622694427E+02  0.31941207972E+03  0.35659804835E+03  0.00000000000E+00 0.  1.
         -3    1    4    4    0  502 -0.10963271489E+03 -0.67775513806E+02  0.10825483521E+04  0.10901943804E+04  0.00000000000E+00 0.  1.
<mgrwt>
<rscale>  0 0.14382052E+04</rscale>
<asrwt>0</asrwt>
<pdfrwt beam="1">  1        2 0.47638556E+00 0.14382052E+04</pdfrwt>
<pdfrwt beam="2">  1       -2 0.25691911E-01 0.14382052E+04</pdfrwt>
<totfact> 0.20236809E+01</totfact>
</mgrwt>
</event>
<event>
11    1  0.2406360E-008  0.2030347E+04  0.7818608E-02  0.8592563E-01
          2   -1    0    0  501    0  0.00000000000E+00  0.00000000000E+00  0.13607190708E+04  0.13607190708E+04  0.00000000000E+00 0. -1.
         -2   -1    0    0    0  501 -0.00000000000E+00 -0.00000000000E+00 -0.75737663027E+03  0.75737663027E+03  0.00000000000E+00 0.  1.
         23    2    1    2    0    0 -0.65590803321E+02  0.58101421175E+03  0.82370583500E+03  0.10142908893E+04  0.91733515234E+02 0.  0.
        254    2    1    2    0    0  0.65590803321E+02 -0.58101421175E+03 -0.22036339444E+03  0.11038048118E+04  0.90991503403E+03 0.  0.
        -24    2    4    4    0    0 -0.37766600878E+03 -0.36128909973E+03 -0.26762371343E+03  0.59256316276E+03  0.79669455294E+02 0.  0.
         13    1    3    3    0    0  0.78780241078E+00  0.93182505214E+01 -0.10219852087E+00  0.93520516442E+01  0.00000000000E+00 0.  1.
        -13    1    3    3    0    0 -0.66378605732E+02  0.57169596122E+03  0.82380803352E+03  0.10049388377E+04  0.00000000000E+00 0. -1.
          4    1    4    4  502    0  0.32633851122E+02  0.10290936784E+02 -0.13283555143E+02  0.36705918544E+02  0.00000000000E+00 0. -1.
          3    1    5    5  503    0 -0.29366065066E+02 -0.26924861600E+02  0.13799393125E+01  0.39864999462E+02  0.00000000000E+00 0. -1.
         -4    1    5    5    0  503 -0.34829994372E+03 -0.33436423813E+03 -0.26900365274E+03  0.55269816330E+03  0.00000000000E+00 0.  1.
         -3    1    4    4    0  502  0.41062296098E+03 -0.23001604880E+03  0.60543874125E+02  0.47453573046E+03  0.00000000000E+00 0.  1.
<mgrwt>
<rscale>  0 0.20303466E+04</rscale>
<asrwt>0</asrwt>
<pdfrwt beam="1">  1        2 0.20934139E+00 0.20303466E+04</pdfrwt>
<pdfrwt beam="2">  1       -2 0.11651948E+00 0.20303466E+04</pdfrwt>
<totfact> 0.80680926E+00</totfact>
</mgrwt>
</event>
<event>
11    1  0.2406360E-008  0.1212297E+04  0.7818608E-02  0.9102160E-01
          2   -1    0    0  501    0  0.00000000000E+00  0.00000000000E+00  0.20139056496E+04  0.20139056496E+04  0.00000000000E+00 0. -1.
         -2   -1    0    0    0  501 -0.00000000000E+00 -0.00000000000E+00 -0.18243956775E+03  0.18243956775E+03  0.00000000000E+00 0.  1.
         23    2    1    2    0    0  0.93032440632E+02 -0.23929356822E+03  0.36738005917E+03  0.45747473743E+03  0.91643770719E+02 0.  0.
        254    2    1    2    0    0 -0.93032440632E+02  0.23929356822E+03  0.14640860226E+04  0.17388704799E+04  0.90233376159E+03 0.  0.
        -24    2    4    4    0    0  0.22356569244E+03  0.15805334874E+03  0.58891937927E+02  0.29040289631E+03  0.76831646790E+02 0.  0.
         11    1    3    3    0    0  0.78351648581E+02 -0.15247570668E+03  0.17039797997E+03  0.24170910935E+03  0.00000000000E+00 0.  1.
        -11    1    3    3    0    0  0.14680792051E+02 -0.86817861537E+02  0.19698207920E+03  0.21576562808E+03  0.00000000000E+00 0. -1.
          4    1    4    4  502    0 -0.75988544517E+02  0.15206435332E+02  0.15131411617E+03  0.17000428326E+03  0.00000000000E+00 0. -1.
          3    1    5    5  503    0  0.63377746980E+02  0.72789294049E+01  0.54937637298E+01  0.64030485439E+02  0.00000000000E+00 0. -1.
         -4    1    5    5    0  503  0.16018794546E+03  0.15077441933E+03  0.53398174197E+02  0.22637241087E+03  0.00000000000E+00 0.  1.
         -3    1    4    4    0  502 -0.24060958855E+03  0.66033784152E+02  0.12538799685E+04  0.12784633003E+04  0.00000000000E+00 0.  1.
<mgrwt>
<rscale>  0 0.12122971E+04</rscale>
<asrwt>0</asrwt>
<pdfrwt beam="1">  1        2 0.30983162E+00 0.12122971E+04</pdfrwt>
<pdfrwt beam="2">  1       -2 0.28067627E-01 0.12122971E+04</pdfrwt>
<totfact> 0.75200834E+01</totfact>
</mgrwt>
</event>
<event>
12    1  0.2406360E-008  0.2357373E+04  0.7818608E-02  0.8455637E-01
          2   -1    0    0  501    0  0.00000000000E+00  0.00000000000E+00  0.74602455564E+03  0.74602455564E+03  0.00000000000E+00 0. -1.
         -2   -1    0    0    0  501 -0.00000000000E+00 -0.00000000000E+00 -0.18622741935E+04  0.18622741935E+04  0.00000000000E+00 0.  1.
         23    2    1    2    0    0  0.13498597007E+03 -0.99116143982E+03 -0.30650973851E+03  0.10505538108E+04  0.95356582067E+02 0.  0.
        254    2    1    2    0    0 -0.13498597007E+03  0.99116143982E+03 -0.80973989940E+03  0.15577449384E+04  0.87764934706E+03 0.  0.
        -24    2    4    4    0    0 -0.33961588875E+03  0.10435265796E+04 -0.67323067465E+03  0.12895356938E+04  0.73321824148E+02 0.  0.
         24    2    4    4    0    0  0.20462991868E+03 -0.52365139827E+02 -0.13650922475E+03  0.26820924459E+03  0.93198277622E+02 0.  0.
         11    1    3    3    0    0  0.23930029446E+02 -0.36409051172E+02 -0.16133214884E+02  0.46460154315E+02  0.00000000000E+00 0. -1.
        -11    1    3    3    0    0  0.11105594062E+03 -0.95475238865E+03 -0.29037652363E+03  0.10040936565E+04  0.00000000000E+00 0.  1.
          2    1    6    6  502    0  0.66649963573E+02  0.16542415999E+02 -0.76277145013E+02  0.10263562745E+03  0.00000000000E+00 0. -1.
          3    1    5    5  503    0 -0.29982037610E+03  0.85348995280E+03 -0.53216032686E+03  0.10495389325E+04  0.00000000000E+00 0. -1.
         -4    1    5    5    0  503 -0.39795512649E+02  0.19003662685E+03 -0.14107034779E+03  0.23999676122E+03  0.00000000000E+00 0.  1.
         -1    1    6    6    0  502  0.13797995511E+03 -0.68907555826E+02 -0.60232079738E+02  0.16557361713E+03  0.00000000000E+00 0.  1.
<mgrwt>
<rscale>  0 0.23573733E+04</rscale>
<asrwt>0</asrwt>
<pdfrwt beam="1">  1        2 0.11477301E+00 0.23573733E+04</pdfrwt>
<pdfrwt beam="2">  1       -2 0.28650372E+00 0.23573733E+04</pdfrwt>
<totfact> 0.13097967E+00</totfact>
</mgrwt>
</event>
<event>
12    1  0.2406360E-008  0.2719332E+04  0.7818608E-02  0.8328760E-01
          2   -1    0    0  501    0  0.00000000000E+00  0.00000000000E+00  0.10363561922E+04  0.10363561922E+04  0.00000000000E+00 0. -1.
         -2   -1    0    0    0  501 -0.00000000000E+00 -0.00000000000E+00 -0.17838380360E+04  0.17838380360E+04  0.00000000000E+00 0.  1.
         23    2    1    2    0    0  0.80186925009E+03 -0.85855716416E+03 -0.60318601993E+03  0.13238647952E+04  0.93112420705E+02 0.  0.
        254    2    1    2    0    0 -0.80186925009E+03  0.85855716416E+03 -0.14429582381E+03  0.14963294330E+04  0.91545933227E+03 0.  0.
        -24    2    4    4    0    0 -0.88655048032E+03  0.61786977374E+03 -0.36336195110E+03  0.11429240165E+04  0.80675824055E+02 0.  0.
         24    2    4    4    0    0  0.84681230232E+02  0.24068739042E+03  0.21906612729E+03  0.35340541651E+03  0.10864662735E+03 0.  0.
         13    1    3    3    0    0  0.81949977033E+02 -0.52631649805E+02 -0.40265947609E+02  0.10539087168E+03  0.00000000000E+00 0. -1.
        -13    1    3    3    0    0  0.71991927306E+03 -0.80592551436E+03 -0.56292007232E+03  0.12184739235E+04  0.00000000000E+00 0.  1.
          4    1    6    6  502    0  0.10953295763E+03  0.17229423765E+03  0.16956913179E+03  0.26539868800E+03  0.00000000000E+00 0. -1.
          1    1    5    5  503    0 -0.86130397665E+03  0.58613056771E+03 -0.33887899011E+03  0.10955512551E+04  0.00000000000E+00 0. -1.
         -2    1    5    5    0  503 -0.25246503672E+02  0.31739206034E+02 -0.24482960989E+02  0.47372761437E+02  0.00000000000E+00 0.  1.
         -3    1    6    6    0  502 -0.24851727397E+02  0.68393152779E+02  0.49496995493E+02  0.88006728518E+02  0.00000000000E+00 0.  1.
<mgrwt>
<rscale>  0 0.27193320E+04</rscale>
<asrwt>0</asrwt>
<pdfrwt beam="1">  1        2 0.15943942E+00 0.27193320E+04</pdfrwt>
<pdfrwt beam="2">  1       -2 0.27443662E+00 0.27193320E+04</pdfrwt>
<totfact> 0.95234033E-01</totfact>
</mgrwt>
</event>
<event>
11    1  0.2406360E-008  0.2071327E+04  0.7818608E-02  0.8573980E-01
          1   -1    0    0  501    0  0.00000000000E+00  0.00000000000E+00  0.21459000301E+04  0.21459000301E+04  0.00000000000E+00 0. -1.
         -1   -1    0    0    0  501 -0.00000000000E+00 -0.00000000000E+00 -0.49983616873E+03  0.49983616873E+03  0.00000000000E+00 0.  1.
         23    2    1    2    0    0 -0.12588734528E+03  0.65573517408E+03  0.13113440310E+04  0.14744677063E+04  0.92712497809E+02 0.  0.
        254    2    1    2    0    0  0.12588734528E+03 -0.65573517408E+03  0.33471983039E+03  0.11712684925E+04  0.90221742079E+03 0.  0.
        -24    2    4    4    0    0  0.20246974753E+03 -0.22150806520E+03 -0.11515067930E+03  0.33106522210E+03  0.79275978249E+02 0.  0.
         13    1    3    3    0    0 -0.47994955174E+02  0.16131613591E+03  0.25484905709E+03  0.30540866610E+03  0.00000000000E+00 0.  1.
        -13    1    3    3    0    0 -0.77892390109E+02  0.49441903817E+03  0.10564949739E+04  0.11690590402E+04  0.00000000000E+00 0. -1.
          4    1    4    4  502    0  0.22351368299E+02  0.11909704488E+03  0.15058653908E+01  0.12118563197E+03  0.00000000000E+00 0. -1.
          3    1    5    5  503    0  0.15304103607E+03 -0.20389417812E+03 -0.77423714214E+02  0.26643728365E+03  0.00000000000E+00 0. -1.
         -4    1    5    5    0  503  0.49428711459E+02 -0.17613887080E+02 -0.37726965081E+02  0.64627938454E+02  0.00000000000E+00 0.  1.
         -3    1    4    4    0  502 -0.98933770546E+02 -0.55332415376E+03  0.44836464430E+03  0.71901763841E+03  0.00000000000E+00 0.  1.
<mgrwt>
<rscale>  0 0.20713266E+04</rscale>
<asrwt>0</asrwt>
<pdfrwt beam="1">  1        1 0.33013846E+00 0.20713266E+04</pdfrwt>
<pdfrwt beam="2">  1       -1 0.76897873E-01 0.20713266E+04</pdfrwt>
<totfact> 0.37090179E+00</totfact>
</mgrwt>
</event>
<event>
12    1  0.2406360E-008  0.1581405E+04  0.7818608E-02  0.8832054E-01
         -2   -1    0    0    0  501 -0.00000000000E+00  0.00000000000E+00  0.54465081718E+03  0.54465081718E+03  0.00000000000E+00 0.  1.
          2   -1    0    0  501    0  0.00000000000E+00 -0.00000000000E+00 -0.11479100781E+04  0.11479100781E+04  0.00000000000E+00 0. -1.
         23    2    1    2    0    0  0.23218589017E+03 -0.38437976893E+03  0.99644693142E+02  0.46887617105E+03  0.90871912840E+02 0.  0.
        254    2    1    2    0    0 -0.23218589017E+03  0.38437976893E+03 -0.70290395409E+03  0.12236847243E+04  0.89536151432E+03 0.  0.
        -24    2    4    4    0    0 -0.50667583431E+03  0.14722812227E+03 -0.66696277961E+03  0.85397942207E+03  0.77749487950E+02 0.  0.
         24    2    4    4    0    0  0.27448994413E+03  0.23715164666E+03 -0.35941174478E+02  0.36970530218E+03  0.61681516607E+02 0.  0.
         13    1    3    3    0    0  0.70368157873E+02 -0.15698255523E+03  0.78157409753E+02  0.18895444157E+03  0.00000000000E+00 0. -1.
        -13    1    3    3    0    0  0.16181773230E+03 -0.22739721370E+03  0.21487283389E+02  0.27992172948E+03  0.00000000000E+00 0.  1.
          4    1    6    6  502    0  0.16353242324E+03  0.10482916386E+03 -0.32750219804E+02  0.19698879142E+03  0.00000000000E+00 0. -1.
          1    1    5    5  503    0 -0.19245021580E+03  0.54602213592E+02 -0.19417311439E+03  0.27878609299E+03  0.00000000000E+00 0. -1.
         -2    1    5    5    0  503 -0.31422561851E+03  0.92625908678E+02 -0.47278966522E+03  0.57519332909E+03  0.00000000000E+00 0.  1.
         -3    1    6    6    0  502  0.11095752089E+03  0.13232248280E+03 -0.31909546739E+01  0.17271651076E+03  0.00000000000E+00 0.  1.
<mgrwt>
<rscale>  0 0.15814046E+04</rscale>
<asrwt>0</asrwt>
<pdfrwt beam="1">  1        2 0.17660155E+00 0.15814046E+04</pdfrwt>
<pdfrwt beam="2">  1       -2 0.83792434E-01 0.15814046E+04</pdfrwt>
<totfact> 0.24343932E+01</totfact>
</mgrwt>
</event>
<event>
11    1  0.2406360E-008  0.1472729E+04  0.7818608E-02  0.8902793E-01
          2   -1    0    0  501    0  0.00000000000E+00  0.00000000000E+00  0.10811691753E+04  0.10811691753E+04  0.00000000000E+00 0. -1.
         -2   -1    0    0    0  501 -0.00000000000E+00 -0.00000000000E+00 -0.50152408705E+03  0.50152408705E+03  0.00000000000E+00 0.  1.
         23    2    1    2    0    0 -0.32691030330E+03 -0.30788104815E+02 -0.15675324032E+03  0.37474278699E+03  0.89679006745E+02 0.  0.
        254    2    1    2    0    0  0.32691030330E+03  0.30788104815E+02  0.73639832858E+03  0.12079504754E+04  0.89946850908E+03 0.  0.
        -24    2    4    4    0    0 -0.96243458710E+02 -0.10228676153E+03 -0.14126059769E+03  0.21425705556E+03  0.78905921655E+02 0.  0.
         13    1    3    3    0    0 -0.18728859257E+02  0.18222249150E+02 -0.14303383728E+01  0.26169952255E+02  0.00000000000E+00 0. -1.
        -13    1    3    3    0    0 -0.30818144405E+03 -0.49010353965E+02 -0.15532290194E+03  0.34857283474E+03  0.00000000000E+00 0.  1.
          2    1    4    4  502    0  0.15840793578E+03 -0.20615269156E+02  0.31163366445E+03  0.35019081121E+03  0.00000000000E+00 0. -1.
          3    1    5    5  503    0  0.72278797802E+01  0.60356134986E+01 -0.17799015694E+02  0.20136430570E+02  0.00000000000E+00 0. -1.
         -2    1    5    5    0  503 -0.10347133849E+03 -0.10832237502E+03 -0.12346158199E+03  0.19412062499E+03  0.00000000000E+00 0.  1.
         -1    1    4    4    0  502  0.26474582623E+03  0.15369013550E+03  0.56602526182E+03  0.64350260860E+03  0.00000000000E+00 0.  1.
<mgrwt>
<rscale>  0 0.14727286E+04</rscale>
<asrwt>0</asrwt>
<pdfrwt beam="1">  1        2 0.16633372E+00 0.14727286E+04</pdfrwt>
<pdfrwt beam="2">  1       -2 0.77157552E-01 0.14727286E+04</pdfrwt>
<totfact> 0.32487688E+01</totfact>
</mgrwt>
</event>
<event>
11    1  0.2406360E-008  0.3594313E+04  0.7818608E-02  0.8091796E-01
          2   -1    0    0  501    0  0.00000000000E+00  0.00000000000E+00  0.22840868594E+04  0.22840868594E+04  0.00000000000E+00 0.  1.
         -2   -1    0    0    0  501 -0.00000000000E+00 -0.00000000000E+00 -0.14140314356E+04  0.14140314356E+04  0.00000000000E+00 0. -1.
         23    2    1    2    0    0  0.40123031752E+03  0.78130204351E+03  0.18840664171E+04  0.20807086923E+04  0.90684879640E+02 0.  0.
        254    2    1    2    0    0 -0.40123031752E+03 -0.78130204351E+03 -0.10140109933E+04  0.16174096027E+04  0.90353576439E+03 0.  0.
        -24    2    4    4    0    0 -0.97773332132E+01 -0.80809961492E+03 -0.61263586543E+03  0.10172497372E+04  0.79710352882E+02 0.  0.
         13    1    3    3    0    0  0.33063279688E+03  0.70683748149E+03  0.16607712743E+04  0.18349655302E+04  0.00000000000E+00 0.  1.
        -13    1    3    3    0    0  0.70597520640E+02  0.74464562021E+02  0.22329514278E+03  0.24574316207E+03  0.00000000000E+00 0. -1.
          4    1    4    4  502    0 -0.11566940286E+03  0.10650518951E+03 -0.11614850345E+03  0.19548207336E+03  0.00000000000E+00 0. -1.
          3    1    5    5  503    0 -0.35075117885E+02 -0.70590720045E+03 -0.53051258828E+03  0.88373007523E+03  0.00000000000E+00 0. -1.
         -4    1    5    5    0  503  0.25297784672E+02 -0.10219241447E+03 -0.82123277153E+02  0.13351966198E+03  0.00000000000E+00 0.  1.
         -3    1    4    4    0  502 -0.27578358145E+03 -0.79707618094E+02 -0.28522662440E+03  0.40467779214E+03  0.00000000000E+00 0.  1.
<mgrwt>
<rscale>  0 0.35943125E+04</rscale>
<asrwt>0</asrwt>
<pdfrwt beam="1">  1        2 0.35139798E+00 0.35943125E+04</pdfrwt>
<pdfrwt beam="2">  1       -2 0.21754330E+00 0.35943125E+04</pdfrwt>
<totfact> 0.38670044E-01</totfact>
</mgrwt>
</event>
<event>
11    1  0.2406360E-008  0.2315386E+04  0.7818608E-02  0.8471879E-01
         -1   -1    0    0    0  501 -0.00000000000E+00  0.00000000000E+00  0.94270624778E+03  0.94270624778E+03  0.00000000000E+00 0.  1.
          1   -1    0    0  501    0  0.00000000000E+00 -0.00000000000E+00 -0.14217081956E+04  0.14217081956E+04  0.00000000000E+00 0. -1.
         23    2    1    2    0    0  0.74287077168E+03  0.46993919075E+03  0.23257434597E+03  0.91418904465E+03  0.94609494949E+02 0.  0.
        254    2    1    2    0    0 -0.74287077168E+03 -0.46993919075E+03 -0.71157629375E+03  0.14502253987E+04  0.90780672985E+03 0.  0.
        -24    2    4    4    0    0 -0.46844479719E+02  0.19469099026E+03  0.43563044210E+02  0.21997022173E+03  0.79938555512E+02 0.  0.
         13    1    3    3    0    0  0.23349987767E+03  0.16828814771E+03  0.11873095011E+03  0.31135210300E+03  0.00000000000E+00 0. -1.
        -13    1    3    3    0    0  0.50937089401E+03  0.30165104305E+03  0.11384339586E+03  0.60283694165E+03  0.00000000000E+00 0.  1.
          4    1    4    4  502    0 -0.26124906673E+03 -0.30187224704E+03 -0.37900229829E+03  0.55047313332E+03  0.00000000000E+00 0. -1.
          3    1    5    5  503    0 -0.27758317484E+02  0.16188757932E+02 -0.81482783583E+01  0.33151086153E+02  0.00000000000E+00 0. -1.
         -2    1    5    5    0  503 -0.19086162235E+02  0.17850223233E+03  0.51711322568E+02  0.18681913558E+03  0.00000000000E+00 0.  1.
         -3    1    4    4    0  502 -0.43477722523E+03 -0.36275793398E+03 -0.37613703967E+03  0.67978204364E+03  0.00000000000E+00 0.  1.
<mgrwt>
<rscale>  0 0.23153861E+04</rscale>
<asrwt>0</asrwt>
<pdfrwt beam="1">  1        1 0.21872434E+00 0.23153861E+04</pdfrwt>
<pdfrwt beam="2">  1       -1 0.14503173E+00 0.23153861E+04</pdfrwt>
<totfact> 0.25570797E+00</totfact>
</mgrwt>
</event>
<event>
11    1  0.2406360E-008  0.1316186E+04  0.7818608E-02  0.9016827E-01
         -1   -1    0    0    0  501 -0.00000000000E+00  0.00000000000E+00  0.37568758336E+03  0.37568758336E+03  0.00000000000E+00 0.  1.
          1   -1    0    0  501    0  0.00000000000E+00 -0.00000000000E+00 -0.11527825359E+04  0.11527825359E+04  0.00000000000E+00 0. -1.
         23    2    1    2    0    0  0.79404366962E+02  0.92267481601E+02  0.16491620212E+03  0.22454045841E+03  0.91666362915E+02 0.  0.
        254    2    1    2    0    0 -0.79404366962E+02 -0.92267481601E+02 -0.94201115468E+03  0.13039296609E+04  0.89332480279E+03 0.  0.
        -24    2    4    4    0    0  0.21380609740E+03 -0.20537185515E+03 -0.18255478764E+03  0.35729814371E+03  0.80281173633E+02 0.  0.
         13    1    3    3    0    0  0.54901493915E+01  0.37272015284E+02  0.24294349518E+01  0.37752443866E+02  0.00000000000E+00 0. -1.
        -13    1    3    3    0    0  0.73914217570E+02  0.54995466317E+02  0.16248676717E+03  0.18678801455E+03  0.00000000000E+00 0.  1.
          2    1    4    4  502    0 -0.25777533845E+03  0.28551416616E+03 -0.57375589279E+03  0.69076934551E+03  0.00000000000E+00 0. -1.
          1    1    5    5  503    0  0.17029127915E+03 -0.18873992684E+03 -0.17833144006E+03  0.31052211234E+03  0.00000000000E+00 0. -1.
         -2    1    5    5    0  503  0.43514818243E+02 -0.16631928311E+02 -0.42233475754E+01  0.46776031371E+02  0.00000000000E+00 0.  1.
         -1    1    4    4    0  502 -0.35435125903E+02 -0.17240979260E+03 -0.18570047425E+03  0.25586217163E+03  0.00000000000E+00 0.  1.
<mgrwt>
<rscale>  0 0.13161855E+04</rscale>
<asrwt>0</asrwt>
<pdfrwt beam="1">  1        1 0.17735116E+00 0.13161855E+04</pdfrwt>
<pdfrwt beam="2">  1       -1 0.57798090E-01 0.13161855E+04</pdfrwt>
<totfact> 0.34447695E+01</totfact>
</mgrwt>
</event>
<event>
11    1  0.2406360E-008  0.1279965E+04  0.7818608E-02  0.9045606E-01
         -1   -1    0    0    0  501 -0.00000000000E+00  0.00000000000E+00  0.83704548858E+03  0.83704548858E+03  0.00000000000E+00 0.  1.
          1   -1    0    0  501    0  0.00000000000E+00 -0.00000000000E+00 -0.48931362503E+03  0.48931362503E+03  0.00000000000E+00 0. -1.
         23    2    1    2    0    0  0.19556986507E+03  0.23436668981E+03  0.19434424762E+03  0.37292586308E+03  0.90159277693E+02 0.  0.
        254    2    1    2    0    0 -0.19556986507E+03 -0.23436668981E+03  0.15338761592E+03  0.95343325053E+03  0.89013026298E+03 0.  0.
        -24    2    4    4    0    0 -0.39516695749E+03  0.17164882861E+03  0.19712019167E+03  0.48047943398E+03  0.79899135533E+02 0.  0.
         11    1    3    3    0    0  0.20499201184E+03  0.22419743974E+03  0.19036064301E+03  0.35850159178E+03  0.00000000000E+00 0. -1.
        -11    1    3    3    0    0 -0.94221467708E+01  0.10169250074E+02  0.39836046181E+01  0.14424271302E+02  0.00000000000E+00 0.  1.
          4    1    4    4  502    0  0.16505672536E+03 -0.23540428949E+03  0.18480464946E+02  0.28809795154E+03  0.00000000000E+00 0. -1.
          3    1    5    5  503    0 -0.36578372091E+03  0.16897013242E+03  0.20175121497E+03  0.45061312550E+03  0.00000000000E+00 0. -1.
         -4    1    5    5    0  503 -0.29383236583E+02  0.26786961915E+01 -0.46310233035E+01  0.29866308480E+02  0.00000000000E+00 0.  1.
         -3    1    4    4    0  502  0.34540367063E+02 -0.17061122893E+03 -0.62213040692E+02  0.18485586500E+03  0.00000000000E+00 0.  1.
<mgrwt>
<rscale>  0 0.12799653E+04</rscale>
<asrwt>0</asrwt>
<pdfrwt beam="1">  1        1 0.75279019E-01 0.12799653E+04</pdfrwt>
<pdfrwt beam="2">  1       -1 0.12877623E+00 0.12799653E+04</pdfrwt>
<totfact> 0.23345347E+01</totfact>
</mgrwt>
</event>
<event>
11    1  0.2406360E-008  0.2498965E+04  0.7818608E-02  0.8403354E-01
         -2   -1    0    0    0  501 -0.00000000000E+00  0.00000000000E+00  0.33869142601E+04  0.33869142601E+04  0.00000000000E+00 0.  1.
          2   -1    0    0  501    0  0.00000000000E+00 -0.00000000000E+00 -0.46095256661E+03  0.46095256661E+03  0.00000000000E+00 0. -1.
         23    2    1    2    0    0  0.51744815032E+03 -0.90612176580E+03  0.83258130184E+03  0.13379482217E+04  0.90025424872E+02 0.  0.
        254    2    1    2    0    0 -0.51744815032E+03  0.90612176580E+03  0.20933803916E+04  0.25099186049E+04  0.91029703762E+03 0.  0.
        -24    2    4    4    0    0 -0.50859753285E+02 -0.68469798233E+02 -0.20081884782E+02  0.11769214074E+03  0.78570542327E+02 0.  0.
         13    1    3    3    0    0  0.40130467670E+03 -0.75083354155E+03  0.70981186246E+03  0.11084355330E+04  0.00000000000E+00 0. -1.
        -13    1    3    3    0    0  0.11614347362E+03 -0.15528822425E+03  0.12276943937E+03  0.22951268876E+03  0.00000000000E+00 0.  1.
          2    1    4    4  502    0 -0.34947673578E+03  0.52813432547E+03  0.14674175979E+04  0.15982409897E+04  0.00000000000E+00 0. -1.
          3    1    5    5  503    0 -0.54718813558E+02 -0.81870292191E+02 -0.72462383555E+01  0.98739056462E+02  0.00000000000E+00 0. -1.
         -4    1    5    5    0  503  0.38590602731E+01  0.13400493958E+02 -0.12835646427E+02  0.18953084279E+02  0.00000000000E+00 0.  1.
         -1    1    4    4    0  502 -0.11711166126E+03  0.44645723857E+03  0.64604467849E+03  0.79398547448E+03  0.00000000000E+00 0.  1.
<mgrwt>
<rscale>  0 0.24989652E+04</rscale>
<asrwt>0</asrwt>
<pdfrwt beam="1">  1        2 0.70915781E-01 0.24989652E+04</pdfrwt>
<pdfrwt beam="2">  1       -2 0.52106372E+00 0.24989652E+04</pdfrwt>
<totfact> 0.73827582E-02</totfact>
</mgrwt>
</event>
<event>
11    1  0.2406360E-008  0.2098616E+04  0.7818608E-02  0.8561853E-01
          1   -1    0    0  501    0  0.00000000000E+00  0.00000000000E+00  0.21847667518E+04  0.21847667518E+04  0.00000000000E+00 0. -1.
         -1   -1    0    0    0  501 -0.00000000000E+00 -0.00000000000E+00 -0.50396545012E+03  0.50396545012E+03  0.00000000000E+00 0.  1.
         23    2    1    2    0    0  0.42495859610E+03  0.19857508309E+03  0.15886066232E+04  0.16588801433E+04  0.90501130255E+02 0.  0.
        254    2    1    2    0    0 -0.42495859610E+03 -0.19857508309E+03  0.92194678506E+02  0.10298520586E+04  0.91218064653E+03 0.  0.
        -24    2    4    4    0    0  0.67007820914E+02 -0.44617755772E+03  0.12841860797E+03  0.47599768645E+03  0.80734116477E+02 0.  0.
         13    1    3    3    0    0  0.41191644219E+03  0.20816262381E+03  0.15338785704E+04  0.16018084474E+04  0.00000000000E+00 0. -1.
        -13    1    3    3    0    0  0.13042153907E+02 -0.95875407213E+01  0.54728052765E+02  0.57071695919E+02  0.00000000000E+00 0.  1.
          4    1    4    4  502    0 -0.22631935331E+02  0.16225120402E+02  0.72717298615E+01  0.28780845784E+02  0.00000000000E+00 0. -1.
          3    1    5    5  503    0  0.18688580118E+02 -0.29953700862E+02 -0.62813965979E+01  0.35860049713E+02  0.00000000000E+00 0. -1.
         -2    1    5    5    0  503  0.48319240796E+02 -0.41622385686E+03  0.13470000457E+03  0.44013763674E+03  0.00000000000E+00 0.  1.
         -3    1    4    4    0  502 -0.46933448168E+03  0.23137735423E+03 -0.43495659323E+02  0.52507352640E+03  0.00000000000E+00 0.  1.
<mgrwt>
<rscale>  0 0.20986157E+04</rscale>
<asrwt>0</asrwt>
<pdfrwt beam="1">  1        1 0.33611796E+00 0.20986157E+04</pdfrwt>
<pdfrwt beam="2">  1       -1 0.77533147E-01 0.20986157E+04</pdfrwt>
<totfact> 0.34213682E+00</totfact>
</mgrwt>
</event>
<event>
12    1  0.2406360E-008  0.2061012E+04  0.7818608E-02  0.8578615E-01
          2   -1    0    0  501    0  0.00000000000E+00  0.00000000000E+00  0.13637600994E+04  0.13637600994E+04  0.00000000000E+00 0. -1.
         -2   -1    0    0    0  501 -0.00000000000E+00 -0.00000000000E+00 -0.77868693818E+03  0.77868693818E+03  0.00000000000E+00 0.  1.
         23    2    1    2    0    0  0.68740666157E+03 -0.45845226942E+03  0.30417786576E+03  0.88564043838E+03  0.95542714851E+02 0.  0.
        254    2    1    2    0    0 -0.68740666157E+03  0.45845226942E+03  0.28089529548E+03  0.12568065992E+04  0.90440823698E+03 0.  0.
        -24    2    4    4    0    0 -0.20620563571E+03  0.63848361137E+03  0.30413729963E+02  0.67676895872E+03  0.83121250751E+02 0.  0.
         24    2    4    4    0    0 -0.48120102586E+03 -0.18003134195E+03  0.25048156552E+03  0.58003764050E+03  0.98675925966E+02 0.  0.
         11    1    3    3    0    0  0.23986496455E+03 -0.14200658766E+03  0.57713150456E+02  0.28466099117E+03  0.00000000000E+00 0.  1.
        -11    1    3    3    0    0  0.44754169702E+03 -0.31644568175E+03  0.24646471530E+03  0.60097944721E+03  0.00000000000E+00 0. -1.
          2    1    6    6  502    0 -0.44887035352E+03 -0.18490769761E+03  0.25264375699E+03  0.54726987753E+03  0.00000000000E+00 0. -1.
          3    1    5    5  503    0 -0.21130457580E+03  0.57857505991E+03  0.28557652428E+02  0.61661516622E+03  0.00000000000E+00 0. -1.
         -4    1    5    5    0  503  0.50989400805E+01  0.59908551466E+02  0.18560775357E+01  0.60153792503E+02  0.00000000000E+00 0.  1.
         -1    1    6    6    0  502 -0.32330672333E+02  0.48763556558E+01 -0.21621914784E+01  0.32767762968E+02  0.00000000000E+00 0.  1.
<mgrwt>
<rscale>  0 0.20610116E+04</rscale>
<asrwt>0</asrwt>
<pdfrwt beam="1">  1        2 0.20980925E+00 0.20610116E+04</pdfrwt>
<pdfrwt beam="2">  1       -2 0.11979799E+00 0.20610116E+04</pdfrwt>
<totfact> 0.74853017E+00</totfact>
</mgrwt>
</event>
<event>
12    1  0.2406360E-008  0.1367647E+04  0.7818608E-02  0.8977576E-01
         -2   -1    0    0    0  501 -0.00000000000E+00  0.00000000000E+00  0.10459226854E+04  0.10459226854E+04  0.00000000000E+00 0. -1.
          2   -1    0    0  501    0  0.00000000000E+00 -0.00000000000E+00 -0.44708332581E+03  0.44708332581E+03  0.00000000000E+00 0.  1.
         23    2    1    2    0    0  0.23951039142E+03  0.28877488916E+02  0.54812941585E+03  0.60581375637E+03  0.91462090067E+02 0.  0.
        254    2    1    2    0    0 -0.23951039142E+03 -0.28877488916E+02  0.50709943696E+02  0.88719225479E+03  0.85225551428E+03 0.  0.
        -24    2    4    4    0    0 -0.55163710282E+03 -0.48314482321E+02  0.48723790825E+02  0.56167702558E+03  0.80431902060E+02 0.  0.
         24    2    4    4    0    0  0.31212671140E+03  0.19436993405E+02  0.19861528708E+01  0.32551522921E+03  0.90306915353E+02 0.  0.
         11    1    3    3    0    0  0.11491772810E+03 -0.31741802491E+02  0.24098647401E+03  0.26886447685E+03  0.00000000000E+00 0. -1.
        -11    1    3    3    0    0  0.12459266332E+03  0.60619291406E+02  0.30714294184E+03  0.33694927952E+03  0.00000000000E+00 0.  1.
          4    1    6    6  502    0  0.15867326262E+03  0.40346820316E+02 -0.32338135958E+02  0.16688566511E+03  0.00000000000E+00 0. -1.
          1    1    5    5  503    0 -0.55281305937E+02 -0.22546721844E+02  0.23026259866E+02  0.63988952917E+02  0.00000000000E+00 0. -1.
         -2    1    5    5    0  503 -0.49635579688E+03 -0.25767760477E+02  0.25697530959E+02  0.49768807267E+03  0.00000000000E+00 0.  1.
         -3    1    6    6    0  502  0.15345344878E+03 -0.20909826910E+02  0.34324288829E+02  0.15862956410E+03  0.00000000000E+00 0.  1.
<mgrwt>
<rscale>  0 0.13676470E+04</rscale>
<asrwt>0</asrwt>
<pdfrwt beam="1">  1        2 0.68782050E-01 0.13676470E+04</pdfrwt>
<pdfrwt beam="2">  1       -2 0.16091118E+00 0.13676470E+04</pdfrwt>
<totfact> 0.16934938E+01</totfact>
</mgrwt>
</event>
<event>
12    1  0.2406360E-008  0.1866639E+04  0.7818608E-02  0.8671643E-01
          1   -1    0    0  501    0  0.00000000000E+00  0.00000000000E+00  0.22498530127E+04  0.22498530127E+04  0.00000000000E+00 0.  1.
         -1   -1    0    0    0  501 -0.00000000000E+00 -0.00000000000E+00 -0.38717415436E+03  0.38717415436E+03  0.00000000000E+00 0. -1.
         23    2    1    2    0    0  0.41469382949E+03 -0.49360257022E+03  0.27444650516E+03  0.70633321105E+03  0.89281864315E+02 0.  0.
        254    2    1    2    0    0 -0.41469382949E+03  0.49360257022E+03  0.15882323531E+04  0.19306939560E+04  0.88852837574E+03 0.  0.
        -24    2    4    4    0    0 -0.25078055778E+02  0.61313900161E+03  0.61119164085E+03  0.86995876167E+03  0.81882116371E+02 0.  0.
         24    2    4    4    0    0 -0.38961577372E+03 -0.11953643139E+03  0.97704071228E+03  0.10607351943E+04  0.66792135704E+02 0.  0.
         13    1    3    3    0    0  0.45918520911E+02 -0.19101950891E+02  0.17036994558E+02  0.52570469601E+02  0.00000000000E+00 0.  1.
        -13    1    3    3    0    0  0.36877530858E+03 -0.47450061933E+03  0.25740951060E+03  0.65376274145E+03  0.00000000000E+00 0. -1.
          4    1    6    6  502    0 -0.59362906398E+02 -0.27566089454E+02  0.22330999501E+03  0.23270409927E+03  0.00000000000E+00 0. -1.
          3    1    5    5  503    0 -0.36127224811E+02  0.19919153338E+03  0.23864476197E+03  0.31294371021E+03  0.00000000000E+00 0. -1.
         -4    1    5    5    0  503  0.11049169034E+02  0.41394746823E+03  0.37254687888E+03  0.55701505146E+03  0.00000000000E+00 0.  1.
         -3    1    6    6    0  502 -0.33025286732E+03 -0.91970341938E+02  0.75373071727E+03  0.82803109502E+03  0.00000000000E+00 0.  1.
<mgrwt>
<rscale>  0 0.18666386E+04</rscale>
<asrwt>0</asrwt>
<pdfrwt beam="1">  1        1 0.34613123E+00 0.18666386E+04</pdfrwt>
<pdfrwt beam="2">  1       -1 0.59565256E-01 0.18666386E+04</pdfrwt>
<totfact> 0.54020505E+00</totfact>
</mgrwt>
</event>
<event>
11    1  0.2406360E-008  0.2607098E+04  0.7818608E-02  0.8365794E-01
         -2   -1    0    0    0  501 -0.00000000000E+00  0.00000000000E+00  0.52923410930E+03  0.52923410930E+03  0.00000000000E+00 0.  1.
          2   -1    0    0  501    0  0.00000000000E+00 -0.00000000000E+00 -0.32107522338E+04  0.32107522338E+04  0.00000000000E+00 0. -1.
         23    2    1    2    0    0  0.11034452598E+04  0.17456503042E+03 -0.15589415073E+04  0.19198172438E+04  0.85645987129E+02 0.  0.
        254    2    1    2    0    0 -0.11034452598E+04 -0.17456503042E+03 -0.11225766172E+04  0.18201690993E+04  0.89709135390E+03 0.  0.
        -24    2    4    4    0    0 -0.10573884589E+04  0.11658073730E+02 -0.67268279217E+03  0.12558772310E+04  0.80741666643E+02 0.  0.
         13    1    3    3    0    0  0.65266099005E+03  0.10280678092E+03 -0.99328767988E+03  0.11929610292E+04  0.00000000000E+00 0. -1.
        -13    1    3    3    0    0  0.45078426979E+03  0.71758249503E+02 -0.56565382737E+03  0.72685621458E+03  0.00000000000E+00 0.  1.
          4    1    4    4  502    0  0.84440448972E+01  0.42293380350E+02  0.13127732248E+02  0.45081806415E+02  0.00000000000E+00 0. -1.
          3    1    5    5  503    0 -0.41486644036E+03  0.14702873692E+02 -0.30954551296E+03  0.51783082413E+03  0.00000000000E+00 0. -1.
         -4    1    5    5    0  503 -0.64252201851E+03 -0.30447999625E+01 -0.36313727921E+03  0.73804640683E+03  0.00000000000E+00 0.  1.
         -3    1    4    4    0  502 -0.54500845874E+02 -0.22851648450E+03 -0.46302155730E+03  0.51921006194E+03  0.00000000000E+00 0.  1.
<mgrwt>
<rscale>  0 0.26070977E+04</rscale>
<asrwt>0</asrwt>
<pdfrwt beam="1">  1        2 0.49396188E+00 0.26070977E+04</pdfrwt>
<pdfrwt beam="2">  1       -2 0.81420633E-01 0.26070977E+04</pdfrwt>
<totfact> 0.14987245E+00</totfact>
</mgrwt>
</event>
<event>
12    1  0.2406360E-008  0.2035782E+04  0.7818608E-02  0.8590072E-01
         -2   -1    0    0    0  501 -0.00000000000E+00  0.00000000000E+00  0.70889418119E+03  0.70889418119E+03  0.00000000000E+00 0.  1.
          2   -1    0    0  501    0  0.00000000000E+00 -0.00000000000E+00 -0.14615757824E+04  0.14615757824E+04  0.00000000000E+00 0. -1.
         23    2    1    2    0    0  0.75257289195E+03 -0.32282913833E+03 -0.15096665456E+03  0.83772134672E+03  0.91659771500E+02 0.  0.
        254    2    1    2    0    0 -0.75257289195E+03  0.32282913833E+03 -0.60171494664E+03  0.13327486169E+04  0.86230701521E+03 0.  0.
        -24    2    4    4    0    0 -0.69023615878E+03  0.25602076281E+02 -0.54331042865E+02  0.69786603887E+03  0.83568683013E+02 0.  0.
         24    2    4    4    0    0 -0.62336733167E+02  0.29722706205E+03 -0.54738390377E+03  0.63488257799E+03  0.10591012705E+03 0.  0.
         13    1    3    3    0    0  0.22020612304E+03 -0.84974740986E+02 -0.85196033229E+02  0.25093785547E+03  0.00000000000E+00 0. -1.
        -13    1    3    3    0    0  0.53236676891E+03 -0.23785439735E+03 -0.65770621335E+02  0.58678349126E+03  0.00000000000E+00 0.  1.
          4    1    6    6  502    0 -0.23770731068E+01  0.16905907496E+03 -0.21414053854E+03  0.27284206339E+03  0.00000000000E+00 0. -1.
          1    1    5    5  503    0 -0.67634577196E+03  0.12261973203E+02 -0.53926480592E+02  0.67860299479E+03  0.00000000000E+00 0. -1.
         -2    1    5    5    0  503 -0.13890386824E+02  0.13340103078E+02 -0.40456227242E+00  0.19263044071E+02  0.00000000000E+00 0.  1.
         -3    1    6    6    0  502 -0.59959660061E+02  0.12816798709E+03 -0.33324336523E+03  0.36204051461E+03  0.00000000000E+00 0.  1.
<mgrwt>
<rscale>  0 0.20357825E+04</rscale>
<asrwt>0</asrwt>
<pdfrwt beam="1">  1        2 0.22485781E+00 0.20357825E+04</pdfrwt>
<pdfrwt beam="2">  1       -2 0.10906064E+00 0.20357825E+04</pdfrwt>
<totfact> 0.82949277E+00</totfact>
</mgrwt>
</event>
<event>
12    1  0.2406360E-008  0.1336523E+04  0.7818608E-02  0.9001093E-01
         -2   -1    0    0    0  501 -0.00000000000E+00  0.00000000000E+00  0.33668958141E+03  0.33668958141E+03  0.00000000000E+00 0.  1.
          2   -1    0    0  501    0  0.00000000000E+00 -0.00000000000E+00 -0.13263651660E+04  0.13263651660E+04  0.00000000000E+00 0. -1.
         23    2    1    2    0    0  0.14059038707E+03  0.14501546423E+03  0.99337237114E+02  0.24298091988E+03  0.91524307964E+02 0.  0.
        254    2    1    2    0    0 -0.14059038707E+03 -0.14501546423E+03 -0.10890128217E+04  0.14200738275E+04  0.88874383708E+03 0.  0.
        -24    2    4    4    0    0  0.10684828075E+03 -0.95470484134E+02  0.10518755166E+03  0.19506569522E+03  0.80343238592E+02 0.  0.
         24    2    4    4    0    0 -0.24743866782E+03 -0.49544980091E+02 -0.11942003733E+04  0.12250081323E+04  0.10416233993E+03 0.  0.
         13    1    3    3    0    0  0.37258639999E+02  0.70746665303E+02 -0.24980174987E+01  0.79997106182E+02  0.00000000000E+00 0. -1.
        -13    1    3    3    0    0  0.10333174707E+03  0.74268798922E+02  0.10183525461E+03  0.16298381370E+03  0.00000000000E+00 0.  1.
          2    1    6    6  502    0 -0.19127085793E+02  0.25563526615E+02 -0.17131055861E+03  0.17426028462E+03  0.00000000000E+00 0. -1.
          1    1    5    5  503    0  0.11791495044E+02 -0.61151985898E+02  0.50340800993E+02  0.80079966154E+02  0.00000000000E+00 0. -1.
         -2    1    5    5    0  503  0.95056785710E+02 -0.34318498237E+02  0.54846750672E+02  0.11498572907E+03  0.00000000000E+00 0.  1.
         -1    1    6    6    0  502 -0.22831158203E+03 -0.75108506706E+02 -0.10228898147E+04  0.10507478476E+04  0.00000000000E+00 0.  1.
<mgrwt>
<rscale>  0 0.13365229E+04</rscale>
<asrwt>0</asrwt>
<pdfrwt beam="1">  1        2 0.20405618E+00 0.13365229E+04</pdfrwt>
<pdfrwt beam="2">  1       -2 0.51798397E-01 0.13365229E+04</pdfrwt>
<totfact> 0.54901504E+01</totfact>
</mgrwt>
</event>
<event>
11    1  0.2406360E-008  0.4322369E+04  0.7818608E-02  0.7942495E-01
         -2   -1    0    0    0  501 -0.00000000000E+00  0.00000000000E+00  0.23985407782E+04  0.23985407782E+04  0.00000000000E+00 0.  1.
          2   -1    0    0  501    0  0.00000000000E+00 -0.00000000000E+00 -0.19473166840E+04  0.19473166840E+04  0.00000000000E+00 0. -1.
         23    2    1    2    0    0  0.36191216574E+02  0.35324591650E+03  0.22624308895E+04  0.22919964408E+04  0.92529310919E+02 0.  0.
        254    2    1    2    0    0 -0.36191216574E+02 -0.35324591650E+03 -0.18112067953E+04  0.20538610213E+04  0.90098976571E+03 0.  0.
        -24    2    4    4    0    0 -0.66045052271E+02 -0.51030168368E+03 -0.57972690115E+03  0.77934637949E+03  0.80794442948E+02 0.  0.
         13    1    3    3    0    0 -0.29592758092E+02  0.16264275604E+03  0.10142995805E+04  0.10276828482E+04  0.00000000000E+00 0. -1.
        -13    1    3    3    0    0  0.65783974666E+02  0.19060316046E+03  0.12481313090E+04  0.12643135927E+04  0.00000000000E+00 0.  1.
          4    1    4    4  502    0 -0.31005499741E+02  0.29517608344E+02 -0.88112804303E+01  0.43706622832E+02  0.00000000000E+00 0. -1.
          3    1    5    5  503    0 -0.31026533064E+02 -0.27513618581E+03 -0.37126394339E+03  0.46314088802E+03  0.00000000000E+00 0. -1.
         -4    1    5    5    0  503 -0.35018519207E+02 -0.23516549788E+03 -0.20846295776E+03  0.31620549147E+03  0.00000000000E+00 0.  1.
         -3    1    4    4    0  502  0.60859335438E+02  0.12753815884E+03 -0.12226686137E+04  0.12308080190E+04  0.00000000000E+00 0.  1.
<mgrwt>
<rscale>  0 0.43223690E+04</rscale>
<asrwt>0</asrwt>
<pdfrwt beam="1">  1        2 0.29958718E+00 0.43223690E+04</pdfrwt>
<pdfrwt beam="2">  1       -2 0.36900627E+00 0.43223690E+04</pdfrwt>
<totfact> 0.64715502E-02</totfact>
</mgrwt>
</event>
<event>
12    1  0.2406360E-008  0.2056261E+04  0.7818608E-02  0.8580759E-01
          2   -1    0    0  501    0  0.00000000000E+00  0.00000000000E+00  0.25122996369E+04  0.25122996369E+04  0.00000000000E+00 0. -1.
         -2   -1    0    0    0  501 -0.00000000000E+00 -0.00000000000E+00 -0.42075089982E+03  0.42075089982E+03  0.00000000000E+00 0.  1.
         23    2    1    2    0    0 -0.19674618041E+03 -0.77503295019E+03  0.56931788878E+03  0.98587149946E+03  0.91840195885E+02 0.  0.
        254    2    1    2    0    0  0.19674618041E+03  0.77503295019E+03  0.15222308483E+04  0.19471790372E+04  0.91374740174E+03 0.  0.
        -24    2    4    4    0    0 -0.24292065311E+03  0.48003015511E+03  0.12173847577E+04  0.13331780832E+04  0.76803382410E+02 0.  0.
         24    2    4    4    0    0  0.43966683352E+03  0.29500279508E+03  0.30484609056E+03  0.61400095407E+03  0.61093854616E+02 0.  0.
         13    1    3    3    0    0 -0.96842922671E+02 -0.41026716107E+03  0.35538141416E+03  0.55135618674E+03  0.00000000000E+00 0. -1.
        -13    1    3    3    0    0 -0.99903257742E+02 -0.36476578912E+03  0.21393647462E+03  0.43451531272E+03  0.00000000000E+00 0.  1.
          4    1    6    6  502    0  0.30513243918E+03  0.23136259605E+03  0.23788675132E+03  0.45080435085E+03  0.00000000000E+00 0. -1.
          3    1    5    5  503    0 -0.14352171211E+03  0.22259690754E+03  0.53071621193E+03  0.59313368030E+03  0.00000000000E+00 0. -1.
         -4    1    5    5    0  503 -0.99398940997E+02  0.25743324757E+03  0.68666854579E+03  0.74004440286E+03  0.00000000000E+00 0.  1.
         -3    1    6    6    0  502  0.13453439434E+03  0.63640199032E+02  0.66959339241E+02  0.16319660323E+03  0.00000000000E+00 0.  1.
<mgrwt>
<rscale>  0 0.20562610E+04</rscale>
<asrwt>0</asrwt>
<pdfrwt beam="1">  1        2 0.38650763E+00 0.20562610E+04</pdfrwt>
<pdfrwt beam="2">  1       -2 0.64730909E-01 0.20562610E+04</pdfrwt>
<totfact> 0.69789659E+00</totfact>
</mgrwt>
</event>
<event>
11    1  0.2406360E-008  0.3803373E+04  0.7818608E-02  0.8045431E-01
         -2   -1    0    0    0  501 -0.00000000000E+00  0.00000000000E+00  0.18138216950E+04  0.18138216950E+04  0.00000000000E+00 0.  1.
          2   -1    0    0  501    0  0.00000000000E+00 -0.00000000000E+00 -0.19938074026E+04  0.19938074026E+04  0.00000000000E+00 0. -1.
         23    2    1    2    0    0 -0.69048410383E+03  0.85749872532E+03 -0.15008669833E+04  0.18635923118E+04  0.91116636136E+02 0.  0.
        254    2    1    2    0    0  0.69048410383E+03 -0.85749872532E+03  0.13208812757E+04  0.19440367858E+04  0.90690645520E+03 0.  0.
        -24    2    4    4    0    0  0.17395615873E+03  0.17364829351E+03  0.18511647201E+03  0.31909996721E+03  0.84511572403E+02 0.  0.
         11    1    3    3    0    0 -0.68997832314E+03  0.84545338386E+03 -0.14925880564E+04  0.18489674461E+04  0.00000000000E+00 0. -1.
        -11    1    3    3    0    0 -0.50578069268E+00  0.12045341460E+02 -0.82789268983E+01  0.14624865661E+02  0.00000000000E+00 0.  1.
          4    1    4    4  502    0  0.43294461081E+03 -0.86012805426E+03  0.10171029823E+04  0.14006283527E+04  0.00000000000E+00 0. -1.
          3    1    5    5  503    0  0.14865813279E+03  0.17597704812E+03  0.18184085362E+03  0.29348468096E+03  0.00000000000E+00 0. -1.
         -4    1    5    5    0  503  0.25298025932E+02 -0.23287546154E+01  0.32756183888E+01  0.25615286256E+02  0.00000000000E+00 0.  1.
         -3    1    4    4    0  502  0.83583334293E+02 -0.17101896457E+03  0.11866182135E+03  0.22430846587E+03  0.00000000000E+00 0.  1.
<mgrwt>
<rscale>  0 0.38033728E+04</rscale>
<asrwt>0</asrwt>
<pdfrwt beam="1">  1        2 0.30673960E+00 0.38033728E+04</pdfrwt>
<pdfrwt beam="2">  1       -2 0.27904949E+00 0.38033728E+04</pdfrwt>
<totfact> 0.23040266E-01</totfact>
</mgrwt>
</event>
<event>
12    1  0.2406360E-008  0.1227439E+04  0.7818608E-02  0.9089173E-01
          2   -1    0    0  501    0  0.00000000000E+00  0.00000000000E+00  0.10573094026E+04  0.10573094026E+04  0.00000000000E+00 0.  1.
         -2   -1    0    0    0  501 -0.00000000000E+00 -0.00000000000E+00 -0.35623596711E+03  0.35623596711E+03  0.00000000000E+00 0. -1.
         23    2    1    2    0    0  0.19281936057E+02 -0.20122474881E+03 -0.18529830046E+02  0.23498430278E+03  0.11836838835E+03 0.  0.
        254    2    1    2    0    0 -0.19281936057E+02  0.20122474881E+03  0.71960326552E+03  0.11785610669E+04  0.91121574618E+03 0.  0.
        -24    2    4    4    0    0  0.35122823917E+02  0.54063581195E+03  0.57640444463E+03  0.79514779625E+03  0.80605459890E+02 0.  0.
         24    2    4    4    0    0 -0.54404759974E+02 -0.33941106314E+03  0.14319882089E+03  0.38341327066E+03  0.91324071968E+02 0.  0.
         13    1    3    3    0    0  0.34200873683E+02 -0.10966868024E+03  0.44106403879E+02  0.12305402898E+03  0.00000000000E+00 0.  1.
        -13    1    3    3    0    0 -0.14918937626E+02 -0.91556068571E+02 -0.62636233925E+02  0.11193027380E+03  0.00000000000E+00 0. -1.
          2    1    6    6  502    0 -0.70523332370E+02 -0.26984920598E+03  0.13964989807E+03  0.31192022764E+03  0.00000000000E+00 0. -1.
          3    1    5    5  503    0  0.60458341892E+02  0.40962726873E+03  0.44586426784E+03  0.60847732557E+03  0.00000000000E+00 0. -1.
         -4    1    5    5    0  503 -0.25335517975E+02  0.13100854322E+03  0.13054017678E+03  0.18667047068E+03  0.00000000000E+00 0.  1.
         -1    1    6    6    0  502  0.16118572396E+02 -0.69561857161E+02  0.35489228281E+01  0.71493043025E+02  0.00000000000E+00 0.  1.
<mgrwt>
<rscale>  0 0.12274390E+04</rscale>
<asrwt>0</asrwt>
<pdfrwt beam="1">  1        2 0.16266298E+00 0.12274390E+04</pdfrwt>
<pdfrwt beam="2">  1       -2 0.54805534E-01 0.12274390E+04</pdfrwt>
<totfact> 0.71449123E+01</totfact>
</mgrwt>
</event>
<event>
11    1  0.2406360E-008  0.2923751E+04  0.7818608E-02  0.8265846E-01
         -1   -1    0    0    0  501 -0.00000000000E+00  0.00000000000E+00  0.13910470191E+04  0.13910470191E+04  0.00000000000E+00 0.  1.
          1   -1    0    0  501    0  0.00000000000E+00 -0.00000000000E+00 -0.15363107423E+04  0.15363107423E+04  0.00000000000E+00 0. -1.
         23    2    1    2    0    0 -0.56977054417E+03  0.10677435674E+04  0.46230305791E+03  0.13004084600E+04  0.11235322318E+03 0.  0.
        254    2    1    2    0    0  0.56977054417E+03 -0.10677435674E+04 -0.60756678111E+03  0.16269493014E+04  0.90172714105E+03 0.  0.
        -24    2    4    4    0    0  0.48311385457E+03 -0.10327367624E+03 -0.15545748385E+03  0.52384306686E+03  0.78613489456E+02 0.  0.
         13    1    3    3    0    0 -0.47821066713E+03  0.85239176620E+03  0.41415022467E+03  0.10614977974E+04  0.00000000000E+00 0. -1.
        -13    1    3    3    0    0 -0.91559877032E+02  0.21535180125E+03  0.48152833243E+02  0.23891066266E+03  0.00000000000E+00 0.  1.
          2    1    4    4  502    0 -0.88747192651E+02 -0.52160237378E+03 -0.25936397349E+03  0.58924932862E+03  0.00000000000E+00 0. -1.
          1    1    5    5  503    0  0.13898488755E+03 -0.66542333143E+02 -0.43923080540E+02  0.16023082747E+03  0.00000000000E+00 0. -1.
         -2    1    5    5    0  503  0.34412896703E+03 -0.36731343093E+02 -0.11153440331E+03  0.36361223939E+03  0.00000000000E+00 0.  1.
         -1    1    4    4    0  502  0.17540388224E+03 -0.44286751743E+03 -0.19274532377E+03  0.51385690590E+03  0.00000000000E+00 0.  1.
<mgrwt>
<rscale>  0 0.29237513E+04</rscale>
<asrwt>0</asrwt>
<pdfrwt beam="1">  1        1 0.23635550E+00 0.29237513E+04</pdfrwt>
<pdfrwt beam="2">  1       -1 0.21400723E+00 0.29237513E+04</pdfrwt>
<totfact> 0.63868341E-01</totfact>
</mgrwt>
</event>
<event>
11    1  0.2406360E-008  0.2154041E+04  0.7818608E-02  0.8537805E-01
         -2   -1    0    0    0  501 -0.00000000000E+00  0.00000000000E+00  0.56997078324E+03  0.56997078324E+03  0.00000000000E+00 0. -1.
          2   -1    0    0  501    0  0.00000000000E+00 -0.00000000000E+00 -0.20351448369E+04  0.20351448369E+04  0.00000000000E+00 0.  1.
         23    2    1    2    0    0  0.22558512152E+03 -0.51995168107E+02  0.42784451149E+03  0.49497694850E+03  0.91428162931E+02 0.  0.
        254    2    1    2    0    0 -0.22558512152E+03  0.51995168107E+02 -0.18930185652E+04  0.21101386717E+04  0.90309123627E+03 0.  0.
        -24    2    4    4    0    0  0.13045175436E+03  0.24617177345E+03 -0.50225453105E+03  0.57983876265E+03  0.79593809111E+02 0.  0.
         13    1    3    3    0    0  0.52594759567E+02 -0.54704932304E+02  0.13123635622E+03  0.15159755785E+03  0.00000000000E+00 0. -1.
        -13    1    3    3    0    0  0.17299036195E+03  0.27097641967E+01  0.29660815527E+03  0.34337939065E+03  0.00000000000E+00 0.  1.
          4    1    4    4  502    0 -0.12649687619E+03  0.10979748026E+03 -0.12650421262E+03  0.20990536479E+03  0.00000000000E+00 0. -1.
          3    1    5    5  503    0  0.71528465855E+02  0.10984478411E+03 -0.16061856834E+03  0.20731744384E+03  0.00000000000E+00 0. -1.
         -4    1    5    5    0  503  0.58923288507E+02  0.13632698934E+03 -0.34163596271E+03  0.37252131881E+03  0.00000000000E+00 0.  1.
         -3    1    4    4    0  502 -0.22953999969E+03 -0.30397408560E+03 -0.12642598215E+04  0.13203945442E+04  0.00000000000E+00 0.  1.
<mgrwt>
<rscale>  0 0.21540409E+04</rscale>
<asrwt>0</asrwt>
<pdfrwt beam="1">  1        2 0.31309921E+00 0.21540409E+04</pdfrwt>
<pdfrwt beam="2">  1       -2 0.87687813E-01 0.21540409E+04</pdfrwt>
<totfact> 0.65745103E+00</totfact>
</mgrwt>
</event>
<event>
11    1  0.2406360E-008  0.1673117E+04  0.7818608E-02  0.8776847E-01
          2   -1    0    0  501    0  0.00000000000E+00  0.00000000000E+00  0.49415912108E+03  0.49415912108E+03  0.00000000000E+00 0.  1.
         -2   -1    0    0    0  501 -0.00000000000E+00 -0.00000000000E+00 -0.14162042448E+04  0.14162042448E+04  0.00000000000E+00 0. -1.
         23    2    1    2    0    0  0.46078098096E+03  0.35645441869E+03 -0.26186037764E+03  0.64513827602E+03  0.90849726375E+02 0.  0.
        254    2    1    2    0    0 -0.46078098096E+03 -0.35645441869E+03 -0.66018474612E+03  0.12652250899E+04  0.90860979749E+03 0.  0.
        -24    2    4    4    0    0  0.19428143131E+03 -0.27564926749E+02 -0.42641951488E+03  0.47617794503E+03  0.80042069726E+02 0.  0.
         11    1    3    3    0    0  0.32298672582E+03  0.20006738939E+03 -0.18894162105E+03  0.42431865563E+03  0.00000000000E+00 0. -1.
        -11    1    3    3    0    0  0.13779425514E+03  0.15638702930E+03 -0.72918756596E+02  0.22081962038E+03  0.00000000000E+00 0.  1.
          4    1    4    4  502    0 -0.11878715195E+03 -0.31609487156E+01  0.17849433040E+01  0.11884260636E+03  0.00000000000E+00 0. -1.
          3    1    5    5  503    0  0.92332757372E+02  0.16497325636E+02 -0.13565099639E+03  0.16492026152E+03  0.00000000000E+00 0. -1.
         -4    1    5    5    0  503  0.10194867394E+03 -0.44062252386E+02 -0.29076851848E+03  0.31125768351E+03  0.00000000000E+00 0.  1.
         -3    1    4    4    0  502 -0.53627526033E+03 -0.32572854322E+03 -0.23555017455E+03  0.67020453851E+03  0.00000000000E+00 0.  1.
<mgrwt>
<rscale>  0 0.16731171E+04</rscale>
<asrwt>0</asrwt>
<pdfrwt beam="1">  1        2 0.76024482E-01 0.16731171E+04</pdfrwt>
<pdfrwt beam="2">  1       -2 0.21787757E+00 0.16731171E+04</pdfrwt>
<totfact> 0.60644126E+00</totfact>
</mgrwt>
</event>
<event>
11    1  0.2406360E-008  0.2858071E+04  0.7818608E-02  0.8285463E-01
         -2   -1    0    0    0  501 -0.00000000000E+00  0.00000000000E+00  0.22332837559E+04  0.22332837559E+04  0.00000000000E+00 0.  1.
          2   -1    0    0  501    0  0.00000000000E+00 -0.00000000000E+00 -0.91441238255E+03  0.91441238255E+03  0.00000000000E+00 0. -1.
         23    2    1    2    0    0 -0.22348939065E+03  0.65022139606E+03 -0.60144668255E+03  0.91803346847E+03  0.91169982149E+02 0.  0.
        254    2    1    2    0    0  0.22348939065E+03 -0.65022139606E+03  0.19203180559E+04  0.22296626700E+04  0.90057693425E+03 0.  0.
        -24    2    4    4    0    0  0.11739246757E+03  0.97720942401E+02  0.11722833784E+02  0.17258029490E+03  0.79474268361E+02 0.  0.
         13    1    3    3    0    0 -0.15280312316E+03  0.30606450508E+03 -0.30614949031E+03  0.45907710260E+03  0.00000000000E+00 0. -1.
        -13    1    3    3    0    0 -0.70686267491E+02  0.34415689098E+03 -0.29529719225E+03  0.45895636587E+03  0.00000000000E+00 0.  1.
          4    1    4    4  502    0  0.37407165204E+02 -0.12132625658E+03  0.21131294257E+03  0.24652082314E+03  0.00000000000E+00 0. -1.
          1    1    5    5  503    0  0.39305754609E+02  0.83989946236E+02  0.10081206319E+02  0.93278529871E+02  0.00000000000E+00 0. -1.
         -2    1    5    5    0  503  0.78086712960E+02  0.13730996165E+02  0.16416274647E+01  0.79301765033E+02  0.00000000000E+00 0.  1.
         -3    1    4    4    0  502  0.68689757880E+02 -0.62661608188E+03  0.16972822796E+04  0.18105615520E+04  0.00000000000E+00 0.  1.
<mgrwt>
<rscale>  0 0.28580709E+04</rscale>
<asrwt>0</asrwt>
<pdfrwt beam="1">  1        2 0.14067883E+00 0.28580709E+04</pdfrwt>
<pdfrwt beam="2">  1       -2 0.34358212E+00 0.28580709E+04</pdfrwt>
<totfact> 0.42393611E-01</totfact>
</mgrwt>
</event>
<event>
11    1  0.2406360E-008  0.2144858E+04  0.7818608E-02  0.8541736E-01
         -1   -1    0    0    0  501 -0.00000000000E+00  0.00000000000E+00  0.13749000194E+04  0.13749000194E+04  0.00000000000E+00 0.  1.
          1   -1    0    0  501    0  0.00000000000E+00 -0.00000000000E+00 -0.83650005197E+03  0.83650005197E+03  0.00000000000E+00 0. -1.
         23    2    1    2    0    0  0.35150293497E+03  0.50671627145E+03 -0.41963714527E+03  0.75154442231E+03  0.91695103321E+02 0.  0.
        254    2    1    2    0    0 -0.35150293497E+03 -0.50671627145E+03  0.95803711269E+03  0.14598556491E+04  0.91270351908E+03 0.  0.
        -24    2    4    4    0    0  0.72422855580E+02  0.79847669239E+02 -0.10092329481E+03  0.16676971314E+03  0.77497777332E+02 0.  0.
         13    1    3    3    0    0  0.61687245229E+02  0.43130444084E+02 -0.34576078115E+02  0.82831495270E+02  0.00000000000E+00 0.  1.
        -13    1    3    3    0    0  0.28981568975E+03  0.46358582737E+03 -0.38506106715E+03  0.66871292704E+03  0.00000000000E+00 0. -1.
          2    1    4    4  502    0 -0.31089240813E+03 -0.53001489264E+03  0.84927380871E+03  0.10482537279E+04  0.00000000000E+00 0. -1.
          3    1    5    5  503    0  0.87893522353E+02  0.60905055838E+02 -0.90863722171E+02  0.14032431402E+03  0.00000000000E+00 0. -1.
         -4    1    5    5    0  503 -0.15470666773E+02  0.18942613401E+02 -0.10059572643E+02  0.26445399120E+02  0.00000000000E+00 0.  1.
         -1    1    4    4    0  502 -0.11303338243E+03 -0.56549048054E+02  0.20968659880E+03  0.24483220804E+03  0.00000000000E+00 0.  1.
<mgrwt>
<rscale>  0 0.21448580E+04</rscale>
<asrwt>0</asrwt>
<pdfrwt beam="1">  1        1 0.12869232E+00 0.21448580E+04</pdfrwt>
<pdfrwt beam="2">  1       -1 0.21152308E+00 0.21448580E+04</pdfrwt>
<totfact> 0.23646012E+00</totfact>
</mgrwt>
</event>
<event>
11    1  0.2406360E-008  0.3809587E+04  0.7818608E-02  0.8044101E-01
         -1   -1    0    0    0  501 -0.00000000000E+00  0.00000000000E+00  0.17964160720E+04  0.17964160720E+04  0.00000000000E+00 0.  1.
          1   -1    0    0  501    0  0.00000000000E+00 -0.00000000000E+00 -0.20197095698E+04  0.20197095698E+04  0.00000000000E+00 0. -1.
         23    2    1    2    0    0  0.80973316705E+03  0.26801413325E+03  0.14703778822E+04  0.17022615082E+04  0.90464073043E+02 0.  0.
        254    2    1    2    0    0 -0.80973316705E+03 -0.26801413325E+03 -0.16936713799E+04  0.21138641335E+04  0.93402326225E+03 0.  0.
        -24    2    4    4    0    0 -0.24666271062E+02  0.27571183379E+03 -0.30836645876E+03  0.42216700256E+03  0.80682494640E+02 0.  0.
         13    1    3    3    0    0  0.53512743312E+03  0.14529957110E+03  0.10133238451E+04  0.11551184138E+04  0.00000000000E+00 0.  1.
        -13    1    3    3    0    0  0.27460573393E+03  0.12271456215E+03  0.45705403713E+03  0.54714309438E+03  0.00000000000E+00 0. -1.
          2    1    4    4  502    0 -0.42685471395E+03 -0.19250651153E+03 -0.70793662113E+03  0.84878617056E+03  0.00000000000E+00 0. -1.
          3    1    5    5  503    0 -0.12581545202E+02  0.52961022536E+01 -0.34506777756E+02  0.37108781843E+02  0.00000000000E+00 0. -1.
         -4    1    5    5    0  503 -0.12084725860E+02  0.27041573153E+03 -0.27385968101E+03  0.38505822072E+03  0.00000000000E+00 0.  1.
         -1    1    4    4    0  502 -0.35821218204E+03 -0.35121945551E+03 -0.67736830006E+03  0.84291096043E+03  0.00000000000E+00 0.  1.
<mgrwt>
<rscale>  0 0.38095872E+04</rscale>
<asrwt>0</asrwt>
<pdfrwt beam="1">  1        1 0.31072455E+00 0.38095872E+04</pdfrwt>
<pdfrwt beam="2">  1       -1 0.27637170E+00 0.38095872E+04</pdfrwt>
<totfact> 0.10793510E-01</totfact>
</mgrwt>
</event>
<event>
11    1  0.2406360E-008  0.1542331E+04  0.7818608E-02  0.8856781E-01
          2   -1    0    0  501    0  0.00000000000E+00  0.00000000000E+00  0.11208611733E+04  0.11208611733E+04  0.00000000000E+00 0. -1.
         -2   -1    0    0    0  501 -0.00000000000E+00 -0.00000000000E+00 -0.53057099772E+03  0.53057099772E+03  0.00000000000E+00 0.  1.
         23    2    1    2    0    0 -0.28234424878E+03  0.49613527090E+02 -0.24445892493E+03  0.38755553516E+03  0.90880965894E+02 0.  0.
        254    2    1    2    0    0  0.28234424878E+03 -0.49613527090E+02  0.83474910052E+03  0.12638766359E+04  0.90465369782E+03 0.  0.
        -24    2    4    4    0    0  0.39724310783E+03  0.24102761179E+03  0.19016308962E+03  0.50816100705E+03  0.78544331841E+02 0.  0.
         11    1    3    3    0    0 -0.19465610452E+03  0.41423942310E+02 -0.11163637416E+03  0.22818769041E+03  0.00000000000E+00 0. -1.
        -11    1    3    3    0    0 -0.87688144267E+02  0.81895847803E+01 -0.13282255078E+03  0.15936784474E+03  0.00000000000E+00 0.  1.
          2    1    4    4  502    0 -0.12640032454E+03 -0.10183411495E+03  0.47392032657E+03  0.50094680850E+03  0.00000000000E+00 0. -1.
          3    1    5    5  503    0  0.19125608685E+03  0.10622049234E+03  0.48329963553E+02  0.22404791704E+03  0.00000000000E+00 0. -1.
         -4    1    5    5    0  503  0.20598702098E+03  0.13480711945E+03  0.14183312606E+03  0.28411309001E+03  0.00000000000E+00 0.  1.
         -1    1    4    4    0  502  0.11501465493E+02 -0.18880702394E+03  0.17066568433E+03  0.25476882031E+03  0.00000000000E+00 0.  1.
<mgrwt>
<rscale>  0 0.15423313E+04</rscale>
<asrwt>0</asrwt>
<pdfrwt beam="1">  1        2 0.17244018E+00 0.15423313E+04</pdfrwt>
<pdfrwt beam="2">  1       -2 0.81626308E-01 0.15423313E+04</pdfrwt>
<totfact> 0.26914235E+01</totfact>
</mgrwt>
</event>
<event>
12    1  0.2406360E-008  0.1289206E+04  0.7818608E-02  0.9038169E-01
         -3   -1    0    0    0  501 -0.00000000000E+00  0.00000000000E+00  0.31499248077E+03  0.31499248077E+03  0.00000000000E+00 0.  1.
          3   -1    0    0  501    0  0.00000000000E+00 -0.00000000000E+00 -0.13191207571E+04  0.13191207571E+04  0.00000000000E+00 0. -1.
         23    2    1    2    0    0  0.12567012567E+03 -0.32532539075E+03 -0.21945067682E+03  0.42125362774E+03  0.87558146240E+02 0.  0.
        254    2    1    2    0    0 -0.12567012567E+03  0.32532539075E+03 -0.78467759954E+03  0.12128596102E+04  0.85655117091E+03 0.  0.
        -24    2    4    4    0    0 -0.36437436046E+03  0.49248993175E+03 -0.49266144887E+03  0.79035296884E+03  0.81409487903E+02 0.  0.
         24    2    4    4    0    0  0.23870423479E+03 -0.16716454100E+03 -0.29201615067E+03  0.42250664132E+03  0.91185164508E+02 0.  0.
         13    1    3    3    0    0  0.33450286117E+02 -0.43798097153E+02 -0.46071178807E+01  0.55302988081E+02  0.00000000000E+00 0.  1.
        -13    1    3    3    0    0  0.92219839548E+02 -0.28152729360E+03 -0.21484355894E+03  0.36595063966E+03  0.00000000000E+00 0. -1.
          2    1    6    6  502    0  0.98042972499E+01  0.11135363528E+02 -0.18986110728E+02  0.24095496800E+02  0.00000000000E+00 0. -1.
          1    1    5    5  503    0 -0.13392989333E+03  0.11905100220E+03 -0.14401931689E+03  0.22989545687E+03  0.00000000000E+00 0. -1.
         -2    1    5    5    0  503 -0.23044446713E+03  0.37343892955E+03 -0.34864213198E+03  0.56045751197E+03  0.00000000000E+00 0.  1.
         -1    1    6    6    0  502  0.22889993754E+03 -0.17829990453E+03 -0.27303003995E+03  0.39841114452E+03  0.00000000000E+00 0.  1.
<mgrwt>
<rscale>  0 0.12892061E+04</rscale>
<asrwt>0</asrwt>
<pdfrwt beam="1">  1        3 0.20294165E+00 0.12892061E+04</pdfrwt>
<pdfrwt beam="2">  1       -3 0.48460382E-01 0.12892061E+04</pdfrwt>
<totfact> 0.15366983E+00</totfact>
</mgrwt>
</event>
<event>
12    1  0.2406360E-008  0.2299276E+04  0.7818608E-02  0.8478207E-01
          2   -1    0    0  501    0  0.00000000000E+00  0.00000000000E+00  0.15831890882E+04  0.15831890882E+04  0.00000000000E+00 0. -1.
         -2   -1    0    0    0  501 -0.00000000000E+00 -0.00000000000E+00 -0.83481351498E+03  0.83481351498E+03  0.00000000000E+00 0.  1.
         23    2    1    2    0    0 -0.35122434058E+03 -0.35179033841E+03  0.11939972086E+04  0.12974586259E+04  0.10322098771E+03 0.  0.
        254    2    1    2    0    0  0.35122434058E+03  0.35179033841E+03 -0.44562163540E+03  0.11205439772E+04  0.89995843421E+03 0.  0.
        -24    2    4    4    0    0  0.59656879194E+03  0.25590931005E+03 -0.76660046542E+02  0.65795249237E+03  0.75105399204E+02 0.  0.
         24    2    4    4    0    0 -0.24534445137E+03  0.95881028354E+02 -0.36896158886E+03  0.46259148484E+03  0.92038885114E+02 0.  0.
         13    1    3    3    0    0 -0.13318785561E+03 -0.15555254016E+03  0.61837992455E+03  0.65140565603E+03  0.00000000000E+00 0. -1.
        -13    1    3    3    0    0 -0.21803648496E+03 -0.19623779825E+03  0.57561728403E+03  0.64605296990E+03  0.00000000000E+00 0.  1.
          4    1    6    6  502    0 -0.13127259016E+03  0.98747114691E+02 -0.20196643574E+03  0.26033425966E+03  0.00000000000E+00 0. -1.
          3    1    5    5  503    0  0.22393273997E+03  0.73924729796E+02  0.21568212000E+01  0.23582915338E+03  0.00000000000E+00 0. -1.
         -4    1    5    5    0  503  0.37263605198E+03  0.18198458026E+03 -0.78816867742E+02  0.42212333899E+03  0.00000000000E+00 0.  1.
         -3    1    6    6    0  502 -0.11407186120E+03 -0.28660863369E+01 -0.16699515312E+03  0.20225722517E+03  0.00000000000E+00 0.  1.
<mgrwt>
<rscale>  0 0.22992761E+04</rscale>
<asrwt>0</asrwt>
<pdfrwt beam="1">  1        2 0.24356755E+00 0.22992761E+04</pdfrwt>
<pdfrwt beam="2">  1       -2 0.12843285E+00 0.22992761E+04</pdfrwt>
<totfact> 0.46281742E+00</totfact>
</mgrwt>
</event>
<event>
12    1  0.2406360E-008  0.1572764E+04  0.7818608E-02  0.8837457E-01
         -2   -1    0    0    0  501 -0.00000000000E+00  0.00000000000E+00  0.24012017126E+03  0.24012017126E+03  0.00000000000E+00 0.  1.
          2   -1    0    0  501    0  0.00000000000E+00 -0.00000000000E+00 -0.25753639692E+04  0.25753639692E+04  0.00000000000E+00 0. -1.
         23    2    1    2    0    0  0.50409080757E+03 -0.14520909332E+03 -0.81575775211E+03  0.97420326287E+03  0.91750009292E+02 0.  0.
        254    2    1    2    0    0 -0.50409080757E+03  0.14520909332E+03 -0.15194860458E+04  0.18412808776E+04  0.89793329575E+03 0.  0.
        -24    2    4    4    0    0  0.13808358581E+03  0.23889998715E+03 -0.88675788748E+03  0.93233192689E+03  0.82237402457E+02 0.  0.
         24    2    4    4    0    0 -0.64217439337E+03 -0.93690893826E+02 -0.63272815832E+03  0.90894895066E+03  0.68391062979E+02 0.  0.
         11    1    3    3    0    0  0.44361593598E+03 -0.11162551539E+03 -0.75156672233E+03  0.87983401415E+03  0.00000000000E+00 0.  1.
        -11    1    3    3    0    0  0.60474871588E+02 -0.33583577928E+02 -0.64191029779E+02  0.94369248721E+02  0.00000000000E+00 0. -1.
          4    1    6    6  502    0 -0.12092217241E+03 -0.40199398490E+01 -0.15146224229E+03  0.19385340476E+03  0.00000000000E+00 0. -1.
          1    1    5    5  503    0  0.47834097681E+01  0.78029231495E+02 -0.21108006909E+03  0.22509162033E+03  0.00000000000E+00 0. -1.
         -2    1    5    5    0  503  0.13330017604E+03  0.16087075565E+03 -0.67567781839E+03  0.70724030656E+03  0.00000000000E+00 0.  1.
         -1    1    6    6    0  502 -0.52125222096E+03 -0.89670953977E+02 -0.48126591603E+03  0.71509554591E+03  0.00000000000E+00 0.  1.
<mgrwt>
<rscale>  0 0.15727642E+04</rscale>
<asrwt>0</asrwt>
<pdfrwt beam="1">  1        2 0.39620985E+00 0.15727642E+04</pdfrwt>
<pdfrwt beam="2">  1       -2 0.36941564E-01 0.15727642E+04</pdfrwt>
<totfact> 0.20933269E+01</totfact>
</mgrwt>
</event>
<event>
12    1  0.2406360E-008  0.2313508E+04  0.7818608E-02  0.8472614E-01
          2   -1    0    0  501    0  0.00000000000E+00  0.00000000000E+00  0.36828677857E+04  0.36828677857E+04  0.00000000000E+00 0. -1.
         -2   -1    0    0    0  501 -0.00000000000E+00 -0.00000000000E+00 -0.36332540848E+03  0.36332540848E+03  0.00000000000E+00 0.  1.
         23    2    1    2    0    0  0.95461378270E+03 -0.63995328025E+02  0.10382200802E+04  0.14147964465E+04  0.91461325334E+02 0.  0.
        254    2    1    2    0    0 -0.95461378270E+03  0.63995328025E+02  0.22813222970E+04  0.26313967476E+04  0.89690275088E+03 0.  0.
        -24    2    4    4    0    0  0.10658159444E+03 -0.97988058466E+02  0.69765938365E+03  0.71695942758E+03  0.79629826835E+02 0.  0.
         24    2    4    4    0    0 -0.10611953771E+04  0.16198338649E+03  0.15836629133E+04  0.19144373201E+04  0.68613288326E+02 0.  0.
         11    1    3    3    0    0  0.34526896909E+03  0.18429818958E+02  0.35273426085E+03  0.49393499371E+03  0.00000000000E+00 0. -1.
        -11    1    3    3    0    0  0.60934481361E+03 -0.82425146983E+02  0.68548581935E+03  0.92086145280E+03  0.00000000000E+00 0.  1.
          4    1    6    6  502    0 -0.14266924018E+03 -0.16243132450E+01  0.21359081097E+03  0.25686219071E+03  0.00000000000E+00 0. -1.
          3    1    5    5  503    0  0.20323386177E+02  0.13262716025E+02  0.11541118909E+03  0.11793507633E+03  0.00000000000E+00 0. -1.
         -4    1    5    5    0  503  0.86258208264E+02 -0.11125077449E+03  0.58224819456E+03  0.59902435125E+03  0.00000000000E+00 0.  1.
         -3    1    6    6    0  502 -0.91852613696E+03  0.16360769974E+03  0.13700721024E+04  0.16575751293E+04  0.00000000000E+00 0.  1.
<mgrwt>
<rscale>  0 0.23135077E+04</rscale>
<asrwt>0</asrwt>
<pdfrwt beam="1">  1        2 0.56659502E+00 0.23135077E+04</pdfrwt>
<pdfrwt beam="2">  1       -2 0.55896219E-01 0.23135077E+04</pdfrwt>
<totfact> 0.16417005E+00</totfact>
</mgrwt>
</event>
<event>
11    1  0.2406360E-008  0.1322185E+04  0.7818608E-02  0.9012155E-01
         -2   -1    0    0    0  501 -0.00000000000E+00  0.00000000000E+00  0.34505065522E+03  0.34505065522E+03  0.00000000000E+00 0. -1.
          2   -1    0    0  501    0  0.00000000000E+00 -0.00000000000E+00 -0.12666054556E+04  0.12666054556E+04  0.00000000000E+00 0.  1.
         23    2    1    2    0    0 -0.19647332699E+03 -0.36725290374E+02  0.91937347035E+02  0.23731398835E+03  0.88965937954E+02 0.  0.
        254    2    1    2    0    0  0.19647332699E+03  0.36725290374E+02 -0.10134921474E+04  0.13743421225E+04  0.90647637672E+03 0.  0.
        -24    2    4    4    0    0  0.33176123050E+03 -0.24219516785E+03 -0.93780721517E+03  0.10268998070E+04  0.79478471023E+02 0.  0.
         13    1    3    3    0    0 -0.31067826544E+02 -0.11004177262E+02 -0.17504288648E+02  0.37318921266E+02  0.00000000000E+00 0.  1.
        -13    1    3    3    0    0 -0.16540550044E+03 -0.25721113112E+02  0.10944163568E+03  0.19999506708E+03  0.00000000000E+00 0. -1.
          4    1    4    4  502    0 -0.16356389366E+03  0.24514059093E+03 -0.71085682732E+02  0.30315050869E+03  0.00000000000E+00 0. -1.
          1    1    5    5  503    0  0.89270983640E+02 -0.74799352373E+02 -0.18651366697E+03  0.21988997158E+03  0.00000000000E+00 0. -1.
         -2    1    5    5    0  503  0.24249024686E+03 -0.16739581548E+03 -0.75129354820E+03  0.80700983540E+03  0.00000000000E+00 0.  1.
         -3    1    4    4    0  502  0.28275990148E+02  0.33779867298E+02 -0.45992495130E+01  0.44291806800E+02  0.00000000000E+00 0.  1.
<mgrwt>
<rscale>  0 0.13221846E+04</rscale>
<asrwt>0</asrwt>
<pdfrwt beam="1">  1        2 0.19486238E+00 0.13221846E+04</pdfrwt>
<pdfrwt beam="2">  1       -2 0.53084715E-01 0.13221846E+04</pdfrwt>
<totfact> 0.56622841E+01</totfact>
</mgrwt>
</event>
<event>
11    1  0.2406360E-008  0.1863489E+04  0.7818608E-02  0.8673247E-01
         -1   -1    0    0    0  501 -0.00000000000E+00  0.00000000000E+00  0.24016279432E+03  0.24016279432E+03  0.00000000000E+00 0.  1.
          1   -1    0    0  501    0  0.00000000000E+00 -0.00000000000E+00 -0.36148297139E+04  0.36148297139E+04  0.00000000000E+00 0. -1.
         23    2    1    2    0    0 -0.51409261915E+03  0.50043438987E+03 -0.13269620003E+04  0.15110843923E+04  0.88442584470E+02 0.  0.
        254    2    1    2    0    0  0.51409261915E+03 -0.50043438987E+03 -0.20477049193E+04  0.23439081160E+04  0.88661379407E+03 0.  0.
        -24    2    4    4    0    0  0.45580954497E+03 -0.65708703278E+03 -0.19402861359E+04  0.21001335554E+04  0.79529563102E+02 0.  0.
         11    1    3    3    0    0 -0.49601208090E+03  0.47216014639E+03 -0.12940458058E+04  0.14640757275E+04  0.00000000000E+00 0. -1.
        -11    1    3    3    0    0 -0.18080538257E+02  0.28274243477E+02 -0.32916194467E+02  0.47008664798E+02  0.00000000000E+00 0.  1.
          4    1    4    4  502    0  0.76582949993E+02  0.44464656905E+02 -0.17465504850E+01  0.88572593853E+02  0.00000000000E+00 0. -1.
          1    1    5    5  503    0 -0.28887254909E+00 -0.39005769830E+01 -0.17588435201E+01  0.42885287312E+01  0.00000000000E+00 0. -1.
         -2    1    5    5    0  503  0.45609841752E+03 -0.65318645579E+03 -0.19385272923E+04  0.20958450266E+04  0.00000000000E+00 0.  1.
         -3    1    4    4    0  502 -0.18299875812E+02  0.11218798601E+03 -0.10567223296E+03  0.15520196673E+03  0.00000000000E+00 0.  1.
<mgrwt>
<rscale>  0 0.18634888E+04</rscale>
<asrwt>0</asrwt>
<pdfrwt beam="1">  1        1 0.55612765E+00 0.18634888E+04</pdfrwt>
<pdfrwt beam="2">  1       -1 0.36948122E-01 0.18634888E+04</pdfrwt>
<totfact> 0.13457566E+00</totfact>
</mgrwt>
</event>
<event>
11    1  0.2406360E-008  0.1686099E+04  0.7818608E-02  0.8769332E-01
          1   -1    0    0  501    0  0.00000000000E+00  0.00000000000E+00  0.65839640216E+03  0.65839640216E+03  0.00000000000E+00 0. -1.
         -1   -1    0    0    0  501 -0.00000000000E+00 -0.00000000000E+00 -0.10794902963E+04  0.10794902963E+04  0.00000000000E+00 0.  1.
         23    2    1    2    0    0 -0.54867930969E+03  0.51658858930E+02 -0.38271641692E+03  0.67676195379E+03  0.88415291196E+02 0.  0.
        254    2    1    2    0    0  0.54867930969E+03 -0.51658858930E+02 -0.38377477253E+02  0.10611247447E+04  0.90597752207E+03 0.  0.
        -24    2    4    4    0    0  0.28464359420E+03 -0.45041282204E+03  0.10090682484E+03  0.54830586641E+03  0.81015121181E+02 0.  0.
         11    1    3    3    0    0 -0.47337383446E+03  0.21737628613E+02 -0.29936057059E+03  0.56051053770E+03  0.00000000000E+00 0. -1.
        -11    1    3    3    0    0 -0.75305475237E+02  0.29921230318E+02 -0.83355846337E+02  0.11625141609E+03  0.00000000000E+00 0.  1.
          2    1    4    4  502    0  0.17971389590E+03  0.35418524837E+03 -0.12501969183E+03  0.41638227374E+03  0.00000000000E+00 0. -1.
          1    1    5    5  503    0  0.24706104491E+03 -0.37011062486E+03  0.11221443051E+03  0.45892604302E+03  0.00000000000E+00 0. -1.
         -2    1    5    5    0  503  0.37582549286E+02 -0.80302197179E+02 -0.11307605666E+02  0.89379823386E+02  0.00000000000E+00 0.  1.
         -1    1    4    4    0  502  0.84321819599E+02  0.44568714740E+02 -0.14264610265E+02  0.96436604565E+02  0.00000000000E+00 0.  1.
<mgrwt>
<rscale>  0 0.16860991E+04</rscale>
<asrwt>0</asrwt>
<pdfrwt beam="1">  1        1 0.10129176E+00 0.16860991E+04</pdfrwt>
<pdfrwt beam="2">  1       -1 0.16607543E+00 0.16860991E+04</pdfrwt>
<totfact> 0.74890344E+00</totfact>
</mgrwt>
</event>
<event>
12    1  0.2406360E-008  0.1454919E+04  0.7818608E-02  0.8914997E-01
          1   -1    0    0  501    0  0.00000000000E+00  0.00000000000E+00  0.11893272082E+04  0.11893272082E+04  0.00000000000E+00 0. -1.
         -1   -1    0    0    0  501 -0.00000000000E+00 -0.00000000000E+00 -0.44495538536E+03  0.44495538536E+03  0.00000000000E+00 0.  1.
         23    2    1    2    0    0  0.22590194612E+03 -0.12001363569E+03  0.61457557443E+03  0.67176158963E+03  0.90141747317E+02 0.  0.
        254    2    1    2    0    0 -0.22590194612E+03  0.12001363569E+03  0.12979624845E+03  0.96252100396E+03  0.91878433538E+03 0.  0.
        -24    2    4    4    0    0 -0.26901054691E+03  0.34694733649E+03  0.39482251924E+03  0.59565118390E+03  0.78589964593E+02 0.  0.
         24    2    4    4    0    0  0.43108600795E+02 -0.22693370081E+03 -0.26502627079E+03  0.36686982006E+03  0.10486793904E+03 0.  0.
         11    1    3    3    0    0  0.16212204124E+03 -0.79092090559E+02  0.31741452719E+03  0.36509053277E+03  0.00000000000E+00 0. -1.
        -11    1    3    3    0    0  0.63779904874E+02 -0.40921545127E+02  0.29716104724E+03  0.30667105686E+03  0.00000000000E+00 0.  1.
          2    1    6    6  502    0  0.42174820376E+02 -0.67846862364E+02 -0.35068927732E+02  0.87245297287E+02  0.00000000000E+00 0. -1.
          1    1    5    5  503    0 -0.15519306761E+03  0.16725278377E+03  0.15916433335E+03  0.27819357815E+03  0.00000000000E+00 0. -1.
         -2    1    5    5    0  503 -0.11381747930E+03  0.17969455272E+03  0.23565818588E+03  0.31745760575E+03  0.00000000000E+00 0.  1.
         -1    1    6    6    0  502  0.93378041913E+00 -0.15908683844E+03 -0.22995734305E+03  0.27962452277E+03  0.00000000000E+00 0.  1.
<mgrwt>
<rscale>  0 0.14549193E+04</rscale>
<asrwt>0</asrwt>
<pdfrwt beam="1">  1        1 0.18297341E+00 0.14549193E+04</pdfrwt>
<pdfrwt beam="2">  1       -1 0.68454675E-01 0.14549193E+04</pdfrwt>
<totfact> 0.22816019E+01</totfact>
</mgrwt>
</event>
<event>
12    1  0.2734253E-008  0.1819220E+04  0.7818608E-02  0.8696145E-01
          2   -1    0    0  501    0  0.00000000000E+00  0.00000000000E+00  0.15443647830E+04  0.15443647830E+04  0.00000000000E+00 0.  1.
         -2   -1    0    0    0  501 -0.00000000000E+00 -0.00000000000E+00 -0.53574787691E+03  0.53574787691E+03  0.00000000000E+00 0. -1.
         23    2    1    2    0    0 -0.93058744342E+02  0.98636199047E+02 -0.38987238887E+03  0.42140792565E+03  0.84824115300E+02 0.  0.
        254    2    1    2    0    0  0.93058744342E+02 -0.98636199047E+02  0.13984892950E+04  0.16587047343E+04  0.88155547624E+03 0.  0.
        -24    2    4    4    0    0 -0.30506230420E+03 -0.29892189098E+03  0.62380003970E+03  0.76005073681E+03  0.78315558163E+02 0.  0.
         24    2    4    4    0    0  0.39812104854E+03  0.20028569194E+03  0.77468925530E+03  0.89865399748E+03  0.93919312310E+02 0.  0.
         13    1    3    3    0    0 -0.99995307997E+02  0.81446304812E+02 -0.37799978169E+03  0.39939503896E+03  0.00000000000E+00 0. -1.
        -13    1    3    3    0    0  0.69365636547E+01  0.17189894236E+02 -0.11872607181E+02  0.22012886690E+02  0.00000000000E+00 0.  1.
          2    1    6    6  502    0  0.84152188224E+02  0.69660063138E+02  0.13025743648E+03  0.17000327920E+03  0.00000000000E+00 0. -1.
          1    1    5    5  503    0 -0.33198109575E+02 -0.16727300901E+02  0.94033306128E+02  0.10111468606E+03  0.00000000000E+00 0. -1.
         -2    1    5    5    0  503 -0.27186419462E+03 -0.28219459008E+03  0.52976673357E+03  0.65893605076E+03  0.00000000000E+00 0.  1.
         -1    1    6    6    0  502  0.31396886032E+03  0.13062562880E+03  0.64443181882E+03  0.72865071829E+03  0.00000000000E+00 0.  1.
<mgrwt>
<rscale>  0 0.18192198E+04</rscale>
<asrwt>0</asrwt>
<pdfrwt beam="1">  1        2 0.23759458E+00 0.18192198E+04</pdfrwt>
<pdfrwt beam="2">  1       -2 0.82422751E-01 0.18192198E+04</pdfrwt>
<totfact> 0.14596336E+01</totfact>
</mgrwt>
</event>
<event>
11    1  0.2406360E-008  0.1626912E+04  0.7818608E-02  0.8804183E-01
         -2   -1    0    0    0  501 -0.00000000000E+00  0.00000000000E+00  0.20937231073E+03  0.20937231073E+03  0.00000000000E+00 0.  1.
          2   -1    0    0  501    0  0.00000000000E+00 -0.00000000000E+00 -0.31604493815E+04  0.31604493815E+04  0.00000000000E+00 0. -1.
         23    2    1    2    0    0  0.94647025365E-01  0.40433815060E+03 -0.23128716773E+03  0.47446390135E+03  0.90182541193E+02 0.  0.
        254    2    1    2    0    0 -0.94647025365E-01 -0.40433815060E+03 -0.27197899030E+04  0.28953577909E+04  0.90683530563E+03 0.  0.
        -24    2    4    4    0    0 -0.38649748019E+03 -0.72439321092E+02 -0.13782247567E+04  0.14354671170E+04  0.80215999876E+02 0.  0.
         11    1    3    3    0    0 -0.70959238046E+01  0.56629200015E+02 -0.72169871213E+02  0.92009286161E+02  0.00000000000E+00 0.  1.
        -11    1    3    3    0    0  0.71905708300E+01  0.34770895059E+03 -0.15911729652E+03  0.38245461519E+03  0.00000000000E+00 0. -1.
          4    1    4    4  502    0  0.29827231736E+02 -0.37177804306E+02 -0.79550119933E+01  0.48323235631E+02  0.00000000000E+00 0. -1.
          1    1    5    5  503    0 -0.41958284293E+02  0.13551239460E+02 -0.20452212155E+03  0.20922101213E+03  0.00000000000E+00 0. -1.
         -2    1    5    5    0  503 -0.34453919590E+03 -0.85990560552E+02 -0.11737026351E+04  0.12262461049E+04  0.00000000000E+00 0.  1.
         -3    1    4    4    0  502  0.35657560143E+03 -0.29472102521E+03 -0.13336101344E+04  0.14115674382E+04  0.00000000000E+00 0.  1.
<mgrwt>
<rscale>  0 0.16269119E+04</rscale>
<asrwt>0</asrwt>
<pdfrwt beam="1">  1        2 0.48622293E+00 0.16269119E+04</pdfrwt>
<pdfrwt beam="2">  1       -2 0.32211128E-01 0.16269119E+04</pdfrwt>
<totfact> 0.11898947E+01</totfact>
</mgrwt>
</event>
<event>
11    1  0.2406360E-008  0.1933772E+04  0.7818608E-02  0.8638226E-01
         -2   -1    0    0    0  501 -0.00000000000E+00  0.00000000000E+00  0.71294223002E+03  0.71294223002E+03  0.00000000000E+00 0.  1.
          2   -1    0    0  501    0  0.00000000000E+00 -0.00000000000E+00 -0.13112825727E+04  0.13112825727E+04  0.00000000000E+00 0. -1.
         23    2    1    2    0    0  0.72154677924E+03 -0.38060163787E+02 -0.47534889904E+03  0.86958250812E+03  0.90215474921E+02 0.  0.
        254    2    1    2    0    0 -0.72154677924E+03  0.38060163787E+02 -0.12299144367E+03  0.11546422946E+04  0.89218473571E+03 0.  0.
        -24    2    4    4    0    0 -0.67444915802E+03 -0.23510564407E+02 -0.44012185070E+03  0.80960902695E+03  0.79530620866E+02 0.  0.
         13    1    3    3    0    0  0.12690682601E+03  0.75571417308E+01 -0.12296187514E+03  0.17686739558E+03  0.00000000000E+00 0.  1.
        -13    1    3    3    0    0  0.59463995323E+03 -0.45617305518E+02 -0.35238702390E+03  0.69271511254E+03  0.00000000000E+00 0. -1.
          2    1    4    4  502    0  0.33037474892E+02  0.38867399469E+02  0.95511008524E+02  0.10827974066E+03  0.00000000000E+00 0. -1.
          3    1    5    5  503    0 -0.56057410763E+02  0.19899468763E+02 -0.34114242507E+02  0.68572616257E+02  0.00000000000E+00 0. -1.
         -4    1    5    5    0  503 -0.61839174726E+03 -0.43410033170E+02 -0.40600760819E+03  0.74103641069E+03  0.00000000000E+00 0.  1.
         -1    1    4    4    0  502 -0.80135096108E+02  0.22703328725E+02  0.22161939850E+03  0.23675352702E+03  0.00000000000E+00 0.  1.
<mgrwt>
<rscale>  0 0.19337722E+04</rscale>
<asrwt>0</asrwt>
<pdfrwt beam="1">  1        2 0.20173578E+00 0.19337722E+04</pdfrwt>
<pdfrwt beam="2">  1       -2 0.10968342E+00 0.19337722E+04</pdfrwt>
<totfact> 0.10064184E+01</totfact>
</mgrwt>
</event>
<event>
11    1  0.2406360E-008  0.2193090E+04  0.7818608E-02  0.8521310E-01
          2   -1    0    0  501    0  0.00000000000E+00  0.00000000000E+00  0.18959386228E+04  0.18959386228E+04  0.00000000000E+00 0. -1.
         -2   -1    0    0    0  501 -0.00000000000E+00 -0.00000000000E+00 -0.63420364519E+03  0.63420364519E+03  0.00000000000E+00 0.  1.
         23    2    1    2    0    0 -0.20975043773E+03 -0.87632093513E+03  0.45483027114E+03  0.10131537765E+04  0.87614905899E+02 0.  0.
        254    2    1    2    0    0  0.20975043773E+03  0.87632093513E+03  0.80690470644E+03  0.15169884915E+04  0.91554642186E+03 0.  0.
        -24    2    4    4    0    0 -0.53756932914E+02 -0.81172009428E+02  0.33163538019E+03  0.35474519191E+03  0.79896325586E+02 0.  0.
         13    1    3    3    0    0 -0.18028643582E+03 -0.79511901575E+03  0.38287206144E+03  0.90072663088E+03  0.00000000000E+00 0. -1.
        -13    1    3    3    0    0 -0.29464001909E+02 -0.81201919376E+02  0.71958209702E+02  0.11242714558E+03  0.00000000000E+00 0.  1.
          4    1    4    4  502    0 -0.53938897654E+01 -0.23028691044E+02  0.59070346034E+02  0.63629556329E+02  0.00000000000E+00 0. -1.
          3    1    5    5  503    0  0.16351683641E+02 -0.12565503580E+02  0.11638036441E+03  0.11819331054E+03  0.00000000000E+00 0. -1.
         -4    1    5    5    0  503 -0.70108616555E+02 -0.68606505848E+02  0.21525501578E+03  0.23655188137E+03  0.00000000000E+00 0.  1.
         -3    1    4    4    0  502  0.26890126041E+03  0.98052163560E+03  0.41619898022E+03  0.10986137433E+04  0.00000000000E+00 0.  1.
<mgrwt>
<rscale>  0 0.21930902E+04</rscale>
<asrwt>0</asrwt>
<pdfrwt beam="1">  1        2 0.29168286E+00 0.21930902E+04</pdfrwt>
<pdfrwt beam="2">  1       -2 0.97569792E-01 0.21930902E+04</pdfrwt>
<totfact> 0.61109316E+00</totfact>
</mgrwt>
</event>
<event>
12    1  0.2406360E-008  0.2054823E+04  0.7818608E-02  0.8581409E-01
         -2   -1    0    0    0  501 -0.00000000000E+00  0.00000000000E+00  0.12538094770E+04  0.12538094770E+04  0.00000000000E+00 0. -1.
          2   -1    0    0  501    0  0.00000000000E+00 -0.00000000000E+00 -0.84189392153E+03  0.84189392153E+03  0.00000000000E+00 0.  1.
         23    2    1    2    0    0  0.36178737153E+03  0.70762531281E+03 -0.68649126677E+02  0.80280916270E+03  0.90366827934E+02 0.  0.
        254    2    1    2    0    0 -0.36178737153E+03 -0.70762531281E+03  0.48056468220E+03  0.12928942359E+04  0.89944950156E+03 0.  0.
        -24    2    4    4    0    0 -0.62827099604E+03 -0.30715728365E+03  0.34888184157E+03  0.78588390857E+03  0.82613176951E+02 0.  0.
         24    2    4    4    0    0  0.26648362451E+03 -0.40046802916E+03  0.13168284063E+03  0.50701032731E+03  0.91273966532E+02 0.  0.
         11    1    3    3    0    0  0.16305419385E+03  0.34661705793E+03  0.10431261636E+02  0.38319559784E+03  0.00000000000E+00 0. -1.
        -11    1    3    3    0    0  0.19873317768E+03  0.36100825488E+03 -0.79080388313E+02  0.41961356486E+03  0.00000000000E+00 0.  1.
          2    1    6    6  502    0  0.21989044553E+03 -0.34992556609E+03  0.14304703069E+03  0.43733529794E+03  0.00000000000E+00 0. -1.
          3    1    5    5  503    0 -0.28395675528E+03 -0.10340842829E+03  0.12157503843E+03  0.32573798041E+03  0.00000000000E+00 0. -1.
         -4    1    5    5    0  503 -0.34431424076E+03 -0.20374885536E+03  0.22730680314E+03  0.46014592816E+03  0.00000000000E+00 0.  1.
         -1    1    6    6    0  502  0.46593178981E+02 -0.50542463070E+02 -0.11364190061E+02  0.69675029361E+02  0.00000000000E+00 0.  1.
<mgrwt>
<rscale>  0 0.20548232E+04</rscale>
<asrwt>0</asrwt>
<pdfrwt beam="1">  1        2 0.12952214E+00 0.20548232E+04</pdfrwt>
<pdfrwt beam="2">  1       -2 0.19289377E+00 0.20548232E+04</pdfrwt>
<totfact> 0.44069697E+00</totfact>
</mgrwt>
</event>
<event>
11    1  0.2406360E-008  0.1769944E+04  0.7818608E-02  0.8722448E-01
          1   -1    0    0  501    0  0.00000000000E+00  0.00000000000E+00  0.24539022021E+04  0.24539022021E+04  0.00000000000E+00 0. -1.
         -1   -1    0    0    0  501 -0.00000000000E+00 -0.00000000000E+00 -0.31915522611E+03  0.31915522611E+03  0.00000000000E+00 0.  1.
         23    2    1    2    0    0 -0.41823607199E+03 -0.12482421626E+03  0.37880073183E+02  0.44774083446E+03  0.92382130427E+02 0.  0.
        254    2    1    2    0    0  0.41823607199E+03  0.12482421626E+03  0.20968669028E+04  0.23253165938E+04  0.90539712623E+03 0.  0.
        -24    2    4    4    0    0  0.44560651956E+03  0.34412632593E+03  0.73024568676E+03  0.92527992193E+03  0.76785886870E+02 0.  0.
         11    1    3    3    0    0 -0.91501037579E+02  0.92277380059E+01  0.20052130903E+02  0.94125867754E+02  0.00000000000E+00 0. -1.
        -11    1    3    3    0    0 -0.32673503441E+03 -0.13405195427E+03  0.17827942281E+02  0.35361496671E+03  0.00000000000E+00 0.  1.
          4    1    4    4  502    0 -0.10523885741E+02 -0.34951002994E+02  0.21761040810E+02  0.42495501863E+02  0.00000000000E+00 0. -1.
          3    1    5    5  503    0  0.77111715990E+02  0.34914464744E+02  0.80245215184E+02  0.11663846343E+03  0.00000000000E+00 0. -1.
         -4    1    5    5    0  503  0.36849480357E+03  0.30921186118E+03  0.65000047158E+03  0.80864145850E+03  0.00000000000E+00 0.  1.
         -3    1    4    4    0  502 -0.16846561831E+02 -0.18435110667E+03  0.13448601753E+04  0.13575411700E+04  0.00000000000E+00 0.  1.
<mgrwt>
<rscale>  0 0.17699443E+04</rscale>
<asrwt>0</asrwt>
<pdfrwt beam="1">  1        1 0.37752340E+00 0.17699443E+04</pdfrwt>
<pdfrwt beam="2">  1       -1 0.49100806E-01 0.17699443E+04</pdfrwt>
<totfact> 0.57378317E+00</totfact>
</mgrwt>
</event>
<event>
11    1  0.2406360E-008  0.2690398E+04  0.7818608E-02  0.8338127E-01
          1   -1    0    0  501    0  0.00000000000E+00  0.00000000000E+00  0.26833483896E+04  0.26833483896E+04  0.00000000000E+00 0. -1.
         -1   -1    0    0    0  501 -0.00000000000E+00 -0.00000000000E+00 -0.67436656477E+03  0.67436656477E+03  0.00000000000E+00 0.  1.
         23    2    1    2    0    0  0.10961952891E+04 -0.62686486732E+02  0.30271913825E+03  0.11426321815E+04  0.91628150116E+02 0.  0.
        254    2    1    2    0    0 -0.10961952891E+04  0.62686486732E+02  0.17062626866E+04  0.22150827729E+04  0.88864257593E+03 0.  0.
        -24    2    4    4    0    0 -0.64664807590E+03 -0.26219308393E+03  0.44147662079E+03  0.82940567078E+03  0.78187036610E+02 0.  0.
         13    1    3    3    0    0  0.95314833080E+03 -0.37421949966E+02  0.28912087163E+03  0.99673618439E+03  0.00000000000E+00 0.  1.
        -13    1    3    3    0    0  0.14304695833E+03 -0.25264536766E+02  0.13598266624E+02  0.14589599707E+03  0.00000000000E+00 0. -1.
          4    1    4    4  502    0 -0.25243709492E+03  0.11287287578E+03  0.62716683355E+03  0.68542177532E+03  0.00000000000E+00 0. -1.
          1    1    5    5  503    0 -0.30421516909E+02 -0.10976639551E+02  0.30222395873E+01  0.32482137230E+02  0.00000000000E+00 0. -1.
         -2    1    5    5    0  503 -0.61622655899E+03 -0.25121644438E+03  0.43845438121E+03  0.79692353355E+03  0.00000000000E+00 0.  1.
         -3    1    4    4    0  502 -0.19711011832E+03  0.21200669488E+03  0.63761923227E+03  0.70025532685E+03  0.00000000000E+00 0.  1.
<mgrwt>
<rscale>  0 0.26903981E+04</rscale>
<asrwt>0</asrwt>
<pdfrwt beam="1">  1        1 0.41282282E+00 0.26903981E+04</pdfrwt>
<pdfrwt beam="2">  1       -1 0.10374870E+00 0.26903981E+04</pdfrwt>
<totfact> 0.77101458E-01</totfact>
</mgrwt>
</event>
<event>
12    1  0.2406360E-008  0.1745612E+04  0.7818608E-02  0.8735770E-01
          1   -1    0    0  501    0  0.00000000000E+00  0.00000000000E+00  0.98619579047E+03  0.98619579047E+03  0.00000000000E+00 0. -1.
         -1   -1    0    0    0  501 -0.00000000000E+00 -0.00000000000E+00 -0.77245311756E+03  0.77245311756E+03  0.00000000000E+00 0.  1.
         23    2    1    2    0    0 -0.31983317594E+03 -0.55096479886E+03  0.17004473163E+02  0.64341831792E+03  0.88557945547E+02 0.  0.
        254    2    1    2    0    0  0.31983317594E+03  0.55096479886E+03  0.19673819975E+03  0.11152305901E+04  0.89396749373E+03 0.  0.
        -24    2    4    4    0    0  0.56464906565E+03  0.16991867085E+03 -0.33735234625E+02  0.59582221399E+03  0.78518294534E+02 0.  0.
         24    2    4    4    0    0 -0.24481588971E+03  0.38104612800E+03  0.23047343437E+03  0.51940837611E+03  0.10740617163E+03 0.  0.
         11    1    3    3    0    0 -0.82454804010E+02 -0.94766927785E+02  0.29384191750E+02  0.12900773632E+03  0.00000000000E+00 0. -1.
        -11    1    3    3    0    0 -0.23737837193E+03 -0.45619787107E+03 -0.12379718587E+02  0.51441058160E+03  0.00000000000E+00 0.  1.
          4    1    6    6  502    0 -0.15702489191E+03  0.15431711957E+03  0.13466495114E+03  0.25807990843E+03  0.00000000000E+00 0. -1.
          3    1    5    5  503    0  0.20369409315E+03  0.24540809158E+02 -0.24033316461E+02  0.20656992810E+03  0.00000000000E+00 0. -1.
         -4    1    5    5    0  503  0.36095497251E+03  0.14537786169E+03 -0.97019181643E+01  0.38925228588E+03  0.00000000000E+00 0.  1.
         -3    1    6    6    0  502 -0.87790997803E+02  0.22672900844E+03  0.95808483232E+02  0.26132846768E+03  0.00000000000E+00 0.  1.
<mgrwt>
<rscale>  0 0.17456117E+04</rscale>
<asrwt>0</asrwt>
<pdfrwt beam="1">  1        1 0.15172243E+00 0.17456117E+04</pdfrwt>
<pdfrwt beam="2">  1       -1 0.11883894E+00 0.17456117E+04</pdfrwt>
<totfact> 0.93255626E+00</totfact>
</mgrwt>
</event>
<event>
12    1  0.2406360E-008  0.2432827E+04  0.7818608E-02  0.8427315E-01
          2   -1    0    0  501    0  0.00000000000E+00  0.00000000000E+00  0.98205729388E+03  0.98205729388E+03  0.00000000000E+00 0.  1.
         -2   -1    0    0    0  501 -0.00000000000E+00 -0.00000000000E+00 -0.15066962936E+04  0.15066962936E+04  0.00000000000E+00 0. -1.
         23    2    1    2    0    0 -0.52393326364E+03  0.86029189430E+03  0.61841786681E+02  0.10133525961E+04  0.91928610132E+02 0.  0.
        254    2    1    2    0    0  0.52393326364E+03 -0.86029189430E+03 -0.58648078645E+03  0.14754009914E+04  0.90456628525E+03 0.  0.
        -24    2    4    4    0    0  0.61355345973E+03 -0.98442146240E+03 -0.60287277978E+03  0.13098432063E+04  0.81854584587E+02 0.  0.
         24    2    4    4    0    0 -0.89620196086E+02  0.12412956810E+03  0.16391993332E+02  0.16555778506E+03  0.60833818925E+02 0.  0.
         13    1    3    3    0    0 -0.95811903882E+02  0.18878990761E+03 -0.20686537760E+02  0.21271925861E+03  0.00000000000E+00 0. -1.
        -13    1    3    3    0    0 -0.42812135976E+03  0.67150198669E+03  0.82528324441E+02  0.80063333752E+03  0.00000000000E+00 0.  1.
          2    1    6    6  502    0 -0.19187705900E+02  0.63700812889E+02  0.27708526389E+02  0.72067496523E+02  0.00000000000E+00 0. -1.
          1    1    5    5  503    0  0.21131697854E+03 -0.40020682547E+03 -0.26128181456E+03  0.52257875502E+03  0.00000000000E+00 0. -1.
         -2    1    5    5    0  503  0.40223648119E+03 -0.58421463693E+03 -0.34159096522E+03  0.78726445132E+03  0.00000000000E+00 0.  1.
         -1    1    6    6    0  502 -0.70432490186E+02  0.60428755215E+02 -0.11316533057E+02  0.93490288539E+02  0.00000000000E+00 0.  1.
<mgrwt>
<rscale>  0 0.24328272E+04</rscale>
<asrwt>0</asrwt>
<pdfrwt beam="1">  1        2 0.15108574E+00 0.24328272E+04</pdfrwt>
<pdfrwt beam="2">  1       -2 0.23179943E+00 0.24328272E+04</pdfrwt>
<totfact> 0.19325131E+00</totfact>
</mgrwt>
</event>
<event>
11    1  0.2406360E-008  0.1894408E+04  0.7818608E-02  0.8657645E-01
         -2   -1    0    0    0  501 -0.00000000000E+00  0.00000000000E+00  0.50987319657E+03  0.50987319657E+03  0.00000000000E+00 0. -1.
          2   -1    0    0  501    0  0.00000000000E+00 -0.00000000000E+00 -0.17596442850E+04  0.17596442850E+04  0.00000000000E+00 0.  1.
         23    2    1    2    0    0 -0.51786901518E+03 -0.51925114104E+03 -0.42692025594E+03  0.85728680323E+03  0.12194135352E+03 0.  0.
        254    2    1    2    0    0  0.51786901518E+03  0.51925114104E+03 -0.82285083244E+03  0.14122306783E+04  0.88289406609E+03 0.  0.
        -24    2    4    4    0    0  0.24216742944E+03 -0.16629641535E+03 -0.48286648565E+03  0.57080438827E+03  0.79737350470E+02 0.  0.
         13    1    3    3    0    0 -0.52422960098E+03 -0.51603075680E+03 -0.42613334501E+03  0.85011413600E+03  0.00000000000E+00 0. -1.
        -13    1    3    3    0    0  0.63605857955E+01 -0.32203842369E+01 -0.78691093627E+00  0.71726672247E+01  0.00000000000E+00 0.  1.
          4    1    4    4  502    0  0.16216995592E+03  0.59289358652E+03 -0.22284537848E+03  0.65382104757E+03  0.00000000000E+00 0. -1.
          1    1    5    5  503    0  0.20298079640E+03 -0.12765772091E+03 -0.43981203594E+03  0.50093145676E+03  0.00000000000E+00 0. -1.
         -2    1    5    5    0  503  0.39186633039E+02 -0.38638694449E+02 -0.43054449714E+02  0.69872931510E+02  0.00000000000E+00 0.  1.
         -1    1    4    4    0  502  0.11353162983E+03  0.92653969874E+02 -0.11713896831E+03  0.18760524247E+03  0.00000000000E+00 0.  1.
<mgrwt>
<rscale>  0 0.18944080E+04</rscale>
<asrwt>0</asrwt>
<pdfrwt beam="1">  1        2 0.27071451E+00 0.18944080E+04</pdfrwt>
<pdfrwt beam="2">  1       -2 0.78442030E-01 0.18944080E+04</pdfrwt>
<totfact> 0.12298341E+01</totfact>
</mgrwt>
</event>
<event>
12    1  0.2406360E-008  0.2998982E+04  0.7818608E-02  0.8244022E-01
         -1   -1    0    0    0  501 -0.00000000000E+00  0.00000000000E+00  0.71111005420E+03  0.71111005420E+03  0.00000000000E+00 0.  1.
          1   -1    0    0  501    0  0.00000000000E+00 -0.00000000000E+00 -0.31619204986E+04  0.31619204986E+04  0.00000000000E+00 0. -1.
         23    2    1    2    0    0  0.28485835995E+03 -0.11332344964E+03  0.59737971675E+03  0.67769344620E+03  0.91757242542E+02 0.  0.
        254    2    1    2    0    0 -0.28485835995E+03  0.11332344964E+03 -0.30481901612E+04  0.31953371066E+04  0.90814617589E+03 0.  0.
        -24    2    4    4    0    0 -0.35189267946E+03 -0.34028183673E+03 -0.15828994265E+04  0.16587961119E+04  0.80085953494E+02 0.  0.
         24    2    4    4    0    0  0.67034319508E+02  0.45360528636E+03 -0.14652907346E+04  0.15365409947E+04  0.60248947931E+02 0.  0.
         13    1    3    3    0    0  0.52845655606E+02 -0.62327647757E+02  0.13341988240E+03  0.15645530995E+03  0.00000000000E+00 0. -1.
        -13    1    3    3    0    0  0.23201270435E+03 -0.50995801879E+02  0.46395983436E+03  0.52123813625E+03  0.00000000000E+00 0.  1.
          4    1    6    6  502    0  0.47276354505E+02  0.15509395504E+03 -0.46397820679E+03  0.49149258892E+03  0.00000000000E+00 0. -1.
          1    1    5    5  503    0 -0.24556205760E+02 -0.59315886967E+02 -0.22949656297E+03  0.23830663882E+03  0.00000000000E+00 0. -1.
         -2    1    5    5    0  503 -0.32733647370E+03 -0.28096594976E+03 -0.13534028636E+04  0.14204894730E+04  0.00000000000E+00 0.  1.
         -3    1    6    6    0  502  0.19757965002E+02  0.29851133132E+03 -0.10013125278E+04  0.10450484058E+04  0.00000000000E+00 0.  1.
<mgrwt>
<rscale>  0 0.29989821E+04</rscale>
<asrwt>0</asrwt>
<pdfrwt beam="1">  1        1 0.48644931E+00 0.29989821E+04</pdfrwt>
<pdfrwt beam="2">  1       -1 0.10940155E+00 0.29989821E+04</pdfrwt>
<totfact> 0.29843134E-01</totfact>
</mgrwt>
</event>
<event>
12    1  0.2406360E-008  0.2322203E+04  0.7818608E-02  0.8469218E-01
          1   -1    0    0  501    0  0.00000000000E+00  0.00000000000E+00  0.19546069450E+04  0.19546069450E+04  0.00000000000E+00 0. -1.
         -1   -1    0    0    0  501 -0.00000000000E+00 -0.00000000000E+00 -0.68973291416E+03  0.68973291416E+03  0.00000000000E+00 0.  1.
         23    2    1    2    0    0 -0.46157409054E+03 -0.23474541458E+03  0.14456399220E+04  0.15382552815E+04  0.90545436949E+02 0.  0.
        254    2    1    2    0    0  0.46157409054E+03  0.23474541458E+03 -0.18076589120E+03  0.11060845776E+04  0.96051586909E+03 0.  0.
        -24    2    4    4    0    0 -0.25562393226E+03  0.14793024745E+03  0.10898064402E+03  0.32490756456E+03  0.80381539444E+02 0.  0.
         24    2    4    4    0    0  0.71719802281E+03  0.86815167131E+02 -0.28974653522E+03  0.78117701308E+03  0.66140713153E+02 0.  0.
         11    1    3    3    0    0 -0.35640487938E+03 -0.20648064695E+03  0.12211391791E+04  0.12887356557E+04  0.00000000000E+00 0. -1.
        -11    1    3    3    0    0 -0.10516921116E+03 -0.28264767627E+02  0.22450074288E+03  0.24951962572E+03  0.00000000000E+00 0.  1.
          2    1    6    6  502    0  0.16670281089E+02  0.17083527764E+01  0.32847464511E+01  0.17076483831E+02  0.00000000000E+00 0. -1.
          3    1    5    5  503    0 -0.17732667880E+03  0.12674309228E+03  0.47380017507E+02  0.22305476572E+03  0.00000000000E+00 0. -1.
         -4    1    5    5    0  503 -0.78297253468E+02  0.21187155172E+02  0.61600626514E+02  0.10185279884E+03  0.00000000000E+00 0.  1.
         -1    1    6    6    0  502  0.70052774172E+03  0.85106814355E+02 -0.29303128167E+03  0.76410052925E+03  0.00000000000E+00 0.  1.
<mgrwt>
<rscale>  0 0.23222030E+04</rscale>
<asrwt>0</asrwt>
<pdfrwt beam="1">  1        1 0.30070876E+00 0.23222030E+04</pdfrwt>
<pdfrwt beam="2">  1       -1 0.10611276E+00 0.23222030E+04</pdfrwt>
<totfact> 0.23968861E+00</totfact>
</mgrwt>
</event>
<event>
11    1  0.2406360E-008  0.1375098E+04  0.7818608E-02  0.8972044E-01
          2   -1    0    0  501    0  0.00000000000E+00  0.00000000000E+00  0.23912044010E+03  0.23912044010E+03  0.00000000000E+00 0. -1.
         -2   -1    0    0    0  501 -0.00000000000E+00 -0.00000000000E+00 -0.19769266752E+04  0.19769266752E+04  0.00000000000E+00 0.  1.
         23    2    1    2    0    0 -0.50359427274E+02  0.36494826661E+03 -0.28522078707E+03  0.47493971226E+03  0.92160315118E+02 0.  0.
        254    2    1    2    0    0  0.50359427274E+02 -0.36494826661E+03 -0.14525854481E+04  0.17411074031E+04  0.88641254275E+03 0.  0.
        -24    2    4    4    0    0  0.33107264527E+03  0.79417583111E+02 -0.87826824787E+03  0.94505727207E+03  0.76562937029E+02 0.  0.
         11    1    3    3    0    0 -0.12570016985E+02  0.17959953748E+02  0.31990229154E+01  0.22153984139E+02  0.00000000000E+00 0. -1.
        -11    1    3    3    0    0 -0.37789410288E+02  0.34698831286E+03 -0.28841980999E+03  0.45278572812E+03  0.00000000000E+00 0.  1.
          4    1    4    4  502    0 -0.66247645883E+02 -0.14638829467E+03 -0.29060561954E+03  0.33206913363E+03  0.00000000000E+00 0. -1.
          1    1    5    5  503    0  0.32394210277E+02  0.83378953899E+01 -0.38917118774E+02  0.51317126699E+02  0.00000000000E+00 0. -1.
         -2    1    5    5    0  503  0.29867843500E+03  0.71079687721E+02 -0.83935112910E+03  0.89374014537E+03  0.00000000000E+00 0.  1.
         -3    1    4    4    0  502 -0.21446557212E+03 -0.29797755505E+03 -0.28371158066E+03  0.46398099739E+03  0.00000000000E+00 0.  1.
<mgrwt>
<rscale>  0 0.13750979E+04</rscale>
<asrwt>0</asrwt>
<pdfrwt beam="1">  1        2 0.36787760E-01 0.13750979E+04</pdfrwt>
<pdfrwt beam="2">  1       -2 0.30414257E+00 0.13750979E+04</pdfrwt>
<totfact> 0.41585064E+00</totfact>
</mgrwt>
</event>
<event>
12    1  0.2406360E-008  0.2020430E+04  0.7818608E-02  0.8597128E-01
         -1   -1    0    0    0  501 -0.00000000000E+00  0.00000000000E+00  0.62587824218E+03  0.62587824218E+03  0.00000000000E+00 0.  1.
          1   -1    0    0  501    0  0.00000000000E+00 -0.00000000000E+00 -0.16305638820E+04  0.16305638820E+04  0.00000000000E+00 0. -1.
         23    2    1    2    0    0 -0.16791343757E+03 -0.74516037788E+03 -0.69929116978E+03  0.10395850219E+04  0.90939355781E+02 0.  0.
        254    2    1    2    0    0  0.16791343757E+03  0.74516037788E+03 -0.30539447007E+03  0.12168571023E+04  0.89666967926E+03 0.  0.
        -24    2    4    4    0    0  0.27488613443E+03  0.51398222796E+02 -0.40827669241E+03  0.50135131703E+03  0.80368658762E+02 0.  0.
         24    2    4    4    0    0 -0.10697269686E+03  0.69376215509E+03  0.10288222233E+03  0.71550578524E+03  0.92815361537E+02 0.  0.
         13    1    3    3    0    0 -0.11239255712E+03 -0.29652782320E+03 -0.29526093576E+03  0.43328957639E+03  0.00000000000E+00 0.  1.
        -13    1    3    3    0    0 -0.55520880451E+02 -0.44863255469E+03 -0.40403023402E+03  0.60629544555E+03  0.00000000000E+00 0. -1.
          4    1    6    6  502    0  0.14771274864E+02  0.15472148576E+03  0.25204177834E+02  0.15745532477E+03  0.00000000000E+00 0. -1.
          1    1    5    5  503    0  0.14976348504E+03  0.62741877247E+02 -0.19427967500E+03  0.25319999354E+03  0.00000000000E+00 0. -1.
         -2    1    5    5    0  503  0.12512264938E+03 -0.11343654451E+02 -0.21399701741E+03  0.24815132348E+03  0.00000000000E+00 0.  1.
         -3    1    6    6    0  502 -0.12174397172E+03  0.53904066933E+03  0.77678044501E+02  0.55805046047E+03  0.00000000000E+00 0.  1.
<mgrwt>
<rscale>  0 0.20204301E+04</rscale>
<asrwt>0</asrwt>
<pdfrwt beam="1">  1        1 0.25085598E+00 0.20204301E+04</pdfrwt>
<pdfrwt beam="2">  1       -1 0.96288959E-01 0.20204301E+04</pdfrwt>
<totfact> 0.51138009E+00</totfact>
</mgrwt>
</event>
<event>
11    1  0.2406360E-008  0.1878913E+04  0.7818608E-02  0.8665425E-01
          2   -1    0    0  501    0  0.00000000000E+00  0.00000000000E+00  0.22507849076E+04  0.22507849076E+04  0.00000000000E+00 0. -1.
         -2   -1    0    0    0  501 -0.00000000000E+00 -0.00000000000E+00 -0.39212026983E+03  0.39212026983E+03  0.00000000000E+00 0.  1.
         23    2    1    2    0    0 -0.26370296265E+03  0.12329239899E+03  0.16235686214E+04  0.16518131786E+04  0.88155774930E+02 0.  0.
        254    2    1    2    0    0  0.26370296265E+03 -0.12329239899E+03  0.23509601645E+03  0.99109199884E+03  0.91774339827E+03 0.  0.
        -24    2    4    4    0    0  0.31299685459E+03  0.29679094407E+03  0.32300525952E+03  0.54461368883E+03  0.78865562324E+02 0.  0.
         13    1    3    3    0    0 -0.26531473045E+03  0.10497506414E+03  0.15018658228E+04  0.15287290865E+04  0.00000000000E+00 0. -1.
        -13    1    3    3    0    0  0.16117677964E+01  0.18317334844E+02  0.12170279860E+03  0.12308409214E+03  0.00000000000E+00 0.  1.
          4    1    4    4  502    0  0.11586130768E+02 -0.95394931780E+02 -0.63604500713E+02  0.11523872590E+03  0.00000000000E+00 0. -1.
          1    1    5    5  503    0  0.48532846729E+02  0.14523359009E+02  0.26029809266E+02  0.56955387269E+02  0.00000000000E+00 0. -1.
         -2    1    5    5    0  503  0.26446400786E+03  0.28226758506E+03  0.29697545025E+03  0.48765830156E+03  0.00000000000E+00 0.  1.
         -3    1    4    4    0  502 -0.60880022705E+02 -0.32468841128E+03 -0.24304742352E+02  0.33123958412E+03  0.00000000000E+00 0.  1.
<mgrwt>
<rscale>  0 0.18789129E+04</rscale>
<asrwt>0</asrwt>
<pdfrwt beam="1">  1        2 0.34627459E+00 0.18789129E+04</pdfrwt>
<pdfrwt beam="2">  1       -2 0.60326197E-01 0.18789129E+04</pdfrwt>
<totfact> 0.11614586E+01</totfact>
</mgrwt>
</event>
<event>
12    1  0.2406360E-008  0.2166274E+04  0.7818608E-02  0.8532598E-01
          2   -1    0    0  501    0  0.00000000000E+00  0.00000000000E+00  0.22357827968E+04  0.22357827968E+04  0.00000000000E+00 0. -1.
         -2   -1    0    0    0  501 -0.00000000000E+00 -0.00000000000E+00 -0.52473160562E+03  0.52473160562E+03  0.00000000000E+00 0.  1.
         23    2    1    2    0    0 -0.26656095667E+02 -0.13492095142E+03 -0.41784567569E+03  0.44965465343E+03  0.93166990334E+02 0.  0.
        254    2    1    2    0    0  0.26656095667E+02  0.13492095142E+03  0.21288968669E+04  0.23108597490E+04  0.88823234525E+03 0.  0.
        -24    2    4    4    0    0 -0.27303874182E+03  0.24696391145E+03  0.39096449414E+03  0.54265194043E+03  0.77952323104E+02 0.  0.
         24    2    4    4    0    0  0.29969483749E+03 -0.11204296003E+03  0.17379323727E+04  0.17682078086E+04  0.61476024187E+02 0.  0.
         11    1    3    3    0    0 -0.30776163811E+02 -0.61615046668E+02 -0.88062051315E+02  0.11179674019E+03  0.00000000000E+00 0. -1.
        -11    1    3    3    0    0  0.41200681441E+01 -0.73305904755E+02 -0.32978362437E+03  0.33785791324E+03  0.00000000000E+00 0.  1.
          4    1    6    6  502    0  0.85598474106E+02 -0.14686199465E+02  0.59720338721E+03  0.60348543389E+03  0.00000000000E+00 0. -1.
          3    1    5    5  503    0 -0.39235425406E+02  0.25923252105E+02  0.18689843188E+02  0.50603792791E+02  0.00000000000E+00 0. -1.
         -4    1    5    5    0  503 -0.23380331642E+03  0.22104065935E+03  0.37227465095E+03  0.49204814764E+03  0.00000000000E+00 0.  1.
         -3    1    6    6    0  502  0.21409636338E+03 -0.97356760566E+02  0.11407289855E+04  0.11647223747E+04  0.00000000000E+00 0.  1.
<mgrwt>
<rscale>  0 0.21662741E+04</rscale>
<asrwt>0</asrwt>
<pdfrwt beam="1">  1        2 0.34396658E+00 0.21662741E+04</pdfrwt>
<pdfrwt beam="2">  1       -2 0.80727941E-01 0.21662741E+04</pdfrwt>
<totfact> 0.61187836E+00</totfact>
</mgrwt>
</event>
<event>
12    1  0.2406360E-008  0.2218371E+04  0.7818608E-02  0.8510820E-01
         -1   -1    0    0    0  501 -0.00000000000E+00  0.00000000000E+00  0.83862980989E+03  0.83862980989E+03  0.00000000000E+00 0.  1.
          1   -1    0    0  501    0  0.00000000000E+00 -0.00000000000E+00 -0.14670272354E+04  0.14670272354E+04  0.00000000000E+00 0. -1.
         23    2    1    2    0    0  0.12519178418E+03  0.20397179723E+03 -0.11845252297E+04  0.12119008195E+04  0.91247464237E+02 0.  0.
        254    2    1    2    0    0 -0.12519178418E+03 -0.20397179723E+03  0.55612780412E+03  0.10937562258E+04  0.91090453402E+03 0.  0.
        -24    2    4    4    0    0 -0.36238487582E+02  0.20951027163E+03  0.61496832356E+03  0.65564581908E+03  0.80483657914E+02 0.  0.
         24    2    4    4    0    0 -0.88953296597E+02 -0.41348206886E+03 -0.58840519439E+02  0.43811040673E+03  0.97971483173E+02 0.  0.
         11    1    3    3    0    0  0.12251364596E+03  0.14652353858E+03 -0.76646411067E+03  0.78990250902E+03  0.00000000000E+00 0. -1.
        -11    1    3    3    0    0  0.26781382206E+01  0.57448258648E+02 -0.41806111901E+03  0.42199831051E+03  0.00000000000E+00 0.  1.
          4    1    6    6  502    0 -0.50762805837E+02 -0.61745363674E+02 -0.35493847123E+01  0.80012189843E+02  0.00000000000E+00 0. -1.
          3    1    5    5  503    0  0.15198383702E+02  0.12946289349E+02  0.27135485865E+02  0.33688749876E+02  0.00000000000E+00 0. -1.
         -4    1    5    5    0  503 -0.51436871284E+02  0.19656398228E+03  0.58783283770E+03  0.62195706920E+03  0.00000000000E+00 0.  1.
         -3    1    6    6    0  502 -0.38190490760E+02 -0.35173670519E+03 -0.55291134727E+02  0.35809821689E+03  0.00000000000E+00 0.  1.
<mgrwt>
<rscale>  0 0.22183713E+04</rscale>
<asrwt>0</asrwt>
<pdfrwt beam="1">  1        1 0.22569650E+00 0.22183713E+04</pdfrwt>
<pdfrwt beam="2">  1       -1 0.12901997E+00 0.22183713E+04</pdfrwt>
<totfact> 0.32450606E+00</totfact>
</mgrwt>
</event>
<event>
12    1  0.2406360E-008  0.1236012E+04  0.7818608E-02  0.9081906E-01
          1   -1    0    0  501    0  0.00000000000E+00  0.00000000000E+00  0.57870594590E+03  0.57870594590E+03  0.00000000000E+00 0. -1.
         -1   -1    0    0    0  501 -0.00000000000E+00 -0.00000000000E+00 -0.65997500452E+03  0.65997500452E+03  0.00000000000E+00 0.  1.
         23    2    1    2    0    0  0.11266106684E+03  0.25365506997E+03 -0.20544863751E+02  0.29340163217E+03  0.92892496089E+02 0.  0.
        254    2    1    2    0    0 -0.11266106684E+03 -0.25365506997E+03 -0.60724194872E+02  0.94527931826E+03  0.90157204437E+03 0.  0.
        -24    2    4    4    0    0  0.16681069694E+03 -0.47376866149E+03  0.14504951505E+03  0.52878496563E+03  0.79319763224E+02 0.  0.
         24    2    4    4    0    0 -0.27947176378E+03  0.22011359152E+03 -0.20577370992E+03  0.41649435263E+03  0.67603743640E+02 0.  0.
         11    1    3    3    0    0  0.72351918262E+02  0.23055421099E+03  0.22514214800E+01  0.24165080836E+03  0.00000000000E+00 0. -1.
        -11    1    3    3    0    0  0.40309148578E+02  0.23100858978E+02 -0.22796285231E+02  0.51750823809E+02  0.00000000000E+00 0.  1.
          4    1    6    6  502    0 -0.84722176273E+02  0.10813687357E+03 -0.73556549534E+02  0.15582681591E+03  0.00000000000E+00 0. -1.
          3    1    5    5  503    0  0.20521790788E+02 -0.11000299371E+03  0.35601197855E+01  0.11195747843E+03  0.00000000000E+00 0. -1.
         -4    1    5    5    0  503  0.14628890615E+03 -0.36376566778E+03  0.14148939526E+03  0.41682748720E+03  0.00000000000E+00 0.  1.
         -3    1    6    6    0  502 -0.19474958751E+03  0.11197671795E+03 -0.13221716039E+03  0.26066753672E+03  0.00000000000E+00 0.  1.
<mgrwt>
<rscale>  0 0.12360121E+04</rscale>
<asrwt>0</asrwt>
<pdfrwt beam="1">  1        1 0.89031683E-01 0.12360121E+04</pdfrwt>
<pdfrwt beam="2">  1       -1 0.10153462E+00 0.12360121E+04</pdfrwt>
<totfact> 0.32795194E+01</totfact>
</mgrwt>
</event>
<event>
12    1  0.2406360E-008  0.1390256E+04  0.7818608E-02  0.8960902E-01
          2   -1    0    0  501    0  0.00000000000E+00  0.00000000000E+00  0.19775672651E+04  0.19775672651E+04  0.00000000000E+00 0. -1.
         -2   -1    0    0    0  501 -0.00000000000E+00 -0.00000000000E+00 -0.24434198518E+03  0.24434198518E+03  0.00000000000E+00 0.  1.
         23    2    1    2    0    0 -0.33032285067E+03 -0.10904309073E+03  0.20893356457E+03  0.41573576237E+03  0.90440081788E+02 0.  0.
        254    2    1    2    0    0  0.33032285067E+03  0.10904309073E+03  0.15242917153E+04  0.18061734879E+04  0.90431955281E+03 0.  0.
        -24    2    4    4    0    0  0.55189374664E+03 -0.16100838235E+02  0.13900596416E+04  0.14978347795E+04  0.79982966504E+02 0.  0.
         24    2    4    4    0    0 -0.22157089596E+03  0.12514392896E+03  0.13423207368E+03  0.30833870833E+03  0.11090466427E+03 0.  0.
         13    1    3    3    0    0 -0.59866752727E+02 -0.32707710236E+02  0.47815087572E+01  0.68386294072E+02  0.00000000000E+00 0. -1.
        -13    1    3    3    0    0 -0.27045609795E+03 -0.76335380493E+02  0.20415205582E+03  0.34734946830E+03  0.00000000000E+00 0.  1.
          4    1    6    6  502    0 -0.17399907458E+03  0.37717964450E+02  0.84513266297E+02  0.19708073213E+03  0.00000000000E+00 0. -1.
          3    1    5    5  503    0  0.49237969463E+03 -0.35996876373E+02  0.11962865697E+04  0.12941542009E+04  0.00000000000E+00 0. -1.
         -4    1    5    5    0  503  0.59514052010E+02  0.19896038138E+02  0.19377307189E+03  0.20368057863E+03  0.00000000000E+00 0.  1.
         -3    1    6    6    0  502 -0.47571821381E+02  0.87425964514E+02  0.49718807387E+02  0.11125797620E+03  0.00000000000E+00 0.  1.
<mgrwt>
<rscale>  0 0.13902557E+04</rscale>
<asrwt>0</asrwt>
<pdfrwt beam="1">  1        2 0.30424111E+00 0.13902557E+04</pdfrwt>
<pdfrwt beam="2">  1       -2 0.37591076E-01 0.13902557E+04</pdfrwt>
<totfact> 0.44732689E+01</totfact>
</mgrwt>
</event>
<event>
12    1  0.2406360E-008  0.1594944E+04  0.7818608E-02  0.8823660E-01
          2   -1    0    0  501    0  0.00000000000E+00  0.00000000000E+00  0.95913774808E+03  0.95913774808E+03  0.00000000000E+00 0. -1.
         -2   -1    0    0    0  501 -0.00000000000E+00 -0.00000000000E+00 -0.66305525281E+03  0.66305525281E+03  0.00000000000E+00 0.  1.
         23    2    1    2    0    0  0.25207366657E+03 -0.24132437861E+03  0.51926123187E+03  0.63225664166E+03  0.91310705354E+02 0.  0.
        254    2    1    2    0    0 -0.25207366657E+03  0.24132437861E+03 -0.22317873660E+03  0.98993635923E+03  0.89910325201E+03 0.  0.
        -24    2    4    4    0    0 -0.58082924927E+03  0.17168018334E+03 -0.19362805371E+03  0.64050928167E+03  0.76965021752E+02 0.  0.
         24    2    4    4    0    0  0.32875558270E+03  0.69644195270E+02 -0.29550682889E+02  0.34942707756E+03  0.91079594747E+02 0.  0.
         13    1    3    3    0    0  0.19240586054E+03 -0.16609108755E+03  0.43825156007E+03  0.50662678022E+03  0.00000000000E+00 0. -1.
        -13    1    3    3    0    0  0.59667806032E+02 -0.75233291057E+02  0.81009671794E+02  0.12562986143E+03  0.00000000000E+00 0.  1.
          4    1    6    6  502    0  0.32685309986E+03  0.53418351732E+02 -0.23560293988E+02  0.33202643968E+03  0.00000000000E+00 0. -1.
          3    1    5    5  503    0 -0.11784331832E+03  0.44437787903E+01 -0.28926358461E+02  0.12142293464E+03  0.00000000000E+00 0. -1.
         -4    1    5    5    0  503 -0.46298593095E+03  0.16723640455E+03 -0.16470169525E+03  0.51908634703E+03  0.00000000000E+00 0.  1.
         -3    1    6    6    0  502  0.19024828382E+01  0.16225843538E+02 -0.59903889011E+01  0.17400637881E+02  0.00000000000E+00 0.  1.
<mgrwt>
<rscale>  0 0.15949437E+04</rscale>
<asrwt>0</asrwt>
<pdfrwt beam="1">  1        2 0.14755965E+00 0.15949437E+04</pdfrwt>
<pdfrwt beam="2">  1       -2 0.10200850E+00 0.15949437E+04</pdfrwt>
<totfact> 0.20239526E+01</totfact>
</mgrwt>
</event>
<event>
12    1  0.2406360E-008  0.1256993E+04  0.7818608E-02  0.9064383E-01
         -1   -1    0    0    0  501 -0.00000000000E+00  0.00000000000E+00  0.30048237786E+03  0.30048237786E+03  0.00000000000E+00 0.  1.
          1   -1    0    0  501    0  0.00000000000E+00 -0.00000000000E+00 -0.13145793391E+04  0.13145793391E+04  0.00000000000E+00 0. -1.
         23    2    1    2    0    0 -0.23738854312E+02  0.15775722279E+03 -0.57319743907E+03  0.60205563840E+03  0.92004418513E+02 0.  0.
        254    2    1    2    0    0  0.23738854312E+02 -0.15775722279E+03 -0.44089952214E+03  0.10130060785E+04  0.89796327986E+03 0.  0.
        -24    2    4    4    0    0  0.29499521593E+03  0.25703295771E+03 -0.27881315774E+03  0.48714252864E+03  0.80516752970E+02 0.  0.
         24    2    4    4    0    0 -0.27125636162E+03 -0.41479018050E+03 -0.16208636440E+03  0.52586354989E+03  0.68040987776E+02 0.  0.
         13    1    3    3    0    0 -0.88519405755E+01 -0.11582747475E+01 -0.22344295805E+01  0.92027782703E+01  0.00000000000E+00 0.  1.
        -13    1    3    3    0    0 -0.14886913737E+02  0.15891549753E+03 -0.57096300949E+03  0.59285286013E+03  0.00000000000E+00 0. -1.
          4    1    6    6  502    0 -0.96778452576E+02 -0.20995083031E+03 -0.74141115356E+02  0.24278040493E+03  0.00000000000E+00 0. -1.
          3    1    5    5  503    0  0.12323435543E+03  0.16045073208E+03 -0.14657915906E+03  0.24983313162E+03  0.00000000000E+00 0. -1.
         -4    1    5    5    0  503  0.17176086051E+03  0.96582225636E+02 -0.13223399867E+03  0.23730939703E+03  0.00000000000E+00 0.  1.
         -3    1    6    6    0  502 -0.17447790904E+03 -0.20483935019E+03 -0.87945249045E+02  0.28308314496E+03  0.00000000000E+00 0.  1.
<mgrwt>
<rscale>  0 0.12569931E+04</rscale>
<asrwt>0</asrwt>
<pdfrwt beam="1">  1        1 0.20224297E+00 0.12569931E+04</pdfrwt>
<pdfrwt beam="2">  1       -1 0.46228059E-01 0.12569931E+04</pdfrwt>
<totfact> 0.40519144E+01</totfact>
</mgrwt>
</event>
<event>
12    1  0.2867742E-008  0.2317492E+04  0.7818608E-02  0.8471056E-01
          2   -1    0    0  501    0  0.00000000000E+00  0.00000000000E+00  0.21806974044E+04  0.21806974044E+04  0.00000000000E+00 0. -1.
         -2   -1    0    0    0  501 -0.00000000000E+00 -0.00000000000E+00 -0.61571715200E+03  0.61571715200E+03  0.00000000000E+00 0.  1.
         23    2    1    2    0    0  0.76318185751E+03 -0.51811342891E+03  0.10659809640E+04  0.14126135938E+04  0.90959754098E+02 0.  0.
        254    2    1    2    0    0 -0.76318185751E+03  0.51811342891E+03  0.49899928843E+03  0.13838009626E+04  0.90278277649E+03 0.  0.
        -24    2    4    4    0    0 -0.16650809188E+03  0.63679167305E+03  0.16212467182E+03  0.68256223383E+03  0.79863723405E+02 0.  0.
         24    2    4    4    0    0 -0.59667376563E+03 -0.11867824414E+03  0.33687461661E+03  0.70123872881E+03  0.90261504812E+02 0.  0.
         13    1    3    3    0    0  0.75817910250E+02 -0.35997137887E+02  0.65093234448E+02  0.10621336367E+03  0.00000000000E+00 0.  1.
        -13    1    3    3    0    0  0.68736394726E+03 -0.48211629103E+03  0.10008877296E+04  0.13064002301E+04  0.00000000000E+00 0. -1.
          4    1    6    6  502    0 -0.15347947874E+03 -0.56108872500E+02  0.12660381899E+03  0.20671885002E+03  0.00000000000E+00 0. -1.
          1    1    5    5  503    0 -0.10266162558E+03  0.28039944965E+03  0.44691589803E+02  0.30192813538E+03  0.00000000000E+00 0. -1.
         -2    1    5    5    0  503 -0.63846466297E+02  0.35639222340E+03  0.11743308202E+03  0.38063409846E+03  0.00000000000E+00 0.  1.
         -3    1    6    6    0  502 -0.44319428689E+03 -0.62569371636E+02  0.21027079761E+03  0.49451987880E+03  0.00000000000E+00 0.  1.
<mgrwt>
<rscale>  0 0.23174924E+04</rscale>
<asrwt>0</asrwt>
<pdfrwt beam="1">  1        2 0.33549190E+00 0.23174924E+04</pdfrwt>
<pdfrwt beam="2">  1       -2 0.94725717E-01 0.23174924E+04</pdfrwt>
<totfact> 0.44971046E+00</totfact>
</mgrwt>
</event>
<event>
11    1  0.2406360E-008  0.3305733E+04  0.7818608E-02  0.8161438E-01
          2   -1    0    0  501    0  0.00000000000E+00  0.00000000000E+00  0.14386900788E+04  0.14386900788E+04  0.00000000000E+00 0.  1.
         -2   -1    0    0    0  501 -0.00000000000E+00 -0.00000000000E+00 -0.18989269307E+04  0.18989269307E+04  0.00000000000E+00 0. -1.
         23    2    1    2    0    0 -0.13245806193E+04  0.46124432874E+03  0.39061806174E+03  0.14588927521E+04  0.92333331139E+02 0.  0.
        254    2    1    2    0    0  0.13245806193E+04 -0.46124432874E+03 -0.85085491359E+03  0.18787242574E+04  0.91563672031E+03 0.  0.
        -24    2    4    4    0    0  0.23104037037E+03 -0.43927257697E+03 -0.28353034332E+03  0.57612642614E+03  0.72056600658E+02 0.  0.
         13    1    3    3    0    0 -0.36163313690E+03  0.11921101448E+03  0.64285508468E+02  0.38616371952E+03  0.00000000000E+00 0. -1.
        -13    1    3    3    0    0 -0.96294748244E+03  0.34203331426E+03  0.32633255327E+03  0.10727290326E+04  0.00000000000E+00 0.  1.
          2    1    4    4  502    0  0.91744673750E+03 -0.17915111104E+03 -0.42388420550E+03  0.10263924476E+04  0.00000000000E+00 0. -1.
          3    1    5    5  503    0  0.21381675767E+03 -0.34769415465E+03 -0.22496462709E+03  0.46606642712E+03  0.00000000000E+00 0. -1.
         -4    1    5    5    0  503  0.17223612693E+02 -0.91578422313E+02 -0.58565716229E+02  0.11005999902E+03  0.00000000000E+00 0.  1.
         -1    1    4    4    0  502  0.17609351147E+03  0.15717935927E+03 -0.14344036476E+03  0.27620538374E+03  0.00000000000E+00 0.  1.
<mgrwt>
<rscale>  0 0.33057328E+04</rscale>
<asrwt>0</asrwt>
<pdfrwt beam="1">  1        2 0.22133693E+00 0.33057328E+04</pdfrwt>
<pdfrwt beam="2">  1       -2 0.29214261E+00 0.33057328E+04</pdfrwt>
<totfact> 0.40757173E-01</totfact>
</mgrwt>
</event>
<event>
11    1  0.2406360E-008  0.3926003E+04  0.7818608E-02  0.8019643E-01
         -2   -1    0    0    0  501 -0.00000000000E+00  0.00000000000E+00  0.18125143530E+04  0.18125143530E+04  0.00000000000E+00 0.  1.
          2   -1    0    0  501    0  0.00000000000E+00 -0.00000000000E+00 -0.21259829628E+04  0.21259829628E+04  0.00000000000E+00 0. -1.
         23    2    1    2    0    0  0.12258656045E+04 -0.91443746863E+03  0.91274295126E+03  0.17833560357E+04  0.91195890700E+02 0.  0.
        254    2    1    2    0    0 -0.12258656045E+04  0.91443746863E+03 -0.12262115611E+04  0.21551412802E+04  0.89559855997E+03 0.  0.
        -24    2    4    4    0    0 -0.73020267780E+03  0.95944072655E+03 -0.10611343019E+04  0.16080866369E+04  0.78829986312E+02 0.  0.
         11    1    3    3    0    0  0.27816326104E+01 -0.10835946877E+02  0.41999739303E+01  0.11949686427E+02  0.00000000000E+00 0. -1.
        -11    1    3    3    0    0  0.12230839719E+04 -0.90360152176E+03  0.90854297733E+03  0.17714063493E+04  0.00000000000E+00 0.  1.
          4    1    4    4  502    0 -0.13307846692E+03  0.57149790248E+02 -0.48150076968E+02  0.15262505297E+03  0.00000000000E+00 0. -1.
          1    1    5    5  503    0 -0.12345365808E+03  0.18799206827E+03 -0.23408888606E+03  0.32462198016E+03  0.00000000000E+00 0. -1.
         -2    1    5    5    0  503 -0.60674901972E+03  0.77144865828E+03 -0.82704541586E+03  0.12834646568E+04  0.00000000000E+00 0.  1.
         -3    1    4    4    0  502 -0.36258445982E+03 -0.10215304817E+03 -0.11692718218E+03  0.39442959028E+03  0.00000000000E+00 0.  1.
<mgrwt>
<rscale>  0 0.39260029E+04</rscale>
<asrwt>0</asrwt>
<pdfrwt beam="1">  1        2 0.32707430E+00 0.39260029E+04</pdfrwt>
<pdfrwt beam="2">  1       -2 0.27884836E+00 0.39260029E+04</pdfrwt>
<totfact> 0.19301853E-01</totfact>
</mgrwt>
</event>
<event>
12    1  0.2406360E-008  0.1203423E+04  0.7818608E-02  0.9109865E-01
          2   -1    0    0  501    0  0.00000000000E+00  0.00000000000E+00  0.67543063484E+03  0.67543063484E+03  0.00000000000E+00 0. -1.
         -2   -1    0    0    0  501 -0.00000000000E+00 -0.00000000000E+00 -0.53603857382E+03  0.53603857382E+03  0.00000000000E+00 0.  1.
         23    2    1    2    0    0 -0.44188036889E+02 -0.10777672258E+03  0.23429584084E+03  0.27680571219E+03  0.90324175799E+02 0.  0.
        254    2    1    2    0    0  0.44188036889E+02  0.10777672258E+03 -0.94903779817E+02  0.93466349647E+03  0.92250784261E+03 0.  0.
        -24    2    4    4    0    0 -0.42149152225E+03  0.40124899362E+02  0.45829501016E+02  0.43348914313E+03  0.80915901862E+02 0.  0.
         24    2    4    4    0    0  0.46567955914E+03  0.67651823214E+02 -0.14073328083E+03  0.50117435333E+03  0.99677756383E+02 0.  0.
         13    1    3    3    0    0 -0.13589605596E+02 -0.17601068660E+02 -0.17202570080E+01  0.22303234797E+02  0.00000000000E+00 0.  1.
        -13    1    3    3    0    0 -0.30598431292E+02 -0.90175653916E+02  0.23601609784E+03  0.25450247739E+03  0.00000000000E+00 0. -1.
          2    1    6    6  502    0  0.26867091262E+03  0.86507707494E+02 -0.68060882394E+02  0.29034449617E+03  0.00000000000E+00 0. -1.
          3    1    5    5  503    0 -0.52034167557E+02 -0.21651237189E+02  0.26357508838E+01  0.56420544555E+02  0.00000000000E+00 0. -1.
         -4    1    5    5    0  503 -0.36945735469E+03  0.61776136551E+02  0.43193750133E+02  0.37706859858E+03  0.00000000000E+00 0.  1.
         -1    1    6    6    0  502  0.19700864652E+03 -0.18855884280E+02 -0.72672398439E+02  0.21082985716E+03  0.00000000000E+00 0.  1.
<mgrwt>
<rscale>  0 0.12034232E+04</rscale>
<asrwt>0</asrwt>
<pdfrwt beam="1">  1        2 0.10391241E+00 0.12034232E+04</pdfrwt>
<pdfrwt beam="2">  1       -2 0.82467473E-01 0.12034232E+04</pdfrwt>
<totfact> 0.54600879E+01</totfact>
</mgrwt>
</event>
<event>
11    1  0.2406360E-008  0.3448628E+04  0.7818608E-02  0.8126074E-01
         -2   -1    0    0    0  501 -0.00000000000E+00  0.00000000000E+00  0.15180530793E+04  0.15180530793E+04  0.00000000000E+00 0.  1.
          2   -1    0    0  501    0  0.00000000000E+00 -0.00000000000E+00 -0.19585996636E+04  0.19585996636E+04  0.00000000000E+00 0. -1.
         23    2    1    2    0    0  0.15312534825E+04 -0.19627581965E+03 -0.64739726987E+03  0.16764825585E+04  0.90604189231E+02 0.  0.
        254    2    1    2    0    0 -0.15312534825E+04  0.19627581965E+03  0.20685068560E+03  0.18001701843E+04  0.90253202795E+03 0.  0.
        -24    2    4    4    0    0 -0.14441012944E+04 -0.90996057022E+02  0.16354653375E+03  0.14583873425E+04  0.80233042284E+02 0.  0.
         13    1    3    3    0    0  0.15259978235E+04 -0.19919201374E+03 -0.63942080302E+03  0.16664950582E+04  0.00000000000E+00 0. -1.
        -13    1    3    3    0    0  0.52556589150E+01  0.29161940977E+01 -0.79764668555E+01  0.99875002951E+01  0.00000000000E+00 0.  1.
          4    1    4    4  502    0 -0.76948351053E+02  0.27857628132E+03 -0.76349190799E+01  0.28910912340E+03  0.00000000000E+00 0. -1.
          1    1    5    5  503    0 -0.74322756583E+03 -0.66142392383E+02  0.11968665049E+03  0.75570293435E+03  0.00000000000E+00 0. -1.
         -2    1    5    5    0  503 -0.70087372858E+03 -0.24853664639E+02  0.43859883260E+02  0.70268440812E+03  0.00000000000E+00 0.  1.
         -3    1    4    4    0  502 -0.10203836999E+02  0.86955953446E+01  0.50939070932E+02  0.52673718450E+02  0.00000000000E+00 0.  1.
<mgrwt>
<rscale>  0 0.34486277E+04</rscale>
<asrwt>0</asrwt>
<pdfrwt beam="1">  1        2 0.30132303E+00 0.34486277E+04</pdfrwt>
<pdfrwt beam="2">  1       -2 0.23354663E+00 0.34486277E+04</pdfrwt>
<totfact> 0.47232791E-01</totfact>
</mgrwt>
</event>
<event>
11    1  0.2406360E-008  0.2142899E+04  0.7818608E-02  0.8542578E-01
         -2   -1    0    0    0  501 -0.00000000000E+00  0.00000000000E+00  0.94288686853E+03  0.94288686853E+03  0.00000000000E+00 0.  1.
          2   -1    0    0  501    0  0.00000000000E+00 -0.00000000000E+00 -0.12175412990E+04  0.12175412990E+04  0.00000000000E+00 0. -1.
         23    2    1    2    0    0  0.29594867345E+03 -0.63549152267E+03  0.41990105879E+03  0.82228168997E+03  0.91625246433E+02 0.  0.
        254    2    1    2    0    0 -0.29594867345E+03  0.63549152267E+03 -0.69455548931E+03  0.13381464776E+04  0.90376632771E+03 0.  0.
        -24    2    4    4    0    0 -0.26939457459E+02  0.75663801324E+03 -0.61672782590E+03  0.97996972827E+03  0.82223108911E+02 0.  0.
         11    1    3    3    0    0  0.11457635323E+02 -0.86998774635E+02  0.69645949975E+02  0.11202956102E+03  0.00000000000E+00 0. -1.
        -11    1    3    3    0    0  0.28449103812E+03 -0.54849274803E+03  0.35025510882E+03  0.71025212894E+03  0.00000000000E+00 0.  1.
          4    1    4    4  502    0 -0.18717368700E+03 -0.48403104675E+02  0.39896659395E+02  0.19740464300E+03  0.00000000000E+00 0. -1.
          1    1    5    5  503    0  0.55145976028E+01  0.20515062774E+03 -0.21258791735E+03  0.29548403248E+03  0.00000000000E+00 0. -1.
         -2    1    5    5    0  503 -0.32454055062E+02  0.55148738550E+03 -0.40413990855E+03  0.68448569579E+03  0.00000000000E+00 0.  1.
         -3    1    4    4    0  502 -0.81835528986E+02 -0.72743385897E+02 -0.11772432281E+03  0.16077210634E+03  0.00000000000E+00 0.  1.
<mgrwt>
<rscale>  0 0.21428987E+04</rscale>
<asrwt>0</asrwt>
<pdfrwt beam="1">  1        2 0.18731405E+00 0.21428987E+04</pdfrwt>
<pdfrwt beam="2">  1       -2 0.14505952E+00 0.21428987E+04</pdfrwt>
<totfact> 0.55583609E+00</totfact>
</mgrwt>
</event>
<event>
12    1  0.2406360E-008  0.1665360E+04  0.7818608E-02  0.8781371E-01
         -2   -1    0    0    0  501 -0.00000000000E+00  0.00000000000E+00  0.49125937859E+03  0.49125937859E+03  0.00000000000E+00 0.  1.
          2   -1    0    0  501    0  0.00000000000E+00 -0.00000000000E+00 -0.14113845619E+04  0.14113845619E+04  0.00000000000E+00 0. -1.
         23    2    1    2    0    0  0.42669626201E+03 -0.31661896469E+03 -0.51591541122E+02  0.54134106392E+03  0.89839810533E+02 0.  0.
        254    2    1    2    0    0 -0.42669626201E+03  0.31661896469E+03 -0.86853364220E+03  0.13613028766E+04  0.90359148143E+03 0.  0.
        -24    2    4    4    0    0  0.90275059737E+02  0.44096904186E+03 -0.60382484410E+03  0.75731839121E+03  0.79519941038E+02 0.  0.
         24    2    4    4    0    0 -0.51697132175E+03 -0.12435007717E+03 -0.26470879810E+03  0.60398448536E+03  0.10956377851E+03 0.  0.
         13    1    3    3    0    0  0.68152637092E+02 -0.66967290079E+02 -0.41912545828E+02  0.10433628986E+03  0.00000000000E+00 0. -1.
        -13    1    3    3    0    0  0.35854362492E+03 -0.24965167461E+03 -0.96789952939E+01  0.43700477407E+03  0.00000000000E+00 0.  1.
          2    1    6    6  502    0 -0.29800653196E+03 -0.12527850214E+03 -0.14323376114E+03  0.35357956180E+03  0.00000000000E+00 0. -1.
          1    1    5    5  503    0  0.64638388298E+02  0.41135468336E+03 -0.56764137337E+03  0.70399398117E+03  0.00000000000E+00 0. -1.
         -2    1    5    5    0  503  0.25636671439E+02  0.29614358504E+02 -0.36183470727E+02  0.53324410038E+02  0.00000000000E+00 0.  1.
         -1    1    6    6    0  502 -0.21896478979E+03  0.92842497471E+00 -0.12147503696E+03  0.25040492356E+03  0.00000000000E+00 0.  1.
<mgrwt>
<rscale>  0 0.16653599E+04</rscale>
<asrwt>0</asrwt>
<pdfrwt beam="1">  1        2 0.21713608E+00 0.16653599E+04</pdfrwt>
<pdfrwt beam="2">  1       -2 0.75578367E-01 0.16653599E+04</pdfrwt>
<totfact> 0.21350814E+01</totfact>
</mgrwt>
</event>
<event>
12    1  0.2406360E-008  0.2242047E+04  0.7818608E-02  0.8501128E-01
          1   -1    0    0  501    0  0.00000000000E+00  0.00000000000E+00  0.12724000088E+04  0.12724000088E+04  0.00000000000E+00 0. -1.
         -1   -1    0    0    0  501 -0.00000000000E+00 -0.00000000000E+00 -0.98765626760E+03  0.98765626760E+03  0.00000000000E+00 0.  1.
         23    2    1    2    0    0 -0.26700879269E+03 -0.53390475489E+03 -0.61544899369E+03  0.86219197709E+03  0.90827082113E+02 0.  0.
        254    2    1    2    0    0  0.26700879269E+03  0.53390475489E+03  0.90019273489E+03  0.13978642993E+04  0.88731598469E+03 0.  0.
        -24    2    4    4    0    0  0.50157945010E+03  0.61602586673E+03  0.71254731511E+03  0.10702909294E+04  0.82031603489E+02 0.  0.
         24    2    4    4    0    0 -0.23457065741E+03 -0.82121111834E+02  0.18764541978E+03  0.32757336995E+03  0.10161810278E+03 0.  0.
         13    1    3    3    0    0 -0.18164953853E+03 -0.29427657397E+03 -0.30748346723E+03  0.46275408097E+03  0.00000000000E+00 0. -1.
        -13    1    3    3    0    0 -0.85359254155E+02 -0.23962818092E+03 -0.30796552647E+03  0.39943789612E+03  0.00000000000E+00 0.  1.
          4    1    6    6  502    0 -0.21350344006E+03 -0.10176982713E+03  0.18146137388E+03  0.29810911902E+03  0.00000000000E+00 0. -1.
          1    1    5    5  503    0  0.36059674452E+03  0.38991788242E+03  0.44811558274E+03  0.69489102936E+03  0.00000000000E+00 0. -1.
         -2    1    5    5    0  503  0.14098270558E+03  0.22610798431E+03  0.26443173238E+03  0.37539990001E+03  0.00000000000E+00 0.  1.
         -3    1    6    6    0  502 -0.21067217344E+02  0.19648715293E+02  0.61840459007E+01  0.29464250932E+02  0.00000000000E+00 0.  1.
<mgrwt>
<rscale>  0 0.22420471E+04</rscale>
<asrwt>0</asrwt>
<pdfrwt beam="1">  1        1 0.19575385E+00 0.22420471E+04</pdfrwt>
<pdfrwt beam="2">  1       -1 0.15194712E+00 0.22420471E+04</pdfrwt>
<totfact> 0.28979956E+00</totfact>
</mgrwt>
</event>
<event>
12    1  0.2406360E-008  0.1961308E+04  0.7818608E-02  0.8624927E-01
         -1   -1    0    0    0  501 -0.00000000000E+00  0.00000000000E+00  0.15239724885E+04  0.15239724885E+04  0.00000000000E+00 0.  1.
          1   -1    0    0  501    0  0.00000000000E+00 -0.00000000000E+00 -0.63103649464E+03  0.63103649464E+03  0.00000000000E+00 0. -1.
         23    2    1    2    0    0 -0.17764964362E+03  0.16904158899E+03 -0.45655397967E+03  0.52650551410E+03  0.92908908855E+02 0.  0.
        254    2    1    2    0    0  0.17764964362E+03 -0.16904158899E+03  0.13494899735E+04  0.16285034690E+04  0.87793274534E+03 0.  0.
        -24    2    4    4    0    0  0.25009811473E+03 -0.29138440471E+02 -0.94863710803E+00  0.26443403506E+03  0.80785786370E+02 0.  0.
         24    2    4    4    0    0 -0.72448471117E+02 -0.13990314852E+03  0.13504386106E+04  0.13640694340E+04  0.11035990079E+03 0.  0.
         11    1    3    3    0    0  0.83052387436E+01 -0.22367284877E+01 -0.87827145565E+01  0.12292925604E+02  0.00000000000E+00 0.  1.
        -11    1    3    3    0    0 -0.18595488236E+03  0.17127831748E+03 -0.44777126511E+03  0.51421258850E+03  0.00000000000E+00 0. -1.
          2    1    6    6  502    0 -0.38068836854E+01  0.18472452571E+02  0.17726891896E+03  0.17826944072E+03  0.00000000000E+00 0. -1.
          1    1    5    5  503    0  0.53375126340E+02 -0.36995311607E+01 -0.33922893423E+02  0.63351032673E+02  0.00000000000E+00 0. -1.
         -2    1    5    5    0  503  0.19672298839E+03 -0.25438909311E+02  0.32974256315E+02  0.20108300239E+03  0.00000000000E+00 0.  1.
         -1    1    6    6    0  502 -0.68641587432E+02 -0.15837560109E+03  0.11731696917E+04  0.11857999932E+04  0.00000000000E+00 0.  1.
<mgrwt>
<rscale>  0 0.19613080E+04</rscale>
<asrwt>0</asrwt>
<pdfrwt beam="1">  1        1 0.97082538E-01 0.19613080E+04</pdfrwt>
<pdfrwt beam="2">  1       -1 0.23445730E+00 0.19613080E+04</pdfrwt>
<totfact> 0.26114225E+00</totfact>
</mgrwt>
</event>
<event>
12    1  0.2406360E-008  0.1038617E+04  0.7818608E-02  0.9267175E-01
         -1   -1    0    0    0  501 -0.00000000000E+00  0.00000000000E+00  0.17522788358E+03  0.17522788358E+03  0.00000000000E+00 0.  1.
          1   -1    0    0  501    0  0.00000000000E+00 -0.00000000000E+00 -0.15390330066E+04  0.15390330066E+04  0.00000000000E+00 0. -1.
         23    2    1    2    0    0  0.47696530676E+02  0.62088064480E+02 -0.30362420500E+03  0.32694821701E+03  0.92615290068E+02 0.  0.
        254    2    1    2    0    0 -0.47696530676E+02 -0.62088064480E+02 -0.10601809180E+04  0.13873126731E+04  0.89136018947E+03 0.  0.
        -24    2    4    4    0    0  0.11069590955E+03  0.29604414086E+03 -0.89199520653E+03  0.94969830274E+03  0.79847980789E+02 0.  0.
         24    2    4    4    0    0 -0.15839244022E+03 -0.35813220534E+03 -0.16818571146E+03  0.43761437038E+03  0.99363282988E+02 0.  0.
         11    1    3    3    0    0 -0.14825689428E+02  0.39557189199E+01 -0.46643189882E+01  0.16037601155E+02  0.00000000000E+00 0.  1.
        -11    1    3    3    0    0  0.62522220104E+02  0.58132345561E+02 -0.29895988601E+03  0.31091061585E+03  0.00000000000E+00 0. -1.
          2    1    6    6  502    0 -0.56979031444E+02 -0.46737792284E+02 -0.11564637556E+02  0.74597400047E+02  0.00000000000E+00 0. -1.
          1    1    5    5  503    0  0.54429531688E+02  0.67360126384E+02 -0.30974241967E+03  0.32162140334E+03  0.00000000000E+00 0. -1.
         -2    1    5    5    0  503  0.56266377860E+02  0.22868401448E+03 -0.58225278686E+03  0.62807689940E+03  0.00000000000E+00 0.  1.
         -1    1    6    6    0  502 -0.10141340878E+03 -0.31139441306E+03 -0.15662107390E+03  0.36301697034E+03  0.00000000000E+00 0.  1.
<mgrwt>
<rscale>  0 0.10386173E+04</rscale>
<asrwt>0</asrwt>
<pdfrwt beam="1">  1        1 0.23677432E+00 0.10386173E+04</pdfrwt>
<pdfrwt beam="2">  1       -1 0.26958134E-01 0.10386173E+04</pdfrwt>
<totfact> 0.75622198E+01</totfact>
</mgrwt>
</event>
<event>
11    1  0.2406360E-008  0.1946601E+04  0.7818608E-02  0.8632002E-01
         -2   -1    0    0    0  501 -0.00000000000E+00  0.00000000000E+00  0.13294757318E+04  0.13294757318E+04  0.00000000000E+00 0.  1.
          2   -1    0    0  501    0  0.00000000000E+00 -0.00000000000E+00 -0.71254673302E+03  0.71254673302E+03  0.00000000000E+00 0. -1.
         23    2    1    2    0    0  0.22187972949E+03 -0.23325409904E+03  0.96539826880E+03  0.10217544740E+04  0.91379969099E+02 0.  0.
        254    2    1    2    0    0 -0.22187972949E+03  0.23325409904E+03 -0.34846927006E+03  0.10202679907E+04  0.90325957048E+03 0.  0.
        -24    2    4    4    0    0  0.68704390619E+02 -0.29760072150E+03 -0.18103974098E+02  0.31579468012E+03  0.78179558634E+02 0.  0.
         13    1    3    3    0    0  0.12410984266E+02 -0.20077822858E+02  0.17776020388E+03  0.17932049962E+03  0.00000000000E+00 0. -1.
        -13    1    3    3    0    0  0.20946874522E+03 -0.21317627618E+03  0.78763806492E+03  0.84243397443E+03  0.00000000000E+00 0.  1.
          2    1    4    4  502    0 -0.21029883811E+03  0.25202239541E+03 -0.13639698808E+03  0.35545045710E+03  0.00000000000E+00 0. -1.
          3    1    5    5  503    0  0.82587336115E+02 -0.21533657078E+03 -0.25520164330E+02  0.23203832785E+03  0.00000000000E+00 0. -1.
         -4    1    5    5    0  503 -0.13882945496E+02 -0.82264150714E+02  0.74161902320E+01  0.83756352272E+02  0.00000000000E+00 0.  1.
         -1    1    4    4    0  502 -0.80285281993E+02  0.27883242513E+03 -0.19396830789E+03  0.34902285351E+03  0.00000000000E+00 0.  1.
<mgrwt>
<rscale>  0 0.19466007E+04</rscale>
<asrwt>0</asrwt>
<pdfrwt beam="1">  1        2 0.10962257E+00 0.19466007E+04</pdfrwt>
<pdfrwt beam="2">  1       -2 0.20453473E+00 0.19466007E+04</pdfrwt>
<totfact> 0.46400155E+00</totfact>
</mgrwt>
</event>
<event>
11    1  0.2406360E-008  0.2395154E+04  0.7818608E-02  0.8441320E-01
          2   -1    0    0  501    0  0.00000000000E+00  0.00000000000E+00  0.18983900209E+04  0.18983900209E+04  0.00000000000E+00 0.  1.
         -2   -1    0    0    0  501 -0.00000000000E+00 -0.00000000000E+00 -0.75547747660E+03  0.75547747660E+03  0.00000000000E+00 0. -1.
         23    2    1    2    0    0  0.71136065684E+03  0.52765331441E+03 -0.56389328140E+02  0.89245995130E+03  0.94090403589E+02 0.  0.
        254    2    1    2    0    0 -0.71136065684E+03 -0.52765331441E+03  0.11993018725E+04  0.17614075462E+04  0.93796564878E+03 0.  0.
        -24    2    4    4    0    0 -0.73713399073E+03 -0.65289982510E+03  0.12342636904E+04  0.15809466216E+04  0.79628267557E+02 0.  0.
         11    1    3    3    0    0  0.30079910159E+03  0.24941977251E+03  0.16870210215E+02  0.39112009208E+03  0.00000000000E+00 0.  1.
        -11    1    3    3    0    0  0.41056155525E+03  0.27823354190E+03 -0.73259538354E+02  0.50133985922E+03  0.00000000000E+00 0. -1.
          2    1    4    4  502    0  0.43835301252E+02  0.82087419716E+02  0.32319836690E+02  0.98511166652E+02  0.00000000000E+00 0. -1.
          3    1    5    5  503    0 -0.51970684330E+03 -0.44707954341E+03  0.80116939038E+03  0.10544418965E+04  0.00000000000E+00 0. -1.
         -4    1    5    5    0  503 -0.21742714744E+03 -0.20582028169E+03  0.43309429997E+03  0.52650472501E+03  0.00000000000E+00 0.  1.
         -1    1    4    4    0  502 -0.18061967355E+02  0.43159090980E+02 -0.67281654560E+02  0.81949758019E+02  0.00000000000E+00 0.  1.
<mgrwt>
<rscale>  0 0.23951542E+04</rscale>
<asrwt>0</asrwt>
<pdfrwt beam="1">  1        2 0.29206000E+00 0.23951542E+04</pdfrwt>
<pdfrwt beam="2">  1       -2 0.11622730E+00 0.23951542E+04</pdfrwt>
<totfact> 0.39328278E+00</totfact>
</mgrwt>
</event>
<event>
11    1  0.2406360E-008  0.2162303E+04  0.7818608E-02  0.8534284E-01
         -1   -1    0    0    0  501 -0.00000000000E+00  0.00000000000E+00  0.42885833490E+03  0.42885833490E+03  0.00000000000E+00 0.  1.
          1   -1    0    0  501    0  0.00000000000E+00 -0.00000000000E+00 -0.27255832028E+04  0.27255832028E+04  0.00000000000E+00 0. -1.
         23    2    1    2    0    0  0.61550484897E+03 -0.46383571378E+03 -0.31548687421E+03  0.83728024205E+03  0.86697447757E+02 0.  0.
        254    2    1    2    0    0 -0.61550484897E+03  0.46383571378E+03 -0.19812379937E+04  0.23171612957E+04  0.92192336661E+03 0.  0.
        -24    2    4    4    0    0  0.36138829227E+01  0.73243068514E+02 -0.11555029863E+04  0.11605373370E+04  0.79260027987E+02 0.  0.
         13    1    3    3    0    0  0.18450884072E+03 -0.14316824153E+03 -0.53451537597E+02  0.23957822221E+03  0.00000000000E+00 0. -1.
        -13    1    3    3    0    0  0.43099600825E+03 -0.32066747225E+03 -0.26203533661E+03  0.59770201984E+03  0.00000000000E+00 0.  1.
          2    1    4    4  502    0  0.97679175359E+01  0.18544515724E+02 -0.18081749690E+03  0.18202823534E+03  0.00000000000E+00 0. -1.
          3    1    5    5  503    0  0.28355027586E+02  0.12009533677E+02 -0.65128417661E+03  0.65201174467E+03  0.00000000000E+00 0. -1.
         -4    1    5    5    0  503 -0.24741144663E+02  0.61233534838E+02 -0.50421880966E+03  0.50852559232E+03  0.00000000000E+00 0.  1.
         -1    1    4    4    0  502 -0.62888664943E+03  0.37204812954E+03 -0.64491751054E+03  0.97459572333E+03  0.00000000000E+00 0.  1.
<mgrwt>
<rscale>  0 0.21623035E+04</rscale>
<asrwt>0</asrwt>
<pdfrwt beam="1">  1        1 0.41932048E+00 0.21623035E+04</pdfrwt>
<pdfrwt beam="2">  1       -1 0.65978208E-01 0.21623035E+04</pdfrwt>
<totfact> 0.20056436E+00</totfact>
</mgrwt>
</event>
<event>
11    1  0.2406360E-008  0.3536497E+04  0.7818608E-02  0.8105195E-01
          1   -1    0    0  501    0  0.00000000000E+00  0.00000000000E+00  0.28278491045E+04  0.28278491045E+04  0.00000000000E+00 0. -1.
         -1   -1    0    0    0  501 -0.00000000000E+00 -0.00000000000E+00 -0.11056824596E+04  0.11056824596E+04  0.00000000000E+00 0.  1.
         23    2    1    2    0    0  0.96914007606E+03  0.37516001916E+03  0.22321777358E+04  0.24639780208E+04  0.92696903207E+02 0.  0.
        254    2    1    2    0    0 -0.96914007606E+03 -0.37516001916E+03 -0.51001109090E+03  0.14695535432E+04  0.90526171714E+03 0.  0.
        -24    2    4    4    0    0 -0.70112489171E+03 -0.41311325713E+03  0.48462481388E+02  0.81912753252E+03  0.79891335212E+02 0.  0.
         13    1    3    3    0    0  0.71728177885E+03  0.31431507364E+03  0.17252980479E+04  0.18947138227E+04  0.00000000000E+00 0. -1.
        -13    1    3    3    0    0  0.25185829721E+03  0.60844945520E+02  0.50687968792E+03  0.56926419815E+03  0.00000000000E+00 0.  1.
          4    1    4    4  502    0 -0.42566793644E+02 -0.13144322519E+02 -0.30151309732E+03  0.30478656957E+03  0.00000000000E+00 0. -1.
          1    1    5    5  503    0 -0.41988672021E+03 -0.20201601675E+03  0.21688864099E+02  0.46646086188E+03  0.00000000000E+00 0. -1.
         -2    1    5    5    0  503 -0.28123817149E+03 -0.21109724038E+03  0.26773617289E+02  0.35266667064E+03  0.00000000000E+00 0.  1.
         -3    1    4    4    0  502 -0.22544839071E+03  0.51097560486E+02 -0.25696047497E+03  0.34563944112E+03  0.00000000000E+00 0.  1.
<mgrwt>
<rscale>  0 0.35364972E+04</rscale>
<asrwt>0</asrwt>
<pdfrwt beam="1">  1        1 0.43505371E+00 0.35364972E+04</pdfrwt>
<pdfrwt beam="2">  1       -1 0.17010500E+00 0.35364972E+04</pdfrwt>
<totfact> 0.15895807E-01</totfact>
</mgrwt>
</event>
<event>
11    1  0.2406360E-008  0.2047215E+04  0.7818608E-02  0.8584859E-01
         -2   -1    0    0    0  501 -0.00000000000E+00  0.00000000000E+00  0.18455951344E+04  0.18455951344E+04  0.00000000000E+00 0. -1.
          2   -1    0    0  501    0  0.00000000000E+00 -0.00000000000E+00 -0.56771531837E+03  0.56771531837E+03  0.00000000000E+00 0.  1.
         23    2    1    2    0    0 -0.40838927361E+03  0.62228972832E+03  0.10258135728E+03  0.75705004341E+03  0.92604149980E+02 0.  0.
        254    2    1    2    0    0  0.40838927361E+03 -0.62228972832E+03  0.11752984588E+04  0.16562604094E+04  0.89880240972E+03 0.  0.
        -24    2    4    4    0    0  0.39738447194E+03 -0.24546683754E+03  0.74320202893E+02  0.47957147714E+03  0.79353149033E+02 0.  0.
         13    1    3    3    0    0 -0.23983751266E+03  0.39053250875E+03  0.19633910144E+02  0.45871904615E+03  0.00000000000E+00 0.  1.
        -13    1    3    3    0    0 -0.16855176095E+03  0.23175721957E+03  0.82947447139E+02  0.29833099727E+03  0.00000000000E+00 0. -1.
          4    1    4    4  502    0 -0.14862748210E+02 -0.21566542973E+03  0.37739098787E+03  0.43492118434E+03  0.00000000000E+00 0. -1.
          3    1    5    5  503    0  0.37692737152E+03 -0.21785833677E+03  0.85021193307E+02  0.44358212499E+03  0.00000000000E+00 0. -1.
         -4    1    5    5    0  503  0.20457100415E+02 -0.27608500772E+02 -0.10700990414E+02  0.35989352150E+02  0.00000000000E+00 0.  1.
         -3    1    4    4    0  502  0.25867549887E+02 -0.16115746105E+03  0.72358726804E+03  0.74176774792E+03  0.00000000000E+00 0.  1.
<mgrwt>
<rscale>  0 0.20472153E+04</rscale>
<asrwt>0</asrwt>
<pdfrwt beam="1">  1        2 0.87340819E-01 0.20472153E+04</pdfrwt>
<pdfrwt beam="2">  1       -2 0.28393771E+00 0.20472153E+04</pdfrwt>
<totfact> 0.19559405E+00</totfact>
</mgrwt>
</event>
<event>
11    1  0.2406360E-008  0.1800160E+04  0.7818608E-02  0.8706214E-01
         -2   -1    0    0    0  501 -0.00000000000E+00  0.00000000000E+00  0.95871501427E+03  0.95871501427E+03  0.00000000000E+00 0.  1.
          2   -1    0    0  501    0  0.00000000000E+00 -0.00000000000E+00 -0.84503123330E+03  0.84503123330E+03  0.00000000000E+00 0. -1.
         23    2    1    2    0    0 -0.27580473136E+03  0.26728134529E+03 -0.47237113933E+03  0.61524928114E+03  0.88823517660E+02 0.  0.
        254    2    1    2    0    0  0.27580473136E+03 -0.26728134529E+03  0.58605492030E+03  0.11884969664E+04  0.95997765715E+03 0.  0.
        -24    2    4    4    0    0  0.39071857797E+03 -0.51380502390E+03  0.58298111093E+03  0.87331729309E+03  0.78482539205E+02 0.  0.
         11    1    3    3    0    0 -0.26429937764E+03  0.22595639646E+03 -0.39090813178E+03  0.52318220690E+03  0.00000000000E+00 0. -1.
        -11    1    3    3    0    0 -0.11505353713E+02  0.41324948835E+02 -0.81463007545E+02  0.92067074237E+02  0.00000000000E+00 0.  1.
          4    1    4    4  502    0  0.39111157792E+02  0.47330747749E+02  0.14629048931E+02  0.63118075216E+02  0.00000000000E+00 0. -1.
          1    1    5    5  503    0  0.18356457968E+03 -0.23458603394E+03  0.32158316468E+03  0.43834038604E+03  0.00000000000E+00 0. -1.
         -2    1    5    5    0  503  0.20715399829E+03 -0.27921898997E+03  0.26139794625E+03  0.43497690705E+03  0.00000000000E+00 0.  1.
         -3    1    4    4    0  502 -0.15402500440E+03  0.19919293086E+03 -0.11555239559E+02  0.25206159812E+03  0.00000000000E+00 0.  1.
<mgrwt>
<rscale>  0 0.18001601E+04</rscale>
<asrwt>0</asrwt>
<pdfrwt beam="1">  1        2 0.13000481E+00 0.18001601E+04</pdfrwt>
<pdfrwt beam="2">  1       -2 0.14749462E+00 0.18001601E+04</pdfrwt>
<totfact> 0.94595200E+00</totfact>
</mgrwt>
</event>
<event>
12    1  0.2406360E-008  0.1356680E+04  0.7818608E-02  0.8985787E-01
          2   -1    0    0  501    0  0.00000000000E+00  0.00000000000E+00  0.22816864500E+04  0.22816864500E+04  0.00000000000E+00 0.  1.
         -2   -1    0    0    0  501 -0.00000000000E+00 -0.00000000000E+00 -0.20166885177E+03  0.20166885177E+03  0.00000000000E+00 0. -1.
         23    2    1    2    0    0 -0.37087170438E+03  0.18460025933E+02  0.64203923174E+03  0.74753037236E+03  0.93277483039E+02 0.  0.
        254    2    1    2    0    0  0.37087170438E+03 -0.18460025933E+02  0.14379783665E+04  0.17358249294E+04  0.89856541741E+03 0.  0.
        -24    2    4    4    0    0  0.62319268087E+03 -0.12933464416E+03  0.11860916119E+04  0.13484228090E+04  0.79587639979E+02 0.  0.
         24    2    4    4    0    0 -0.25232097649E+03  0.11087461823E+03  0.25188675464E+03  0.38740212041E+03  0.10331703436E+03 0.  0.
         11    1    3    3    0    0 -0.18526739599E+03  0.52066617210E+02  0.36041088992E+03  0.40857184217E+03  0.00000000000E+00 0.  1.
        -11    1    3    3    0    0 -0.18560430840E+03 -0.33606591277E+02  0.28162834182E+03  0.33895853019E+03  0.00000000000E+00 0. -1.
          2    1    6    6  502    0 -0.56423789059E+02  0.56439993999E+02  0.27046523472E+02  0.84265243881E+02  0.00000000000E+00 0. -1.
          1    1    5    5  503    0  0.37367095901E+02  0.25996289560E+01  0.10885719517E+03  0.11512144399E+03  0.00000000000E+00 0. -1.
         -2    1    5    5    0  503  0.58582558497E+03 -0.13193427312E+03  0.10772344167E+04  0.12333013650E+04  0.00000000000E+00 0.  1.
         -3    1    6    6    0  502 -0.19589718743E+03  0.54434624229E+02  0.22484023117E+03  0.30313687652E+03  0.00000000000E+00 0.  1.
<mgrwt>
<rscale>  0 0.13566799E+04</rscale>
<asrwt>0</asrwt>
<pdfrwt beam="1">  1        2 0.35102867E+00 0.13566799E+04</pdfrwt>
<pdfrwt beam="2">  1       -2 0.31025979E-01 0.13566799E+04</pdfrwt>
<totfact> 0.43750895E+01</totfact>
</mgrwt>
</event>
<event>
12    1  0.2406360E-008  0.1523143E+04  0.7818608E-02  0.8869207E-01
         -1   -1    0    0    0  501 -0.00000000000E+00  0.00000000000E+00  0.12102650038E+04  0.12102650038E+04  0.00000000000E+00 0.  1.
          1   -1    0    0  501    0  0.00000000000E+00 -0.00000000000E+00 -0.47922638480E+03  0.47922638480E+03  0.00000000000E+00 0. -1.
         23    2    1    2    0    0 -0.11359333008E+01  0.31530192835E+03 -0.16744555279E+03  0.36887893174E+03  0.92828103347E+02 0.  0.
        254    2    1    2    0    0  0.11359333008E+01 -0.31530192835E+03  0.89848417182E+03  0.13206124569E+04  0.91505565836E+03 0.  0.
        -24    2    4    4    0    0  0.32354669774E+03  0.16824002015E+03  0.25669832777E+03  0.45282978969E+03  0.78572367597E+02 0.  0.
         24    2    4    4    0    0 -0.32241076443E+03 -0.48354194850E+03  0.64178584404E+03  0.86778266719E+03  0.58276675279E+02 0.  0.
         13    1    3    3    0    0  0.49805859809E+01  0.24237801974E+03 -0.16927052102E+03  0.29567620799E+03  0.00000000000E+00 0. -1.
        -13    1    3    3    0    0 -0.61165192816E+01  0.72923908613E+02  0.18249682288E+01  0.73202723751E+02  0.00000000000E+00 0.  1.
          4    1    6    6  502    0 -0.27783220465E+03 -0.40525943179E+03  0.57034690336E+03  0.75280909344E+03  0.00000000000E+00 0. -1.
          1    1    5    5  503    0  0.28822274654E+03  0.12551780967E+03  0.23810050509E+03  0.39435887551E+03  0.00000000000E+00 0. -1.
         -2    1    5    5    0  503  0.35323951196E+02  0.42722210480E+02  0.18597822685E+02  0.58470914180E+02  0.00000000000E+00 0.  1.
         -1    1    6    6    0  502 -0.44578559787E+02 -0.78282516711E+02  0.71438940682E+02  0.11497357375E+03  0.00000000000E+00 0.  1.
<mgrwt>
<rscale>  0 0.15231427E+04</rscale>
<asrwt>0</asrwt>
<pdfrwt beam="1">  1        1 0.73727136E-01 0.15231427E+04</pdfrwt>
<pdfrwt beam="2">  1       -1 0.18619462E+00 0.15231427E+04</pdfrwt>
<totfact> 0.85269629E+00</totfact>
</mgrwt>
</event>
<event>
11    1  0.2406360E-008  0.1426362E+04  0.7818608E-02  0.8934955E-01
         -1   -1    0    0    0  501 -0.00000000000E+00  0.00000000000E+00  0.98719649294E+03  0.98719649294E+03  0.00000000000E+00 0.  1.
          1   -1    0    0  501    0  0.00000000000E+00 -0.00000000000E+00 -0.51522347322E+03  0.51522347322E+03  0.00000000000E+00 0. -1.
         23    2    1    2    0    0 -0.22202141348E+03 -0.66181554009E+02  0.52077486476E+03  0.57723081532E+03  0.91189079654E+02 0.  0.
        254    2    1    2    0    0  0.22202141348E+03  0.66181554009E+02 -0.48801845037E+02  0.92518915085E+03  0.89438237831E+03 0.  0.
        -24    2    4    4    0    0 -0.85184936303E+02 -0.18414205976E+03  0.28769851941E+03  0.36106336741E+03  0.80196918080E+02 0.  0.
         11    1    3    3    0    0 -0.85241717355E+02 -0.62891446437E+02  0.29253121437E+03  0.31112054865E+03  0.00000000000E+00 0.  1.
        -11    1    3    3    0    0 -0.13677969613E+03 -0.32901075717E+01  0.22824365039E+03  0.26611026667E+03  0.00000000000E+00 0. -1.
          4    1    4    4  502    0 -0.22108764598E+02  0.35582729549E+02 -0.92171784139E+02  0.10124507843E+03  0.00000000000E+00 0. -1.
          3    1    5    5  503    0  0.11375070610E+02 -0.56684519164E+02  0.86885356815E+02  0.10436279113E+03  0.00000000000E+00 0. -1.
         -4    1    5    5    0  503 -0.96560006912E+02 -0.12745754060E+03  0.20081316259E+03  0.25670057628E+03  0.00000000000E+00 0.  1.
         -3    1    4    4    0  502  0.32931511438E+03  0.21474088422E+03 -0.24432858031E+03  0.46288070501E+03  0.00000000000E+00 0.  1.
<mgrwt>
<rscale>  0 0.14263615E+04</rscale>
<asrwt>0</asrwt>
<pdfrwt beam="1">  1        1 0.79265150E-01 0.14263615E+04</pdfrwt>
<pdfrwt beam="2">  1       -1 0.15187638E+00 0.14263615E+04</pdfrwt>
<totfact> 0.13956726E+01</totfact>
</mgrwt>
</event>
<event>
12    1  0.2406360E-008  0.1623594E+04  0.7818608E-02  0.8806183E-01
          2   -1    0    0  501    0  0.00000000000E+00  0.00000000000E+00  0.30454868605E+04  0.30454868605E+04  0.00000000000E+00 0. -1.
         -2   -1    0    0    0  501 -0.00000000000E+00 -0.00000000000E+00 -0.21639059805E+03  0.21639059805E+03  0.00000000000E+00 0.  1.
         23    2    1    2    0    0  0.38589242121E+03  0.14076626799E+03  0.22601758405E+03  0.47823191877E+03  0.94306504937E+02 0.  0.
        254    2    1    2    0    0 -0.38589242121E+03 -0.14076626799E+03  0.26030786784E+04  0.27836455398E+04  0.89662466077E+03 0.  0.
        -24    2    4    4    0    0  0.18882032961E+03  0.21866833322E+03  0.65853942479E+03  0.72356592217E+03  0.80028200614E+02 0.  0.
         24    2    4    4    0    0 -0.57471275082E+03 -0.35943460121E+03  0.19445392536E+04  0.20600796176E+04  0.56631648512E+02 0.  0.
         11    1    3    3    0    0  0.47616639235E+02 -0.36850961391E+00  0.11478850520E-01  0.47618066562E+02  0.00000000000E+00 0. -1.
        -11    1    3    3    0    0  0.33827578198E+03  0.14113477761E+03  0.22600610520E+03  0.43061385221E+03  0.00000000000E+00 0.  1.
          4    1    6    6  502    0 -0.46643049750E+03 -0.29797855126E+03  0.16480004776E+04  0.17384631719E+04  0.00000000000E+00 0. -1.
          3    1    5    5  503    0  0.15194536756E+03  0.20410596134E+03  0.51179179373E+03  0.57155706478E+03  0.00000000000E+00 0. -1.
         -4    1    5    5    0  503  0.36874962054E+02  0.14562371879E+02  0.14674763106E+03  0.15200885738E+03  0.00000000000E+00 0.  1.
         -3    1    6    6    0  502 -0.10828225332E+03 -0.61456049947E+02  0.29653877607E+03  0.32161644574E+03  0.00000000000E+00 0.  1.
<mgrwt>
<rscale>  0 0.16235944E+04</rscale>
<asrwt>0</asrwt>
<pdfrwt beam="1">  1        2 0.46853641E+00 0.16235944E+04</pdfrwt>
<pdfrwt beam="2">  1       -2 0.33290863E-01 0.16235944E+04</pdfrwt>
<totfact> 0.13231054E+01</totfact>
</mgrwt>
</event>
<event>
12    1  0.2406360E-008  0.1592994E+04  0.7818608E-02  0.8824864E-01
          2   -1    0    0  501    0  0.00000000000E+00  0.00000000000E+00  0.69799105367E+03  0.69799105367E+03  0.00000000000E+00 0. -1.
         -2   -1    0    0    0  501 -0.00000000000E+00 -0.00000000000E+00 -0.90890504709E+03  0.90890504709E+03  0.00000000000E+00 0.  1.
         23    2    1    2    0    0  0.16188369320E+03 -0.53211236675E+02  0.44027510050E+03  0.48080863110E+03  0.91087923378E+02 0.  0.
        254    2    1    2    0    0 -0.16188369320E+03  0.53211236675E+02 -0.65118909391E+03  0.11260874697E+04  0.90276685110E+03 0.  0.
        -24    2    4    4    0    0  0.14227896827E+03  0.10732638937E+03 -0.76601054131E+03  0.79063037506E+03  0.81006060799E+02 0.  0.
         24    2    4    4    0    0 -0.30416266148E+03 -0.54115152699E+02  0.11482144740E+03  0.33545709460E+03  0.62482982867E+02 0.  0.
         11    1    3    3    0    0  0.15733977376E+03 -0.35396467553E+02  0.43106554127E+03  0.46024582039E+03  0.00000000000E+00 0. -1.
        -11    1    3    3    0    0  0.45439194457E+01 -0.17814769122E+02  0.92095592298E+01  0.20562810703E+02  0.00000000000E+00 0.  1.
          4    1    6    6  502    0 -0.42732507668E+02 -0.25142953261E+02  0.34618667503E+02  0.60470550270E+02  0.00000000000E+00 0. -1.
          3    1    5    5  503    0  0.46924083365E+02  0.16219075709E+02 -0.99518473291E+02  0.11121535210E+03  0.00000000000E+00 0. -1.
         -4    1    5    5    0  503  0.95354884906E+02  0.91107313666E+02 -0.66649206802E+03  0.67941502296E+03  0.00000000000E+00 0.  1.
         -3    1    6    6    0  502 -0.26143015381E+03 -0.28972199438E+02  0.80202779897E+02  0.27498654433E+03  0.00000000000E+00 0.  1.
<mgrwt>
<rscale>  0 0.15929942E+04</rscale>
<asrwt>0</asrwt>
<pdfrwt beam="1">  1        2 0.10738324E+00 0.15929942E+04</pdfrwt>
<pdfrwt beam="2">  1       -2 0.13983155E+00 0.15929942E+04</pdfrwt>
<totfact> 0.14208765E+01</totfact>
</mgrwt>
</event>
<event>
12    1  0.2406360E-008  0.1656244E+04  0.7818608E-02  0.8786721E-01
          1   -1    0    0  501    0  0.00000000000E+00  0.00000000000E+00  0.71153778768E+03  0.71153778768E+03  0.00000000000E+00 0. -1.
         -1   -1    0    0    0  501 -0.00000000000E+00 -0.00000000000E+00 -0.96380849739E+03  0.96380849739E+03  0.00000000000E+00 0.  1.
         23    2    1    2    0    0  0.15354025507E+03  0.30006304508E+03 -0.55220362174E+03  0.65295641052E+03  0.88378692151E+02 0.  0.
        254    2    1    2    0    0 -0.15354025507E+03 -0.30006304508E+03  0.29993291203E+03  0.10223898746E+04  0.91744692649E+03 0.  0.
        -24    2    4    4    0    0 -0.36894709191E+03  0.14425822946E+03  0.33146589285E+03  0.52323688062E+03  0.83515278353E+02 0.  0.
         24    2    4    4    0    0  0.21540683685E+03 -0.44432127454E+03 -0.31532980824E+02  0.49915299393E+03  0.65862600201E+02 0.  0.
         11    1    3    3    0    0  0.99672350972E+02  0.18024580790E+03 -0.25340183858E+03  0.32655109954E+03  0.00000000000E+00 0.  1.
        -11    1    3    3    0    0  0.53867904095E+02  0.11981723718E+03 -0.29880178316E+03  0.32640531098E+03  0.00000000000E+00 0. -1.
          2    1    6    6  502    0  0.38565097633E+02 -0.13872040993E+03 -0.24178004376E+02  0.14599724238E+03  0.00000000000E+00 0. -1.
          1    1    5    5  503    0 -0.14461076430E+03  0.97927707276E+02  0.16291959344E+03  0.23884074805E+03  0.00000000000E+00 0. -1.
         -2    1    5    5    0  503 -0.22433632762E+03  0.46330522180E+02  0.16854629941E+03  0.28439613256E+03  0.00000000000E+00 0.  1.
         -1    1    6    6    0  502  0.17684173921E+03 -0.30560086461E+03 -0.73549764481E+01  0.35315575155E+03  0.00000000000E+00 0.  1.
<mgrwt>
<rscale>  0 0.16562441E+04</rscale>
<asrwt>0</asrwt>
<pdfrwt beam="1">  1        1 0.10946735E+00 0.16562441E+04</pdfrwt>
<pdfrwt beam="2">  1       -1 0.14827823E+00 0.16562441E+04</pdfrwt>
<totfact> 0.91350464E+00</totfact>
</mgrwt>
</event>
<event>
11    1  0.2406360E-008  0.1434523E+04  0.7818608E-02  0.8929201E-01
          1   -1    0    0  501    0  0.00000000000E+00  0.00000000000E+00  0.25883494659E+04  0.25883494659E+04  0.00000000000E+00 0. -1.
         -1   -1    0    0    0  501 -0.00000000000E+00 -0.00000000000E+00 -0.19876147983E+03  0.19876147983E+03  0.00000000000E+00 0.  1.
         23    2    1    2    0    0  0.35331585751E+03  0.39463997682E+01  0.11645696916E+04  0.12204426299E+04  0.91705927248E+02 0.  0.
        254    2    1    2    0    0 -0.35331585751E+03 -0.39463997682E+01  0.12250182944E+04  0.15666683158E+04  0.91045709440E+03 0.  0.
        -24    2    4    4    0    0  0.19636609642E+03 -0.13443592087E+03  0.44385229798E+03  0.50994307602E+03  0.80027605939E+02 0.  0.
         13    1    3    3    0    0  0.16033315528E+03 -0.33438283670E+02  0.62778007680E+03  0.64879323696E+03  0.00000000000E+00 0. -1.
        -13    1    3    3    0    0  0.19298270222E+03  0.37384683438E+02  0.53678961482E+03  0.57164939298E+03  0.00000000000E+00 0.  1.
          4    1    4    4  502    0 -0.49021526540E+03  0.21711588796E+03  0.42140147362E+03  0.68193072757E+03  0.00000000000E+00 0. -1.
          3    1    5    5  503    0  0.20355798160E+03 -0.12521556257E+03  0.42856599399E+03  0.49069705541E+03  0.00000000000E+00 0. -1.
         -4    1    5    5    0  503 -0.71918851776E+01 -0.92203583002E+01  0.15286303989E+02  0.19246020608E+02  0.00000000000E+00 0.  1.
         -3    1    4    4    0  502 -0.59466688535E+02 -0.86626366858E+02  0.35976452285E+03  0.37479451221E+03  0.00000000000E+00 0.  1.
<mgrwt>
<rscale>  0 0.14345232E+04</rscale>
<asrwt>0</asrwt>
<pdfrwt beam="1">  1        1 0.39820759E+00 0.14345232E+04</pdfrwt>
<pdfrwt beam="2">  1       -1 0.30578691E-01 0.14345232E+04</pdfrwt>
<totfact> 0.11322912E+01</totfact>
</mgrwt>
</event>
<event>
11    1  0.2406360E-008  0.1191408E+04  0.7818608E-02  0.9120411E-01
          2   -1    0    0  501    0  0.00000000000E+00  0.00000000000E+00  0.97972992010E+03  0.97972992010E+03  0.00000000000E+00 0. -1.
         -2   -1    0    0    0  501 -0.00000000000E+00 -0.00000000000E+00 -0.36220517349E+03  0.36220517349E+03  0.00000000000E+00 0.  1.
         23    2    1    2    0    0  0.94525107543E+02 -0.18654993986E+03 -0.12172137847E+02  0.22815854018E+03  0.90400677528E+02 0.  0.
        254    2    1    2    0    0 -0.94525107543E+02  0.18654993986E+03  0.62969688445E+03  0.11137765534E+04  0.89456367500E+03 0.  0.
        -24    2    4    4    0    0 -0.26991629339E+03  0.20626453117E+03 -0.74527632933E+02  0.35699888426E+03  0.80585191161E+02 0.  0.
         11    1    3    3    0    0 -0.77987008863E+00  0.86850288469E+01  0.52963239777E+01  0.10202400262E+02  0.00000000000E+00 0. -1.
        -11    1    3    3    0    0  0.95304977632E+02 -0.19523496871E+03 -0.17468461825E+02  0.21795613992E+03  0.00000000000E+00 0.  1.
          2    1    4    4  502    0  0.26168213410E+02 -0.86446408478E+02  0.12047013570E+03  0.15056829191E+03  0.00000000000E+00 0. -1.
          3    1    5    5  503    0 -0.17458737826E+03  0.17224090956E+03 -0.32470401838E+02  0.24739040112E+03  0.00000000000E+00 0. -1.
         -4    1    5    5    0  503 -0.95328915137E+02  0.34023621617E+02 -0.42057231096E+02  0.10960848314E+03  0.00000000000E+00 0.  1.
         -1    1    4    4    0  502  0.14922297244E+03  0.66731817169E+02  0.58375438168E+03  0.60620937725E+03  0.00000000000E+00 0.  1.
<mgrwt>
<rscale>  0 0.11914080E+04</rscale>
<asrwt>0</asrwt>
<pdfrwt beam="1">  1        2 0.15072768E+00 0.11914080E+04</pdfrwt>
<pdfrwt beam="2">  1       -2 0.55723873E-01 0.11914080E+04</pdfrwt>
<totfact> 0.77544158E+01</totfact>
</mgrwt>
</event>
<event>
11    1  0.2406360E-008  0.1412235E+04  0.7818608E-02  0.8945009E-01
          2   -1    0    0  501    0  0.00000000000E+00  0.00000000000E+00  0.36336563739E+04  0.36336563739E+04  0.00000000000E+00 0. -1.
         -2   -1    0    0    0  501 -0.00000000000E+00 -0.00000000000E+00 -0.13721778395E+03  0.13721778395E+03  0.00000000000E+00 0.  1.
         23    2    1    2    0    0 -0.29682092104E+03  0.12525866438E+03  0.19466493563E+04  0.19753647946E+04  0.93967884137E+02 0.  0.
        254    2    1    2    0    0  0.29682092104E+03 -0.12525866438E+03  0.15497892336E+04  0.17955093632E+04  0.84747555276E+03 0.  0.
        -24    2    4    4    0    0 -0.38544950253E+02 -0.11557109947E+03 -0.43736215488E+02  0.15158899798E+03  0.78892176672E+02 0.  0.
         13    1    3    3    0    0 -0.26377108668E+03  0.88904056202E+02  0.14644319043E+04  0.14906508376E+04  0.00000000000E+00 0. -1.
        -13    1    3    3    0    0 -0.33049834358E+02  0.36354608178E+02  0.48221745206E+03  0.48471395705E+03  0.00000000000E+00 0.  1.
          2    1    4    4  502    0  0.31916836075E+03 -0.14335428013E+02  0.99242931647E+03  0.10425880755E+04  0.00000000000E+00 0. -1.
          3    1    5    5  503    0 -0.58408352655E+02 -0.10219132031E+03 -0.48262145117E+02  0.12721570759E+03  0.00000000000E+00 0. -1.
         -4    1    5    5    0  503  0.19863402402E+02 -0.13379779165E+02  0.45259296293E+01  0.24373290391E+02  0.00000000000E+00 0.  1.
         -1    1    4    4    0  502  0.16197510539E+02  0.46478631043E+01  0.60109613264E+03  0.60133228972E+03  0.00000000000E+00 0.  1.
<mgrwt>
<rscale>  0 0.14122355E+04</rscale>
<asrwt>0</asrwt>
<pdfrwt beam="1">  1        2 0.55902399E+00 0.14122355E+04</pdfrwt>
<pdfrwt beam="2">  1       -2 0.21110431E-01 0.14122355E+04</pdfrwt>
<totfact> 0.12576337E+01</totfact>
</mgrwt>
</event>
<event>
12    1  0.2406360E-008  0.1598258E+04  0.7818608E-02  0.8821619E-01
          1   -1    0    0  501    0  0.00000000000E+00  0.00000000000E+00  0.18597727747E+04  0.18597727747E+04  0.00000000000E+00 0. -1.
         -1   -1    0    0    0  501 -0.00000000000E+00 -0.00000000000E+00 -0.34337914478E+03  0.34337914478E+03  0.00000000000E+00 0.  1.
         23    2    1    2    0    0  0.79458676258E+02  0.44312737892E+03  0.11156544570E+03  0.47286040341E+03  0.92057358510E+02 0.  0.
        254    2    1    2    0    0 -0.79458676258E+02 -0.44312737892E+03  0.14048281842E+04  0.17302915161E+04  0.90426265445E+03 0.  0.
        -24    2    4    4    0    0 -0.29625935303E+03 -0.29994456290E+03  0.16061867526E+03  0.45827250263E+03  0.80492128558E+02 0.  0.
         24    2    4    4    0    0  0.21680067677E+03 -0.14318281602E+03  0.12442095090E+04  0.12720190135E+04  0.49711327757E+02 0.  0.
         11    1    3    3    0    0  0.97915403636E+02  0.34096953644E+03  0.73460882113E+02  0.36227634790E+03  0.00000000000E+00 0.  1.
        -11    1    3    3    0    0 -0.18456727378E+02  0.10215784248E+03  0.38104563591E+02  0.11058405551E+03  0.00000000000E+00 0. -1.
          2    1    6    6  502    0  0.71377137505E+02 -0.23343964962E+02  0.30684906552E+03  0.31590502603E+03  0.00000000000E+00 0. -1.
          1    1    5    5  503    0 -0.11305983619E+03 -0.14805807090E+03  0.10516194167E+03  0.21392230574E+03  0.00000000000E+00 0. -1.
         -2    1    5    5    0  503 -0.18319951684E+03 -0.15188649200E+03  0.55456733591E+02  0.24435019689E+03  0.00000000000E+00 0.  1.
         -1    1    6    6    0  502  0.14542353927E+03 -0.11983885106E+03  0.93736044345E+03  0.95611398742E+03  0.00000000000E+00 0.  1.
<mgrwt>
<rscale>  0 0.15982580E+04</rscale>
<asrwt>0</asrwt>
<pdfrwt beam="1">  1        1 0.28611888E+00 0.15982580E+04</pdfrwt>
<pdfrwt beam="2">  1       -1 0.52827562E-01 0.15982580E+04</pdfrwt>
<totfact> 0.12863852E+01</totfact>
</mgrwt>
</event>
<event>
12    1  0.2406360E-008  0.2252589E+04  0.7818608E-02  0.8496853E-01
          2   -1    0    0  501    0  0.00000000000E+00  0.00000000000E+00  0.71691625716E+03  0.71691625716E+03  0.00000000000E+00 0. -1.
         -2   -1    0    0    0  501 -0.00000000000E+00 -0.00000000000E+00 -0.17694388277E+04  0.17694388277E+04  0.00000000000E+00 0.  1.
         23    2    1    2    0    0 -0.88672209609E+03  0.10573742238E+02 -0.93074786316E+03  0.12888198521E+04  0.91526754329E+02 0.  0.
        254    2    1    2    0    0  0.88672209609E+03 -0.10573742238E+02 -0.12177470737E+03  0.11975352327E+04  0.79553357848E+03 0.  0.
        -24    2    4    4    0    0  0.78925199143E+03  0.28521327280E+03  0.20526712610E+02  0.84286137206E+03  0.75687711206E+02 0.  0.
         24    2    4    4    0    0  0.97470104663E+02 -0.29578701504E+03 -0.14230141997E+03  0.35467386064E+03  0.92484991888E+02 0.  0.
         11    1    3    3    0    0 -0.40476168163E+02  0.59337068792E+00 -0.18646004534E+02  0.44568439091E+02  0.00000000000E+00 0. -1.
        -11    1    3    3    0    0 -0.84624592793E+03  0.99803715505E+01 -0.91210185862E+03  0.12442514130E+04  0.00000000000E+00 0.  1.
          4    1    6    6  502    0  0.29499739536E+02 -0.21602608319E+03 -0.77150122817E+02  0.23127828411E+03  0.00000000000E+00 0. -1.
          3    1    5    5  503    0  0.57971079709E+03  0.23947966274E+03  0.32349687290E+02  0.62806179584E+03  0.00000000000E+00 0. -1.
         -4    1    5    5    0  503  0.20954119434E+03  0.45733610065E+02 -0.11822974681E+02  0.21479957622E+03  0.00000000000E+00 0.  1.
         -3    1    6    6    0  502  0.67970365127E+02 -0.79760931850E+02 -0.65151297157E+02  0.12339557653E+03  0.00000000000E+00 0.  1.
<mgrwt>
<rscale>  0 0.22525891E+04</rscale>
<asrwt>0</asrwt>
<pdfrwt beam="1">  1        2 0.11029481E+00 0.22525891E+04</pdfrwt>
<pdfrwt beam="2">  1       -2 0.27222136E+00 0.22525891E+04</pdfrwt>
<totfact> 0.16993714E+00</totfact>
</mgrwt>
</event>
<event>
12    1  0.2406360E-008  0.1464388E+04  0.7818608E-02  0.8908486E-01
          1   -1    0    0  501    0  0.00000000000E+00  0.00000000000E+00  0.20546212349E+04  0.20546212349E+04  0.00000000000E+00 0. -1.
         -1   -1    0    0    0  501 -0.00000000000E+00 -0.00000000000E+00 -0.26092807823E+03  0.26092807823E+03  0.00000000000E+00 0.  1.
         23    2    1    2    0    0  0.21253939221E+03 -0.13194863909E+03 -0.27190143066E+02  0.26750014192E+03  0.90739106510E+02 0.  0.
        254    2    1    2    0    0 -0.21253939221E+03  0.13194863909E+03  0.18208832998E+04  0.20480491712E+04  0.90349653006E+03 0.  0.
        -24    2    4    4    0    0 -0.15623873704E+03  0.47914031705E+03  0.67936373779E+03  0.84967286949E+03  0.80143063042E+02 0.  0.
         24    2    4    4    0    0 -0.56300655169E+02 -0.34719167795E+03  0.11415195620E+04  0.11983763017E+04  0.96576525076E+02 0.  0.
         13    1    3    3    0    0  0.17544670595E+03 -0.89908960405E+02 -0.55344375062E+02  0.20476368731E+03  0.00000000000E+00 0.  1.
        -13    1    3    3    0    0  0.37092686256E+02 -0.42039678688E+02  0.28154231996E+02  0.62736454612E+02  0.00000000000E+00 0. -1.
          2    1    6    6  502    0 -0.13206832913E+02 -0.26921985267E+03  0.94334333956E+03  0.98109653235E+03  0.00000000000E+00 0. -1.
          1    1    5    5  503    0 -0.80862870757E+02  0.36134432546E+03  0.48314156957E+03  0.60871528785E+03  0.00000000000E+00 0. -1.
         -4    1    5    5    0  503 -0.75375866283E+02  0.11779599158E+03  0.19622216821E+03  0.24095758164E+03  0.00000000000E+00 0.  1.
         -1    1    6    6    0  502 -0.43093822256E+02 -0.77971825286E+02  0.19817622242E+03  0.21727976940E+03  0.00000000000E+00 0.  1.
<mgrwt>
<rscale>  0 0.14643884E+04</rscale>
<asrwt>0</asrwt>
<pdfrwt beam="1">  1        1 0.31609556E+00 0.14643884E+04</pdfrwt>
<pdfrwt beam="2">  1       -1 0.40142783E-01 0.14643884E+04</pdfrwt>
<totfact> 0.16076141E+01</totfact>
</mgrwt>
</event>
<event>
12    1  0.2406360E-008  0.1250744E+04  0.7818608E-02  0.9069564E-01
         -1   -1    0    0    0  501 -0.00000000000E+00  0.00000000000E+00  0.13054611986E+04  0.13054611986E+04  0.00000000000E+00 0.  1.
          1   -1    0    0  501    0  0.00000000000E+00 -0.00000000000E+00 -0.29958010799E+03  0.29958010799E+03  0.00000000000E+00 0. -1.
         23    2    1    2    0    0 -0.79998608670E+02  0.20666143331E+03  0.50008385809E+03  0.55462429015E+03  0.91736103602E+02 0.  0.
        254    2    1    2    0    0  0.79998608670E+02 -0.20666143331E+03  0.50579723250E+03  0.10504170164E+04  0.89355265236E+03 0.  0.
        -24    2    4    4    0    0  0.27272731403E+03  0.27216147685E+03  0.18031622055E+03  0.43287174088E+03  0.80074636183E+02 0.  0.
         24    2    4    4    0    0 -0.19272870536E+03 -0.47882291016E+03  0.32548101195E+03  0.61754527552E+03  0.94913355330E+02 0.  0.
         11    1    3    3    0    0 -0.36152469826E+02  0.18632926110E+03  0.36981213231E+03  0.41567608521E+03  0.00000000000E+00 0.  1.
        -11    1    3    3    0    0 -0.43846138844E+02  0.20332172202E+02  0.13027172578E+03  0.13894820494E+03  0.00000000000E+00 0. -1.
          2    1    6    6  502    0 -0.32655055538E+02 -0.26283732076E+02  0.45400724744E+02  0.61793308953E+02  0.00000000000E+00 0. -1.
          1    1    5    5  503    0  0.15582223858E+02 -0.23549241826E+01  0.15830904590E+02  0.22337611968E+02  0.00000000000E+00 0. -1.
         -2    1    5    5    0  503  0.25714509017E+03  0.27451640103E+03  0.16448531596E+03  0.41053412891E+03  0.00000000000E+00 0.  1.
         -1    1    6    6    0  502 -0.16007364982E+03 -0.45253917808E+03  0.28008028720E+03  0.55575196657E+03  0.00000000000E+00 0.  1.
<mgrwt>
<rscale>  0 0.12507441E+04</rscale>
<asrwt>0</asrwt>
<pdfrwt beam="1">  1        1 0.46089248E-01 0.12507441E+04</pdfrwt>
<pdfrwt beam="2">  1       -1 0.20084018E+00 0.12507441E+04</pdfrwt>
<totfact> 0.12865305E+01</totfact>
</mgrwt>
</event>
<event>
11    1  0.2406360E-008  0.1458918E+04  0.7818608E-02  0.8912241E-01
          2   -1    0    0  501    0  0.00000000000E+00  0.00000000000E+00  0.11219049791E+04  0.11219049791E+04  0.00000000000E+00 0. -1.
         -2   -1    0    0    0  501 -0.00000000000E+00 -0.00000000000E+00 -0.47429186509E+03  0.47429186509E+03  0.00000000000E+00 0.  1.
         23    2    1    2    0    0 -0.44039000947E+03  0.13351333027E+02  0.18663496288E+03  0.48695342805E+03  0.90384806146E+02 0.  0.
        254    2    1    2    0    0  0.44039000947E+03 -0.13351333027E+02  0.46097815109E+03  0.11092434161E+04  0.90763345125E+03 0.  0.
        -24    2    4    4    0    0  0.67620335676E+03  0.12379653314E+03  0.42582888667E+03  0.81257569047E+03  0.79827631175E+02 0.  0.
         13    1    3    3    0    0 -0.25237785125E+02  0.23223162168E+02  0.18182412473E+02  0.38818309887E+02  0.00000000000E+00 0. -1.
        -13    1    3    3    0    0 -0.41515222435E+03 -0.98718291413E+01  0.16845255040E+03  0.44813511816E+03  0.00000000000E+00 0.  1.
          4    1    4    4  502    0 -0.90530070188E+02 -0.27605262979E+02  0.61420300029E+02  0.11282817648E+03  0.00000000000E+00 0. -1.
          3    1    5    5  503    0  0.26542765949E+02  0.21997610258E+02  0.21113107218E+02  0.40424949941E+02  0.00000000000E+00 0. -1.
         -4    1    5    5    0  503  0.64966059081E+03  0.10179892288E+03  0.40471577945E+03  0.77215074053E+03  0.00000000000E+00 0.  1.
         -3    1    4    4    0  502 -0.14528327710E+03 -0.10954260318E+03 -0.26271035607E+02  0.18383954914E+03  0.00000000000E+00 0.  1.
<mgrwt>
<rscale>  0 0.14589180E+04</rscale>
<asrwt>0</asrwt>
<pdfrwt beam="1">  1        2 0.17260077E+00 0.14589180E+04</pdfrwt>
<pdfrwt beam="2">  1       -2 0.72967980E-01 0.14589180E+04</pdfrwt>
<totfact> 0.34737726E+01</totfact>
</mgrwt>
</event>
<event>
11    1  0.2406360E-008  0.1717078E+04  0.7818608E-02  0.8751684E-01
          1   -1    0    0  501    0  0.00000000000E+00  0.00000000000E+00  0.12696522982E+04  0.12696522982E+04  0.00000000000E+00 0. -1.
         -1   -1    0    0    0  501 -0.00000000000E+00 -0.00000000000E+00 -0.58054383540E+03  0.58054383540E+03  0.00000000000E+00 0.  1.
         23    2    1    2    0    0 -0.17520918622E+03  0.49830559810E+03  0.58955143833E+03  0.79674360432E+03  0.90679350169E+02 0.  0.
        254    2    1    2    0    0  0.17520918622E+03 -0.49830559810E+03  0.99557024465E+02  0.10534525293E+04  0.90600436108E+03 0.  0.
        -24    2    4    4    0    0  0.81122985631E+02 -0.74268948894E+03 -0.18335151934E+01  0.75134146931E+03  0.79636837915E+02 0.  0.
         11    1    3    3    0    0 -0.15713254356E+03  0.47784088872E+03  0.58018108033E+03  0.76787540470E+03  0.00000000000E+00 0. -1.
        -11    1    3    3    0    0 -0.18076642654E+02  0.20464709385E+02  0.93703580022E+01  0.28868199614E+02  0.00000000000E+00 0.  1.
          4    1    4    4  502    0  0.79792845264E+02  0.13896972896E+03  0.11154612967E+03  0.19524861784E+03  0.00000000000E+00 0. -1.
          3    1    5    5  503    0  0.86868324892E+02 -0.65342238748E+03  0.19196488247E+02  0.65945085297E+03  0.00000000000E+00 0. -1.
         -4    1    5    5    0  503 -0.57453392603E+01 -0.89267101459E+02 -0.21030003440E+02  0.91890616337E+02  0.00000000000E+00 0.  1.
         -3    1    4    4    0  502  0.14293355321E+02  0.10541416187E+03 -0.10155590013E+02  0.10686244213E+03  0.00000000000E+00 0.  1.
<mgrwt>
<rscale>  0 0.17170775E+04</rscale>
<asrwt>0</asrwt>
<pdfrwt beam="1">  1        1 0.19533112E+00 0.17170775E+04</pdfrwt>
<pdfrwt beam="2">  1       -1 0.89314437E-01 0.17170775E+04</pdfrwt>
<totfact> 0.11103810E+01</totfact>
</mgrwt>
</event>
<event>
12    1  0.2406360E-008  0.1555490E+04  0.7818608E-02  0.8848369E-01
          2   -1    0    0  501    0  0.00000000000E+00  0.00000000000E+00  0.66054464481E+03  0.66054464481E+03  0.00000000000E+00 0. -1.
         -2   -1    0    0    0  501 -0.00000000000E+00 -0.00000000000E+00 -0.91573988051E+03  0.91573988051E+03  0.00000000000E+00 0.  1.
         23    2    1    2    0    0 -0.25664109011E+03 -0.26148109786E+02 -0.52937512290E+03  0.59550097673E+03  0.88515647011E+02 0.  0.
        254    2    1    2    0    0  0.25664109011E+03  0.26148109786E+02  0.27417988719E+03  0.98078354859E+03  0.90565632878E+03 0.  0.
        -24    2    4    4    0    0  0.40208845205E+03 -0.57221309817E+02 -0.20575673626E+03  0.46228823694E+03  0.80157207572E+02 0.  0.
         24    2    4    4    0    0 -0.14544736194E+03  0.83369419603E+02  0.47993662346E+03  0.51849531165E+03  0.10194523259E+03 0.  0.
         13    1    3    3    0    0 -0.18557419032E+03  0.17840410068E+02 -0.40238610860E+03  0.44347563714E+03  0.00000000000E+00 0.  1.
        -13    1    3    3    0    0 -0.71066899798E+02 -0.43988519853E+02 -0.12698901430E+03  0.15202533959E+03  0.00000000000E+00 0. -1.
          2    1    6    6  502    0 -0.10114543754E+03  0.94964424495E+02  0.26929272779E+03  0.30293103950E+03  0.00000000000E+00 0. -1.
          3    1    5    5  503    0  0.34310323807E+03 -0.26105952486E+02 -0.19254521982E+03  0.39430320111E+03  0.00000000000E+00 0. -1.
         -4    1    5    5    0  503  0.58985213983E+02 -0.31115357332E+02 -0.13211516444E+02  0.67985035833E+02  0.00000000000E+00 0.  1.
         -1    1    6    6    0  502 -0.44301924397E+02 -0.11595004892E+02  0.21064389567E+03  0.21556427215E+03  0.00000000000E+00 0.  1.
<mgrwt>
<rscale>  0 0.15554897E+04</rscale>
<asrwt>0</asrwt>
<pdfrwt beam="1">  1        2 0.10162225E+00 0.15554897E+04</pdfrwt>
<pdfrwt beam="2">  1       -2 0.14088306E+00 0.15554897E+04</pdfrwt>
<totfact> 0.14975405E+01</totfact>
</mgrwt>
</event>
<event>
11    1  0.2406360E-008  0.1637915E+04  0.7818608E-02  0.8797588E-01
         -1   -1    0    0    0  501 -0.00000000000E+00  0.00000000000E+00  0.13011283634E+03  0.13011283634E+03  0.00000000000E+00 0.  1.
          1   -1    0    0  501    0  0.00000000000E+00 -0.00000000000E+00 -0.51546872547E+04  0.51546872547E+04  0.00000000000E+00 0. -1.
         23    2    1    2    0    0  0.34434832810E+03  0.20105246984E+03 -0.31026515539E+04  0.31294277620E+04  0.88733227485E+02 0.  0.
        254    2    1    2    0    0 -0.34434832810E+03 -0.20105246984E+03 -0.19219228644E+04  0.21553723291E+04  0.89041816772E+03 0.  0.
        -24    2    4    4    0    0 -0.20070076596E+02 -0.45046782349E+03 -0.14445648904E+04  0.15155031607E+04  0.81596811968E+02 0.  0.
         13    1    3    3    0    0  0.32723396226E+03  0.20938180708E+03 -0.29971725962E+04  0.30222452545E+04  0.00000000000E+00 0. -1.
        -13    1    3    3    0    0  0.17114365839E+02 -0.83293372450E+01 -0.10547895779E+03  0.10718250749E+03  0.00000000000E+00 0.  1.
          2    1    4    4  502    0 -0.78024226524E+01  0.97641468829E+01  0.64313674956E+01  0.14056274452E+02  0.00000000000E+00 0. -1.
          1    1    5    5  503    0 -0.10744186815E+02 -0.15305831763E+03 -0.37128731967E+03  0.40174190707E+03  0.00000000000E+00 0. -1.
         -2    1    5    5    0  503 -0.93258897806E+01 -0.29740950586E+03 -0.10732775707E+04  0.11137612537E+04  0.00000000000E+00 0.  1.
         -1    1    4    4    0  502 -0.31647582885E+03  0.23965120677E+03 -0.48378934157E+03  0.62581289390E+03  0.00000000000E+00 0.  1.
<mgrwt>
<rscale>  0 0.16379145E+04</rscale>
<asrwt>0</asrwt>
<pdfrwt beam="1">  1        1 0.79302869E+00 0.16379145E+04</pdfrwt>
<pdfrwt beam="2">  1       -1 0.20017362E-01 0.16379145E+04</pdfrwt>
<totfact> 0.10924220E-01</totfact>
</mgrwt>
</event>
<event>
12    1  0.2406360E-008  0.1399938E+04  0.7818608E-02  0.8953863E-01
          2   -1    0    0  501    0  0.00000000000E+00  0.00000000000E+00  0.25178458847E+03  0.25178458847E+03  0.00000000000E+00 0.  1.
         -2   -1    0    0    0  501 -0.00000000000E+00 -0.00000000000E+00 -0.19459368476E+04  0.19459368476E+04  0.00000000000E+00 0. -1.
         23    2    1    2    0    0 -0.34273774964E+03  0.11184766094E+03 -0.79989222003E+03  0.88220324733E+03  0.92064877411E+02 0.  0.
        254    2    1    2    0    0  0.34273774964E+03 -0.11184766094E+03 -0.89426003911E+03  0.13155181887E+04  0.89493464738E+03 0.  0.
        -24    2    4    4    0    0  0.31412813798E+03 -0.26504175562E+03 -0.14022445966E+02  0.41898583778E+03  0.80180321645E+02 0.  0.
         24    2    4    4    0    0  0.28609611665E+02  0.15319409468E+03 -0.88023759315E+03  0.89653235096E+03  0.68301503737E+02 0.  0.
         13    1    3    3    0    0 -0.31499223778E+03  0.11133191484E+03 -0.66175243458E+03  0.74130370955E+03  0.00000000000E+00 0.  1.
        -13    1    3    3    0    0 -0.27745511859E+02  0.51574610580E+00 -0.13813978545E+03  0.14089953778E+03  0.00000000000E+00 0. -1.
          4    1    6    6  502    0  0.24689837405E+02  0.13782222204E+03 -0.85720713703E+03  0.86856699726E+03  0.00000000000E+00 0. -1.
          3    1    5    5  503    0  0.12756354470E+03 -0.10610512859E+03  0.33661757521E+02  0.16930407606E+03  0.00000000000E+00 0. -1.
         -4    1    5    5    0  503  0.18656459328E+03 -0.15893662703E+03 -0.47684203487E+02  0.24968176173E+03  0.00000000000E+00 0.  1.
         -3    1    6    6    0  502  0.39197742594E+01  0.15371872642E+02 -0.23030456120E+02  0.27965353705E+02  0.00000000000E+00 0.  1.
<mgrwt>
<rscale>  0 0.13999384E+04</rscale>
<asrwt>0</asrwt>
<pdfrwt beam="1">  1        2 0.38736091E-01 0.13999384E+04</pdfrwt>
<pdfrwt beam="2">  1       -2 0.29937489E+00 0.13999384E+04</pdfrwt>
<totfact> 0.41872519E+00</totfact>
</mgrwt>
</event>
<event>
12    1  0.2406360E-008  0.2268065E+04  0.7818608E-02  0.8490620E-01
          2   -1    0    0  501    0  0.00000000000E+00  0.00000000000E+00  0.22162209251E+04  0.22162209251E+04  0.00000000000E+00 0. -1.
         -2   -1    0    0    0  501 -0.00000000000E+00 -0.00000000000E+00 -0.58028034645E+03  0.58028034645E+03  0.00000000000E+00 0.  1.
         23    2    1    2    0    0  0.83376868171E+03  0.46811951478E+03  0.64530165674E+03  0.11573582511E+04  0.93583110105E+02 0.  0.
        254    2    1    2    0    0 -0.83376868171E+03 -0.46811951478E+03  0.99063892193E+03  0.16391430205E+04  0.88944829706E+03 0.  0.
        -24    2    4    4    0    0 -0.93613866631E+03 -0.36501667617E+03  0.10631599677E+04  0.14650502419E+04  0.80438285184E+02 0.  0.
         24    2    4    4    0    0  0.10236998459E+03 -0.10310283861E+03 -0.72521045806E+02  0.17409277860E+03  0.62762922189E+02 0.  0.
         13    1    3    3    0    0  0.23228574638E+02  0.23274673575E+02  0.42035127438E+02  0.53368802202E+02  0.00000000000E+00 0. -1.
        -13    1    3    3    0    0  0.81054010707E+03  0.44484484120E+03  0.60326652930E+03  0.11039894489E+04  0.00000000000E+00 0.  1.
          4    1    6    6  502    0  0.15020735808E+02 -0.27246643837E+02  0.92076580697E+01  0.32446618803E+02  0.00000000000E+00 0. -1.
          1    1    5    5  503    0 -0.22355338325E+03 -0.12013737528E+03  0.24416626796E+03  0.35217363687E+03  0.00000000000E+00 0. -1.
         -2    1    5    5    0  503 -0.71258528306E+03 -0.24487930090E+03  0.81899369978E+03  0.11128766050E+04  0.00000000000E+00 0.  1.
         -3    1    6    6    0  502  0.87349248787E+02 -0.75856194770E+02 -0.81728703876E+02  0.14164615980E+03  0.00000000000E+00 0.  1.
<mgrwt>
<rscale>  0 0.22680648E+04</rscale>
<asrwt>0</asrwt>
<pdfrwt beam="1">  1        2 0.34095706E+00 0.22680648E+04</pdfrwt>
<pdfrwt beam="2">  1       -2 0.89273901E-01 0.22680648E+04</pdfrwt>
<totfact> 0.49481635E+00</totfact>
</mgrwt>
</event>
<event>
11    1  0.2406360E-008  0.4108582E+04  0.7818608E-02  0.7982993E-01
          2   -1    0    0  501    0  0.00000000000E+00  0.00000000000E+00  0.23186261960E+04  0.23186261960E+04  0.00000000000E+00 0. -1.
         -2   -1    0    0    0  501 -0.00000000000E+00 -0.00000000000E+00 -0.18200910384E+04  0.18200910384E+04  0.00000000000E+00 0.  1.
         23    2    1    2    0    0 -0.16330902760E+04  0.10659412513E+04  0.38287667167E+03  0.19894929876E+04  0.90957138732E+02 0.  0.
        254    2    1    2    0    0  0.16330902760E+04 -0.10659412513E+04  0.11565848589E+03  0.21492242469E+04  0.89586459759E+03 0.  0.
        -24    2    4    4    0    0  0.78865138486E+03 -0.97431051702E+03 -0.56132305518E+01  0.12559844108E+04  0.78824751632E+02 0.  0.
         11    1    3    3    0    0 -0.26933129739E+03  0.21235182544E+03  0.50900484071E+02  0.34673261283E+03  0.00000000000E+00 0.  1.
        -11    1    3    3    0    0 -0.13637589786E+04  0.85358942589E+03  0.33197618760E+03  0.16427603747E+04  0.00000000000E+00 0. -1.
          4    1    4    4  502    0 -0.38817390830E+01 -0.21665356666E+02  0.29930228157E+02  0.37152040796E+02  0.00000000000E+00 0. -1.
          3    1    5    5  503    0  0.72644613470E+01 -0.18740816207E+01  0.39339656802E+01  0.84711667766E+01  0.00000000000E+00 0. -1.
         -4    1    5    5    0  503  0.78138692352E+03 -0.97243643540E+03 -0.95471962320E+01  0.12475132441E+04  0.00000000000E+00 0.  1.
         -3    1    4    4    0  502  0.84832063020E+03 -0.69965377644E+02  0.91341488283E+02  0.85608779525E+03  0.00000000000E+00 0.  1.
<mgrwt>
<rscale>  0 0.41085816E+04</rscale>
<asrwt>0</asrwt>
<pdfrwt beam="1">  1        2 0.35671172E+00 0.41085816E+04</pdfrwt>
<pdfrwt beam="2">  1       -2 0.28001401E+00 0.41085816E+04</pdfrwt>
<totfact> 0.14568668E-01</totfact>
</mgrwt>
</event>
<event>
12    1  0.2406360E-008  0.1333417E+04  0.7818608E-02  0.9003477E-01
          3   -1    0    0  501    0  0.00000000000E+00  0.00000000000E+00  0.63804521449E+03  0.63804521449E+03  0.00000000000E+00 0. -1.
         -3   -1    0    0    0  501 -0.00000000000E+00 -0.00000000000E+00 -0.69665947738E+03  0.69665947738E+03  0.00000000000E+00 0.  1.
         23    2    1    2    0    0 -0.91327761167E+02  0.14815580656E+02  0.32750463835E+03  0.35309025089E+03  0.94091315984E+02 0.  0.
        254    2    1    2    0    0  0.91327761167E+02 -0.14815580656E+02 -0.38611890123E+03  0.98161444098E+03  0.89772982765E+03 0.  0.
        -24    2    4    4    0    0 -0.23956930411E+03 -0.18923269264E+03 -0.48672654802E+03  0.58008132384E+03  0.79932135511E+02 0.  0.
         24    2    4    4    0    0  0.33089706528E+03  0.17441711199E+03  0.10060764678E+03  0.40153311713E+03  0.10579578819E+03 0.  0.
         11    1    3    3    0    0 -0.64324957146E+02  0.39357158163E+02  0.11529618793E+03  0.13776754684E+03  0.00000000000E+00 0.  1.
        -11    1    3    3    0    0 -0.27002804021E+02 -0.24541577507E+02  0.21220845041E+03  0.21532270405E+03  0.00000000000E+00 0. -1.
          2    1    6    6  502    0  0.63655891596E+02  0.86247767710E+02  0.23312580645E+02  0.10970062163E+03  0.00000000000E+00 0. -1.
          3    1    5    5  503    0 -0.22097638243E+03 -0.13769647152E+03 -0.41312631298E+03  0.48832799463E+03  0.00000000000E+00 0. -1.
         -4    1    5    5    0  503 -0.18592921687E+02 -0.51536221126E+02 -0.73600235035E+02  0.91753329215E+02  0.00000000000E+00 0.  1.
         -1    1    6    6    0  502  0.26724117369E+03  0.88169344277E+02  0.77295066138E+02  0.29183249550E+03  0.00000000000E+00 0.  1.
<mgrwt>
<rscale>  0 0.13334170E+04</rscale>
<asrwt>0</asrwt>
<pdfrwt beam="1">  1        3 0.98160802E-01 0.13334170E+04</pdfrwt>
<pdfrwt beam="2">  1       -3 0.10717838E+00 0.13334170E+04</pdfrwt>
<totfact> 0.17369045E+00</totfact>
</mgrwt>
</event>
<event>
11    1  0.2406360E-008  0.1539806E+04  0.7818608E-02  0.8858406E-01
          2   -1    0    0  501    0  0.00000000000E+00  0.00000000000E+00  0.11067978710E+04  0.11067978710E+04  0.00000000000E+00 0. -1.
         -2   -1    0    0    0  501 -0.00000000000E+00 -0.00000000000E+00 -0.53555429822E+03  0.53555429822E+03  0.00000000000E+00 0.  1.
         23    2    1    2    0    0  0.19457159031E+03 -0.88805800783E+01  0.68662084801E+03  0.71975123721E+03  0.93041313862E+02 0.  0.
        254    2    1    2    0    0 -0.19457159031E+03  0.88805800783E+01 -0.11537727518E+03  0.92260093206E+03  0.89439565951E+03 0.  0.
        -24    2    4    4    0    0 -0.47449054579E+03 -0.19185379949E+03  0.56653101785E+02  0.52151897649E+03  0.82603332073E+02 0.  0.
         11    1    3    3    0    0  0.19440973077E+03 -0.21286285362E+02  0.67496709013E+03  0.70272955119E+03  0.00000000000E+00 0. -1.
        -11    1    3    3    0    0  0.16185953626E+00  0.12405705283E+02  0.11653757881E+02  0.17021686017E+02  0.00000000000E+00 0.  1.
          4    1    4    4  502    0  0.21567321726E+03  0.10932340640E+03 -0.75173126034E+02  0.25321442042E+03  0.00000000000E+00 0. -1.
          1    1    5    5  503    0 -0.24332566133E+03 -0.73253391628E+02 -0.62843870771E+01  0.25419073619E+03  0.00000000000E+00 0. -1.
         -2    1    5    5    0  503 -0.23116488447E+03 -0.11860040786E+03  0.62937488862E+02  0.26732824029E+03  0.00000000000E+00 0.  1.
         -3    1    4    4    0  502  0.64245738225E+02  0.91410973170E+02 -0.96857250930E+02  0.14786753516E+03  0.00000000000E+00 0.  1.
<mgrwt>
<rscale>  0 0.15398056E+04</rscale>
<asrwt>0</asrwt>
<pdfrwt beam="1">  1        2 0.17027660E+00 0.15398056E+04</pdfrwt>
<pdfrwt beam="2">  1       -2 0.82392969E-01 0.15398056E+04</pdfrwt>
<totfact> 0.26886061E+01</totfact>
</mgrwt>
</event>
<event>
12    1  0.2406360E-008  0.2908081E+04  0.7818608E-02  0.8270477E-01
         -2   -1    0    0    0  501 -0.00000000000E+00  0.00000000000E+00  0.30112684262E+04  0.30112684262E+04  0.00000000000E+00 0.  1.
          2   -1    0    0  501    0  0.00000000000E+00 -0.00000000000E+00 -0.70210736600E+03  0.70210736600E+03  0.00000000000E+00 0. -1.
         23    2    1    2    0    0  0.33508246841E+03  0.12272849046E+04  0.63483224483E+03  0.14248568699E+04  0.93255686694E+02 0.  0.
        254    2    1    2    0    0 -0.33508246841E+03 -0.12272849046E+04  0.16743288154E+04  0.22885189223E+04  0.90301349823E+03 0.  0.
        -24    2    4    4    0    0 -0.18439945787E+03 -0.10492384572E+04  0.17285280909E+04  0.20320787489E+04  0.81425921918E+02 0.  0.
         24    2    4    4    0    0 -0.15068301053E+03 -0.17804644733E+03 -0.54199275488E+02  0.25644017334E+03  0.91750171473E+02 0.  0.
         13    1    3    3    0    0  0.30276697854E+03  0.10219897800E+04  0.50183688037E+03  0.11781218987E+04  0.00000000000E+00 0.  1.
        -13    1    3    3    0    0  0.32315489866E+02  0.20529512461E+03  0.13299536446E+03  0.24673497126E+03  0.00000000000E+00 0. -1.
          2    1    6    6  502    0 -0.14831221756E+03 -0.18794038127E+03 -0.56545849973E+02  0.24599905272E+03  0.00000000000E+00 0. -1.
          1    1    5    5  503    0 -0.11225762462E+03 -0.48347162713E+03  0.74657750897E+03  0.89650686859E+03  0.00000000000E+00 0. -1.
         -2    1    5    5    0  503 -0.72141833254E+02 -0.56576683011E+03  0.98195058191E+03  0.11355718804E+04  0.00000000000E+00 0.  1.
         -1    1    6    6    0  502 -0.23707929728E+01  0.98939339322E+01  0.23465744845E+01  0.10441120619E+02  0.00000000000E+00 0.  1.
<mgrwt>
<rscale>  0 0.29080810E+04</rscale>
<asrwt>0</asrwt>
<pdfrwt beam="1">  1        2 0.10801652E+00 0.29080810E+04</pdfrwt>
<pdfrwt beam="2">  1       -2 0.46327206E+00 0.29080810E+04</pdfrwt>
<totfact> 0.99713148E-02</totfact>
</mgrwt>
</event>
<event>
12    1  0.2406360E-008  0.1960681E+04  0.7818608E-02  0.8625227E-01
         -2   -1    0    0    0  501 -0.00000000000E+00  0.00000000000E+00  0.40829742418E+03  0.40829742418E+03  0.00000000000E+00 0.  1.
          2   -1    0    0  501    0  0.00000000000E+00 -0.00000000000E+00 -0.23538423684E+04  0.23538423684E+04  0.00000000000E+00 0. -1.
         23    2    1    2    0    0 -0.41545911698E+03  0.55418349521E+03 -0.12300467741E+04  0.14145954235E+04  0.91320979976E+02 0.  0.
        254    2    1    2    0    0  0.41545911698E+03 -0.55418349521E+03 -0.71549817007E+03  0.13475443691E+04  0.90786153735E+03 0.  0.
        -24    2    4    4    0    0  0.28572902172E+03 -0.73247056079E+03 -0.26036270960E+03  0.83235074465E+03  0.82854241291E+02 0.  0.
         24    2    4    4    0    0  0.12973009526E+03  0.17828706558E+03 -0.45513546048E+03  0.51519362442E+03  0.98285339156E+02 0.  0.
         11    1    3    3    0    0 -0.41081796614E+03  0.55667328095E+03 -0.12267158433E+04  0.14083636971E+04  0.00000000000E+00 0.  1.
        -11    1    3    3    0    0 -0.46411508374E+01 -0.24897857417E+01 -0.33309308588E+01  0.62317264479E+01  0.00000000000E+00 0. -1.
          2    1    6    6  502    0  0.11516300319E+03  0.17793449932E+03 -0.45343139871E+03  0.50052296319E+03  0.00000000000E+00 0. -1.
          3    1    5    5  503    0  0.28325684622E+03 -0.68335613901E+03 -0.25680894434E+03  0.78304590386E+03  0.00000000000E+00 0. -1.
         -4    1    5    5    0  503  0.24721754942E+01 -0.49114421780E+02 -0.35537652610E+01  0.49304840797E+02  0.00000000000E+00 0.  1.
         -1    1    6    6    0  502  0.14567092074E+02  0.35256626740E+00 -0.17040617707E+01  0.14670661232E+02  0.00000000000E+00 0.  1.
<mgrwt>
<rscale>  0 0.19606813E+04</rscale>
<asrwt>0</asrwt>
<pdfrwt beam="1">  1        2 0.36212959E+00 0.19606813E+04</pdfrwt>
<pdfrwt beam="2">  1       -2 0.62814988E-01 0.19606813E+04</pdfrwt>
<totfact> 0.92531322E+00</totfact>
</mgrwt>
</event>
<event>
12    1  0.2406360E-008  0.1551230E+04  0.7818608E-02  0.8851083E-01
         -1   -1    0    0    0  501 -0.00000000000E+00  0.00000000000E+00  0.24019077416E+03  0.24019077416E+03  0.00000000000E+00 0.  1.
          1   -1    0    0  501    0  0.00000000000E+00 -0.00000000000E+00 -0.25045853976E+04  0.25045853976E+04  0.00000000000E+00 0. -1.
         23    2    1    2    0    0 -0.51737623383E+03 -0.43676552327E+02 -0.75739702914E+03  0.92272407080E+03  0.90463487299E+02 0.  0.
        254    2    1    2    0    0  0.51737623383E+03  0.43676552327E+02 -0.15069975943E+04  0.18220521010E+04  0.88274928537E+03 0.  0.
        -24    2    4    4    0    0  0.26424890497E+03  0.12281928254E+03 -0.15067767911E+04  0.15368075872E+04  0.80555581752E+02 0.  0.
         24    2    4    4    0    0  0.25312732886E+03 -0.79142730214E+02 -0.22080320945E+00  0.28524451382E+03  0.10501127344E+03 0.  0.
         13    1    3    3    0    0 -0.46671755049E+02 -0.13970958548E+02 -0.34971132997E+02  0.59970163791E+02  0.00000000000E+00 0. -1.
        -13    1    3    3    0    0 -0.47070447879E+03 -0.29705593779E+02 -0.72242589614E+03  0.86275390701E+03  0.00000000000E+00 0.  1.
          4    1    6    6  502    0  0.49261575134E+01  0.15420857724E+02 -0.10746597592E+02  0.19430883680E+02  0.00000000000E+00 0. -1.
          1    1    5    5  503    0  0.11121246927E+03  0.57287085062E+02 -0.45277798633E+03  0.46974240636E+03  0.00000000000E+00 0. -1.
         -2    1    5    5    0  503  0.15303643571E+03  0.65532197479E+02 -0.10539988048E+04  0.10670651808E+04  0.00000000000E+00 0.  1.
         -3    1    6    6    0  502  0.24820117135E+03 -0.94563587938E+02  0.10525794383E+02  0.26581363014E+03  0.00000000000E+00 0.  1.
<mgrwt>
<rscale>  0 0.15512296E+04</rscale>
<asrwt>0</asrwt>
<pdfrwt beam="1">  1        1 0.38532084E+00 0.15512296E+04</pdfrwt>
<pdfrwt beam="2">  1       -1 0.36952426E-01 0.15512296E+04</pdfrwt>
<totfact> 0.91373664E+00</totfact>
</mgrwt>
</event>
<event>
12    1  0.2406360E-008  0.2996048E+04  0.7818608E-02  0.8244860E-01
          2   -1    0    0  501    0  0.00000000000E+00  0.00000000000E+00  0.24418120303E+04  0.24418120303E+04  0.00000000000E+00 0.  1.
         -2   -1    0    0    0  501 -0.00000000000E+00 -0.00000000000E+00 -0.91902076866E+03  0.91902076866E+03  0.00000000000E+00 0. -1.
         23    2    1    2    0    0 -0.49494130420E+03  0.42779613512E+03  0.20419672960E+04  0.21459806448E+04  0.87327327493E+02 0.  0.
        254    2    1    2    0    0  0.49494130420E+03 -0.42779613512E+03 -0.51917603435E+03  0.12148521542E+04  0.88223895517E+03 0.  0.
        -24    2    4    4    0    0  0.21590079201E+03  0.23690508277E+02  0.20697689952E+03  0.31043502461E+03  0.79724998575E+02 0.  0.
         24    2    4    4    0    0  0.27904051219E+03 -0.45148664340E+03 -0.72615293387E+03  0.90441712955E+03  0.94701976030E+02 0.  0.
         11    1    3    3    0    0 -0.19175141481E+03  0.17030040526E+03  0.66605491168E+03  0.71372262013E+03  0.00000000000E+00 0.  1.
        -11    1    3    3    0    0 -0.30318988939E+03  0.25749572986E+03  0.13759123843E+04  0.14322580247E+04  0.00000000000E+00 0. -1.
          4    1    6    6  502    0  0.22947838894E+02 -0.15140847741E+02 -0.74510395362E+02  0.79420700055E+02  0.00000000000E+00 0. -1.
          1    1    5    5  503    0  0.94035819469E+01  0.15647263026E+02  0.42708669180E+02  0.46446685746E+02  0.00000000000E+00 0. -1.
         -2    1    5    5    0  503  0.20649721006E+03  0.80432452511E+01  0.16426823034E+03  0.26398833886E+03  0.00000000000E+00 0.  1.
         -3    1    6    6    0  502  0.25609267329E+03 -0.43634579565E+03 -0.65164253850E+03  0.82499642950E+03  0.00000000000E+00 0.  1.
<mgrwt>
<rscale>  0 0.29960480E+04</rscale>
<asrwt>0</asrwt>
<pdfrwt beam="1">  1        2 0.37566339E+00 0.29960480E+04</pdfrwt>
<pdfrwt beam="2">  1       -2 0.14138781E+00 0.29960480E+04</pdfrwt>
<totfact> 0.11272900E+00</totfact>
</mgrwt>
</event>
<event>
12    1  0.2406360E-008  0.1694879E+04  0.7818608E-02  0.8764290E-01
          2   -1    0    0  501    0  0.00000000000E+00  0.00000000000E+00  0.32965695223E+04  0.32965695223E+04  0.00000000000E+00 0. -1.
         -2   -1    0    0    0  501 -0.00000000000E+00 -0.00000000000E+00 -0.21784890939E+03  0.21784890939E+03  0.00000000000E+00 0.  1.
         23    2    1    2    0    0 -0.72337826064E+02  0.10723210605E+02 -0.13394336448E+03  0.17805808235E+03  0.91739345295E+02 0.  0.
        254    2    1    2    0    0  0.72337826064E+02 -0.10723210605E+02  0.32126639774E+04  0.33363603494E+04  0.89707457922E+03 0.  0.
        -24    2    4    4    0    0  0.52563758908E+01  0.28881314283E+03  0.37138729653E+03  0.47671970424E+03  0.76762565290E+02 0.  0.
         24    2    4    4    0    0  0.67081450173E+02 -0.29953635344E+03  0.28412766809E+04  0.28596406451E+04  0.10232054470E+03 0.  0.
         13    1    3    3    0    0 -0.83182017919E+02 -0.20270856834E+01 -0.60876459940E+02  0.10309849929E+03  0.00000000000E+00 0. -1.
        -13    1    3    3    0    0  0.10844191855E+02  0.12750296289E+02 -0.73066904543E+02  0.74959583056E+02  0.00000000000E+00 0.  1.
          2    1    6    6  502    0  0.66929232691E+02 -0.22965278698E+03  0.24911191458E+04  0.25025775759E+04  0.00000000000E+00 0. -1.
          1    1    5    5  503    0 -0.90302899879E+01  0.58912010106E+02  0.35290762830E+02  0.69264774692E+02  0.00000000000E+00 0. -1.
         -2    1    5    5    0  503  0.14286665879E+02  0.22990113273E+03  0.33609653370E+03  0.40745492955E+03  0.00000000000E+00 0.  1.
         -1    1    6    6    0  502  0.15221748213E+00 -0.69883566459E+02  0.35015753512E+03  0.35706306927E+03  0.00000000000E+00 0.  1.
<mgrwt>
<rscale>  0 0.16948794E+04</rscale>
<asrwt>0</asrwt>
<pdfrwt beam="1">  1        2 0.50716451E+00 0.16948794E+04</pdfrwt>
<pdfrwt beam="2">  1       -2 0.33515219E-01 0.16948794E+04</pdfrwt>
<totfact> 0.89388149E+00</totfact>
</mgrwt>
</event>
<event>
12    1  0.2406360E-008  0.2772199E+04  0.7818608E-02  0.8311952E-01
         -2   -1    0    0    0  501 -0.00000000000E+00  0.00000000000E+00  0.97876435810E+03  0.97876435810E+03  0.00000000000E+00 0.  1.
          2   -1    0    0  501    0  0.00000000000E+00 -0.00000000000E+00 -0.19629570461E+04  0.19629570461E+04  0.00000000000E+00 0. -1.
         23    2    1    2    0    0 -0.12020089147E+04 -0.43167650964E+02 -0.12653719189E+03  0.12128873280E+04  0.91624954873E+02 0.  0.
        254    2    1    2    0    0  0.12020089147E+04  0.43167650964E+02 -0.85765549611E+03  0.17288340762E+04  0.89811215121E+03 0.  0.
        -24    2    4    4    0    0  0.46494019498E+02  0.22967838160E+03  0.40705758262E+02  0.25232829762E+03  0.84254128684E+02 0.  0.
         24    2    4    4    0    0  0.11555148952E+04 -0.18651073064E+03 -0.89836125437E+03  0.14765057786E+04  0.54913070805E+02 0.  0.
         13    1    3    3    0    0 -0.81018751536E+02  0.16404499401E+02  0.39486259336E+01  0.82757098474E+02  0.00000000000E+00 0. -1.
        -13    1    3    3    0    0 -0.11209901631E+04 -0.59572150365E+02 -0.13048581782E+03  0.11301302295E+04  0.00000000000E+00 0.  1.
          4    1    6    6  502    0  0.57244832904E+03 -0.10441310287E+03 -0.41532646596E+03  0.71490926613E+03  0.00000000000E+00 0. -1.
          1    1    5    5  503    0  0.30894178027E+02  0.22325032302E+03  0.52909581917E+02  0.23150503412E+03  0.00000000000E+00 0. -1.
         -2    1    5    5    0  503  0.15599841471E+02  0.64280585843E+01 -0.12203823655E+02  0.20823263503E+02  0.00000000000E+00 0.  1.
         -3    1    6    6    0  502  0.58306656612E+03 -0.82097627765E+02 -0.48303478841E+03  0.76159651248E+03  0.00000000000E+00 0.  1.
<mgrwt>
<rscale>  0 0.27721994E+04</rscale>
<asrwt>0</asrwt>
<pdfrwt beam="1">  1        2 0.30199339E+00 0.27721994E+04</pdfrwt>
<pdfrwt beam="2">  1       -2 0.15057913E+00 0.27721994E+04</pdfrwt>
<totfact> 0.18122064E+00</totfact>
</mgrwt>
</event>
<event>
11    1  0.2406360E-008  0.1337756E+04  0.7818608E-02  0.9000149E-01
         -2   -1    0    0    0  501 -0.00000000000E+00  0.00000000000E+00  0.97321006745E+03  0.97321006745E+03  0.00000000000E+00 0. -1.
          2   -1    0    0  501    0  0.00000000000E+00 -0.00000000000E+00 -0.45971338587E+03  0.45971338587E+03  0.00000000000E+00 0.  1.
         23    2    1    2    0    0  0.80965335748E+02  0.30485247014E+03 -0.31302053355E+02  0.32949316431E+03  0.89975066751E+02 0.  0.
        254    2    1    2    0    0 -0.80965335748E+02 -0.30485247014E+03  0.54479873493E+03  0.11034302890E+04  0.90623524926E+03 0.  0.
        -24    2    4    4    0    0 -0.19801402516E+03  0.23183679056E+03  0.12201892042E+03  0.34041577828E+03  0.89646157440E+02 0.  0.
         11    1    3    3    0    0  0.10081127792E+03  0.25359910164E+03 -0.22454572520E+02  0.27382407845E+03  0.00000000000E+00 0. -1.
        -11    1    3    3    0    0 -0.19845942176E+02  0.51253368499E+02 -0.88474808353E+01  0.55669085860E+02  0.00000000000E+00 0.  1.
          4    1    4    4  502    0  0.88730838634E+01  0.40861381050E+02  0.57641961223E+02  0.71210812186E+02  0.00000000000E+00 0. -1.
          3    1    5    5  503    0 -0.44196775700E+01  0.56224635418E+02  0.20200812551E+02  0.59906727547E+02  0.00000000000E+00 0. -1.
         -4    1    5    5    0  503 -0.19359434759E+03  0.17561215514E+03  0.10181810787E+03  0.28050905074E+03  0.00000000000E+00 0.  1.
         -3    1    4    4    0  502  0.10817560555E+03 -0.57755064175E+03  0.36513785329E+03  0.69180369855E+03  0.00000000000E+00 0.  1.
<mgrwt>
<rscale>  0 0.13377559E+04</rscale>
<asrwt>0</asrwt>
<pdfrwt beam="1">  1        2 0.70725137E-01 0.13377559E+04</pdfrwt>
<pdfrwt beam="2">  1       -2 0.14972463E+00 0.13377559E+04</pdfrwt>
<totfact> 0.19956447E+01</totfact>
</mgrwt>
</event>
<event>
11    1  0.2406360E-008  0.1926635E+04  0.7818608E-02  0.8641711E-01
          1   -1    0    0  501    0  0.00000000000E+00  0.00000000000E+00  0.10127413416E+04  0.10127413416E+04  0.00000000000E+00 0. -1.
         -1   -1    0    0    0  501 -0.00000000000E+00 -0.00000000000E+00 -0.91630597665E+03  0.91630597665E+03  0.00000000000E+00 0.  1.
         23    2    1    2    0    0  0.35748638409E+03 -0.50533907672E+03 -0.39353377299E+03  0.73969170189E+03  0.95450961754E+02 0.  0.
        254    2    1    2    0    0 -0.35748638409E+03  0.50533907672E+03  0.48996913798E+03  0.11893556164E+04  0.88956895676E+03 0.  0.
        -24    2    4    4    0    0 -0.49115671248E+03  0.39581134687E+03 -0.41813518039E+01  0.63625287724E+03  0.83058422637E+02 0.  0.
         11    1    3    3    0    0  0.31485351255E+02 -0.65862423734E+02 -0.15535621913E+02  0.74636062007E+02  0.00000000000E+00 0. -1.
        -11    1    3    3    0    0  0.32600103283E+03 -0.43947665298E+03 -0.37799815108E+03  0.66505563989E+03  0.00000000000E+00 0.  1.
          4    1    4    4  502    0  0.17475687622E+03  0.93809634368E+02  0.34890156405E+03  0.40133840419E+03  0.00000000000E+00 0. -1.
          1    1    5    5  503    0 -0.22246222401E+03  0.18882655764E+03  0.38805458412E+02  0.29436503458E+03  0.00000000000E+00 0. -1.
         -2    1    5    5    0  503 -0.26869448847E+03  0.20698478923E+03 -0.42986810215E+02  0.34188784266E+03  0.00000000000E+00 0.  1.
         -3    1    4    4    0  502 -0.41086547828E+02  0.15718095481E+02  0.14524892574E+03  0.15176433496E+03  0.00000000000E+00 0.  1.
<mgrwt>
<rscale>  0 0.19266354E+04</rscale>
<asrwt>0</asrwt>
<pdfrwt beam="1">  1        1 0.15580636E+00 0.19266354E+04</pdfrwt>
<pdfrwt beam="2">  1       -1 0.14097015E+00 0.19266354E+04</pdfrwt>
<totfact> 0.56831692E+00</totfact>
</mgrwt>
</event>
<event>
12    1  0.2406360E-008  0.1719188E+04  0.7818608E-02  0.8750496E-01
         -2   -1    0    0    0  501 -0.00000000000E+00  0.00000000000E+00  0.28269820662E+03  0.28269820662E+03  0.00000000000E+00 0.  1.
          2   -1    0    0  501    0  0.00000000000E+00 -0.00000000000E+00 -0.26137488426E+04  0.26137488426E+04  0.00000000000E+00 0. -1.
         23    2    1    2    0    0  0.11653595993E+02 -0.61225013519E+03 -0.71652706264E+03  0.94678936595E+03  0.89515572048E+02 0.  0.
        254    2    1    2    0    0 -0.11653595993E+02  0.61225013519E+03 -0.16145235733E+04  0.19496576832E+04  0.90525834915E+03 0.  0.
        -24    2    4    4    0    0 -0.26529453391E+03 -0.28767443739E+02 -0.94213657030E+03  0.98240704268E+03  0.79331739339E+02 0.  0.
         24    2    4    4    0    0  0.25364093791E+03  0.64101757893E+03 -0.67238700299E+03  0.96725064054E+03  0.90731791356E+02 0.  0.
         13    1    3    3    0    0  0.40473830560E+02 -0.14139419499E+03 -0.17590372153E+03  0.22928708770E+03  0.00000000000E+00 0. -1.
        -13    1    3    3    0    0 -0.28820234567E+02 -0.47085594020E+03 -0.54062334111E+03  0.71750227825E+03  0.00000000000E+00 0.  1.
          4    1    6    6  502    0 -0.47572525605E+01  0.14497041394E+01 -0.86736640744E+01  0.99982769762E+01  0.00000000000E+00 0. -1.
          3    1    5    5  503    0 -0.39516748259E+02  0.23167864794E+02 -0.18714805608E+03  0.19267256745E+03  0.00000000000E+00 0. -1.
         -2    1    5    5    0  503 -0.22577778565E+03 -0.51935308533E+02 -0.75498851422E+03  0.78973447524E+03  0.00000000000E+00 0.  1.
         -3    1    6    6    0  502  0.25839819047E+03  0.63956787479E+03 -0.66371333891E+03  0.95725236357E+03  0.00000000000E+00 0.  1.
<mgrwt>
<rscale>  0 0.17191883E+04</rscale>
<asrwt>0</asrwt>
<pdfrwt beam="1">  1        2 0.40211518E+00 0.17191883E+04</pdfrwt>
<pdfrwt beam="2">  1       -2 0.43492034E-01 0.17191883E+04</pdfrwt>
<totfact> 0.14257236E+01</totfact>
</mgrwt>
</event>
<event>
12    1  0.2406360E-008  0.1064566E+04  0.7818608E-02  0.9240434E-01
         -4   -1    0    0    0  501 -0.00000000000E+00  0.00000000000E+00  0.57966686002E+03  0.57966686002E+03  0.00000000000E+00 0.  1.
          4   -1    0    0  501    0  0.00000000000E+00 -0.00000000000E+00 -0.48877231485E+03  0.48877231485E+03  0.00000000000E+00 0. -1.
         23    2    1    2    0    0 -0.90621313467E+02  0.88986748718E+01  0.10131555158E+03  0.16211847103E+03  0.87898514137E+02 0.  0.
        254    2    1    2    0    0  0.90621313467E+02 -0.88986748718E+01 -0.10421006422E+02  0.90632070384E+03  0.90167467080E+03 0.  0.
        -24    2    4    4    0    0  0.40004697183E+03 -0.22288271741E+03 -0.16808722907E+03  0.49274984536E+03  0.69532784588E+02 0.  0.
         24    2    4    4    0    0 -0.30942565837E+03  0.21398404254E+03  0.15766622265E+03  0.41357085848E+03  0.68182172888E+02 0.  0.
         11    1    3    3    0    0 -0.72965018076E+02 -0.33197726244E+02  0.72862575690E+02  0.10832791804E+03  0.00000000000E+00 0.  1.
        -11    1    3    3    0    0 -0.17656295391E+02  0.42096401116E+02  0.28452975894E+02  0.53790552991E+02  0.00000000000E+00 0. -1.
          2    1    6    6  502    0 -0.17225173581E+03  0.77733764952E+02  0.75968996609E+02  0.20367740952E+03  0.00000000000E+00 0. -1.
          3    1    5    5  503    0  0.18765929252E+03 -0.66782371706E+02 -0.61937680720E+02  0.20859571312E+03  0.00000000000E+00 0. -1.
         -4    1    5    5    0  503  0.21238767932E+03 -0.15610034571E+03 -0.10614954835E+03  0.28415413224E+03  0.00000000000E+00 0.  1.
         -1    1    6    6    0  502 -0.13717392256E+03  0.13625027759E+03  0.81697226041E+02  0.20989344896E+03  0.00000000000E+00 0.  1.
<mgrwt>
<rscale>  0 0.10645659E+04</rscale>
<asrwt>0</asrwt>
<pdfrwt beam="1">  1        4 0.75195741E-01 0.10645659E+04</pdfrwt>
<pdfrwt beam="2">  1       -4 0.89179517E-01 0.10645659E+04</pdfrwt>
<totfact> 0.34158639E+00</totfact>
</mgrwt>
</event>
<event>
12    1  0.2406360E-008  0.3861595E+04  0.7818608E-02  0.8033064E-01
          1   -1    0    0  501    0  0.00000000000E+00  0.00000000000E+00  0.36525151907E+04  0.36525151907E+04  0.00000000000E+00 0. -1.
         -1   -1    0    0    0  501 -0.00000000000E+00 -0.00000000000E+00 -0.10206609404E+04  0.10206609404E+04  0.00000000000E+00 0.  1.
         23    2    1    2    0    0 -0.70022796486E+03 -0.12835898489E+04  0.25645018414E+04  0.29534185095E+04  0.89939396625E+02 0.  0.
        254    2    1    2    0    0  0.70022796486E+03  0.12835898489E+04  0.67352408909E+02  0.17197576215E+04  0.90283322202E+03 0.  0.
        -24    2    4    4    0    0  0.53448018888E+03  0.12854834810E+04 -0.17585275521E+03  0.14057168272E+04  0.83538939973E+02 0.  0.
         24    2    4    4    0    0  0.16574777598E+03 -0.18936321056E+01  0.24320516412E+03  0.31404079431E+03  0.10953062383E+03 0.  0.
         13    1    3    3    0    0 -0.18147386051E+01 -0.17460974416E+02  0.47403469037E+02  0.50549656581E+02  0.00000000000E+00 0.  1.
        -13    1    3    3    0    0 -0.69841322625E+03 -0.12661288745E+04  0.25170983723E+04  0.29028688530E+04  0.00000000000E+00 0. -1.
          2    1    6    6  502    0  0.31027988266E+02 -0.12836312678E+02 -0.24377570868E+01  0.33666743808E+02  0.00000000000E+00 0. -1.
          1    1    5    5  503    0  0.84140086367E+02  0.28544083568E+03 -0.50013147956E+02  0.30175708736E+03  0.00000000000E+00 0. -1.
         -2    1    5    5    0  503  0.45034010252E+03  0.10000426453E+04 -0.12583960725E+03  0.11039597398E+04  0.00000000000E+00 0.  1.
         -1    1    6    6    0  502  0.13471978771E+03  0.10942680573E+02  0.24564292121E+03  0.28037405051E+03  0.00000000000E+00 0.  1.
<mgrwt>
<rscale>  0 0.38615953E+04</rscale>
<asrwt>0</asrwt>
<pdfrwt beam="1">  1        1 0.56192540E+00 0.38615953E+04</pdfrwt>
<pdfrwt beam="2">  1       -1 0.15702476E+00 0.38615953E+04</pdfrwt>
<totfact> 0.45887158E-02</totfact>
</mgrwt>
</event>
<event>
11    1  0.2406360E-008  0.1591537E+04  0.7818608E-02  0.8825764E-01
         -2   -1    0    0    0  501 -0.00000000000E+00  0.00000000000E+00  0.20878945731E+03  0.20878945731E+03  0.00000000000E+00 0.  1.
          2   -1    0    0  501    0  0.00000000000E+00 -0.00000000000E+00 -0.30329490299E+04  0.30329490299E+04  0.00000000000E+00 0. -1.
         23    2    1    2    0    0  0.28773832538E+03  0.44633360727E+03 -0.79632806520E+03  0.96176836224E+03  0.94090181824E+02 0.  0.
        254    2    1    2    0    0 -0.28773832538E+03 -0.44633360727E+03 -0.20278315074E+04  0.22799701250E+04  0.89674752051E+03 0.  0.
        -24    2    4    4    0    0  0.88727421801E+02 -0.57920708763E+03 -0.12552673919E+04  0.13878191579E+04  0.83620476509E+02 0.  0.
         11    1    3    3    0    0  0.25472009519E+03  0.35708282693E+03 -0.59618388267E+03  0.74015248033E+03  0.00000000000E+00 0.  1.
        -11    1    3    3    0    0  0.33018230192E+02  0.89250780339E+02 -0.20014418253E+03  0.22161588191E+03  0.00000000000E+00 0. -1.
          2    1    4    4  502    0 -0.22656465780E+03  0.13732488332E+03 -0.32029476631E+03  0.41566621834E+03  0.00000000000E+00 0. -1.
          3    1    5    5  503    0  0.41974173045E+02 -0.48383406806E+03 -0.10243632688E+04  0.11336566249E+04  0.00000000000E+00 0. -1.
         -4    1    5    5    0  503  0.46753248756E+02 -0.95373019568E+02 -0.23090412313E+03  0.25416253306E+03  0.00000000000E+00 0.  1.
         -1    1    4    4    0  502 -0.14990108938E+03 -0.44514029667E+01 -0.45226934913E+03  0.47648474870E+03  0.00000000000E+00 0.  1.
<mgrwt>
<rscale>  0 0.15915373E+04</rscale>
<asrwt>0</asrwt>
<pdfrwt beam="1">  1        2 0.46660752E+00 0.15915373E+04</pdfrwt>
<pdfrwt beam="2">  1       -2 0.32121457E-01 0.15915373E+04</pdfrwt>
<totfact> 0.14458500E+01</totfact>
</mgrwt>
</event>
<event>
11    1  0.2406360E-008  0.1255626E+04  0.7818608E-02  0.9065513E-01
          1   -1    0    0  501    0  0.00000000000E+00  0.00000000000E+00  0.90913923166E+03  0.90913923166E+03  0.00000000000E+00 0. -1.
         -1   -1    0    0    0  501 -0.00000000000E+00 -0.00000000000E+00 -0.43354129880E+03  0.43354129880E+03  0.00000000000E+00 0.  1.
         23    2    1    2    0    0  0.73002167458E+02 -0.28287584267E+03  0.59594304732E+02  0.31155371425E+03  0.90366901476E+02 0.  0.
        254    2    1    2    0    0 -0.73002167458E+02  0.28287584267E+03  0.41600362813E+03  0.10311268162E+04  0.89711506156E+03 0.  0.
        -24    2    4    4    0    0 -0.35332410448E+02  0.21169095799E+03 -0.23514276903E+03  0.32804800228E+03  0.79132351468E+02 0.  0.
         11    1    3    3    0    0  0.10229216988E+02 -0.41462766907E+02 -0.23364382484E+02  0.48679485295E+02  0.00000000000E+00 0.  1.
        -11    1    3    3    0    0  0.62772950470E+02 -0.24141307577E+03  0.82958687216E+02  0.26287422895E+03  0.00000000000E+00 0. -1.
          4    1    4    4  502    0 -0.70931446955E+02  0.28983492865E+02  0.34393196510E+02  0.83989314748E+02  0.00000000000E+00 0. -1.
          3    1    5    5  503    0 -0.31400291550E+02  0.65757831219E+02 -0.12681373158E+03  0.14625933541E+03  0.00000000000E+00 0. -1.
         -4    1    5    5    0  503 -0.39321188977E+01  0.14593312677E+03 -0.10832903745E+03  0.18178866687E+03  0.00000000000E+00 0.  1.
         -3    1    4    4    0  502  0.33261689944E+02  0.42201391820E+02  0.61675320065E+03  0.61908949919E+03  0.00000000000E+00 0.  1.
<mgrwt>
<rscale>  0 0.12556264E+04</rscale>
<asrwt>0</asrwt>
<pdfrwt beam="1">  1        1 0.13986757E+00 0.12556264E+04</pdfrwt>
<pdfrwt beam="2">  1       -1 0.66698661E-01 0.12556264E+04</pdfrwt>
<totfact> 0.40160581E+01</totfact>
</mgrwt>
</event>
<event>
12    1  0.2406360E-008  0.1848632E+04  0.7818608E-02  0.8680857E-01
          2   -1    0    0  501    0  0.00000000000E+00  0.00000000000E+00  0.67420948640E+03  0.67420948640E+03  0.00000000000E+00 0. -1.
         -2   -1    0    0    0  501 -0.00000000000E+00 -0.00000000000E+00 -0.12672023011E+04  0.12672023011E+04  0.00000000000E+00 0.  1.
         23    2    1    2    0    0 -0.11136528196E+03  0.34930982369E+03  0.39839757190E+03  0.55515590150E+03  0.12271051594E+03 0.  0.
        254    2    1    2    0    0  0.11136528196E+03 -0.34930982369E+03 -0.99139038661E+03  0.13862558860E+04  0.89690072130E+03 0.  0.
        -24    2    4    4    0    0 -0.79853596164E+02 -0.23702806311E+03  0.90285373904E+02  0.27818783279E+03  0.81719777592E+02 0.  0.
         24    2    4    4    0    0  0.19121887813E+03 -0.11228176057E+03 -0.10816757605E+04  0.11080680532E+04  0.92846683065E+02 0.  0.
         11    1    3    3    0    0  0.21399380229E+02  0.10138472576E+03  0.84544146340E+02  0.13373297563E+03  0.00000000000E+00 0.  1.
        -11    1    3    3    0    0 -0.13276466219E+03  0.24792509793E+03  0.31385342556E+03  0.42142292587E+03  0.00000000000E+00 0. -1.
          2    1    6    6  502    0  0.56880225662E+02 -0.82899639315E+02 -0.38211981401E+03  0.39512436337E+03  0.00000000000E+00 0. -1.
          1    1    5    5  503    0 -0.12868671664E+02 -0.14720157077E+03  0.72993599973E+02  0.16480889170E+03  0.00000000000E+00 0. -1.
         -2    1    5    5    0  503 -0.66984924500E+02 -0.89826492345E+02  0.17291773931E+02  0.11337894109E+03  0.00000000000E+00 0.  1.
         -1    1    6    6    0  502  0.13433865247E+03 -0.29382121258E+02 -0.69955594651E+03  0.71294368984E+03  0.00000000000E+00 0.  1.
<mgrwt>
<rscale>  0 0.18486317E+04</rscale>
<asrwt>0</asrwt>
<pdfrwt beam="1">  1        2 0.10372454E+00 0.18486317E+04</pdfrwt>
<pdfrwt beam="2">  1       -2 0.19495420E+00 0.18486317E+04</pdfrwt>
<totfact> 0.57977368E+00</totfact>
</mgrwt>
</event>
<event>
11    1  0.2406360E-008  0.1981929E+04  0.7818608E-02  0.8615116E-01
         -3   -1    0    0    0  501 -0.00000000000E+00  0.00000000000E+00  0.72489125603E+03  0.72489125603E+03  0.00000000000E+00 0.  1.
          3   -1    0    0  501    0  0.00000000000E+00 -0.00000000000E+00 -0.13547012343E+04  0.13547012343E+04  0.00000000000E+00 0. -1.
         23    2    1    2    0    0  0.75976340623E+03  0.48894032717E+02 -0.63515961243E+02  0.76959395394E+03  0.92787481549E+02 0.  0.
        254    2    1    2    0    0 -0.75976340623E+03 -0.48894032717E+02 -0.56629401704E+03  0.13099985364E+04  0.90320329481E+03 0.  0.
        -24    2    4    4    0    0 -0.39078777116E+03 -0.15441843065E+03  0.16347288973E+03  0.45796064350E+03  0.80277216603E+02 0.  0.
         11    1    3    3    0    0  0.10061612725E+03  0.23451637080E+02 -0.35918426335E+02  0.10937878083E+03  0.00000000000E+00 0.  1.
        -11    1    3    3    0    0  0.65914727897E+03  0.25442395637E+02 -0.27597534908E+02  0.66021517311E+03  0.00000000000E+00 0. -1.
          4    1    4    4  502    0 -0.14808862375E+03  0.94575257360E+02 -0.14828879441E+03  0.22992234850E+03  0.00000000000E+00 0. -1.
          3    1    5    5  503    0 -0.36862254305E+03 -0.12159800697E+03  0.14978555838E+03  0.41605813060E+03  0.00000000000E+00 0. -1.
         -4    1    5    5    0  503 -0.22165228112E+02 -0.32820423674E+02  0.13687331352E+02  0.41902512895E+02  0.00000000000E+00 0.  1.
         -3    1    4    4    0  502 -0.22088701132E+03  0.10949140570E+02 -0.58147811235E+03  0.62211554441E+03  0.00000000000E+00 0.  1.
<mgrwt>
<rscale>  0 0.19819294E+04</rscale>
<asrwt>0</asrwt>
<pdfrwt beam="1">  1        3 0.20841557E+00 0.19819294E+04</pdfrwt>
<pdfrwt beam="2">  1       -3 0.11152173E+00 0.19819294E+04</pdfrwt>
<totfact> 0.21413627E-01</totfact>
</mgrwt>
</event>
<event>
12    1  0.2406360E-008  0.1563994E+04  0.7818608E-02  0.8842978E-01
         -1   -1    0    0    0  501 -0.00000000000E+00  0.00000000000E+00  0.13786744371E+04  0.13786744371E+04  0.00000000000E+00 0.  1.
          1   -1    0    0  501    0  0.00000000000E+00 -0.00000000000E+00 -0.44355615735E+03  0.44355615735E+03  0.00000000000E+00 0. -1.
         23    2    1    2    0    0  0.54344139101E+02  0.45916374255E+03  0.73772783917E+02  0.48235014924E+03  0.11590778615E+03 0.  0.
        254    2    1    2    0    0 -0.54344139101E+02 -0.45916374255E+03  0.86134549586E+03  0.13398804452E+04  0.91628539025E+03 0.  0.
        -24    2    4    4    0    0  0.24888561353E+03 -0.45092584708E+03  0.12242668178E+03  0.53545068738E+03  0.80255703933E+02 0.  0.
         24    2    4    4    0    0 -0.30322975263E+03 -0.82378954739E+01  0.73891881408E+03  0.80442975787E+03  0.95341888745E+02 0.  0.
         13    1    3    3    0    0  0.28707803444E+02  0.35858549003E+03  0.86874878706E+01  0.35983769130E+03  0.00000000000E+00 0. -1.
        -13    1    3    3    0    0  0.25636335657E+02  0.10057825253E+03  0.65085296047E+02  0.12251245793E+03  0.00000000000E+00 0.  1.
          4    1    6    6  502    0 -0.17986674510E+03 -0.41461781594E+02  0.36017794994E+03  0.40472123857E+03  0.00000000000E+00 0. -1.
          1    1    5    5  503    0  0.16983855857E+03 -0.26434006952E+03  0.40184085061E+02  0.31675790285E+03  0.00000000000E+00 0. -1.
         -2    1    5    5    0  503  0.79047054960E+02 -0.18658577756E+03  0.82242596718E+02  0.21869278452E+03  0.00000000000E+00 0.  1.
         -3    1    6    6    0  502 -0.12336300753E+03  0.33223886120E+02  0.37874086414E+03  0.39970851930E+03  0.00000000000E+00 0.  1.
<mgrwt>
<rscale>  0 0.15639943E+04</rscale>
<asrwt>0</asrwt>
<pdfrwt beam="1">  1        1 0.68239409E-01 0.15639943E+04</pdfrwt>
<pdfrwt beam="2">  1       -1 0.21210376E+00 0.15639943E+04</pdfrwt>
<totfact> 0.62502720E+00</totfact>
</mgrwt>
</event>
<event>
12    1  0.2406360E-008  0.1255400E+04  0.7818608E-02  0.9065701E-01
          2   -1    0    0  501    0  0.00000000000E+00  0.00000000000E+00  0.75969777792E+03  0.75969777792E+03  0.00000000000E+00 0. -1.
         -2   -1    0    0    0  501 -0.00000000000E+00 -0.00000000000E+00 -0.51863651986E+03  0.51863651986E+03  0.00000000000E+00 0.  1.
         23    2    1    2    0    0 -0.38987778583E+02  0.27320713167E+02  0.39341416988E+03  0.40647599674E+03  0.90451968572E+02 0.  0.
        254    2    1    2    0    0  0.38987778583E+02 -0.27320713167E+02 -0.15235291182E+03  0.87185830104E+03  0.85712252281E+03 0.  0.
        -24    2    4    4    0    0  0.43285604615E+03 -0.73113958304E+01  0.96420002491E+01  0.44055105966E+03  0.81083011801E+02 0.  0.
         24    2    4    4    0    0 -0.39386826757E+03 -0.20009317337E+02 -0.16199491206E+03  0.43130724138E+03  0.65199692892E+02 0.  0.
         11    1    3    3    0    0  0.28487740837E+01  0.51811142006E+02  0.16469792111E+03  0.17267864711E+03  0.00000000000E+00 0. -1.
        -11    1    3    3    0    0 -0.41836552667E+02 -0.24490428839E+02  0.22871624877E+03  0.23379734963E+03  0.00000000000E+00 0.  1.
          2    1    6    6  502    0 -0.79501031408E+02 -0.30361126724E+02 -0.30758020626E+02  0.90489048198E+02  0.00000000000E+00 0. -1.
          3    1    5    5  503    0  0.19249231619E+03 -0.33901352886E+02 -0.21878378862E+02  0.19667551190E+03  0.00000000000E+00 0. -1.
         -4    1    5    5    0  503  0.24036372996E+03  0.26589957056E+02  0.31520379111E+02  0.24387554776E+03  0.00000000000E+00 0.  1.
         -1    1    6    6    0  502 -0.31436723616E+03  0.10351809387E+02 -0.13123689144E+03  0.34081819318E+03  0.00000000000E+00 0.  1.
<mgrwt>
<rscale>  0 0.12553996E+04</rscale>
<asrwt>0</asrwt>
<pdfrwt beam="1">  1        2 0.11687658E+00 0.12553996E+04</pdfrwt>
<pdfrwt beam="2">  1       -2 0.79790234E-01 0.12553996E+04</pdfrwt>
<totfact> 0.50436668E+01</totfact>
</mgrwt>
</event>
<event>
12    1  0.2406360E-008  0.3425973E+04  0.7818608E-02  0.8131561E-01
         -1   -1    0    0    0  501 -0.00000000000E+00  0.00000000000E+00  0.30450618712E+04  0.30450618712E+04  0.00000000000E+00 0.  1.
          1   -1    0    0  501    0  0.00000000000E+00 -0.00000000000E+00 -0.96363346695E+03  0.96363346695E+03  0.00000000000E+00 0. -1.
         23    2    1    2    0    0 -0.37009084172E+03 -0.74330101044E+03 -0.62239868086E+03  0.10415736825E+04  0.89621397352E+02 0.  0.
        254    2    1    2    0    0  0.37009084172E+03  0.74330101044E+03  0.27038270851E+04  0.29671216556E+04  0.89647442240E+03 0.  0.
        -24    2    4    4    0    0 -0.11913366998E+03  0.51238500393E+03  0.63869718024E+03  0.83121145911E+03  0.79039092452E+02 0.  0.
         24    2    4    4    0    0  0.48922451170E+03  0.23091600651E+03  0.20651299048E+04  0.21359101965E+04  0.68469108305E+02 0.  0.
         13    1    3    3    0    0 -0.80700190535E+02 -0.15040389959E+03 -0.17482407335E+03  0.24433033047E+03  0.00000000000E+00 0. -1.
        -13    1    3    3    0    0 -0.28939065119E+03 -0.59289711085E+03 -0.44757460751E+03  0.79724335202E+03  0.00000000000E+00 0.  1.
          4    1    6    6  502    0  0.45703214097E+03  0.22087767334E+03  0.18597289578E+04  0.19277596118E+04  0.00000000000E+00 0. -1.
          1    1    5    5  503    0 -0.25240581845E+02  0.28135948459E+03  0.34690175780E+03  0.44737129558E+03  0.00000000000E+00 0. -1.
         -2    1    5    5    0  503 -0.93893088132E+02  0.23102551935E+03  0.29179542243E+03  0.38384016353E+03  0.00000000000E+00 0.  1.
         -3    1    6    6    0  502  0.32192370731E+02  0.10038333170E+02  0.20540094700E+03  0.20815058466E+03  0.00000000000E+00 0.  1.
<mgrwt>
<rscale>  0 0.34259735E+04</rscale>
<asrwt>0</asrwt>
<pdfrwt beam="1">  1        1 0.14825130E+00 0.34259735E+04</pdfrwt>
<pdfrwt beam="2">  1       -1 0.46847105E+00 0.34259735E+04</pdfrwt>
<totfact> 0.32043779E-02</totfact>
</mgrwt>
</event>
<event>
12    1  0.2406360E-008  0.1804132E+04  0.7818608E-02  0.8704105E-01
          1   -1    0    0  501    0  0.00000000000E+00  0.00000000000E+00  0.25837109186E+04  0.25837109186E+04  0.00000000000E+00 0.  1.
         -1   -1    0    0    0  501 -0.00000000000E+00 -0.00000000000E+00 -0.31494371573E+03  0.31494371573E+03  0.00000000000E+00 0. -1.
         23    2    1    2    0    0 -0.62079463807E+03 -0.17436003804E+02  0.12811742225E+04  0.14267211008E+04  0.91846144001E+02 0.  0.
        254    2    1    2    0    0  0.62079463807E+03  0.17436003804E+02  0.98759298033E+03  0.14719335335E+04  0.89752907213E+03 0.  0.
        -24    2    4    4    0    0  0.15676906489E+03 -0.38771137674E+03  0.20707790526E+03  0.47317166990E+03  0.78188995301E+02 0.  0.
         24    2    4    4    0    0  0.46402557318E+03  0.40514738054E+03  0.78051507507E+03  0.99876186359E+03  0.94113469961E+02 0.  0.
         11    1    3    3    0    0 -0.61662439883E+03 -0.26638237680E+02  0.12667581578E+04  0.14091172681E+04  0.00000000000E+00 0.  1.
        -11    1    3    3    0    0 -0.41702392380E+01  0.92022338768E+01  0.14416064698E+02  0.17603832680E+02  0.00000000000E+00 0. -1.
          2    1    6    6  502    0  0.24541521867E+03  0.15208423174E+03  0.35726289366E+03  0.45934194048E+03  0.00000000000E+00 0. -1.
          3    1    5    5  503    0  0.29951218054E+02 -0.14411901054E+03  0.10220537319E+03  0.17920184979E+03  0.00000000000E+00 0. -1.
         -4    1    5    5    0  503  0.12681784684E+03 -0.24359236620E+03  0.10487253207E+03  0.29396982010E+03  0.00000000000E+00 0.  1.
         -1    1    6    6    0  502  0.21861035451E+03  0.25306314880E+03  0.42325218141E+03  0.53941992311E+03  0.00000000000E+00 0.  1.
<mgrwt>
<rscale>  0 0.18041325E+04</rscale>
<asrwt>0</asrwt>
<pdfrwt beam="1">  1        1 0.39749397E+00 0.18041325E+04</pdfrwt>
<pdfrwt beam="2">  1       -1 0.48452881E-01 0.18041325E+04</pdfrwt>
<totfact> 0.47673770E+00</totfact>
</mgrwt>
</event>
<event>
11    1  0.2406360E-008  0.1146501E+04  0.7818608E-02  0.9161017E-01
          1   -1    0    0  501    0  0.00000000000E+00  0.00000000000E+00  0.15474416350E+04  0.15474416350E+04  0.00000000000E+00 0. -1.
         -1   -1    0    0    0  501 -0.00000000000E+00 -0.00000000000E+00 -0.21236108611E+03  0.21236108611E+03  0.00000000000E+00 0.  1.
         23    2    1    2    0    0  0.49469014244E+02  0.52205214307E+02  0.55285236983E+03  0.56506270028E+03  0.92073582794E+02 0.  0.
        254    2    1    2    0    0 -0.49469014244E+02 -0.52205214307E+02  0.78222817910E+03  0.11947400209E+04  0.90019454871E+03 0.  0.
        -24    2    4    4    0    0  0.29583835024E+03  0.19254840813E+03  0.59833000205E+03  0.69925908872E+03  0.79807661628E+02 0.  0.
         13    1    3    3    0    0  0.53837219124E+02  0.62301459945E+02  0.27670582590E+03  0.28869712878E+03  0.00000000000E+00 0.  1.
        -13    1    3    3    0    0 -0.43682048804E+01 -0.10096245637E+02  0.27614654392E+03  0.27636557150E+03  0.00000000000E+00 0. -1.
          2    1    4    4  502    0  0.50580212111E+01 -0.61867811881E+02  0.69828816711E+01  0.62465753513E+02  0.00000000000E+00 0. -1.
          1    1    5    5  503    0  0.65158044344E+02  0.67177010213E+02  0.10678374493E+03  0.14198975183E+03  0.00000000000E+00 0. -1.
         -2    1    5    5    0  503  0.23068030589E+03  0.12537139792E+03  0.49154625713E+03  0.55726933689E+03  0.00000000000E+00 0.  1.
         -3    1    4    4    0  502 -0.35036538569E+03 -0.18288581056E+03  0.17691529538E+03  0.43301517864E+03  0.00000000000E+00 0.  1.
<mgrwt>
<rscale>  0 0.11465014E+04</rscale>
<asrwt>0</asrwt>
<pdfrwt beam="1">  1        1 0.23806794E+00 0.11465014E+04</pdfrwt>
<pdfrwt beam="2">  1       -1 0.32670937E-01 0.11465014E+04</pdfrwt>
<totfact> 0.52869848E+01</totfact>
</mgrwt>
</event>
<event>
11    1  0.2406360E-008  0.1994494E+04  0.7818608E-02  0.8609199E-01
          1   -1    0    0  501    0  0.00000000000E+00  0.00000000000E+00  0.21905261240E+04  0.21905261240E+04  0.00000000000E+00 0.  1.
         -1   -1    0    0    0  501 -0.00000000000E+00 -0.00000000000E+00 -0.45400140935E+03  0.45400140935E+03  0.00000000000E+00 0. -1.
         23    2    1    2    0    0  0.70788532591E+03  0.24432444041E+03  0.35544198752E+03  0.83408953092E+03  0.92575765073E+02 0.  0.
        254    2    1    2    0    0 -0.70788532591E+03 -0.24432444041E+03  0.13810827271E+04  0.18104380024E+04  0.89972228748E+03 0.  0.
        -24    2    4    4    0    0 -0.36787865214E+03 -0.16712930144E+02  0.33770294522E+03  0.50593032920E+03  0.79424140272E+02 0.  0.
         11    1    3    3    0    0  0.26538798861E+03  0.12245672549E+03  0.10055734644E+03  0.30909256548E+03  0.00000000000E+00 0. -1.
        -11    1    3    3    0    0  0.44249733731E+03  0.12186771492E+03  0.25488464107E+03  0.52499696544E+03  0.00000000000E+00 0.  1.
          4    1    4    4  502    0  0.41236733461E+02 -0.32737522715E+03  0.23470327084E+03  0.40492052663E+03  0.00000000000E+00 0. -1.
          1    1    5    5  503    0 -0.19248088446E+03  0.37877760596E+00  0.22783845068E+03  0.29826061417E+03  0.00000000000E+00 0. -1.
         -2    1    5    5    0  503 -0.17539776768E+03 -0.17091707750E+02  0.10986449454E+03  0.20766971503E+03  0.00000000000E+00 0.  1.
         -3    1    4    4    0  502 -0.38124340723E+03  0.99763716885E+02  0.80867651106E+03  0.89958714658E+03  0.00000000000E+00 0.  1.
<mgrwt>
<rscale>  0 0.19944944E+04</rscale>
<asrwt>0</asrwt>
<pdfrwt beam="1">  1        1 0.33700401E+00 0.19944944E+04</pdfrwt>
<pdfrwt beam="2">  1       -1 0.69846372E-01 0.19944944E+04</pdfrwt>
<totfact> 0.42535865E+00</totfact>
</mgrwt>
</event>
<event>
12    1  0.2406360E-008  0.1458155E+04  0.7818608E-02  0.8912766E-01
          2   -1    0    0  501    0  0.00000000000E+00  0.00000000000E+00  0.10744869554E+04  0.10744869554E+04  0.00000000000E+00 0.  1.
         -2   -1    0    0    0  501 -0.00000000000E+00 -0.00000000000E+00 -0.49470517957E+03  0.49470517957E+03  0.00000000000E+00 0. -1.
         23    2    1    2    0    0 -0.23277982602E+03  0.34526177226E+02 -0.22831580394E+03  0.34034633831E+03  0.91263461253E+02 0.  0.
        254    2    1    2    0    0  0.23277982602E+03 -0.34526177226E+02  0.80809757976E+03  0.12288457966E+04  0.89535567747E+03 0.  0.
        -24    2    4    4    0    0  0.21740968478E+03 -0.20166674232E+03 -0.81281983483E+02  0.31728810122E+03  0.78284943248E+02 0.  0.
         24    2    4    4    0    0  0.15370141234E+02  0.16714056509E+03  0.88937956324E+03  0.91155769542E+03  0.10848601208E+03 0.  0.
         13    1    3    3    0    0 -0.22357898835E+03  0.12058511769E+02 -0.18397016532E+03  0.28978956756E+03  0.00000000000E+00 0. -1.
        -13    1    3    3    0    0 -0.92008376719E+01  0.22467665457E+02 -0.44345638618E+02  0.50556770757E+02  0.00000000000E+00 0.  1.
          4    1    6    6  502    0  0.17940154305E+02  0.18293956283E+03  0.81375652418E+03  0.83425920039E+03  0.00000000000E+00 0. -1.
          3    1    5    5  503    0  0.20086914606E+03 -0.16299367053E+03 -0.90817407332E+02  0.27415899027E+03  0.00000000000E+00 0. -1.
         -2    1    5    5    0  503  0.16540538723E+02 -0.38673071795E+02  0.95354238483E+01  0.43129110949E+02  0.00000000000E+00 0.  1.
         -3    1    6    6    0  502 -0.25700130718E+01 -0.15798997738E+02  0.75623039057E+02  0.77298495024E+02  0.00000000000E+00 0.  1.
<mgrwt>
<rscale>  0 0.14581554E+04</rscale>
<asrwt>0</asrwt>
<pdfrwt beam="1">  1        2 0.16530568E+00 0.14581554E+04</pdfrwt>
<pdfrwt beam="2">  1       -2 0.76108490E-01 0.14581554E+04</pdfrwt>
<totfact> 0.33853870E+01</totfact>
</mgrwt>
</event>
<event>
11    1  0.2406360E-008  0.1261370E+04  0.7818608E-02  0.9060773E-01
          1   -1    0    0  501    0  0.00000000000E+00  0.00000000000E+00  0.60396304298E+03  0.60396304298E+03  0.00000000000E+00 0. -1.
         -1   -1    0    0    0  501 -0.00000000000E+00 -0.00000000000E+00 -0.65858934321E+03  0.65858934321E+03  0.00000000000E+00 0.  1.
         23    2    1    2    0    0 -0.20374948909E+03  0.19457739961E+03  0.80012349991E+02  0.30545772149E+03  0.86765342876E+02 0.  0.
        254    2    1    2    0    0  0.20374948909E+03 -0.19457739961E+03 -0.13463865022E+03  0.95709466470E+03  0.90472560057E+03 0.  0.
        -24    2    4    4    0    0  0.24626520691E+03 -0.32197898488E+03  0.13560006622E+03  0.43484148159E+03  0.79891910164E+02 0.  0.
         11    1    3    3    0    0 -0.54179478947E+02  0.10264005033E+03  0.53872892598E+02  0.12795579091E+03  0.00000000000E+00 0.  1.
        -11    1    3    3    0    0 -0.14957001014E+03  0.91937349277E+02  0.26139457393E+02  0.17750193058E+03  0.00000000000E+00 0. -1.
          2    1    4    4  502    0  0.15456138415E+03 -0.39474427045E+02 -0.19767517544E+03  0.25401363515E+03  0.00000000000E+00 0. -1.
          3    1    5    5  503    0  0.18179214179E+02 -0.54293000519E+02 -0.17728033689E+01  0.57283126357E+02  0.00000000000E+00 0. -1.
         -4    1    5    5    0  503  0.22808599273E+03 -0.26768598436E+03  0.13737286959E+03  0.37755835523E+03  0.00000000000E+00 0.  1.
         -1    1    4    4    0  502 -0.19707710197E+03  0.16687601232E+03 -0.72563541000E+02  0.26823954796E+03  0.00000000000E+00 0.  1.
<mgrwt>
<rscale>  0 0.12613701E+04</rscale>
<asrwt>0</asrwt>
<pdfrwt beam="1">  1        1 0.92917391E-01 0.12613701E+04</pdfrwt>
<pdfrwt beam="2">  1       -1 0.10132144E+00 0.12613701E+04</pdfrwt>
<totfact> 0.30927466E+01</totfact>
</mgrwt>
</event>
<event>
12    1  0.2406360E-008  0.1587082E+04  0.7818608E-02  0.8828523E-01
          2   -1    0    0  501    0  0.00000000000E+00  0.00000000000E+00  0.83850440662E+03  0.83850440662E+03  0.00000000000E+00 0. -1.
         -2   -1    0    0    0  501 -0.00000000000E+00 -0.00000000000E+00 -0.75098913301E+03  0.75098913301E+03  0.00000000000E+00 0.  1.
         23    2    1    2    0    0 -0.34451906086E+02 -0.11060266093E+03  0.55272513701E+03  0.57205272939E+03  0.91210556839E+02 0.  0.
        254    2    1    2    0    0  0.34451906086E+02  0.11060266093E+03 -0.46520986341E+03  0.10174408102E+04  0.89741055426E+03 0.  0.
        -24    2    4    4    0    0 -0.29174086915E+03 -0.18934693475E+03 -0.44298333799E+03  0.56883513106E+03  0.79838412773E+02 0.  0.
         24    2    4    4    0    0  0.32619277524E+03  0.29994959568E+03 -0.22226525417E+02  0.44860567919E+03  0.66193280606E+02 0.  0.
         13    1    3    3    0    0  0.65501273454E+01 -0.38976804142E+02  0.36311346666E+03  0.36525810750E+03  0.00000000000E+00 0.  1.
        -13    1    3    3    0    0 -0.41002033431E+02 -0.71625856786E+02  0.18961167035E+03  0.20679462188E+03  0.00000000000E+00 0. -1.
          4    1    6    6  502    0  0.19271538033E+03  0.21563778545E+03 -0.28505510708E+02  0.29060529326E+03  0.00000000000E+00 0. -1.
          3    1    5    5  503    0 -0.45097292171E+02 -0.56151326057E+02 -0.13046856925E+03  0.14902612100E+03  0.00000000000E+00 0. -1.
         -4    1    5    5    0  503 -0.24664357698E+03 -0.13319560870E+03 -0.31251476874E+03  0.41980901005E+03  0.00000000000E+00 0.  1.
         -3    1    6    6    0  502  0.13347739491E+03  0.84311810228E+02  0.62789852908E+01  0.15800038592E+03  0.00000000000E+00 0.  1.
<mgrwt>
<rscale>  0 0.15870825E+04</rscale>
<asrwt>0</asrwt>
<pdfrwt beam="1">  1        2 0.12900068E+00 0.15870825E+04</pdfrwt>
<pdfrwt beam="2">  1       -2 0.11553679E+00 0.15870825E+04</pdfrwt>
<totfact> 0.18093784E+01</totfact>
</mgrwt>
</event>
<event>
11    1  0.2406360E-008  0.1127656E+04  0.7818608E-02  0.9178648E-01
          3   -1    0    0  501    0  0.00000000000E+00  0.00000000000E+00  0.10519122957E+04  0.10519122957E+04  0.00000000000E+00 0. -1.
         -3   -1    0    0    0  501 -0.00000000000E+00 -0.00000000000E+00 -0.30221352932E+03  0.30221352932E+03  0.00000000000E+00 0.  1.
         23    2    1    2    0    0 -0.16841588820E+02  0.12186387735E+03 -0.32062396209E+02  0.15630062946E+03  0.90925495900E+02 0.  0.
        254    2    1    2    0    0  0.16841588820E+02 -0.12186387735E+03  0.78176116259E+03  0.11978251956E+04  0.89916641399E+03 0.  0.
        -24    2    4    4    0    0  0.41831249797E+03 -0.26830689975E+01  0.20600296570E+03  0.47291756808E+03  0.78874961205E+02 0.  0.
         11    1    3    3    0    0  0.17422615313E+02  0.10215375872E+03 -0.47330149350E+02  0.11392576962E+03  0.00000000000E+00 0.  1.
        -11    1    3    3    0    0 -0.34264204133E+02  0.19710118622E+02  0.15267753141E+02  0.42374859846E+02  0.00000000000E+00 0. -1.
          2    1    4    4  502    0 -0.26378503805E+03 -0.80753949564E+02  0.26353182510E+03  0.38151378679E+03  0.00000000000E+00 0. -1.
          1    1    5    5  503    0  0.34284392528E+03  0.28466169812E+02  0.16847146126E+03  0.38305993420E+03  0.00000000000E+00 0. -1.
         -2    1    5    5    0  503  0.75468572691E+02 -0.31149238810E+02  0.37531504438E+02  0.89857633887E+02  0.00000000000E+00 0.  1.
         -1    1    4    4    0  502 -0.13768587110E+03 -0.38426858784E+02  0.31222637178E+03  0.34339384067E+03  0.00000000000E+00 0.  1.
<mgrwt>
<rscale>  0 0.11276562E+04</rscale>
<asrwt>0</asrwt>
<pdfrwt beam="1">  1        3 0.16183266E+00 0.11276562E+04</pdfrwt>
<pdfrwt beam="2">  1       -3 0.46494390E-01 0.11276562E+04</pdfrwt>
<totfact> 0.31697987E+00</totfact>
</mgrwt>
</event>
<event>
11    1  0.2406360E-008  0.1540890E+04  0.7818608E-02  0.8857708E-01
          2   -1    0    0  501    0  0.00000000000E+00  0.00000000000E+00  0.16930424233E+04  0.16930424233E+04  0.00000000000E+00 0. -1.
         -2   -1    0    0    0  501 -0.00000000000E+00 -0.00000000000E+00 -0.35060302701E+03  0.35060302701E+03  0.00000000000E+00 0.  1.
         23    2    1    2    0    0 -0.63696573294E+02 -0.49918972099E+03  0.46907931586E+03  0.69433052261E+03  0.93871396429E+02 0.  0.
        254    2    1    2    0    0  0.63696573294E+02  0.49918972099E+03  0.87336008044E+03  0.13493149277E+04  0.89702024117E+03 0.  0.
        -24    2    4    4    0    0 -0.27656509174E+03  0.44023015021E+03  0.85371754941E+03  0.10026577398E+04  0.78727719311E+02 0.  0.
         13    1    3    3    0    0 -0.12332236751E+02 -0.22676002079E+03  0.27119538233E+03  0.35372182077E+03  0.00000000000E+00 0. -1.
        -13    1    3    3    0    0 -0.51364336543E+02 -0.27242970020E+03  0.19788393353E+03  0.34060870184E+03  0.00000000000E+00 0.  1.
          2    1    4    4  502    0  0.13150907074E+03  0.33928174137E+02  0.52309902086E+01  0.13591585612E+03  0.00000000000E+00 0. -1.
          3    1    5    5  503    0 -0.19317394497E+03  0.33981737130E+03  0.69274234402E+03  0.79541434111E+03  0.00000000000E+00 0. -1.
         -4    1    5    5    0  503 -0.83391146765E+02  0.10041277891E+03  0.16097520539E+03  0.20724339864E+03  0.00000000000E+00 0.  1.
         -1    1    4    4    0  502  0.20875259429E+03  0.25031396641E+02  0.14411540822E+02  0.21074133185E+03  0.00000000000E+00 0.  1.
<mgrwt>
<rscale>  0 0.15408904E+04</rscale>
<asrwt>0</asrwt>
<pdfrwt beam="1">  1        2 0.26046806E+00 0.15408904E+04</pdfrwt>
<pdfrwt beam="2">  1       -2 0.53938928E-01 0.15408904E+04</pdfrwt>
<totfact> 0.30851540E+01</totfact>
</mgrwt>
</event>
<event>
11    1  0.2406360E-008  0.2034519E+04  0.7818608E-02  0.8590650E-01
         -2   -1    0    0    0  501 -0.00000000000E+00  0.00000000000E+00  0.78137320515E+03  0.78137320515E+03  0.00000000000E+00 0.  1.
          2   -1    0    0  501    0  0.00000000000E+00 -0.00000000000E+00 -0.13243564614E+04  0.13243564614E+04  0.00000000000E+00 0. -1.
         23    2    1    2    0    0  0.53948100783E+03 -0.55775581822E+03 -0.48209802172E+03  0.91793758782E+03  0.89775286306E+02 0.  0.
        254    2    1    2    0    0 -0.53948100783E+03  0.55775581822E+03 -0.60885234549E+02  0.11877920787E+04  0.89722444236E+03 0.  0.
        -24    2    4    4    0    0  0.19924941734E+03  0.17245212036E+03 -0.16691904081E+03  0.32199464507E+03  0.79865644315E+02 0.  0.
         13    1    3    3    0    0  0.41630880434E+03 -0.38986621416E+03 -0.38534128961E+03  0.68832884219E+03  0.00000000000E+00 0. -1.
        -13    1    3    3    0    0  0.12317220349E+03 -0.16788960406E+03 -0.96756732111E+02  0.22960874563E+03  0.00000000000E+00 0.  1.
          2    1    4    4  502    0 -0.17296877224E+03  0.63240920133E+02 -0.60458839394E+02  0.19383725496E+03  0.00000000000E+00 0. -1.
          1    1    5    5  503    0  0.14299513239E+02  0.16804530275E+02  0.81572364778E+01  0.23524642900E+02  0.00000000000E+00 0. -1.
         -2    1    5    5    0  503  0.18494990410E+03  0.15564759008E+03 -0.17507627729E+03  0.29847000217E+03  0.00000000000E+00 0.  1.
         -1    1    4    4    0  502 -0.56576165293E+03  0.32206277773E+03  0.16649264565E+03  0.67196017872E+03  0.00000000000E+00 0.  1.
<mgrwt>
<rscale>  0 0.20345188E+04</rscale>
<asrwt>0</asrwt>
<pdfrwt beam="1">  1        2 0.20374715E+00 0.20345188E+04</pdfrwt>
<pdfrwt beam="2">  1       -2 0.12021126E+00 0.20345188E+04</pdfrwt>
<totfact> 0.78384033E+00</totfact>
</mgrwt>
</event>
<event>
11    1  0.2406360E-008  0.1448349E+04  0.7818608E-02  0.8919546E-01
         -2   -1    0    0    0  501 -0.00000000000E+00  0.00000000000E+00  0.44224821005E+03  0.44224821005E+03  0.00000000000E+00 0.  1.
          2   -1    0    0  501    0  0.00000000000E+00 -0.00000000000E+00 -0.11858242010E+04  0.11858242010E+04  0.00000000000E+00 0. -1.
         23    2    1    2    0    0 -0.96332498042E+01 -0.19033554262E+03 -0.68051101529E+03  0.71239776853E+03  0.89971775566E+02 0.  0.
        254    2    1    2    0    0  0.96332498042E+01  0.19033554262E+03 -0.63064975715E+02  0.91567464256E+03  0.89339937407E+03 0.  0.
        -24    2    4    4    0    0  0.18164107790E+03 -0.23094253538E+03 -0.20647610638E+03  0.36826032123E+03  0.81580303108E+02 0.  0.
         11    1    3    3    0    0  0.69541558736E+01  0.79890838105E+01 -0.21111826593E+02  0.23619800298E+02  0.00000000000E+00 0.  1.
        -11    1    3    3    0    0 -0.16587405678E+02 -0.19832462643E+03 -0.65939918869E+03  0.68877796823E+03  0.00000000000E+00 0. -1.
          2    1    4    4  502    0 -0.18405832836E+03  0.13665180138E+03  0.17314897617E+01  0.22924698714E+03  0.00000000000E+00 0. -1.
          1    1    5    5  503    0  0.10917648006E+03 -0.85004211310E+02 -0.66797110516E+02  0.15364593621E+03  0.00000000000E+00 0. -1.
         -2    1    5    5    0  503  0.72464597840E+02 -0.14593832407E+03 -0.13967899586E+03  0.21461438502E+03  0.00000000000E+00 0.  1.
         -1    1    4    4    0  502  0.12050500256E+02  0.28462627662E+03  0.14167964090E+03  0.31816733419E+03  0.00000000000E+00 0.  1.
<mgrwt>
<rscale>  0 0.14483489E+04</rscale>
<asrwt>0</asrwt>
<pdfrwt beam="1">  1        2 0.18243449E+00 0.14483489E+04</pdfrwt>
<pdfrwt beam="2">  1       -2 0.68038187E-01 0.14483489E+04</pdfrwt>
<totfact> 0.37054018E+01</totfact>
</mgrwt>
</event>
<event>
11    1  0.2406360E-008  0.1246527E+04  0.7818608E-02  0.9073079E-01
          1   -1    0    0  501    0  0.00000000000E+00  0.00000000000E+00  0.92934145612E+03  0.92934145612E+03  0.00000000000E+00 0. -1.
         -1   -1    0    0    0  501 -0.00000000000E+00 -0.00000000000E+00 -0.41799192964E+03  0.41799192964E+03  0.00000000000E+00 0.  1.
         23    2    1    2    0    0  0.27482690998E+03  0.20304521582E+02  0.11856742365E+03  0.31325185310E+03  0.90146466779E+02 0.  0.
        254    2    1    2    0    0 -0.27482690998E+03 -0.20304521582E+02  0.39278210282E+03  0.10340815327E+04  0.91602659997E+03 0.  0.
        -24    2    4    4    0    0 -0.42452672069E+03  0.30129950638E+03  0.39980297707E+03  0.66147972868E+03  0.81906543400E+02 0.  0.
         11    1    3    3    0    0  0.27175263751E+03  0.14455781337E+02  0.12879483269E+03  0.30107569569E+03  0.00000000000E+00 0. -1.
        -11    1    3    3    0    0  0.30742724668E+01  0.58487402447E+01 -0.10227409035E+02  0.12176157407E+02  0.00000000000E+00 0.  1.
          4    1    4    4  502    0  0.13415347866E+03 -0.32640277533E+03  0.40545880813E+01  0.35291977455E+03  0.00000000000E+00 0. -1.
          3    1    5    5  503    0 -0.42118781288E+03  0.28975660770E+03  0.40052102210E+03  0.64944218724E+03  0.00000000000E+00 0. -1.
         -4    1    5    5    0  503 -0.33389078181E+01  0.11542898679E+02 -0.71804502573E+00  0.12037541443E+02  0.00000000000E+00 0.  1.
         -3    1    4    4    0  502  0.15546332058E+02  0.47987473680E+01 -0.11075462333E+02  0.19682029434E+02  0.00000000000E+00 0.  1.
<mgrwt>
<rscale>  0 0.12465267E+04</rscale>
<asrwt>0</asrwt>
<pdfrwt beam="1">  1        1 0.14297561E+00 0.12465267E+04</pdfrwt>
<pdfrwt beam="2">  1       -1 0.64306451E-01 0.12465267E+04</pdfrwt>
<totfact> 0.41661861E+01</totfact>
</mgrwt>
</event>
<event>
12    1  0.2406360E-008  0.1508480E+04  0.7818608E-02  0.8878833E-01
         -2   -1    0    0    0  501 -0.00000000000E+00  0.00000000000E+00  0.15858955776E+03  0.15858955776E+03  0.00000000000E+00 0.  1.
          2   -1    0    0  501    0  0.00000000000E+00 -0.00000000000E+00 -0.35871105370E+04  0.35871105370E+04  0.00000000000E+00 0. -1.
         23    2    1    2    0    0  0.35076850684E+03  0.11855071456E+03 -0.35354609206E+03  0.51985014893E+03  0.90313458653E+02 0.  0.
        254    2    1    2    0    0 -0.35076850684E+03 -0.11855071456E+03 -0.30749748871E+04  0.32258499458E+04  0.90196701654E+03 0.  0.
        -24    2    4    4    0    0 -0.56696582434E+03 -0.19144339540E+03 -0.12794427142E+04  0.14147700211E+04  0.80620927246E+02 0.  0.
         24    2    4    4    0    0  0.21619731749E+03  0.72892680839E+02 -0.17955321729E+04  0.18110799247E+04  0.63404154278E+02 0.  0.
         11    1    3    3    0    0  0.15430951074E+03  0.99210940820E+01 -0.17065543751E+03  0.23028923459E+03  0.00000000000E+00 0. -1.
        -11    1    3    3    0    0  0.19645899610E+03  0.10862962048E+03 -0.18289065455E+03  0.28956091434E+03  0.00000000000E+00 0.  1.
          4    1    6    6  502    0  0.18267637615E+03  0.53476076934E+02 -0.12776215424E+04  0.12917225534E+04  0.00000000000E+00 0. -1.
          1    1    5    5  503    0 -0.40668201706E+03 -0.10423618002E+03 -0.93670614261E+03  0.10264861625E+04  0.00000000000E+00 0. -1.
         -2    1    5    5    0  503 -0.16028380727E+03 -0.87207215380E+02 -0.34273657160E+03  0.38828385854E+03  0.00000000000E+00 0.  1.
         -3    1    6    6    0  502  0.33520941339E+02  0.19416603906E+02 -0.51791063048E+03  0.51935737135E+03  0.00000000000E+00 0.  1.
<mgrwt>
<rscale>  0 0.15084804E+04</rscale>
<asrwt>0</asrwt>
<pdfrwt beam="1">  1        2 0.55186318E+00 0.15084804E+04</pdfrwt>
<pdfrwt beam="2">  1       -2 0.24398392E-01 0.15084804E+04</pdfrwt>
<totfact> 0.10369280E+01</totfact>
</mgrwt>
</event>
<event>
11    1  0.2406360E-008  0.2026722E+04  0.7818608E-02  0.8594228E-01
          1   -1    0    0  501    0  0.00000000000E+00  0.00000000000E+00  0.13542350169E+04  0.13542350169E+04  0.00000000000E+00 0. -1.
         -1   -1    0    0    0  501 -0.00000000000E+00 -0.00000000000E+00 -0.75828831440E+03  0.75828831440E+03  0.00000000000E+00 0.  1.
         23    2    1    2    0    0  0.79529744245E+03 -0.15547260302E+03  0.24303554936E+03  0.85113383343E+03  0.93235035711E+02 0.  0.
        254    2    1    2    0    0 -0.79529744245E+03  0.15547260302E+03  0.35291115316E+03  0.12613894979E+04  0.89993745956E+03 0.  0.
        -24    2    4    4    0    0 -0.92823757151E+03  0.11053457042E+03  0.10018536016E+03  0.94372676330E+03  0.82098824414E+02 0.  0.
         11    1    3    3    0    0  0.68878893695E+03 -0.16600953462E+03  0.21674642698E+03  0.74092400343E+03  0.00000000000E+00 0. -1.
        -11    1    3    3    0    0  0.10650850551E+03  0.10536931599E+02  0.26289122386E+02  0.11020983000E+03  0.00000000000E+00 0.  1.
          2    1    4    4  502    0  0.54127461394E+02 -0.38407820296E+00  0.21063184723E+03  0.21747575649E+03  0.00000000000E+00 0. -1.
          3    1    5    5  503    0 -0.90921033701E+03  0.10517522313E+03  0.10963578990E+03  0.92181628914E+03  0.00000000000E+00 0. -1.
         -4    1    5    5    0  503 -0.19027234492E+02  0.53593472914E+01 -0.94504297419E+01  0.21910474164E+02  0.00000000000E+00 0.  1.
         -1    1    4    4    0  502  0.78812667657E+02  0.45322110801E+02  0.42093945775E+02  0.10018697810E+03  0.00000000000E+00 0.  1.
<mgrwt>
<rscale>  0 0.20267221E+04</rscale>
<asrwt>0</asrwt>
<pdfrwt beam="1">  1        1 0.20834385E+00 0.20267221E+04</pdfrwt>
<pdfrwt beam="2">  1       -1 0.11665974E+00 0.20267221E+04</pdfrwt>
<totfact> 0.50794342E+00</totfact>
</mgrwt>
</event>
<event>
12    1  0.2406360E-008  0.1522753E+04  0.7818608E-02  0.8869462E-01
         -2   -1    0    0    0  501 -0.00000000000E+00  0.00000000000E+00  0.76061664057E+03  0.76061664057E+03  0.00000000000E+00 0.  1.
          2   -1    0    0  501    0  0.00000000000E+00 -0.00000000000E+00 -0.76213687029E+03  0.76213687029E+03  0.00000000000E+00 0. -1.
         23    2    1    2    0    0 -0.39905968973E+03 -0.28766422227E+03 -0.14729722705E+02  0.50085621453E+03  0.92955054496E+02 0.  0.
        254    2    1    2    0    0  0.39905968973E+03  0.28766422227E+03  0.13209492986E+02  0.10218972963E+04  0.89560049843E+03 0.  0.
        -24    2    4    4    0    0 -0.14215954115E+03  0.38998609883E+03  0.14731323782E+03  0.44782189393E+03  0.80899729397E+02 0.  0.
         24    2    4    4    0    0  0.54121923088E+03 -0.10232187656E+03 -0.13410374483E+03  0.57407540240E+03  0.90502657208E+02 0.  0.
         13    1    3    3    0    0 -0.38682690043E+03 -0.29489346689E+03 -0.13611110785E+02  0.48660299017E+03  0.00000000000E+00 0. -1.
        -13    1    3    3    0    0 -0.12232789303E+02  0.72292446173E+01 -0.11186119201E+01  0.14253224354E+02  0.00000000000E+00 0.  1.
          4    1    6    6  502    0  0.32911267436E+03 -0.28745462036E+02 -0.11039106209E+03  0.34832117450E+03  0.00000000000E+00 0. -1.
          3    1    5    5  503    0 -0.14807160208E+03  0.35675129249E+03  0.14905160858E+03  0.41402061067E+03  0.00000000000E+00 0. -1.
         -4    1    5    5    0  503  0.59120609283E+01  0.33234806341E+02 -0.17383707557E+01  0.33801283257E+02  0.00000000000E+00 0.  1.
         -1    1    6    6    0  502  0.21210655652E+03 -0.73576414525E+02 -0.23712682746E+02  0.22575422790E+03  0.00000000000E+00 0.  1.
<mgrwt>
<rscale>  0 0.15227528E+04</rscale>
<asrwt>0</asrwt>
<pdfrwt beam="1">  1        2 0.11725183E+00 0.15227528E+04</pdfrwt>
<pdfrwt beam="2">  1       -2 0.11701794E+00 0.15227528E+04</pdfrwt>
<totfact> 0.20014704E+01</totfact>
</mgrwt>
</event>
<event>
12    1  0.2406360E-008  0.1691580E+04  0.7818608E-02  0.8766181E-01
         -1   -1    0    0    0  501 -0.00000000000E+00  0.00000000000E+00  0.21192655273E+03  0.21192655273E+03  0.00000000000E+00 0.  1.
          1   -1    0    0  501    0  0.00000000000E+00 -0.00000000000E+00 -0.33755144127E+04  0.33755144127E+04  0.00000000000E+00 0. -1.
         23    2    1    2    0    0 -0.40182059469E+03  0.27894907905E+03 -0.18707151306E+04  0.19358513584E+04  0.93128959028E+02 0.  0.
        254    2    1    2    0    0  0.40182059469E+03 -0.27894907905E+03 -0.12928727294E+04  0.16515896071E+04  0.90385615929E+03 0.  0.
        -24    2    4    4    0    0  0.57901234737E+03 -0.10734511157E+03 -0.12436213722E+04  0.13783747411E+04  0.80898320279E+02 0.  0.
         24    2    4    4    0    0 -0.17719175267E+03 -0.17160396748E+03 -0.49251357253E+02  0.27321486597E+03  0.10665752633E+03 0.  0.
         11    1    3    3    0    0 -0.28962737948E+03  0.15109120759E+03 -0.11658320307E+04  0.12107340318E+04  0.00000000000E+00 0. -1.
        -11    1    3    3    0    0 -0.11219321521E+03  0.12785787146E+03 -0.70488309990E+03  0.72511732662E+03  0.00000000000E+00 0.  1.
          4    1    6    6  502    0 -0.55632827895E+02 -0.11989176235E+02 -0.44975748532E+02  0.72536679290E+02  0.00000000000E+00 0. -1.
          1    1    5    5  503    0  0.74047990148E+02  0.11409356708E+02 -0.18109978970E+03  0.19598574462E+03  0.00000000000E+00 0. -1.
         -2    1    5    5    0  503  0.50496435722E+03 -0.11875446827E+03 -0.10625215825E+04  0.11823889965E+04  0.00000000000E+00 0.  1.
         -3    1    6    6    0  502 -0.12155892478E+03 -0.15961479125E+03 -0.42756087217E+01  0.20067818668E+03  0.00000000000E+00 0.  1.
<mgrwt>
<rscale>  0 0.16915805E+04</rscale>
<asrwt>0</asrwt>
<pdfrwt beam="1">  1        1 0.51930984E+00 0.16915805E+04</pdfrwt>
<pdfrwt beam="2">  1       -1 0.32604089E-01 0.16915805E+04</pdfrwt>
<totfact> 0.26396852E+00</totfact>
</mgrwt>
</event>
<event>
11    1  0.2406360E-008  0.1379120E+04  0.7818608E-02  0.8969073E-01
          2   -1    0    0  501    0  0.00000000000E+00  0.00000000000E+00  0.17200401372E+04  0.17200401372E+04  0.00000000000E+00 0. -1.
         -2   -1    0    0    0  501 -0.00000000000E+00 -0.00000000000E+00 -0.27644284189E+03  0.27644284189E+03  0.00000000000E+00 0.  1.
         23    2    1    2    0    0  0.20721325891E+03 -0.24839077760E+03  0.10442943319E+03  0.35231431080E+03  0.92652868316E+02 0.  0.
        254    2    1    2    0    0 -0.20721325891E+03  0.24839077760E+03  0.13391678621E+04  0.16441686683E+04  0.89737658415E+03 0.  0.
        -24    2    4    4    0    0 -0.72041715299E+02 -0.30526819018E+03  0.41441485190E+03  0.52550872078E+03  0.77724317098E+02 0.  0.
         11    1    3    3    0    0  0.15176002441E+03 -0.16966189878E+03  0.11571886897E+03  0.25535685137E+03  0.00000000000E+00 0. -1.
        -11    1    3    3    0    0  0.55453234499E+02 -0.78728878824E+02 -0.11289435780E+02  0.96957459422E+02  0.00000000000E+00 0.  1.
          4    1    4    4  502    0 -0.19802434729E+03  0.51200976730E+03  0.76060732352E+03  0.93802513001E+03  0.00000000000E+00 0. -1.
          3    1    5    5  503    0 -0.38879969045E+02 -0.26964384798E+03  0.37104078554E+03  0.46031589292E+03  0.00000000000E+00 0. -1.
         -4    1    5    5    0  503 -0.33161746255E+02 -0.35624342201E+02  0.43374066361E+02  0.65192827861E+02  0.00000000000E+00 0.  1.
         -3    1    4    4    0  502  0.62852803674E+02  0.41649200475E+02  0.16414568668E+03  0.18063481748E+03  0.00000000000E+00 0.  1.
<mgrwt>
<rscale>  0 0.13791197E+04</rscale>
<asrwt>0</asrwt>
<pdfrwt beam="1">  1        2 0.26462155E+00 0.13791197E+04</pdfrwt>
<pdfrwt beam="2">  1       -2 0.42529669E-01 0.13791197E+04</pdfrwt>
<totfact> 0.48824076E+01</totfact>
</mgrwt>
</event>
<event>
12    1  0.3966569E-008  0.1768337E+04  0.7818608E-02  0.8723321E-01
          1   -1    0    0  501    0  0.00000000000E+00  0.00000000000E+00  0.79105508231E+03  0.79105508231E+03  0.00000000000E+00 0. -1.
         -1   -1    0    0    0  501 -0.00000000000E+00 -0.00000000000E+00 -0.98824190610E+03  0.98824190610E+03  0.00000000000E+00 0.  1.
         23    2    1    2    0    0  0.63179409879E+03  0.13568558905E+03  0.91814800404E+01  0.65254892174E+03  0.90340651691E+02 0.  0.
        254    2    1    2    0    0 -0.63179409879E+03 -0.13568558905E+03 -0.20636830383E+03  0.11267480667E+04  0.89966603058E+03 0.  0.
        -24    2    4    4    0    0 -0.20087084286E+03 -0.23294334934E+03 -0.49961371586E+03  0.59218111537E+03  0.80329999480E+02 0.  0.
         24    2    4    4    0    0 -0.43092325593E+03  0.97257760285E+02  0.29324541203E+03  0.53456695130E+03  0.67934006994E+02 0.  0.
         11    1    3    3    0    0  0.51751375633E+03  0.10080361591E+03 -0.26333776816E+02  0.52789707782E+03  0.00000000000E+00 0.  1.
        -11    1    3    3    0    0  0.11428034246E+03  0.34881973144E+02  0.35515256856E+02  0.12465184392E+03  0.00000000000E+00 0. -1.
          2    1    6    6  502    0 -0.46411981262E+02  0.31122673423E+02  0.48547254671E+02  0.74023839010E+02  0.00000000000E+00 0. -1.
          3    1    5    5  503    0 -0.10482935353E+03 -0.10546842469E+03 -0.16933604990E+03  0.22536077690E+03  0.00000000000E+00 0. -1.
         -4    1    5    5    0  503 -0.96041489324E+02 -0.12747492465E+03 -0.33027766596E+03  0.36682033847E+03  0.00000000000E+00 0.  1.
         -1    1    6    6    0  502 -0.38451127467E+03  0.66135086862E+02  0.24469815736E+03  0.46054311229E+03  0.00000000000E+00 0.  1.
<mgrwt>
<rscale>  0 0.17683368E+04</rscale>
<asrwt>0</asrwt>
<pdfrwt beam="1">  1        1 0.12170078E+00 0.17683368E+04</pdfrwt>
<pdfrwt beam="2">  1       -1 0.15203722E+00 0.17683368E+04</pdfrwt>
<totfact> 0.71654042E+00</totfact>
</mgrwt>
</event>
<event>
12    1  0.2406360E-008  0.1975699E+04  0.7818608E-02  0.8618067E-01
         -2   -1    0    0    0  501 -0.00000000000E+00  0.00000000000E+00  0.10910519006E+04  0.10910519006E+04  0.00000000000E+00 0.  1.
          2   -1    0    0  501    0  0.00000000000E+00 -0.00000000000E+00 -0.89440918190E+03  0.89440918190E+03  0.00000000000E+00 0. -1.
         23    2    1    2    0    0 -0.30322532400E+03  0.70964884921E+03  0.33211639924E+02  0.77783275993E+03  0.91507940064E+02 0.  0.
        254    2    1    2    0    0  0.30322532400E+03 -0.70964884921E+03  0.16343107879E+03  0.12076283226E+04  0.91439015838E+03 0.  0.
        -24    2    4    4    0    0  0.65007746505E+02 -0.54175406946E+03 -0.31865776887E+03  0.63668668991E+03  0.78126106790E+02 0.  0.
         24    2    4    4    0    0  0.23821757749E+03 -0.16789477974E+03  0.48208884767E+03  0.57094163269E+03  0.92889286781E+02 0.  0.
         11    1    3    3    0    0 -0.15788722224E+03  0.47516053425E+03  0.35299859476E+02  0.50194819288E+03  0.00000000000E+00 0. -1.
        -11    1    3    3    0    0 -0.14533810176E+03  0.23448831496E+03 -0.20882195526E+01  0.27588456705E+03  0.00000000000E+00 0.  1.
          4    1    6    6  502    0  0.12398778488E+03 -0.39973662091E+02  0.16277185255E+03  0.20848390931E+03  0.00000000000E+00 0. -1.
          1    1    5    5  503    0 -0.88830340158E+01 -0.53116832225E+02 -0.53245102828E+02  0.75732074672E+02  0.00000000000E+00 0. -1.
         -2    1    5    5    0  503  0.73890780520E+02 -0.48863723724E+03 -0.26541266605E+03  0.56095461524E+03  0.00000000000E+00 0.  1.
         -3    1    6    6    0  502  0.11422979261E+03 -0.12792111765E+03  0.31931699512E+03  0.36245772337E+03  0.00000000000E+00 0.  1.
<mgrwt>
<rscale>  0 0.19756992E+04</rscale>
<asrwt>0</asrwt>
<pdfrwt beam="1">  1        2 0.13760141E+00 0.19756992E+04</pdfrwt>
<pdfrwt beam="2">  1       -2 0.16785414E+00 0.19756992E+04</pdfrwt>
<totfact> 0.60775161E+00</totfact>
</mgrwt>
</event>
<event>
11    1  0.2406360E-008  0.1139694E+04  0.7818608E-02  0.9167344E-01
          2   -1    0    0  501    0  0.00000000000E+00  0.00000000000E+00  0.22311523555E+04  0.22311523555E+04  0.00000000000E+00 0. -1.
         -2   -1    0    0    0  501 -0.00000000000E+00 -0.00000000000E+00 -0.14554168955E+03  0.14554168955E+03  0.00000000000E+00 0.  1.
         23    2    1    2    0    0 -0.21143935994E+02 -0.19385090933E+03  0.51054170408E+03  0.55409544095E+03  0.91343773735E+02 0.  0.
        254    2    1    2    0    0  0.21143935994E+02  0.19385090933E+03  0.15750689619E+04  0.18225986041E+04  0.89610166607E+03 0.  0.
        -24    2    4    4    0    0 -0.34682587296E+03  0.34446476396E+03  0.92608340044E+03  0.10501683451E+04  0.79239691024E+02 0.  0.
         11    1    3    3    0    0 -0.23588579065E+02 -0.11573001553E+03  0.41043313636E+03  0.42708923773E+03  0.00000000000E+00 0. -1.
        -11    1    3    3    0    0  0.24446430709E+01 -0.78120893792E+02  0.10010856772E+03  0.12700620322E+03  0.00000000000E+00 0.  1.
          4    1    4    4  502    0  0.33476098376E+02 -0.49824606234E+02  0.16463779516E+03  0.17523910564E+03  0.00000000000E+00 0. -1.
          3    1    5    5  503    0 -0.11311800455E+03  0.71768532857E+02  0.29634354513E+03  0.32521670007E+03  0.00000000000E+00 0. -1.
         -4    1    5    5    0  503 -0.23370786841E+03  0.27269623111E+03  0.62973985531E+03  0.72495164499E+03  0.00000000000E+00 0.  1.
         -3    1    4    4    0  502  0.33449371058E+03 -0.10078924840E+03  0.48434776629E+03  0.59719115341E+03  0.00000000000E+00 0.  1.
<mgrwt>
<rscale>  0 0.11396941E+04</rscale>
<asrwt>0</asrwt>
<pdfrwt beam="1">  1        2 0.34325418E+00 0.11396941E+04</pdfrwt>
<pdfrwt beam="2">  1       -2 0.22391031E-01 0.11396941E+04</pdfrwt>
<totfact> 0.86299311E+01</totfact>
</mgrwt>
</event>
<event>
12    1  0.2406360E-008  0.2235565E+04  0.7818608E-02  0.8503770E-01
         -1   -1    0    0    0  501 -0.00000000000E+00  0.00000000000E+00  0.13051409050E+04  0.13051409050E+04  0.00000000000E+00 0.  1.
          1   -1    0    0  501    0  0.00000000000E+00 -0.00000000000E+00 -0.95731977762E+03  0.95731977762E+03  0.00000000000E+00 0. -1.
         23    2    1    2    0    0  0.11903089443E+03 -0.65848715579E+03 -0.47282268969E+03  0.82474956178E+03  0.94217066386E+02 0.  0.
        254    2    1    2    0    0 -0.11903089443E+03  0.65848715579E+03  0.82064381710E+03  0.14377111209E+04  0.97251390959E+03 0.  0.
        -24    2    4    4    0    0 -0.28100942546E+03  0.59504277097E+03  0.97867559085E+03  0.11820418415E+04  0.79842384686E+02 0.  0.
         24    2    4    4    0    0  0.16197853103E+03  0.63444384827E+02 -0.15803177376E+03  0.25566927939E+03  0.10065040699E+03 0.  0.
         13    1    3    3    0    0  0.87384254523E+02 -0.59220018049E+03 -0.39203805045E+03  0.71556334081E+03  0.00000000000E+00 0. -1.
        -13    1    3    3    0    0  0.31646639907E+02 -0.66286975298E+02 -0.80784639244E+02  0.10918622097E+03  0.00000000000E+00 0.  1.
          2    1    6    6  502    0  0.73467362273E+02 -0.22122011693E+02 -0.74140394180E+02  0.10669411778E+03  0.00000000000E+00 0. -1.
          1    1    5    5  503    0 -0.48471562120E+00  0.32862900289E+02  0.69739692846E+02  0.77096238059E+02  0.00000000000E+00 0. -1.
         -2    1    5    5    0  503 -0.28052470983E+03  0.56217987068E+03  0.90893589801E+03  0.11049456034E+04  0.00000000000E+00 0.  1.
         -1    1    6    6    0  502  0.88511168752E+02  0.85566396520E+02 -0.83891379579E+02  0.14897516160E+03  0.00000000000E+00 0.  1.
<mgrwt>
<rscale>  0 0.22355645E+04</rscale>
<asrwt>0</asrwt>
<pdfrwt beam="1">  1        1 0.14727997E+00 0.22355645E+04</pdfrwt>
<pdfrwt beam="2">  1       -1 0.20079091E+00 0.22355645E+04</pdfrwt>
<totfact> 0.22089852E+00</totfact>
</mgrwt>
</event>
<event>
12    1  0.2406360E-008  0.1549012E+04  0.7818608E-02  0.8852499E-01
         -2   -1    0    0    0  501 -0.00000000000E+00  0.00000000000E+00  0.59948558255E+03  0.59948558255E+03  0.00000000000E+00 0.  1.
          2   -1    0    0  501    0  0.00000000000E+00 -0.00000000000E+00 -0.10006236896E+04  0.10006236896E+04  0.00000000000E+00 0. -1.
         23    2    1    2    0    0  0.18132737919E+03 -0.50493596664E+02  0.35425206914E+03  0.41160105212E+03  0.92150289549E+02 0.  0.
        254    2    1    2    0    0 -0.18132737919E+03  0.50493596664E+02 -0.75539017623E+03  0.11885082201E+04  0.89805804326E+03 0.  0.
        -24    2    4    4    0    0  0.33923740146E+03  0.14259574568E+03 -0.23214109123E+03  0.44228431284E+03  0.79437811600E+02 0.  0.
         24    2    4    4    0    0 -0.52056478065E+03 -0.92102149017E+02 -0.52324908501E+03  0.74622390722E+03  0.59916759282E+02 0.  0.
         13    1    3    3    0    0  0.17491802176E+03 -0.70429640737E+02  0.31561885146E+03  0.36765732418E+03  0.00000000000E+00 0.  1.
        -13    1    3    3    0    0  0.64093574291E+01  0.19936044073E+02  0.38633217684E+02  0.43943727932E+02  0.00000000000E+00 0. -1.
          2    1    6    6  502    0 -0.70139393904E+02 -0.29149095465E+02 -0.57645278015E+02  0.95352936090E+02  0.00000000000E+00 0. -1.
          3    1    5    5  503    0  0.11514741649E+03  0.66413452744E+02 -0.44288839882E+02  0.14011129708E+03  0.00000000000E+00 0. -1.
         -4    1    5    5    0  503  0.22408998497E+03  0.76182292936E+02 -0.18785225134E+03  0.30217301576E+03  0.00000000000E+00 0.  1.
         -1    1    6    6    0  502 -0.45042538675E+03 -0.62953053552E+02 -0.46560380699E+03  0.65087097113E+03  0.00000000000E+00 0.  1.
<mgrwt>
<rscale>  0 0.15490119E+04</rscale>
<asrwt>0</asrwt>
<pdfrwt beam="1">  1        2 0.15394211E+00 0.15490119E+04</pdfrwt>
<pdfrwt beam="2">  1       -2 0.92228551E-01 0.15490119E+04</pdfrwt>
<totfact> 0.24196790E+01</totfact>
</mgrwt>
</event>
<event>
11    1  0.2406360E-008  0.1582590E+04  0.7818608E-02  0.8831316E-01
          1   -1    0    0  501    0  0.00000000000E+00  0.00000000000E+00  0.23532658559E+04  0.23532658559E+04  0.00000000000E+00 0. -1.
         -1   -1    0    0    0  501 -0.00000000000E+00 -0.00000000000E+00 -0.26607596128E+03  0.26607596128E+03  0.00000000000E+00 0.  1.
         23    2    1    2    0    0  0.24349047262E+03 -0.46167046960E+03  0.99988167863E+03  0.11314512803E+04  0.89394606222E+02 0.  0.
        254    2    1    2    0    0 -0.24349047262E+03  0.46167046960E+03  0.10873082160E+04  0.14878905369E+04  0.87129321152E+03 0.  0.
        -24    2    4    4    0    0 -0.55026613968E+03  0.23600407431E+03  0.75495169699E+03  0.96682806505E+03  0.79458762969E+02 0.  0.
         11    1    3    3    0    0 -0.23076577189E+01 -0.14288116386E+02  0.96578526786E+01  0.17399703227E+02  0.00000000000E+00 0.  1.
        -11    1    3    3    0    0  0.24579813034E+03 -0.44738235322E+03  0.99022382595E+03  0.11140515770E+04  0.00000000000E+00 0. -1.
          2    1    4    4  502    0  0.30091193488E+03  0.23456072239E+03  0.29517456644E+03  0.48238444183E+03  0.00000000000E+00 0. -1.
          1    1    5    5  503    0 -0.51031286456E+03  0.19380818546E+03  0.68123035921E+03  0.87295797997E+03  0.00000000000E+00 0. -1.
         -2    1    5    5    0  503 -0.39953275123E+02  0.42195888853E+02  0.73721337778E+02  0.93870085080E+02  0.00000000000E+00 0.  1.
         -1    1    4    4    0  502  0.58637321833E+01 -0.88943270952E+01  0.37181952526E+02  0.38678029981E+02  0.00000000000E+00 0.  1.
<mgrwt>
<rscale>  0 0.15825896E+04</rscale>
<asrwt>0</asrwt>
<pdfrwt beam="1">  1        1 0.36204089E+00 0.15825896E+04</pdfrwt>
<pdfrwt beam="2">  1       -1 0.40934765E-01 0.15825896E+04</pdfrwt>
<totfact> 0.96117016E+00</totfact>
</mgrwt>
</event>
<event>
12    1  0.2406360E-008  0.1405681E+04  0.7818608E-02  0.8949716E-01
          2   -1    0    0  501    0  0.00000000000E+00  0.00000000000E+00  0.28785573063E+03  0.28785573063E+03  0.00000000000E+00 0. -1.
         -2   -1    0    0    0  501 -0.00000000000E+00 -0.00000000000E+00 -0.17160849159E+04  0.17160849159E+04  0.00000000000E+00 0.  1.
         23    2    1    2    0    0 -0.12301062193E+02 -0.21896716463E+03  0.69256817864E+02  0.24713627292E+03  0.90453829409E+02 0.  0.
        254    2    1    2    0    0  0.12301062193E+02  0.21896716463E+03 -0.14974860031E+04  0.17568043736E+04  0.89207586126E+03 0.  0.
        -24    2    4    4    0    0 -0.63882719154E+02 -0.26441524124E+03 -0.15275103892E+03  0.32188646926E+03  0.79256530307E+02 0.  0.
         24    2    4    4    0    0  0.76183781346E+02  0.48338240587E+03 -0.13447349642E+04  0.14349179044E+04  0.10589971394E+03 0.  0.
         11    1    3    3    0    0  0.24265003363E+02 -0.30629509428E+02  0.34566176486E+02  0.52170660269E+02  0.00000000000E+00 0.  1.
        -11    1    3    3    0    0 -0.36566065556E+02 -0.18833765520E+03  0.34690641378E+02  0.19496561265E+03  0.00000000000E+00 0. -1.
          4    1    6    6  502    0  0.58040907140E+02  0.25210317489E+03 -0.84991435088E+03  0.88841384587E+03  0.00000000000E+00 0. -1.
          1    1    5    5  503    0 -0.71243152299E+02 -0.15471941971E+03 -0.11551634815E+03  0.20580989353E+03  0.00000000000E+00 0. -1.
         -2    1    5    5    0  503  0.73604331451E+01 -0.10969582153E+03 -0.37234690776E+02  0.11607657573E+03  0.00000000000E+00 0.  1.
         -3    1    6    6    0  502  0.18142874206E+02  0.23127923097E+03 -0.49482061334E+03  0.54650405850E+03  0.00000000000E+00 0.  1.
<mgrwt>
<rscale>  0 0.14056812E+04</rscale>
<asrwt>0</asrwt>
<pdfrwt beam="1">  1        2 0.44285497E-01 0.14056812E+04</pdfrwt>
<pdfrwt beam="2">  1       -2 0.26401306E+00 0.14056812E+04</pdfrwt>
<totfact> 0.59098005E+00</totfact>
</mgrwt>
</event>
<event>
12    1  0.2406360E-008  0.1433284E+04  0.7818608E-02  0.8930072E-01
          2   -1    0    0  501    0  0.00000000000E+00  0.00000000000E+00  0.71491904720E+03  0.71491904720E+03  0.00000000000E+00 0. -1.
         -2   -1    0    0    0  501 -0.00000000000E+00 -0.00000000000E+00 -0.71836893436E+03  0.71836893436E+03  0.00000000000E+00 0.  1.
         23    2    1    2    0    0  0.27243933351E+02 -0.87530782152E+02 -0.41663307183E+03  0.43651768441E+03  0.92524064594E+02 0.  0.
        254    2    1    2    0    0 -0.27243933351E+02  0.87530782152E+02  0.41318318467E+03  0.99677029715E+03  0.90245598866E+03 0.  0.
        -24    2    4    4    0    0  0.80263082084E+02 -0.34865604154E+03 -0.16420442724E+02  0.36718086974E+03  0.80925660428E+02 0.  0.
         24    2    4    4    0    0 -0.10750701543E+03  0.43618682370E+03  0.42960362739E+03  0.62958942741E+03  0.10003432862E+03 0.  0.
         13    1    3    3    0    0  0.68199399005E+01 -0.62618909362E+02 -0.99562184841E+02  0.11781454936E+03  0.00000000000E+00 0. -1.
        -13    1    3    3    0    0  0.20423993450E+02 -0.24911872790E+02 -0.31707088699E+03  0.31870313505E+03  0.00000000000E+00 0.  1.
          4    1    6    6  502    0 -0.10368894726E+03  0.38734810732E+03  0.33281646346E+03  0.52111107490E+03  0.00000000000E+00 0. -1.
          1    1    5    5  503    0  0.76213920605E+02 -0.22719874165E+03  0.19569673786E+02  0.24043876982E+03  0.00000000000E+00 0. -1.
         -2    1    5    5    0  503  0.40491614783E+01 -0.12145729989E+03 -0.35990116510E+02  0.12674209992E+03  0.00000000000E+00 0.  1.
         -3    1    6    6    0  502 -0.38180681745E+01  0.48838716372E+02  0.96787163931E+02  0.10847835251E+03  0.00000000000E+00 0.  1.
<mgrwt>
<rscale>  0 0.14332838E+04</rscale>
<asrwt>0</asrwt>
<pdfrwt beam="1">  1        2 0.10998755E+00 0.14332838E+04</pdfrwt>
<pdfrwt beam="2">  1       -2 0.11051830E+00 0.14332838E+04</pdfrwt>
<totfact> 0.25158970E+01</totfact>
</mgrwt>
</event>
<event>
11    1  0.2406360E-008  0.3027976E+04  0.7818608E-02  0.8235787E-01
          2   -1    0    0  501    0  0.00000000000E+00  0.00000000000E+00  0.16532641179E+04  0.16532641179E+04  0.00000000000E+00 0. -1.
         -2   -1    0    0    0  501 -0.00000000000E+00 -0.00000000000E+00 -0.13864448606E+04  0.13864448606E+04  0.00000000000E+00 0.  1.
         23    2    1    2    0    0  0.98055586756E+03 -0.72762762793E+03  0.77041310694E+03  0.14466457553E+04  0.91191072762E+02 0.  0.
        254    2    1    2    0    0 -0.98055586756E+03  0.72762762793E+03 -0.50359384957E+03  0.15930632231E+04  0.89068057871E+03 0.  0.
        -24    2    4    4    0    0 -0.15778794534E+03  0.48563285056E+03 -0.51315451047E+03  0.72773068584E+03  0.74351181947E+02 0.  0.
         13    1    3    3    0    0  0.56543413290E+03 -0.41512803971E+03  0.38915788111E+03  0.80217884815E+03  0.00000000000E+00 0. -1.
        -13    1    3    3    0    0  0.41512173466E+03 -0.31249958822E+03  0.38125522583E+03  0.64446690718E+03  0.00000000000E+00 0.  1.
          2    1    4    4  502    0 -0.77011757236E+03  0.24782760160E+03  0.27290738336E+02  0.80947166706E+03  0.00000000000E+00 0. -1.
          1    1    5    5  503    0 -0.15762437306E+03  0.48780391585E+03 -0.51342517562E+03  0.72553670772E+03  0.00000000000E+00 0. -1.
         -2    1    5    5    0  503 -0.16357228008E+00 -0.21710652841E+01  0.27066514455E+00  0.21939781173E+01  0.00000000000E+00 0.  1.
         -1    1    4    4    0  502 -0.52650349863E+02 -0.58328242317E+01 -0.17730077429E+02  0.55860870248E+02  0.00000000000E+00 0.  1.
<mgrwt>
<rscale>  0 0.30279759E+04</rscale>
<asrwt>0</asrwt>
<pdfrwt beam="1">  1        2 0.25434833E+00 0.30279759E+04</pdfrwt>
<pdfrwt beam="2">  1       -2 0.21329921E+00 0.30279759E+04</pdfrwt>
<totfact> 0.96991762E-01</totfact>
</mgrwt>
</event>
<event>
12    1  0.2406360E-008  0.1772812E+04  0.7818608E-02  0.8720893E-01
          4   -1    0    0  501    0  0.00000000000E+00  0.00000000000E+00  0.13937973258E+04  0.13937973258E+04  0.00000000000E+00 0. -1.
         -4   -1    0    0    0  501 -0.00000000000E+00 -0.00000000000E+00 -0.56372329479E+03  0.56372329479E+03  0.00000000000E+00 0.  1.
         23    2    1    2    0    0 -0.21290269100E+03 -0.23911355838E+02 -0.36545926414E+03  0.43951696818E+03  0.11711269271E+03 0.  0.
        254    2    1    2    0    0  0.21290269100E+03  0.23911355838E+02  0.11955332952E+04  0.15180036524E+04  0.91056900899E+03 0.  0.
        -24    2    4    4    0    0 -0.16658214230E+03  0.32136824997E+03  0.23543056629E+03  0.43970965110E+03  0.83005201625E+02 0.  0.
         24    2    4    4    0    0  0.37948483331E+03 -0.29745689413E+03  0.96010272886E+03  0.10782940013E+04  0.91822441293E+02 0.  0.
         11    1    3    3    0    0 -0.47763021751E+02  0.27948829259E+02 -0.32299169908E+02  0.64075577878E+02  0.00000000000E+00 0. -1.
        -11    1    3    3    0    0 -0.16513966925E+03 -0.51860185097E+02 -0.33316009424E+03  0.37544139030E+03  0.00000000000E+00 0.  1.
          4    1    6    6  502    0  0.28672266625E+03 -0.20617041956E+03  0.77866108835E+03  0.85500246769E+03  0.00000000000E+00 0. -1.
          1    1    5    5  503    0 -0.17562677444E+03  0.30157238010E+03  0.22727890066E+03  0.41646892204E+03  0.00000000000E+00 0. -1.
         -2    1    5    5    0  503  0.90446321356E+01  0.19795869875E+02  0.81516656329E+01  0.23240729058E+02  0.00000000000E+00 0.  1.
         -3    1    6    6    0  502  0.92762167058E+02 -0.91286474576E+02  0.18144164051E+03  0.22329153363E+03  0.00000000000E+00 0.  1.
<mgrwt>
<rscale>  0 0.17728125E+04</rscale>
<asrwt>0</asrwt>
<pdfrwt beam="1">  1        4 0.21443036E+00 0.17728125E+04</pdfrwt>
<pdfrwt beam="2">  1       -4 0.86726661E-01 0.17728125E+04</pdfrwt>
<totfact> 0.23127743E-01</totfact>
</mgrwt>
</event>
<event>
12    1  0.2406360E-008  0.2193232E+04  0.7818608E-02  0.8521250E-01
         -2   -1    0    0    0  501 -0.00000000000E+00  0.00000000000E+00  0.10143856576E+04  0.10143856576E+04  0.00000000000E+00 0.  1.
          2   -1    0    0  501    0  0.00000000000E+00 -0.00000000000E+00 -0.11855123897E+04  0.11855123897E+04  0.00000000000E+00 0. -1.
         23    2    1    2    0    0 -0.42187606821E+03 -0.31628577316E+03  0.67617719925E+03  0.86234570803E+03  0.91697372593E+02 0.  0.
        254    2    1    2    0    0  0.42187606821E+03  0.31628577316E+03 -0.84730393139E+03  0.13375523393E+04  0.89056510201E+03 0.  0.
        -24    2    4    4    0    0 -0.38008535560E+02  0.10698163655E+03 -0.80867692092E+03  0.82016967573E+03  0.76355846048E+02 0.  0.
         24    2    4    4    0    0  0.45988460377E+03  0.20930413661E+03 -0.38627010464E+02  0.51738266354E+03  0.10435853681E+03 0.  0.
         11    1    3    3    0    0 -0.12315484201E+03 -0.91752322996E+02  0.13375554815E+03  0.20365694329E+03  0.00000000000E+00 0. -1.
        -11    1    3    3    0    0 -0.29872122620E+03 -0.22453345017E+03  0.54242165109E+03  0.65868876474E+03  0.00000000000E+00 0.  1.
          2    1    6    6  502    0  0.74699639303E+02  0.32060491943E+02  0.32322865969E+02  0.87479591449E+02  0.00000000000E+00 0. -1.
          1    1    5    5  503    0  0.23518114369E+02  0.34349169239E+02 -0.24837686814E+03  0.25184129081E+03  0.00000000000E+00 0. -1.
         -2    1    5    5    0  503 -0.61526649929E+02  0.72632467314E+02 -0.56030005278E+03  0.56832838492E+03  0.00000000000E+00 0.  1.
         -1    1    6    6    0  502  0.38518496447E+03  0.17724364467E+03 -0.70949876433E+02  0.42990307209E+03  0.00000000000E+00 0.  1.
<mgrwt>
<rscale>  0 0.21932321E+04</rscale>
<asrwt>0</asrwt>
<pdfrwt beam="1">  1        2 0.18238652E+00 0.21932321E+04</pdfrwt>
<pdfrwt beam="2">  1       -2 0.15605933E+00 0.21932321E+04</pdfrwt>
<totfact> 0.47634644E+00</totfact>
</mgrwt>
</event>
<event>
12    1  0.2406360E-008  0.1732836E+04  0.7818608E-02  0.8742855E-01
          2   -1    0    0  501    0  0.00000000000E+00  0.00000000000E+00  0.92206326351E+03  0.92206326351E+03  0.00000000000E+00 0.  1.
         -2   -1    0    0    0  501 -0.00000000000E+00 -0.00000000000E+00 -0.81413110485E+03  0.81413110485E+03  0.00000000000E+00 0. -1.
         23    2    1    2    0    0 -0.22988854366E+03 -0.16119661344E+03  0.60595370257E+03  0.67373698767E+03  0.88930018561E+02 0.  0.
        254    2    1    2    0    0  0.22988854366E+03  0.16119661344E+03 -0.49802154391E+03  0.10624573807E+04  0.89552059545E+03 0.  0.
        -24    2    4    4    0    0  0.56591803828E+03  0.44748938914E+02 -0.25986716290E+03  0.62935027234E+03  0.79278807723E+02 0.  0.
         24    2    4    4    0    0 -0.33602949462E+03  0.11644767453E+03 -0.23815438101E+03  0.43310710834E+03  0.66244818253E+02 0.  0.
         11    1    3    3    0    0 -0.35581256821E+02 -0.14127708742E+01  0.35528447197E+02  0.50302011081E+02  0.00000000000E+00 0. -1.
        -11    1    3    3    0    0 -0.19430728684E+03 -0.15978384257E+03  0.57042525537E+03  0.62343497659E+03  0.00000000000E+00 0.  1.
          4    1    6    6  502    0 -0.19664805720E+03  0.99750515674E+02 -0.16004805256E+03  0.27246284683E+03  0.00000000000E+00 0. -1.
          3    1    5    5  503    0  0.44778044759E+02  0.20650737116E+02 -0.77081044177E+01  0.49909328883E+02  0.00000000000E+00 0. -1.
         -4    1    5    5    0  503  0.52113999352E+03  0.24098201797E+02 -0.25215905848E+03  0.57944094346E+03  0.00000000000E+00 0.  1.
         -3    1    6    6    0  502 -0.13938143743E+03  0.16697158857E+02 -0.78106328449E+02  0.16064426151E+03  0.00000000000E+00 0.  1.
<mgrwt>
<rscale>  0 0.17328363E+04</rscale>
<asrwt>0</asrwt>
<pdfrwt beam="1">  1        2 0.14185589E+00 0.17328363E+04</pdfrwt>
<pdfrwt beam="2">  1       -2 0.12525094E+00 0.17328363E+04</pdfrwt>
<totfact> 0.12829581E+01</totfact>
</mgrwt>
</event>
<event>
12    1  0.2406360E-008  0.1633497E+04  0.7818608E-02  0.8800230E-01
         -1   -1    0    0    0  501 -0.00000000000E+00  0.00000000000E+00  0.35944064365E+03  0.35944064365E+03  0.00000000000E+00 0.  1.
          1   -1    0    0  501    0  0.00000000000E+00 -0.00000000000E+00 -0.18558782252E+04  0.18558782252E+04  0.00000000000E+00 0. -1.
         23    2    1    2    0    0  0.54189968533E+02  0.15542597995E+03 -0.12623446397E+04  0.12762865445E+04  0.91101955583E+02 0.  0.
        254    2    1    2    0    0 -0.54189968533E+02 -0.15542597995E+03 -0.23409294187E+03  0.93903232440E+03  0.89436480974E+03 0.  0.
        -24    2    4    4    0    0 -0.10678932443E+03  0.26245021042E+03  0.17681378588E+03  0.34346852875E+03  0.80146382357E+02 0.  0.
         24    2    4    4    0    0  0.52599355900E+02 -0.41787619037E+03 -0.41090672775E+03  0.59556379565E+03  0.92003766563E+02 0.  0.
         13    1    3    3    0    0 -0.17888120722E+02  0.84023813548E+02 -0.52183290804E+03  0.52885685211E+03  0.00000000000E+00 0. -1.
        -13    1    3    3    0    0  0.72078089254E+02  0.71402166400E+02 -0.74051173168E+03  0.74742969240E+03  0.00000000000E+00 0.  1.
          2    1    6    6  502    0  0.63572045098E+02 -0.35832705370E+03 -0.38477378922E+03  0.52961358669E+03  0.00000000000E+00 0. -1.
          3    1    5    5  503    0 -0.99915241864E+02  0.26544261107E+03  0.16141032984E+03  0.32633744791E+03  0.00000000000E+00 0. -1.
         -4    1    5    5    0  503 -0.68740825688E+01 -0.29924006555E+01  0.15403456037E+02  0.17131080840E+02  0.00000000000E+00 0.  1.
         -1    1    6    6    0  502 -0.10972689198E+02 -0.59549136668E+02 -0.26132938526E+02  0.65950208963E+02  0.00000000000E+00 0.  1.
<mgrwt>
<rscale>  0 0.16334969E+04</rscale>
<asrwt>0</asrwt>
<pdfrwt beam="1">  1        1 0.28551973E+00 0.16334969E+04</pdfrwt>
<pdfrwt beam="2">  1       -1 0.55298560E-01 0.16334969E+04</pdfrwt>
<totfact> 0.11811132E+01</totfact>
</mgrwt>
</event>
<event>
11    1  0.2406360E-008  0.1143166E+04  0.7818608E-02  0.9164111E-01
         -2   -1    0    0    0  501 -0.00000000000E+00  0.00000000000E+00  0.54171183675E+03  0.54171183675E+03  0.00000000000E+00 0.  1.
          2   -1    0    0  501    0  0.00000000000E+00 -0.00000000000E+00 -0.60310134627E+03  0.60310134627E+03  0.00000000000E+00 0. -1.
         23    2    1    2    0    0  0.10563283955E+03  0.16835494847E+03  0.20952002131E+02  0.21929881678E+03  0.90284545644E+02 0.  0.
        254    2    1    2    0    0 -0.10563283955E+03 -0.16835494847E+03 -0.82341511648E+02  0.92551436624E+03  0.90016389181E+03 0.  0.
        -24    2    4    4    0    0  0.28868908264E+03  0.91809705484E+02  0.17410536423E+03  0.35862847267E+03  0.80816428411E+02 0.  0.
         13    1    3    3    0    0  0.30913522781E+02  0.48822869894E+02 -0.35086239155E+02  0.67604457645E+02  0.00000000000E+00 0. -1.
        -13    1    3    3    0    0  0.74719316766E+02  0.11953207858E+03  0.56038241286E+02  0.15169435913E+03  0.00000000000E+00 0.  1.
          2    1    4    4  502    0 -0.14667168028E+02  0.11123274979E+02  0.17828551631E+02  0.25626359817E+02  0.00000000000E+00 0. -1.
          3    1    5    5  503    0  0.39269681126E+02 -0.10926376935E+02  0.41045997354E+02  0.57846931357E+02  0.00000000000E+00 0. -1.
         -4    1    5    5    0  503  0.24941940152E+03  0.10273608242E+03  0.13305936688E+03  0.30078154132E+03  0.00000000000E+00 0.  1.
         -1    1    4    4    0  502 -0.37965475416E+03 -0.27128792893E+03 -0.27427542751E+03  0.54125953375E+03  0.00000000000E+00 0.  1.
<mgrwt>
<rscale>  0 0.11431660E+04</rscale>
<asrwt>0</asrwt>
<pdfrwt beam="1">  1        2 0.92784823E-01 0.11431660E+04</pdfrwt>
<pdfrwt beam="2">  1       -2 0.83340282E-01 0.11431660E+04</pdfrwt>
<totfact> 0.61541315E+01</totfact>
</mgrwt>
</event>
<event>
11    1  0.2406360E-008  0.2723263E+04  0.7818608E-02  0.8327496E-01
         -2   -1    0    0    0  501 -0.00000000000E+00  0.00000000000E+00  0.10829662059E+04  0.10829662059E+04  0.00000000000E+00 0.  1.
          2   -1    0    0  501    0  0.00000000000E+00 -0.00000000000E+00 -0.17120024128E+04  0.17120024128E+04  0.00000000000E+00 0. -1.
         23    2    1    2    0    0  0.10552386502E+03 -0.99166978978E+03 -0.98853939201E+03  0.14071781175E+04  0.91628962078E+02 0.  0.
        254    2    1    2    0    0 -0.10552386502E+03  0.99166978978E+03  0.35950318517E+03  0.13877905013E+04  0.89564260573E+03 0.  0.
        -24    2    4    4    0    0 -0.41832412965E+03  0.53031802417E+03 -0.55545028644E+02  0.68266587706E+03  0.81946112102E+02 0.  0.
         11    1    3    3    0    0  0.12388937892E+02 -0.12131364169E+03 -0.16640872922E+03  0.20630644828E+03  0.00000000000E+00 0.  1.
        -11    1    3    3    0    0  0.93134927124E+02 -0.87035614809E+03 -0.82213066280E+03  0.12008716692E+04  0.00000000000E+00 0. -1.
          2    1    4    4  502    0  0.80058938538E+02  0.20471532085E+03  0.12228747161E+03  0.25153930496E+03  0.00000000000E+00 0. -1.
          1    1    5    5  503    0 -0.62170939651E+02  0.44751256712E+02 -0.21323547704E+02  0.79514743293E+02  0.00000000000E+00 0. -1.
         -2    1    5    5    0  503 -0.35615319000E+03  0.48556676746E+03 -0.34221480940E+02  0.60315113377E+03  0.00000000000E+00 0.  1.
         -1    1    4    4    0  502  0.23274132610E+03  0.25663644476E+03  0.29276074221E+03  0.45358531924E+03  0.00000000000E+00 0.  1.
<mgrwt>
<rscale>  0 0.27232633E+04</rscale>
<asrwt>0</asrwt>
<pdfrwt beam="1">  1        2 0.26338498E+00 0.27232633E+04</pdfrwt>
<pdfrwt beam="2">  1       -2 0.16661019E+00 0.27232633E+04</pdfrwt>
<totfact> 0.19062598E+00</totfact>
</mgrwt>
</event>
<event>
11    1  0.2406360E-008  0.1552508E+04  0.7818608E-02  0.8850267E-01
          2   -1    0    0  501    0  0.00000000000E+00  0.00000000000E+00  0.91800035425E+03  0.91800035425E+03  0.00000000000E+00 0. -1.
         -2   -1    0    0    0  501 -0.00000000000E+00 -0.00000000000E+00 -0.65639450921E+03  0.65639450921E+03  0.00000000000E+00 0.  1.
         23    2    1    2    0    0 -0.48738796137E+03 -0.12341569423E+03 -0.50158885920E+01  0.51102751603E+03  0.91353732974E+02 0.  0.
        254    2    1    2    0    0  0.48738796137E+03  0.12341569423E+03  0.26662173364E+03  0.10633673474E+04  0.89826750374E+03 0.  0.
        -24    2    4    4    0    0  0.68058427833E+03  0.26494213169E+03  0.25159980459E+03  0.77732502302E+03  0.86847203095E+02 0.  0.
         11    1    3    3    0    0 -0.40382524797E+03 -0.66006282283E+02 -0.12435987454E+02  0.40937307432E+03  0.00000000000E+00 0.  1.
        -11    1    3    3    0    0 -0.83562713401E+02 -0.57409411944E+02  0.74200988617E+01  0.10165444170E+03  0.00000000000E+00 0. -1.
          4    1    4    4  502    0 -0.10430326987E+03  0.14918280521E+02  0.12355425429E+02  0.10608668030E+03  0.00000000000E+00 0. -1.
          3    1    5    5  503    0  0.25552623427E+03  0.58223308073E+02  0.73054348466E+02  0.27206717522E+03  0.00000000000E+00 0. -1.
         -4    1    5    5    0  503  0.42505804407E+03  0.20671882362E+03  0.17854545612E+03  0.50525784780E+03  0.00000000000E+00 0.  1.
         -3    1    4    4    0  502 -0.88893047097E+02 -0.15644471799E+03  0.26665036249E+01  0.17995564412E+03  0.00000000000E+00 0.  1.
<mgrwt>
<rscale>  0 0.15525082E+04</rscale>
<asrwt>0</asrwt>
<pdfrwt beam="1">  1        2 0.14123082E+00 0.15525082E+04</pdfrwt>
<pdfrwt beam="2">  1       -2 0.10098377E+00 0.15525082E+04</pdfrwt>
<totfact> 0.22149135E+01</totfact>
</mgrwt>
</event>
<event>
11    1  0.2406360E-008  0.1638130E+04  0.7818608E-02  0.8797460E-01
          1   -1    0    0  501    0  0.00000000000E+00  0.00000000000E+00  0.27127034093E+04  0.27127034093E+04  0.00000000000E+00 0. -1.
         -1   -1    0    0    0  501 -0.00000000000E+00 -0.00000000000E+00 -0.24730585469E+03  0.24730585469E+03  0.00000000000E+00 0.  1.
         23    2    1    2    0    0  0.83227636596E+02  0.45942557422E+03  0.14381628751E+04  0.15147282912E+04  0.89948003360E+02 0.  0.
        254    2    1    2    0    0 -0.83227636596E+02 -0.45942557422E+03  0.10272346795E+04  0.14452809727E+04  0.90312086988E+03 0.  0.
        -24    2    4    4    0    0  0.46278433296E+02  0.23711324327E+03  0.10045692362E+03  0.27246283737E+03  0.76026447511E+02 0.  0.
         11    1    3    3    0    0  0.39666166026E+02  0.99506761489E+02  0.23787574992E+03  0.26088287163E+03  0.00000000000E+00 0.  1.
        -11    1    3    3    0    0  0.43561470570E+02  0.35991881273E+03  0.12002871252E+04  0.12538454196E+04  0.00000000000E+00 0. -1.
          4    1    4    4  502    0 -0.11104555321E+03 -0.69021642083E+03  0.89777042303E+03  0.11378583194E+04  0.00000000000E+00 0. -1.
          1    1    5    5  503    0  0.50276373403E+01  0.16674159524E+03  0.41749720259E+02  0.17196242573E+03  0.00000000000E+00 0. -1.
         -2    1    5    5    0  503  0.41250795956E+02  0.70371648029E+02  0.58707203362E+02  0.10050041164E+03  0.00000000000E+00 0.  1.
         -3    1    4    4    0  502 -0.18460516683E+02 -0.63223966623E+01  0.29007332871E+02  0.34959816018E+02  0.00000000000E+00 0.  1.
<mgrwt>
<rscale>  0 0.16381300E+04</rscale>
<asrwt>0</asrwt>
<pdfrwt beam="1">  1        1 0.41733897E+00 0.16381300E+04</pdfrwt>
<pdfrwt beam="2">  1       -1 0.38047056E-01 0.16381300E+04</pdfrwt>
<totfact> 0.61538826E+00</totfact>
</mgrwt>
</event>
<event>
12    1  0.2406360E-008  0.1831511E+04  0.7818608E-02  0.8689719E-01
          2   -1    0    0  501    0  0.00000000000E+00  0.00000000000E+00  0.92083225358E+03  0.92083225358E+03  0.00000000000E+00 0. -1.
         -2   -1    0    0    0  501 -0.00000000000E+00 -0.00000000000E+00 -0.91070704161E+03  0.91070704161E+03  0.00000000000E+00 0.  1.
         23    2    1    2    0    0  0.54872518441E+03 -0.19267298412E+03  0.36076513660E+03  0.69047627497E+03  0.91563069491E+02 0.  0.
        254    2    1    2    0    0 -0.54872518441E+03  0.19267298412E+03 -0.35063992462E+03  0.11410630202E+04  0.91698105354E+03 0.  0.
        -24    2    4    4    0    0 -0.10543158340E+03  0.48379361452E+03 -0.34468889194E+03  0.60834664620E+03  0.78122528666E+02 0.  0.
         24    2    4    4    0    0 -0.44329360102E+03 -0.29112063039E+03 -0.59510326820E+01  0.53271637402E+03  0.49908738913E+02 0.  0.
         13    1    3    3    0    0  0.36524434317E+03 -0.81596149997E+02  0.22870412849E+03  0.43859655756E+03  0.00000000000E+00 0. -1.
        -13    1    3    3    0    0  0.18348084124E+03 -0.11107683413E+03  0.13206100811E+03  0.25187971741E+03  0.00000000000E+00 0.  1.
          4    1    6    6  502    0 -0.40095831023E+03 -0.26480731197E+03  0.92627076402E+01  0.48059991341E+03  0.00000000000E+00 0. -1.
          3    1    5    5  503    0 -0.82602363017E+02  0.30942459499E+03 -0.26315173461E+03  0.41450641224E+03  0.00000000000E+00 0. -1.
         -4    1    5    5    0  503 -0.22829220379E+02  0.17436901953E+03 -0.81537157334E+02  0.19384023396E+03  0.00000000000E+00 0.  1.
         -3    1    6    6    0  502 -0.42335290782E+02 -0.26313318420E+02 -0.15213740322E+02  0.52116460610E+02  0.00000000000E+00 0.  1.
<mgrwt>
<rscale>  0 0.18315113E+04</rscale>
<asrwt>0</asrwt>
<pdfrwt beam="1">  1        2 0.14166650E+00 0.18315113E+04</pdfrwt>
<pdfrwt beam="2">  1       -2 0.14010877E+00 0.18315113E+04</pdfrwt>
<totfact> 0.95810232E+00</totfact>
</mgrwt>
</event>
<event>
11    1  0.2406360E-008  0.1527590E+04  0.7818608E-02  0.8866310E-01
          1   -1    0    0  501    0  0.00000000000E+00  0.00000000000E+00  0.14431596961E+04  0.14431596961E+04  0.00000000000E+00 0. -1.
         -1   -1    0    0    0  501 -0.00000000000E+00 -0.00000000000E+00 -0.40424006127E+03  0.40424006127E+03  0.00000000000E+00 0.  1.
         23    2    1    2    0    0 -0.34234746988E+02 -0.49646349528E+03  0.25350356536E+03  0.56580320375E+03  0.90670765314E+02 0.  0.
        254    2    1    2    0    0  0.34234746988E+02  0.49646349528E+03  0.78541606952E+03  0.12815965537E+04  0.88202228093E+03 0.  0.
        -24    2    4    4    0    0  0.44093116245E+03  0.18203520576E+03  0.33470070032E+03  0.58830275582E+03  0.80737027135E+02 0.  0.
         13    1    3    3    0    0  0.89129823306E+00 -0.43093585565E+03  0.22536095055E+03  0.48630655366E+03  0.00000000000E+00 0. -1.
        -13    1    3    3    0    0 -0.35126045221E+02 -0.65527639627E+02  0.28142614806E+02  0.79496650093E+02  0.00000000000E+00 0.  1.
          2    1    4    4  502    0 -0.22701224396E+03  0.11291203296E+03  0.25685457868E+03  0.36091267737E+03  0.00000000000E+00 0. -1.
          1    1    5    5  503    0  0.20582326138E+03  0.10153406798E+03  0.11547648022E+03  0.25691866294E+03  0.00000000000E+00 0. -1.
         -2    1    5    5    0  503  0.23510790107E+03  0.80501137786E+02  0.21922422010E+03  0.33138409288E+03  0.00000000000E+00 0.  1.
         -1    1    4    4    0  502 -0.17968417151E+03  0.20151625656E+03  0.19386079051E+03  0.33238112047E+03  0.00000000000E+00 0.  1.
<mgrwt>
<rscale>  0 0.15275902E+04</rscale>
<asrwt>0</asrwt>
<pdfrwt beam="1">  1        1 0.22202457E+00 0.15275902E+04</pdfrwt>
<pdfrwt beam="2">  1       -1 0.62190780E-01 0.15275902E+04</pdfrwt>
<totfact> 0.18136989E+01</totfact>
</mgrwt>
</event>
<event>
12    1  0.2406360E-008  0.1652483E+04  0.7818608E-02  0.8788939E-01
         -2   -1    0    0    0  501 -0.00000000000E+00  0.00000000000E+00  0.27230070550E+03  0.27230070550E+03  0.00000000000E+00 0.  1.
          2   -1    0    0  501    0  0.00000000000E+00 -0.00000000000E+00 -0.25070629942E+04  0.25070629942E+04  0.00000000000E+00 0. -1.
         23    2    1    2    0    0 -0.22911897449E+03  0.45768148554E+03 -0.13033449401E+04  0.14029991313E+04  0.87924301824E+02 0.  0.
        254    2    1    2    0    0  0.22911897449E+03 -0.45768148554E+03 -0.93141734864E+03  0.13763645685E+04  0.87457035238E+03 0.  0.
        -24    2    4    4    0    0  0.51928286874E+03 -0.47419042310E+03 -0.62913273463E+03  0.94682373309E+03  0.78459726121E+02 0.  0.
         24    2    4    4    0    0 -0.29016389425E+03  0.16508937566E+02 -0.30228461402E+03  0.42954083537E+03  0.93068312705E+02 0.  0.
         13    1    3    3    0    0 -0.13347875686E+03  0.32896160686E+03 -0.97415957318E+03  0.10368313225E+04  0.00000000000E+00 0. -1.
        -13    1    3    3    0    0 -0.95640217625E+02  0.12871987868E+03 -0.32918536691E+03  0.36616780878E+03  0.00000000000E+00 0.  1.
          2    1    6    6  502    0 -0.28719877414E+03  0.99653246843E+00 -0.29631205692E+03  0.41265598750E+03  0.00000000000E+00 0. -1.
          3    1    5    5  503    0  0.29393353931E+03 -0.22834918036E+03 -0.29737442087E+03  0.47641559577E+03  0.00000000000E+00 0. -1.
         -4    1    5    5    0  503  0.22534932943E+03 -0.24584124275E+03 -0.33175831375E+03  0.47040813732E+03  0.00000000000E+00 0.  1.
         -1    1    6    6    0  502 -0.29651201164E+01  0.15512405098E+02 -0.59725570917E+01  0.16884847865E+02  0.00000000000E+00 0.  1.
<mgrwt>
<rscale>  0 0.16524830E+04</rscale>
<asrwt>0</asrwt>
<pdfrwt beam="1">  1        2 0.38570200E+00 0.16524830E+04</pdfrwt>
<pdfrwt beam="2">  1       -2 0.41892416E-01 0.16524830E+04</pdfrwt>
<totfact> 0.17818160E+01</totfact>
</mgrwt>
</event>
<event>
11    1  0.2406360E-008  0.2198389E+04  0.7818608E-02  0.8519099E-01
         -1   -1    0    0    0  501 -0.00000000000E+00  0.00000000000E+00  0.13123466310E+04  0.13123466310E+04  0.00000000000E+00 0.  1.
          1   -1    0    0  501    0  0.00000000000E+00 -0.00000000000E+00 -0.92066266951E+03  0.92066266951E+03  0.00000000000E+00 0. -1.
         23    2    1    2    0    0 -0.43723269033E+03 -0.74145623646E+03 -0.16128234866E+03  0.88044768673E+03  0.90809454395E+02 0.  0.
        254    2    1    2    0    0  0.43723269033E+03  0.74145623646E+03  0.55296631019E+03  0.13525616138E+04  0.88471543609E+03 0.  0.
        -24    2    4    4    0    0 -0.51338038946E+02  0.18376439101E+03  0.55411245681E+03  0.59128022911E+03  0.78528650200E+02 0.  0.
         13    1    3    3    0    0 -0.24153953530E+03 -0.46180586231E+03 -0.13357371418E+03  0.53800366049E+03  0.00000000000E+00 0. -1.
        -13    1    3    3    0    0 -0.19569315503E+03 -0.27965037414E+03 -0.27708634478E+02  0.34244402624E+03  0.00000000000E+00 0.  1.
          2    1    4    4  502    0  0.34073957888E+03  0.45417435647E+03 -0.61220008018E+02  0.57107415987E+03  0.00000000000E+00 0. -1.
          3    1    5    5  503    0 -0.18353814566E+02  0.16669312931E+03  0.47855459475E+03  0.50708772616E+03  0.00000000000E+00 0. -1.
         -4    1    5    5    0  503 -0.32984224380E+02  0.17071261696E+02  0.75557862060E+02  0.84192502950E+02  0.00000000000E+00 0.  1.
         -1    1    4    4    0  502  0.14783115040E+03  0.10351748897E+03  0.60073861402E+02  0.19020722483E+03  0.00000000000E+00 0.  1.
<mgrwt>
<rscale>  0 0.21983890E+04</rscale>
<asrwt>0</asrwt>
<pdfrwt beam="1">  1        1 0.14164041E+00 0.21983890E+04</pdfrwt>
<pdfrwt beam="2">  1       -1 0.20189948E+00 0.21983890E+04</pdfrwt>
<totfact> 0.23305873E+00</totfact>
</mgrwt>
</event>
<event>
12    1  0.2406360E-008  0.1979724E+04  0.7818608E-02  0.8616159E-01
          2   -1    0    0  501    0  0.00000000000E+00  0.00000000000E+00  0.24919317861E+04  0.24919317861E+04  0.00000000000E+00 0. -1.
         -2   -1    0    0    0  501 -0.00000000000E+00 -0.00000000000E+00 -0.39319986489E+03  0.39319986489E+03  0.00000000000E+00 0.  1.
         23    2    1    2    0    0 -0.13741773445E+03  0.72975143290E+02 -0.28306656442E+03  0.33483550714E+03  0.88199385900E+02 0.  0.
        254    2    1    2    0    0  0.13741773445E+03 -0.72975143290E+02  0.23817984857E+04  0.25502961439E+04  0.89824127603E+03 0.  0.
        -24    2    4    4    0    0  0.19973735520E+02  0.14723535398E+03  0.22595211153E+04  0.22658985748E+04  0.82361890592E+02 0.  0.
         24    2    4    4    0    0  0.11744399893E+03 -0.22021049727E+03  0.12227737036E+03  0.28439756914E+03  0.60369413098E+02 0.  0.
         11    1    3    3    0    0 -0.96452681123E+02  0.85506129025E+02 -0.24791286832E+03  0.27941941249E+03  0.00000000000E+00 0.  1.
        -11    1    3    3    0    0 -0.40965053324E+02 -0.12530985735E+02 -0.35153696097E+02  0.55416094652E+02  0.00000000000E+00 0. -1.
          4    1    6    6  502    0 -0.11611248576E+01 -0.18434417503E+02 -0.33320611206E+01  0.18769086044E+02  0.00000000000E+00 0. -1.
          3    1    5    5  503    0  0.36787678012E+02  0.44935995822E+02  0.11748019140E+04  0.11762364193E+04  0.00000000000E+00 0. -1.
         -4    1    5    5    0  503 -0.16813942492E+02  0.10229935815E+03  0.10847192013E+04  0.10896621555E+04  0.00000000000E+00 0.  1.
         -3    1    6    6    0  502  0.11860512378E+03 -0.20177607976E+03  0.12560943148E+03  0.26562848309E+03  0.00000000000E+00 0.  1.
<mgrwt>
<rscale>  0 0.19797245E+04</rscale>
<asrwt>0</asrwt>
<pdfrwt beam="1">  1        2 0.38337411E+00 0.19797245E+04</pdfrwt>
<pdfrwt beam="2">  1       -2 0.60492288E-01 0.19797245E+04</pdfrwt>
<totfact> 0.83402071E+00</totfact>
</mgrwt>
</event>
<event>
12    1  0.2406360E-008  0.1975240E+04  0.7818608E-02  0.8618285E-01
          2   -1    0    0  501    0  0.00000000000E+00  0.00000000000E+00  0.26538952471E+04  0.26538952471E+04  0.00000000000E+00 0. -1.
         -2   -1    0    0    0  501 -0.00000000000E+00 -0.00000000000E+00 -0.36753279437E+03  0.36753279437E+03  0.00000000000E+00 0.  1.
         23    2    1    2    0    0  0.53399791531E+03 -0.52750275035E+03  0.12186530097E+04  0.14341823312E+04  0.91383127291E+02 0.  0.
        254    2    1    2    0    0 -0.53399791531E+03  0.52750275035E+03  0.10677094430E+04  0.15872457102E+04  0.90328985644E+03 0.  0.
        -24    2    4    4    0    0 -0.26474370647E+03  0.60637958288E+03  0.24008766940E+03  0.70836768735E+03  0.79732445317E+02 0.  0.
         24    2    4    4    0    0 -0.26925420883E+03 -0.78876832531E+02  0.82762177362E+03  0.87887802287E+03  0.93538202022E+02 0.  0.
         13    1    3    3    0    0  0.12412848962E+03 -0.17641966085E+03  0.31947708137E+03  0.38548331247E+03  0.00000000000E+00 0.  1.
        -13    1    3    3    0    0  0.40986942568E+03 -0.35108308950E+03  0.89917592832E+03  0.10486990187E+04  0.00000000000E+00 0. -1.
          4    1    6    6  502    0 -0.63387796196E+02  0.21210671469E+02  0.18582226495E+03  0.19747865567E+03  0.00000000000E+00 0. -1.
          3    1    5    5  503    0 -0.18156169864E+02  0.45441952997E+02 -0.33193231917E+01  0.49047278240E+02  0.00000000000E+00 0. -1.
         -4    1    5    5    0  503 -0.24658753661E+03  0.56093762989E+03  0.24340699259E+03  0.65932040911E+03  0.00000000000E+00 0.  1.
         -3    1    6    6    0  502 -0.20586641264E+03 -0.10008750400E+03  0.64179950867E+03  0.68139936721E+03  0.00000000000E+00 0.  1.
<mgrwt>
<rscale>  0 0.19752403E+04</rscale>
<asrwt>0</asrwt>
<pdfrwt beam="1">  1        2 0.40829156E+00 0.19752403E+04</pdfrwt>
<pdfrwt beam="2">  1       -2 0.56543509E-01 0.19752403E+04</pdfrwt>
<totfact> 0.77347924E+00</totfact>
</mgrwt>
</event>
<event>
11    1  0.2406360E-008  0.2269865E+04  0.7818608E-02  0.8489899E-01
         -1   -1    0    0    0  501 -0.00000000000E+00  0.00000000000E+00  0.14069662763E+04  0.14069662763E+04  0.00000000000E+00 0.  1.
          1   -1    0    0  501    0  0.00000000000E+00 -0.00000000000E+00 -0.91549572395E+03  0.91549572395E+03  0.00000000000E+00 0. -1.
         23    2    1    2    0    0 -0.61103026394E+03  0.30756510908E+03  0.89929168254E+03  0.11335037846E+04  0.90282996915E+02 0.  0.
        254    2    1    2    0    0  0.61103026394E+03 -0.30756510908E+03 -0.40782113019E+03  0.11889582157E+04  0.88280761477E+03 0.  0.
        -24    2    4    4    0    0 -0.48773758373E+02 -0.15695791008E+03 -0.45757019912E+03  0.49292587506E+03  0.81183533641E+02 0.  0.
         13    1    3    3    0    0 -0.41665651871E+03  0.20938072007E+03  0.67939497756E+03  0.82402698745E+03  0.00000000000E+00 0.  1.
        -13    1    3    3    0    0 -0.19437374523E+03  0.98184389008E+02  0.21989670499E+03  0.30947679710E+03  0.00000000000E+00 0. -1.
          4    1    4    4  502    0  0.43933323770E+03 -0.74545906052E+02 -0.37121877728E+02  0.44715637048E+03  0.00000000000E+00 0. -1.
          3    1    5    5  503    0 -0.45677786688E+02 -0.14793555221E+03 -0.45791451953E+03  0.48338090053E+03  0.00000000000E+00 0. -1.
         -4    1    5    5    0  503 -0.30959716849E+01 -0.90223578660E+01  0.34432040600E+00  0.95449745247E+01  0.00000000000E+00 0.  1.
         -3    1    4    4    0  502  0.22047078461E+03 -0.76061292950E+02  0.86870946664E+02  0.24887597017E+03  0.00000000000E+00 0.  1.
<mgrwt>
<rscale>  0 0.22698649E+04</rscale>
<asrwt>0</asrwt>
<pdfrwt beam="1">  1        1 0.14084550E+00 0.22698649E+04</pdfrwt>
<pdfrwt beam="2">  1       -1 0.21645635E+00 0.22698649E+04</pdfrwt>
<totfact> 0.18618073E+00</totfact>
</mgrwt>
</event>
<event>
11    1  0.2406360E-008  0.1327795E+04  0.7818608E-02  0.9007810E-01
         -1   -1    0    0    0  501 -0.00000000000E+00  0.00000000000E+00  0.13656250088E+03  0.13656250088E+03  0.00000000000E+00 0.  1.
          1   -1    0    0  501    0  0.00000000000E+00 -0.00000000000E+00 -0.32275302928E+04  0.32275302928E+04  0.00000000000E+00 0. -1.
         23    2    1    2    0    0 -0.17590432864E+03  0.76926438128E+02 -0.81317522447E+02  0.22728020061E+03  0.90464028288E+02 0.  0.
        254    2    1    2    0    0  0.17590432864E+03 -0.76926438128E+02 -0.30096502695E+04  0.31368125931E+04  0.86298232303E+03 0.  0.
        -24    2    4    4    0    0  0.26500421533E+03  0.21016951748E+03 -0.52251969914E+03  0.62764862723E+03  0.80731053831E+02 0.  0.
         13    1    3    3    0    0  0.73795175055E+01 -0.67022370669E+01 -0.83760772389E+01  0.13020596385E+02  0.00000000000E+00 0. -1.
        -13    1    3    3    0    0 -0.18328384614E+03  0.83628675194E+02 -0.72941445208E+02  0.21425960422E+03  0.00000000000E+00 0.  1.
          2    1    4    4  502    0  0.12784593301E+02 -0.17280879265E+03 -0.15429993639E+04  0.15526987350E+04  0.00000000000E+00 0. -1.
          3    1    5    5  503    0  0.74860867091E+01  0.33066913713E+02 -0.36551449575E+02  0.49854495712E+02  0.00000000000E+00 0. -1.
         -4    1    5    5    0  503  0.25751812862E+03  0.17710260377E+03 -0.48596824956E+03  0.57779413152E+03  0.00000000000E+00 0.  1.
         -1    1    4    4    0  502 -0.10188448000E+03 -0.11428716296E+03 -0.94413120643E+03  0.95646523086E+03  0.00000000000E+00 0.  1.
<mgrwt>
<rscale>  0 0.13277946E+04</rscale>
<asrwt>0</asrwt>
<pdfrwt beam="1">  1        1 0.49654309E+00 0.13277946E+04</pdfrwt>
<pdfrwt beam="2">  1       -1 0.21009617E-01 0.13277946E+04</pdfrwt>
<totfact> 0.75765916E+00</totfact>
</mgrwt>
</event>
<event>
11    1  0.2406360E-008  0.2773103E+04  0.7818608E-02  0.8311668E-01
          2   -1    0    0  501    0  0.00000000000E+00  0.00000000000E+00  0.19669130742E+04  0.19669130742E+04  0.00000000000E+00 0. -1.
         -2   -1    0    0    0  501 -0.00000000000E+00 -0.00000000000E+00 -0.97743256324E+03  0.97743256324E+03  0.00000000000E+00 0.  1.
         23    2    1    2    0    0  0.19599980629E+03  0.11943394058E+04  0.15970660949E+03  0.12244003969E+04  0.93742149186E+02 0.  0.
        254    2    1    2    0    0 -0.19599980629E+03 -0.11943394058E+04  0.82977390146E+03  0.17199452406E+04  0.89712003811E+03 0.  0.
        -24    2    4    4    0    0  0.14516150417E+03 -0.72105642928E+03  0.56964401608E+02  0.74185164633E+03  0.78132487624E+02 0.  0.
         13    1    3    3    0    0  0.18947451566E+03  0.11563296057E+04  0.17112407528E+03  0.11841799687E+04  0.00000000000E+00 0.  1.
        -13    1    3    3    0    0  0.65252906319E+01  0.38009800044E+02 -0.11417465788E+02  0.40220428171E+02  0.00000000000E+00 0. -1.
          4    1    4    4  502    0 -0.25115792622E+02 -0.78807090217E+01  0.59089825730E+01  0.26978226197E+02  0.00000000000E+00 0. -1.
          3    1    5    5  503    0  0.36723283453E+02 -0.68292341330E+02  0.13589790015E+02  0.78721825592E+02  0.00000000000E+00 0. -1.
         -4    1    5    5    0  503  0.10843822072E+03 -0.65276408795E+03  0.43374611593E+02  0.66312982074E+03  0.00000000000E+00 0.  1.
         -3    1    4    4    0  502 -0.31604551784E+03 -0.46540226745E+03  0.76690051728E+03  0.95111536803E+03  0.00000000000E+00 0.  1.
<mgrwt>
<rscale>  0 0.27731029E+04</rscale>
<asrwt>0</asrwt>
<pdfrwt beam="1">  1        2 0.30260201E+00 0.27731029E+04</pdfrwt>
<pdfrwt beam="2">  1       -2 0.15037424E+00 0.27731029E+04</pdfrwt>
<totfact> 0.18094482E+00</totfact>
</mgrwt>
</event>
<event>
12    1  0.2406360E-008  0.2883467E+04  0.7818608E-02  0.8277814E-01
          1   -1    0    0  501    0  0.00000000000E+00  0.00000000000E+00  0.11504609929E+04  0.11504609929E+04  0.00000000000E+00 0. -1.
         -1   -1    0    0    0  501 -0.00000000000E+00 -0.00000000000E+00 -0.18067502552E+04  0.18067502552E+04  0.00000000000E+00 0.  1.
         23    2    1    2    0    0  0.33701555712E+03  0.11871151781E+04 -0.74803306622E+03  0.14459225683E+04  0.91195797751E+02 0.  0.
        254    2    1    2    0    0 -0.33701555712E+03 -0.11871151781E+04  0.91743803951E+02  0.15112886798E+04  0.86761432462E+03 0.  0.
        -24    2    4    4    0    0 -0.30377227792E+03 -0.30574751113E+03  0.38108530650E+03  0.58081094503E+03  0.79725815431E+02 0.  0.
         24    2    4    4    0    0 -0.33243279202E+02 -0.88136766696E+03 -0.28934150255E+03  0.93047773476E+03  0.64468828139E+02 0.  0.
         13    1    3    3    0    0  0.31238940646E+02  0.11859104936E+03 -0.10786996917E+03  0.16332678485E+03  0.00000000000E+00 0. -1.
        -13    1    3    3    0    0  0.30577661647E+03  0.10685241287E+04 -0.64016309705E+03  0.12825957834E+04  0.00000000000E+00 0.  1.
          4    1    6    6  502    0 -0.30774391630E+02 -0.83289476109E+03 -0.25712756146E+03  0.87222435708E+03  0.00000000000E+00 0. -1.
          3    1    5    5  503    0 -0.12069849157E+03 -0.73511621900E+02  0.14427944975E+03  0.20196198663E+03  0.00000000000E+00 0. -1.
         -4    1    5    5    0  503 -0.18307378634E+03 -0.23223588923E+03  0.23680585674E+03  0.37884895840E+03  0.00000000000E+00 0.  1.
         -3    1    6    6    0  502 -0.24688875716E+01 -0.48472905873E+02 -0.32213941089E+02  0.58253377671E+02  0.00000000000E+00 0.  1.
<mgrwt>
<rscale>  0 0.28834671E+04</rscale>
<asrwt>0</asrwt>
<pdfrwt beam="1">  1        1 0.17699400E+00 0.28834671E+04</pdfrwt>
<pdfrwt beam="2">  1       -1 0.27796157E+00 0.28834671E+04</pdfrwt>
<totfact> 0.45835550E-01</totfact>
</mgrwt>
</event>
<event>
12    1  0.2406360E-008  0.2221035E+04  0.7818608E-02  0.8509724E-01
          1   -1    0    0  501    0  0.00000000000E+00  0.00000000000E+00  0.17446676815E+04  0.17446676815E+04  0.00000000000E+00 0. -1.
         -1   -1    0    0    0  501 -0.00000000000E+00 -0.00000000000E+00 -0.70686771380E+03  0.70686771380E+03  0.00000000000E+00 0.  1.
         23    2    1    2    0    0  0.68931734479E+03  0.25258701846E+03  0.10565552376E+04  0.12898084387E+04  0.91313934551E+02 0.  0.
        254    2    1    2    0    0 -0.68931734479E+03 -0.25258701846E+03 -0.18755269898E+02  0.11617269566E+04  0.90016618348E+03 0.  0.
        -24    2    4    4    0    0 -0.10920125400E+03  0.16120786929E+03 -0.31815892484E+03  0.38118303255E+03  0.78501667851E+02 0.  0.
         24    2    4    4    0    0 -0.58011609078E+03 -0.41379488775E+03  0.29940365494E+03  0.78054392407E+03  0.10883648701E+03 0.  0.
         11    1    3    3    0    0  0.44057803844E+03  0.15240550954E+03  0.59339799466E+03  0.75462416298E+03  0.00000000000E+00 0. -1.
        -11    1    3    3    0    0  0.24873930635E+03  0.10018150892E+03  0.46315724295E+03  0.53518427569E+03  0.00000000000E+00 0.  1.
          2    1    6    6  502    0 -0.14835755120E+03 -0.13777280947E+03  0.13093839491E+03  0.24111444024E+03  0.00000000000E+00 0. -1.
          3    1    5    5  503    0 -0.33241295932E+02  0.17323083889E+01 -0.52016474029E+02  0.61755147299E+02  0.00000000000E+00 0. -1.
         -4    1    5    5    0  503 -0.75959958072E+02  0.15947556090E+03 -0.26614245081E+03  0.31942788525E+03  0.00000000000E+00 0.  1.
         -1    1    6    6    0  502 -0.43175853958E+03 -0.27602207828E+03  0.16846526003E+03  0.53942948384E+03  0.00000000000E+00 0.  1.
<mgrwt>
<rscale>  0 0.22210351E+04</rscale>
<asrwt>0</asrwt>
<pdfrwt beam="1">  1        1 0.26841041E+00 0.22210351E+04</pdfrwt>
<pdfrwt beam="2">  1       -1 0.10874888E+00 0.22210351E+04</pdfrwt>
<totfact> 0.31701073E+00</totfact>
</mgrwt>
</event>
<event>
11    1  0.2406360E-008  0.1267355E+04  0.7818608E-02  0.9055861E-01
          1   -1    0    0  501    0  0.00000000000E+00  0.00000000000E+00  0.32655686125E+03  0.32655686125E+03  0.00000000000E+00 0. -1.
         -1   -1    0    0    0  501 -0.00000000000E+00 -0.00000000000E+00 -0.12296398661E+04  0.12296398661E+04  0.00000000000E+00 0.  1.
         23    2    1    2    0    0 -0.21100739684E+03  0.14864111956E+02 -0.25503906862E+03  0.34363978230E+03  0.91095060851E+02 0.  0.
        254    2    1    2    0    0  0.21100739684E+03 -0.14864111956E+02 -0.64804393618E+03  0.12125569450E+04  0.10027902763E+04 0.  0.
        -24    2    4    4    0    0 -0.10578017485E+03  0.46625736290E+02 -0.67504801369E+03  0.68967041802E+03  0.81191502212E+02 0.  0.
         13    1    3    3    0    0 -0.13331307259E+03  0.42871853781E+02 -0.20089276672E+03  0.24488420710E+03  0.00000000000E+00 0.  1.
        -13    1    3    3    0    0 -0.77694324246E+02 -0.28007741825E+02 -0.54146301906E+02  0.98755575196E+02  0.00000000000E+00 0. -1.
          4    1    4    4  502    0  0.53646889959E+02 -0.74062033531E+02 -0.17060410659E+03  0.19356894069E+03  0.00000000000E+00 0. -1.
          1    1    5    5  503    0 -0.10534375689E+02  0.42279356631E+02 -0.27411799494E+03  0.27755934900E+03  0.00000000000E+00 0. -1.
         -2    1    5    5    0  503 -0.95245799162E+02  0.43463796596E+01 -0.40093001875E+03  0.41211106902E+03  0.00000000000E+00 0.  1.
         -3    1    4    4    0  502  0.26314068173E+03  0.12572185285E+02  0.19760818410E+03  0.32931758630E+03  0.00000000000E+00 0.  1.
<mgrwt>
<rscale>  0 0.12673553E+04</rscale>
<asrwt>0</asrwt>
<pdfrwt beam="1">  1        1 0.50239517E-01 0.12673553E+04</pdfrwt>
<pdfrwt beam="2">  1       -1 0.18917536E+00 0.12673553E+04</pdfrwt>
<totfact> 0.13837434E+01</totfact>
</mgrwt>
</event>
<event>
12    1  0.2406360E-008  0.1484066E+04  0.7818608E-02  0.8895118E-01
          2   -1    0    0  501    0  0.00000000000E+00  0.00000000000E+00  0.13303079456E+04  0.13303079456E+04  0.00000000000E+00 0. -1.
         -2   -1    0    0    0  501 -0.00000000000E+00 -0.00000000000E+00 -0.41389911252E+03  0.41389911252E+03  0.00000000000E+00 0.  1.
         23    2    1    2    0    0  0.40895319579E+03 -0.64496205852E+02  0.54018283866E+03  0.68617143061E+03  0.87357060898E+02 0.  0.
        254    2    1    2    0    0 -0.40895319579E+03  0.64496205852E+02  0.37622599438E+03  0.10580356275E+04  0.89804839136E+03 0.  0.
        -24    2    4    4    0    0 -0.33434090119E+03 -0.34131339030E+03  0.40398687094E+03  0.63109036625E+03  0.82407462477E+02 0.  0.
         24    2    4    4    0    0 -0.74612294594E+02  0.40580959615E+03 -0.27760876558E+02  0.42694526122E+03  0.10612806872E+03 0.  0.
         13    1    3    3    0    0  0.25441830423E+02  0.17562740713E+02  0.41074064475E+02  0.51408320038E+02  0.00000000000E+00 0.  1.
        -13    1    3    3    0    0  0.38351136536E+03 -0.82058946565E+02  0.49910877419E+03  0.63476311057E+03  0.00000000000E+00 0. -1.
          4    1    6    6  502    0 -0.77185167499E+02  0.40499629343E+03 -0.13579375285E+02  0.41250932984E+03  0.00000000000E+00 0. -1.
          3    1    5    5  503    0 -0.18668699265E+03 -0.16608376273E+03  0.16180835888E+03  0.29768741067E+03  0.00000000000E+00 0. -1.
         -4    1    5    5    0  503 -0.14765390854E+03 -0.17522962758E+03  0.24217851205E+03  0.33340295558E+03  0.00000000000E+00 0.  1.
         -3    1    6    6    0  502  0.25728729053E+01  0.81330272768E+00 -0.14181501274E+02  0.14435931376E+02  0.00000000000E+00 0.  1.
<mgrwt>
<rscale>  0 0.14840664E+04</rscale>
<asrwt>0</asrwt>
<pdfrwt beam="1">  1        2 0.20466276E+00 0.14840664E+04</pdfrwt>
<pdfrwt beam="2">  1       -2 0.63676787E-01 0.14840664E+04</pdfrwt>
<totfact> 0.35034712E+01</totfact>
</mgrwt>
</event>
<event>
11    1  0.2406360E-008  0.1687378E+04  0.7818608E-02  0.8768596E-01
         -2   -1    0    0    0  501 -0.00000000000E+00  0.00000000000E+00  0.29360964046E+03  0.29360964046E+03  0.00000000000E+00 0.  1.
          2   -1    0    0  501    0  0.00000000000E+00 -0.00000000000E+00 -0.24243440878E+04  0.24243440878E+04  0.00000000000E+00 0. -1.
         23    2    1    2    0    0 -0.13419577844E+03  0.55784005056E+03 -0.10380928059E+04  0.11895601237E+04  0.90678471836E+02 0.  0.
        254    2    1    2    0    0  0.13419577844E+03 -0.55784005056E+03 -0.10926416414E+04  0.15283936045E+04  0.90162476945E+03 0.  0.
        -24    2    4    4    0    0  0.32183466423E+03 -0.16065745893E+03 -0.27012120952E+02  0.36908977398E+03  0.78161604200E+02 0.  0.
         11    1    3    3    0    0 -0.12768491055E+03  0.50711340228E+03 -0.88279355630E+03  0.10260564810E+04  0.00000000000E+00 0. -1.
        -11    1    3    3    0    0 -0.65108678914E+01  0.50726648280E+02 -0.15529924964E+03  0.16350364273E+03  0.00000000000E+00 0.  1.
          2    1    4    4  502    0 -0.89617830706E+02 -0.24858690953E+03 -0.48911635512E+03  0.55593310390E+03  0.00000000000E+00 0. -1.
          1    1    5    5  503    0  0.21693728099E+03 -0.87620137408E+02 -0.49928318275E+02  0.23923191537E+03  0.00000000000E+00 0. -1.
         -2    1    5    5    0  503  0.10489738324E+03 -0.73037321519E+02  0.22916197323E+02  0.12985785862E+03  0.00000000000E+00 0.  1.
         -1    1    4    4    0  502 -0.98021055084E+02 -0.14859568210E+03 -0.57651316532E+03  0.60337072663E+03  0.00000000000E+00 0.  1.
<mgrwt>
<rscale>  0 0.16873776E+04</rscale>
<asrwt>0</asrwt>
<pdfrwt beam="1">  1        2 0.37297601E+00 0.16873776E+04</pdfrwt>
<pdfrwt beam="2">  1       -2 0.45170714E-01 0.16873776E+04</pdfrwt>
<totfact> 0.17064863E+01</totfact>
</mgrwt>
</event>
<event>
12    1  0.2406360E-008  0.1043789E+04  0.7818608E-02  0.9261780E-01
          1   -1    0    0  501    0  0.00000000000E+00  0.00000000000E+00  0.11047954249E+04  0.11047954249E+04  0.00000000000E+00 0. -1.
         -1   -1    0    0    0  501 -0.00000000000E+00 -0.00000000000E+00 -0.24653785986E+03  0.24653785986E+03  0.00000000000E+00 0.  1.
         23    2    1    2    0    0 -0.85869919886E+02  0.52030296777E+02  0.10169004069E+03  0.16905305333E+03  0.90317636922E+02 0.  0.
        254    2    1    2    0    0  0.85869919886E+02 -0.52030296777E+02  0.75656752437E+03  0.11822802315E+04  0.90294591856E+03 0.  0.
        -24    2    4    4    0    0  0.24347501638E+03 -0.30507564936E+03  0.77997094225E+03  0.87586411789E+03  0.80200042546E+02 0.  0.
         24    2    4    4    0    0 -0.15760509650E+03  0.25304535259E+03 -0.23403417874E+02  0.30641611357E+03  0.66871502000E+02 0.  0.
         13    1    3    3    0    0 -0.34340687994E+02  0.44021630497E+02  0.12077002831E+01  0.55844832737E+02  0.00000000000E+00 0.  1.
        -13    1    3    3    0    0 -0.51529231892E+02  0.80086662801E+01  0.10048234041E+03  0.11320822059E+03  0.00000000000E+00 0. -1.
          2    1    6    6  502    0 -0.20880019803E+02  0.19141533359E+02  0.16156809735E+02  0.32610060213E+02  0.00000000000E+00 0. -1.
          3    1    5    5  503    0  0.17529555811E+03 -0.15814007617E+03  0.44299969125E+03  0.50198161603E+03  0.00000000000E+00 0. -1.
         -4    1    5    5    0  503  0.68179458271E+02 -0.14693557320E+03  0.33697125099E+03  0.37388250186E+03  0.00000000000E+00 0.  1.
         -1    1    6    6    0  502 -0.13672507670E+03  0.23390381923E+03 -0.39560227609E+02  0.27380605336E+03  0.00000000000E+00 0.  1.
<mgrwt>
<rscale>  0 0.10437891E+04</rscale>
<asrwt>0</asrwt>
<pdfrwt beam="1">  1        1 0.16996852E+00 0.10437891E+04</pdfrwt>
<pdfrwt beam="2">  1       -1 0.37928902E-01 0.10437891E+04</pdfrwt>
<totfact> 0.84311366E+01</totfact>
</mgrwt>
</event>
<event>
12    1  0.2406360E-008  0.2185783E+04  0.7818608E-02  0.8524369E-01
          2   -1    0    0  501    0  0.00000000000E+00  0.00000000000E+00  0.97186350532E+03  0.97186350532E+03  0.00000000000E+00 0. -1.
         -2   -1    0    0    0  501 -0.00000000000E+00 -0.00000000000E+00 -0.12289917797E+04  0.12289917797E+04  0.00000000000E+00 0.  1.
         23    2    1    2    0    0 -0.53091866833E+02 -0.48576183874E+03  0.66280215543E+03  0.82791444473E+03  0.85745671945E+02 0.  0.
        254    2    1    2    0    0  0.53091866833E+02  0.48576183874E+03 -0.91993042985E+03  0.13729408403E+04  0.89437757404E+03 0.  0.
        -24    2    4    4    0    0 -0.25051073746E+03 -0.86333792126E+02 -0.57070349990E+03  0.63451684225E+03  0.81853436450E+02 0.  0.
         24    2    4    4    0    0  0.30360260429E+03  0.57209563087E+03 -0.34922692995E+03  0.73842399807E+03  0.61988709716E+02 0.  0.
         13    1    3    3    0    0 -0.93340731612E+01 -0.77674393525E+02  0.59717349381E+02  0.98420516908E+02  0.00000000000E+00 0.  1.
        -13    1    3    3    0    0 -0.43757793672E+02 -0.40808744522E+03  0.60308480605E+03  0.72949392783E+03  0.00000000000E+00 0. -1.
          4    1    6    6  502    0  0.14209408309E+03  0.25837892694E+03 -0.19380318510E+03  0.35285984879E+03  0.00000000000E+00 0. -1.
          3    1    5    5  503    0 -0.23729659382E+03 -0.55902515713E+02 -0.49132997496E+03  0.54848875011E+03  0.00000000000E+00 0. -1.
         -4    1    5    5    0  503 -0.13214143634E+02 -0.30431276413E+02 -0.79373524943E+02  0.86028092144E+02  0.00000000000E+00 0.  1.
         -3    1    6    6    0  502  0.16150852120E+03  0.31371670393E+03 -0.15542374485E+03  0.38556414928E+03  0.00000000000E+00 0.  1.
<mgrwt>
<rscale>  0 0.21857834E+04</rscale>
<asrwt>0</asrwt>
<pdfrwt beam="1">  1        2 0.14951746E+00 0.21857834E+04</pdfrwt>
<pdfrwt beam="2">  1       -2 0.18907566E+00 0.21857834E+04</pdfrwt>
<totfact> 0.37786808E+00</totfact>
</mgrwt>
</event>
<event>
12    1  0.2406360E-008  0.1274116E+04  0.7818608E-02  0.9050347E-01
          2   -1    0    0  501    0  0.00000000000E+00  0.00000000000E+00  0.48522284750E+03  0.48522284750E+03  0.00000000000E+00 0. -1.
         -2   -1    0    0    0  501 -0.00000000000E+00 -0.00000000000E+00 -0.83640495181E+03  0.83640495181E+03  0.00000000000E+00 0.  1.
         23    2    1    2    0    0  0.16724498093E+03 -0.11582408897E+03  0.14814616543E+03  0.26761244115E+03  0.91011148183E+02 0.  0.
        254    2    1    2    0    0 -0.16724498093E+03  0.11582408897E+03 -0.49932826974E+03  0.10540153582E+04  0.90566746162E+03 0.  0.
        -24    2    4    4    0    0  0.15701992087E+03 -0.13585061740E+03  0.15999449302E+03  0.27450034426E+03  0.81495738569E+02 0.  0.
         24    2    4    4    0    0 -0.32426490181E+03  0.25167470637E+03 -0.65932276276E+03  0.77951501390E+03  0.66702826271E+02 0.  0.
         13    1    3    3    0    0  0.10183429630E+02 -0.64433634399E+01 -0.12770894474E+02  0.17558898517E+02  0.00000000000E+00 0.  1.
        -13    1    3    3    0    0  0.15706155130E+03 -0.10938072553E+03  0.16091705991E+03  0.25005354264E+03  0.00000000000E+00 0. -1.
          2    1    6    6  502    0 -0.20383269182E+03  0.11803332740E+03 -0.35644937589E+03  0.42724207447E+03  0.00000000000E+00 0. -1.
          3    1    5    5  503    0  0.48094891185E+02 -0.11699341544E+02  0.71966110228E+02  0.87344800486E+02  0.00000000000E+00 0. -1.
         -4    1    5    5    0  503  0.10892502969E+03 -0.12415127586E+03  0.88028382789E+02  0.18715554377E+03  0.00000000000E+00 0.  1.
         -1    1    6    6    0  502 -0.12043220999E+03  0.13364137897E+03 -0.30287338687E+03  0.35227293943E+03  0.00000000000E+00 0.  1.
<mgrwt>
<rscale>  0 0.12741158E+04</rscale>
<asrwt>0</asrwt>
<pdfrwt beam="1">  1        2 0.74649669E-01 0.12741158E+04</pdfrwt>
<pdfrwt beam="2">  1       -2 0.12867768E+00 0.12741158E+04</pdfrwt>
<totfact> 0.27890394E+01</totfact>
</mgrwt>
</event>
<event>
12    1  0.2406360E-008  0.1302150E+04  0.7818608E-02  0.9027862E-01
         -1   -1    0    0    0  501 -0.00000000000E+00  0.00000000000E+00  0.55273305254E+03  0.55273305254E+03  0.00000000000E+00 0.  1.
          1   -1    0    0  501    0  0.00000000000E+00 -0.00000000000E+00 -0.76691444166E+03  0.76691444166E+03  0.00000000000E+00 0. -1.
         23    2    1    2    0    0  0.13113631104E+01 -0.86859937109E+02 -0.37682043321E+03  0.39694639123E+03  0.89590347012E+02 0.  0.
        254    2    1    2    0    0 -0.13113631104E+01  0.86859937109E+02  0.16263904408E+03  0.92270110298E+03  0.90409042602E+03 0.  0.
        -24    2    4    4    0    0 -0.49732466156E+02  0.36268726386E+03 -0.22360127348E+03  0.43692813002E+03  0.83025849887E+02 0.  0.
         24    2    4    4    0    0  0.48421103046E+02 -0.27582732675E+03  0.38624031756E+03  0.48577297296E+03  0.91479401774E+02 0.  0.
         11    1    3    3    0    0 -0.36292147900E+02 -0.69368684060E+02 -0.29505232561E+03  0.30526219742E+03  0.00000000000E+00 0. -1.
        -11    1    3    3    0    0  0.37603511010E+02 -0.17491253049E+02 -0.81768107597E+02  0.91684193804E+02  0.00000000000E+00 0.  1.
          4    1    6    6  502    0  0.32458672400E+02 -0.16909866771E+03  0.15971166106E+03  0.23485259103E+03  0.00000000000E+00 0. -1.
          1    1    5    5  503    0 -0.38441523267E+02  0.36154099547E+03 -0.22027884313E+03  0.42510282385E+03  0.00000000000E+00 0. -1.
         -2    1    5    5    0  503 -0.11290942890E+02  0.11462683855E+01 -0.33224303461E+01  0.11825306168E+02  0.00000000000E+00 0.  1.
         -3    1    6    6    0  502  0.15962430646E+02 -0.10672865904E+03  0.22652865650E+03  0.25092038193E+03  0.00000000000E+00 0.  1.
<mgrwt>
<rscale>  0 0.13021505E+04</rscale>
<asrwt>0</asrwt>
<pdfrwt beam="1">  1        1 0.11798684E+00 0.13021505E+04</pdfrwt>
<pdfrwt beam="2">  1       -1 0.85035854E-01 0.13021505E+04</pdfrwt>
<totfact> 0.31792440E+01</totfact>
</mgrwt>
</event>
<event>
12    1  0.2406360E-008  0.2253350E+04  0.7818608E-02  0.8496545E-01
          2   -1    0    0  501    0  0.00000000000E+00  0.00000000000E+00  0.15593431641E+04  0.15593431641E+04  0.00000000000E+00 0. -1.
         -2   -1    0    0    0  501 -0.00000000000E+00 -0.00000000000E+00 -0.81405831188E+03  0.81405831188E+03  0.00000000000E+00 0.  1.
         23    2    1    2    0    0 -0.78392206171E+03 -0.12642983657E+03 -0.22459573184E+03  0.83027395277E+03  0.91614908597E+02 0.  0.
        254    2    1    2    0    0  0.78392206171E+03  0.12642983657E+03  0.96988058411E+03  0.15431275232E+04  0.90003105677E+03 0.  0.
        -24    2    4    4    0    0  0.29264551087E+03  0.49037306440E+03  0.53760337429E+03  0.78844705477E+03  0.80772723167E+02 0.  0.
         24    2    4    4    0    0  0.49127655085E+03 -0.36394322783E+03  0.43227720981E+03  0.75468046847E+03  0.94189706852E+02 0.  0.
         11    1    3    3    0    0 -0.49604062419E+03 -0.70168731775E+02 -0.18611504494E+03  0.53443312184E+03  0.00000000000E+00 0.  1.
        -11    1    3    3    0    0 -0.28788143752E+03 -0.56261104800E+02 -0.38480686898E+02  0.29584083093E+03  0.00000000000E+00 0. -1.
          2    1    6    6  502    0  0.16365998581E+02 -0.23912232611E+02  0.46168037702E+02  0.54508058884E+02  0.00000000000E+00 0. -1.
          1    1    5    5  503    0  0.20578204998E+03  0.27090160922E+03  0.30101603431E+03  0.45425167791E+03  0.00000000000E+00 0. -1.
         -2    1    5    5    0  503  0.86863460888E+02  0.21947145518E+03  0.23658733999E+03  0.33419537686E+03  0.00000000000E+00 0.  1.
         -1    1    6    6    0  502  0.47491055226E+03 -0.34003099522E+03  0.38610917211E+03  0.70017240959E+03  0.00000000000E+00 0.  1.
<mgrwt>
<rscale>  0 0.22533497E+04</rscale>
<asrwt>0</asrwt>
<pdfrwt beam="1">  1        2 0.23989895E+00 0.22533497E+04</pdfrwt>
<pdfrwt beam="2">  1       -2 0.12523974E+00 0.22533497E+04</pdfrwt>
<totfact> 0.51047850E+00</totfact>
</mgrwt>
</event>
<event>
11    1  0.2406360E-008  0.1156018E+04  0.7818608E-02  0.9152249E-01
          2   -1    0    0  501    0  0.00000000000E+00  0.00000000000E+00  0.14794396124E+04  0.14794396124E+04  0.00000000000E+00 0.  1.
         -2   -1    0    0    0  501 -0.00000000000E+00 -0.00000000000E+00 -0.22582508231E+03  0.22582508231E+03  0.00000000000E+00 0. -1.
         23    2    1    2    0    0  0.71041492480E+02 -0.86110827460E+02  0.50612930734E+03  0.52616723668E+03  0.90681403533E+02 0.  0.
        254    2    1    2    0    0 -0.71041492480E+02  0.86110827460E+02  0.74748522278E+03  0.11790974581E+04  0.90502745211E+03 0.  0.
        -24    2    4    4    0    0 -0.13941911488E+03  0.32199952367E+03 -0.32468802018E+02  0.36104879118E+03  0.78616942638E+02 0.  0.
         11    1    3    3    0    0  0.10123578997E+02 -0.34336998543E+02  0.33916978079E+03  0.34105374433E+03  0.00000000000E+00 0. -1.
        -11    1    3    3    0    0  0.60917913483E+02 -0.51773828917E+02  0.16695952655E+03  0.18511349235E+03  0.00000000000E+00 0.  1.
          4    1    4    4  502    0  0.60328439552E+02 -0.21633488939E+03  0.68948544127E+03  0.72514169561E+03  0.00000000000E+00 0. -1.
          3    1    5    5  503    0 -0.11720292593E+03  0.30001823398E+03 -0.94558619011E+01  0.32223730369E+03  0.00000000000E+00 0. -1.
         -4    1    5    5    0  503 -0.22216188955E+02  0.21981289687E+02 -0.23012940117E+02  0.38811487485E+02  0.00000000000E+00 0.  1.
         -3    1    4    4    0  502  0.80491828507E+01 -0.19553806818E+02  0.90468583520E+02  0.92906971266E+02  0.00000000000E+00 0.  1.
<mgrwt>
<rscale>  0 0.11560183E+04</rscale>
<asrwt>0</asrwt>
<pdfrwt beam="1">  1        2 0.22760609E+00 0.11560183E+04</pdfrwt>
<pdfrwt beam="2">  1       -2 0.34742321E-01 0.11560183E+04</pdfrwt>
<totfact> 0.10017654E+02</totfact>
</mgrwt>
</event>
<event>
12    1  0.2406360E-008  0.2971540E+04  0.7818608E-02  0.8251905E-01
          1   -1    0    0  501    0  0.00000000000E+00  0.00000000000E+00  0.18285004500E+04  0.18285004500E+04  0.00000000000E+00 0. -1.
         -1   -1    0    0    0  501 -0.00000000000E+00 -0.00000000000E+00 -0.12072798789E+04  0.12072798789E+04  0.00000000000E+00 0.  1.
         23    2    1    2    0    0  0.44214424307E+03 -0.41460737984E+03  0.15162462029E+04  0.16354184388E+04  0.90554464498E+02 0.  0.
        254    2    1    2    0    0 -0.44214424307E+03  0.41460737984E+03 -0.89502563182E+03  0.14003618900E+04  0.89025374490E+03 0.  0.
        -24    2    4    4    0    0 -0.66140428866E+03  0.22572931401E+03 -0.36413255771E+03  0.79194394655E+03  0.78570596471E+02 0.  0.
         24    2    4    4    0    0  0.21926004559E+03  0.18887806584E+03 -0.53089307411E+03  0.60841794347E+03  0.67639089698E+02 0.  0.
         13    1    3    3    0    0  0.44189348976E+03 -0.41616080241E+03  0.15167995459E+04  0.16337504498E+04  0.00000000000E+00 0. -1.
        -13    1    3    3    0    0  0.25075330737E+00  0.15534225620E+01 -0.55334299050E+00  0.16679890115E+01  0.00000000000E+00 0.  1.
          2    1    6    6  502    0  0.11673568534E+03  0.14018137730E+03 -0.35407814215E+03  0.39830813389E+03  0.00000000000E+00 0. -1.
          3    1    5    5  503    0 -0.53100562366E+03  0.15126210460E+03 -0.26890735619E+03  0.61413220308E+03  0.00000000000E+00 0. -1.
         -4    1    5    5    0  503 -0.13039866500E+03  0.74467209407E+02 -0.95225201518E+02  0.17781174346E+03  0.00000000000E+00 0.  1.
         -1    1    6    6    0  502  0.10252436025E+03  0.48696688531E+02 -0.17681493196E+03  0.21010980958E+03  0.00000000000E+00 0.  1.
<mgrwt>
<rscale>  0 0.29715395E+04</rscale>
<asrwt>0</asrwt>
<pdfrwt beam="1">  1        1 0.28130776E+00 0.29715395E+04</pdfrwt>
<pdfrwt beam="2">  1       -1 0.18573536E+00 0.29715395E+04</pdfrwt>
<totfact> 0.62953245E-01</totfact>
</mgrwt>
</event>
<event>
12    1  0.2406360E-008  0.1152795E+04  0.7818608E-02  0.9155209E-01
          2   -1    0    0  501    0  0.00000000000E+00  0.00000000000E+00  0.15231645323E+04  0.15231645323E+04  0.00000000000E+00 0. -1.
         -2   -1    0    0    0  501 -0.00000000000E+00 -0.00000000000E+00 -0.21812094289E+03  0.21812094289E+03  0.00000000000E+00 0.  1.
         23    2    1    2    0    0  0.13485625235E+03  0.10258023574E+03  0.25768398320E+03  0.32001837947E+03  0.85450654970E+02 0.  0.
        254    2    1    2    0    0 -0.13485625235E+03 -0.10258023574E+03  0.10473596062E+04  0.14212670957E+04  0.94568974781E+03 0.  0.
        -24    2    4    4    0    0 -0.69168777576E+02 -0.51796824676E+03  0.54396432442E+03  0.75850306332E+03  0.79713777831E+02 0.  0.
         24    2    4    4    0    0 -0.65687474778E+02  0.41538801101E+03  0.50339528176E+03  0.66276403239E+03  0.94801418202E+02 0.  0.
         13    1    3    3    0    0  0.13220683427E+03  0.63373318410E+02  0.17375003877E+03  0.22734093447E+03  0.00000000000E+00 0.  1.
        -13    1    3    3    0    0  0.26494180806E+01  0.39206917333E+02  0.83933944427E+02  0.92677444991E+02  0.00000000000E+00 0. -1.
          2    1    6    6  502    0  0.23144455576E+02  0.13494191650E+03  0.15763426956E+03  0.20879068368E+03  0.00000000000E+00 0. -1.
          3    1    5    5  503    0 -0.19854776611E+02 -0.20665240207E+02  0.34560142174E+02  0.44896188414E+02  0.00000000000E+00 0. -1.
         -4    1    5    5    0  503 -0.49314000965E+02 -0.49730300655E+03  0.50940418225E+03  0.71360687490E+03  0.00000000000E+00 0.  1.
         -1    1    6    6    0  502 -0.88831930354E+02  0.28044609452E+03  0.34576101220E+03  0.45397334871E+03  0.00000000000E+00 0.  1.
<mgrwt>
<rscale>  0 0.11527950E+04</rscale>
<asrwt>0</asrwt>
<pdfrwt beam="1">  1        2 0.23433300E+00 0.11527950E+04</pdfrwt>
<pdfrwt beam="2">  1       -2 0.33557069E-01 0.11527950E+04</pdfrwt>
<totfact> 0.10114051E+02</totfact>
</mgrwt>
</event>
<event>
11    1  0.2406360E-008  0.1857775E+04  0.7818608E-02  0.8676165E-01
         -2   -1    0    0    0  501 -0.00000000000E+00  0.00000000000E+00  0.37997198640E+03  0.37997198640E+03  0.00000000000E+00 0.  1.
          2   -1    0    0  501    0  0.00000000000E+00 -0.00000000000E+00 -0.22707785987E+04  0.22707785987E+04  0.00000000000E+00 0. -1.
         23    2    1    2    0    0 -0.27900101153E+03 -0.60031974546E+03 -0.10648010566E+04  0.12571533797E+04  0.91694977481E+02 0.  0.
        254    2    1    2    0    0  0.27900101153E+03  0.60031974546E+03 -0.82600555576E+03  0.13935972054E+04  0.90642298708E+03 0.  0.
        -24    2    4    4    0    0  0.11359526216E+03  0.55760548632E+03 -0.12934277011E+03  0.58884827676E+03  0.78644636877E+02 0.  0.
         11    1    3    3    0    0 -0.28056156448E+03 -0.58469664235E+03 -0.10111593778E+04  0.12012611050E+04  0.00000000000E+00 0. -1.
        -11    1    3    3    0    0  0.15605529559E+01 -0.15623103115E+02 -0.53641678738E+02  0.55892274728E+02  0.00000000000E+00 0.  1.
          4    1    4    4  502    0  0.13200165738E+03  0.23589805050E+02 -0.73693795497E+03  0.74903836079E+03  0.00000000000E+00 0. -1.
          3    1    5    5  503    0  0.10297492929E+03  0.49301371422E+03 -0.87605658245E+02  0.51121532629E+03  0.00000000000E+00 0. -1.
         -2    1    5    5    0  503  0.10620332870E+02  0.64591772091E+02 -0.41737111865E+02  0.77632950472E+02  0.00000000000E+00 0.  1.
         -3    1    4    4    0  502  0.33404091986E+02  0.19124454099E+02  0.40275169319E+02  0.55710567845E+02  0.00000000000E+00 0.  1.
<mgrwt>
<rscale>  0 0.18577753E+04</rscale>
<asrwt>0</asrwt>
<pdfrwt beam="1">  1        2 0.34935055E+00 0.18577753E+04</pdfrwt>
<pdfrwt beam="2">  1       -2 0.58457229E-01 0.18577753E+04</pdfrwt>
<totfact> 0.12115249E+01</totfact>
</mgrwt>
</event>
<event>
12    1  0.2406360E-008  0.1757144E+04  0.7818608E-02  0.8729428E-01
          2   -1    0    0  501    0  0.00000000000E+00  0.00000000000E+00  0.27013953212E+04  0.27013953212E+04  0.00000000000E+00 0.  1.
         -2   -1    0    0    0  501 -0.00000000000E+00 -0.00000000000E+00 -0.28573708495E+03  0.28573708495E+03  0.00000000000E+00 0. -1.
         23    2    1    2    0    0  0.49422023524E+03 -0.38693931424E+03  0.10623376746E+04  0.12373386155E+04  0.92031738487E+02 0.  0.
        254    2    1    2    0    0 -0.49422023524E+03  0.38693931424E+03  0.13533205617E+04  0.17497937906E+04  0.91450866216E+03 0.  0.
        -24    2    4    4    0    0 -0.69492205806E+03  0.35080402262E+03  0.12933362020E+04  0.15116831295E+04  0.80543302260E+02 0.  0.
         24    2    4    4    0    0  0.20070182282E+03  0.36135291618E+02  0.59984359727E+02  0.23811066115E+03  0.10729204331E+03 0.  0.
         13    1    3    3    0    0  0.10299453448E+03 -0.12899400820E+03  0.25159780325E+03  0.30091324811E+03  0.00000000000E+00 0. -1.
        -13    1    3    3    0    0  0.39122570076E+03 -0.25794530604E+03  0.81073987132E+03  0.93642536744E+03  0.00000000000E+00 0.  1.
          4    1    6    6  502    0  0.14780103576E+03 -0.24187077048E+02  0.45969118991E+02  0.15666308043E+03  0.00000000000E+00 0. -1.
          1    1    5    5  503    0 -0.60861053603E+03  0.32611630312E+03  0.11040004224E+04  0.13021426805E+04  0.00000000000E+00 0. -1.
         -4    1    5    5    0  503 -0.86311522023E+02  0.24687719501E+02  0.18933577954E+03  0.20954044894E+03  0.00000000000E+00 0.  1.
         -3    1    6    6    0  502  0.52900787059E+02  0.60322368666E+02  0.14015240736E+02  0.81447580724E+02  0.00000000000E+00 0.  1.
<mgrwt>
<rscale>  0 0.17571441E+04</rscale>
<asrwt>0</asrwt>
<pdfrwt beam="1">  1        2 0.41559926E+00 0.17571441E+04</pdfrwt>
<pdfrwt beam="2">  1       -2 0.43959553E-01 0.17571441E+04</pdfrwt>
<totfact> 0.12349747E+01</totfact>
</mgrwt>
</event>
<event>
12    1  0.2406360E-008  0.1406884E+04  0.7818608E-02  0.8948851E-01
          3   -1    0    0  501    0  0.00000000000E+00  0.00000000000E+00  0.31265902548E+03  0.31265902548E+03  0.00000000000E+00 0. -1.
         -3   -1    0    0    0  501 -0.00000000000E+00 -0.00000000000E+00 -0.15826518257E+04  0.15826518257E+04  0.00000000000E+00 0.  1.
         23    2    1    2    0    0 -0.35580482507E+03 -0.41018554830E+02 -0.35092895162E+03  0.50953059722E+03  0.90502513975E+02 0.  0.
        254    2    1    2    0    0  0.35580482507E+03  0.41018554830E+02 -0.91906384855E+03  0.13857802539E+04  0.97335962472E+03 0.  0.
        -24    2    4    4    0    0 -0.86056596627E+02  0.36954423547E+03 -0.67038459733E+03  0.77448326772E+03  0.80250506836E+02 0.  0.
         24    2    4    4    0    0  0.44186142170E+03 -0.32852568064E+03 -0.24867925122E+03  0.61129698620E+03  0.93123555095E+02 0.  0.
         13    1    3    3    0    0 -0.31158530343E+03 -0.57994613719E+02 -0.27283958922E+03  0.41819877807E+03  0.00000000000E+00 0. -1.
        -13    1    3    3    0    0 -0.44219521642E+02  0.16976058889E+02 -0.78089362396E+02  0.91331819149E+02  0.00000000000E+00 0.  1.
          4    1    6    6  502    0  0.36623809007E+02 -0.61925491930E+02 -0.17963153262E+02  0.74153521913E+02  0.00000000000E+00 0. -1.
          1    1    5    5  503    0 -0.33468853534E+02  0.33015543221E+02 -0.73436962482E+02  0.87196202381E+02  0.00000000000E+00 0. -1.
         -2    1    5    5    0  503 -0.52587743092E+02  0.33652869225E+03 -0.59694763485E+03  0.68728706534E+03  0.00000000000E+00 0.  1.
         -3    1    6    6    0  502  0.40523761269E+03 -0.26660018871E+03 -0.23071609796E+03  0.53714346428E+03  0.00000000000E+00 0.  1.
<mgrwt>
<rscale>  0 0.14068836E+04</rscale>
<asrwt>0</asrwt>
<pdfrwt beam="1">  1        3 0.48101387E-01 0.14068836E+04</pdfrwt>
<pdfrwt beam="2">  1       -3 0.24348490E+00 0.14068836E+04</pdfrwt>
<totfact> 0.87521668E-01</totfact>
</mgrwt>
</event>
<event>
12    1  0.2406360E-008  0.2254792E+04  0.7818608E-02  0.8495962E-01
          2   -1    0    0  501    0  0.00000000000E+00  0.00000000000E+00  0.18770845418E+04  0.18770845418E+04  0.00000000000E+00 0. -1.
         -2   -1    0    0    0  501 -0.00000000000E+00 -0.00000000000E+00 -0.67712531337E+03  0.67712531337E+03  0.00000000000E+00 0.  1.
         23    2    1    2    0    0 -0.45077613972E+03 -0.45679185447E+03 -0.28245807829E+03  0.70691646203E+03  0.89946605581E+02 0.  0.
        254    2    1    2    0    0  0.45077613972E+03  0.45679185447E+03  0.14824173067E+04  0.18472933931E+04  0.89614389615E+03 0.  0.
        -24    2    4    4    0    0  0.59809372997E+03 -0.14382968598E+02  0.77159180039E+03  0.97964880411E+03  0.80217787021E+02 0.  0.
         24    2    4    4    0    0 -0.14731759026E+03  0.47117482307E+03  0.71082550630E+03  0.86764458900E+03  0.61855041131E+02 0.  0.
         13    1    3    3    0    0 -0.41558240543E+03 -0.40616706363E+03 -0.22660235745E+03  0.62372193138E+03  0.00000000000E+00 0.  1.
        -13    1    3    3    0    0 -0.35193734287E+02 -0.50624790839E+02 -0.55855720836E+02  0.83194530654E+02  0.00000000000E+00 0. -1.
          2    1    6    6  502    0 -0.20529697713E+02  0.10344068113E+03  0.19382174763E+03  0.22065428356E+03  0.00000000000E+00 0. -1.
          1    1    5    5  503    0  0.37432911479E+03 -0.58991817206E+01  0.41826770556E+03  0.56134210606E+03  0.00000000000E+00 0. -1.
         -2    1    5    5    0  503  0.22376461518E+03 -0.84837868771E+01  0.35332409483E+03  0.41830669805E+03  0.00000000000E+00 0.  1.
         -1    1    6    6    0  502 -0.12678789254E+03  0.36773414194E+03  0.51700375868E+03  0.64699030544E+03  0.00000000000E+00 0.  1.
<mgrwt>
<rscale>  0 0.22547917E+04</rscale>
<asrwt>0</asrwt>
<pdfrwt beam="1">  1        2 0.28878223E+00 0.22547917E+04</pdfrwt>
<pdfrwt beam="2">  1       -2 0.10417313E+00 0.22547917E+04</pdfrwt>
<totfact> 0.53303927E+00</totfact>
</mgrwt>
</event>
<event>
11    1  0.2406360E-008  0.1676375E+04  0.7818608E-02  0.8774954E-01
         -2   -1    0    0    0  501 -0.00000000000E+00  0.00000000000E+00  0.93145345086E+03  0.93145345086E+03  0.00000000000E+00 0.  1.
          2   -1    0    0  501    0  0.00000000000E+00 -0.00000000000E+00 -0.75426052166E+03  0.75426052166E+03  0.00000000000E+00 0. -1.
         23    2    1    2    0    0 -0.53792723274E+03 -0.22505589627E+03 -0.45998533219E+02  0.59201997266E+03  0.91410714905E+02 0.  0.
        254    2    1    2    0    0  0.53792723274E+03  0.22505589627E+03  0.22319146242E+03  0.10936939999E+04  0.89796228889E+03 0.  0.
        -24    2    4    4    0    0  0.26119170196E+03  0.55225665591E+03  0.20790424668E+03  0.65018420514E+03  0.79415399365E+02 0.  0.
         13    1    3    3    0    0 -0.69920474847E+02 -0.47007794710E+02  0.20988742896E+02  0.86828180303E+02  0.00000000000E+00 0.  1.
        -13    1    3    3    0    0 -0.46800675789E+03 -0.17804810156E+03 -0.66987276115E+02  0.50519179236E+03  0.00000000000E+00 0. -1.
          2    1    4    4  502    0  0.13141218759E+03 -0.19903897030E+03 -0.40395919850E+02  0.24190391706E+03  0.00000000000E+00 0. -1.
          1    1    5    5  503    0  0.74538523872E+02  0.21904055160E+03  0.48962111442E+02  0.23649956267E+03  0.00000000000E+00 0. -1.
         -2    1    5    5    0  503  0.18665317808E+03  0.33321610431E+03  0.15894213524E+03  0.41368464247E+03  0.00000000000E+00 0.  1.
         -1    1    4    4    0  502  0.14532334319E+03 -0.12816178934E+03  0.55683135584E+02  0.20160587767E+03  0.00000000000E+00 0.  1.
<mgrwt>
<rscale>  0 0.16763753E+04</rscale>
<asrwt>0</asrwt>
<pdfrwt beam="1">  1        2 0.11604008E+00 0.16763753E+04</pdfrwt>
<pdfrwt beam="2">  1       -2 0.14330053E+00 0.16763753E+04</pdfrwt>
<totfact> 0.11988493E+01</totfact>
</mgrwt>
</event>
<event>
12    1  0.2406360E-008  0.1741557E+04  0.7818608E-02  0.8738011E-01
         -1   -1    0    0    0  501 -0.00000000000E+00  0.00000000000E+00  0.18239319689E+03  0.18239319689E+03  0.00000000000E+00 0.  1.
          1   -1    0    0  501    0  0.00000000000E+00 -0.00000000000E+00 -0.41572571518E+04  0.41572571518E+04  0.00000000000E+00 0. -1.
         23    2    1    2    0    0  0.51007376941E+02  0.39145231742E+03 -0.27573580772E+04  0.27877876540E+04  0.11357714948E+03 0.  0.
        254    2    1    2    0    0 -0.51007376941E+02 -0.39145231742E+03 -0.12175058778E+04  0.15518626947E+04  0.87756514940E+03 0.  0.
        -24    2    4    4    0    0  0.31779500207E+03 -0.31686073385E+03 -0.10097332751E+04  0.11079429855E+04  0.81129429318E+02 0.  0.
         24    2    4    4    0    0 -0.36880237901E+03 -0.74591583565E+02 -0.20777260265E+03  0.44391970916E+03  0.11097817201E+03 0.  0.
         11    1    3    3    0    0  0.57728348137E+02  0.26992916739E+03 -0.15573825840E+04  0.15816557244E+04  0.00000000000E+00 0.  1.
        -11    1    3    3    0    0 -0.67209711959E+01  0.12152315002E+03 -0.11999754932E+04  0.12061319296E+04  0.00000000000E+00 0. -1.
          4    1    6    6  502    0 -0.81441650205E+02 -0.17967706686E+02 -0.10373668598E+03  0.13310477411E+03  0.00000000000E+00 0. -1.
          1    1    5    5  503    0  0.32132650388E+02 -0.56032161387E+01 -0.92745585393E+02  0.98314021696E+02  0.00000000000E+00 0. -1.
         -2    1    5    5    0  503  0.28566235168E+03 -0.31125751771E+03 -0.91698768972E+03  0.10096289638E+04  0.00000000000E+00 0.  1.
         -3    1    6    6    0  502 -0.28736072881E+03 -0.56623876880E+02 -0.10403591667E+03  0.31081493505E+03  0.00000000000E+00 0.  1.
<mgrwt>
<rscale>  0 0.17415573E+04</rscale>
<asrwt>0</asrwt>
<pdfrwt beam="1">  1        1 0.63957799E+00 0.17415573E+04</pdfrwt>
<pdfrwt beam="2">  1       -1 0.28060493E-01 0.17415573E+04</pdfrwt>
<totfact> 0.76494982E-01</totfact>
</mgrwt>
</event>
<event>
11    1  0.2406360E-008  0.1727025E+04  0.7818608E-02  0.8746099E-01
          2   -1    0    0  501    0  0.00000000000E+00  0.00000000000E+00  0.24036432758E+04  0.24036432758E+04  0.00000000000E+00 0.  1.
         -2   -1    0    0    0  501 -0.00000000000E+00 -0.00000000000E+00 -0.31021832379E+03  0.31021832379E+03  0.00000000000E+00 0. -1.
         23    2    1    2    0    0 -0.59636647019E+03 -0.63083544505E+02  0.10321435516E+04  0.11972141773E+04  0.91482101570E+02 0.  0.
        254    2    1    2    0    0  0.59636647019E+03  0.63083544505E+02  0.10612814004E+04  0.15166474222E+04  0.90236837945E+03 0.  0.
        -24    2    4    4    0    0  0.49436551218E+03 -0.48283388314E+02  0.12043157531E+04  0.13052128553E+04  0.80471232908E+02 0.  0.
         13    1    3    3    0    0 -0.31037891699E+03  0.10170894253E+02  0.49713919705E+03  0.58616200870E+03  0.00000000000E+00 0.  1.
        -13    1    3    3    0    0 -0.28598755320E+03 -0.73254438758E+02  0.53500435457E+03  0.61105216864E+03  0.00000000000E+00 0. -1.
          4    1    4    4  502    0  0.71338174284E+02  0.86496491008E+02 -0.12534182488E+03  0.16817060127E+03  0.00000000000E+00 0. -1.
          3    1    5    5  503    0  0.25406328698E+03  0.15077914264E+02  0.59244669116E+03  0.64480119351E+03  0.00000000000E+00 0. -1.
         -2    1    5    5    0  503  0.24030222520E+03 -0.63361302578E+02  0.61186906192E+03  0.66041166180E+03  0.00000000000E+00 0.  1.
         -3    1    4    4    0  502  0.30662783732E+02  0.24870441811E+02 -0.17692527845E+02  0.43263965648E+02  0.00000000000E+00 0.  1.
<mgrwt>
<rscale>  0 0.17270254E+04</rscale>
<asrwt>0</asrwt>
<pdfrwt beam="1">  1        2 0.36979126E+00 0.17270254E+04</pdfrwt>
<pdfrwt beam="2">  1       -2 0.47725897E-01 0.17270254E+04</pdfrwt>
<totfact> 0.15645671E+01</totfact>
</mgrwt>
</event>
<event>
12    1  0.2406360E-008  0.2033800E+04  0.7818608E-02  0.8590979E-01
          2   -1    0    0  501    0  0.00000000000E+00  0.00000000000E+00  0.70912309621E+03  0.70912309621E+03  0.00000000000E+00 0. -1.
         -2   -1    0    0    0  501 -0.00000000000E+00 -0.00000000000E+00 -0.14582594861E+04  0.14582594861E+04  0.00000000000E+00 0.  1.
         23    2    1    2    0    0 -0.41720706509E+03  0.57148971693E+03 -0.67623690714E+03  0.98269904751E+03  0.87970629580E+02 0.  0.
        254    2    1    2    0    0  0.41720706509E+03 -0.57148971693E+03 -0.72899482706E+02  0.11846835348E+04  0.94736398035E+03 0.  0.
        -24    2    4    4    0    0 -0.74184190238E+02 -0.20500043043E+03  0.36033620537E+03  0.42784394926E+03  0.75364404475E+02 0.  0.
         24    2    4    4    0    0  0.49139125533E+03 -0.36648928650E+03 -0.43323568808E+03  0.75683958551E+03  0.96608663365E+02 0.  0.
         11    1    3    3    0    0 -0.40311026880E+03  0.51077629505E+03 -0.61568219224E+03  0.89579845626E+03  0.00000000000E+00 0.  1.
        -11    1    3    3    0    0 -0.14096796294E+02  0.60713421878E+02 -0.60554714904E+02  0.86900591247E+02  0.00000000000E+00 0. -1.
          2    1    6    6  502    0  0.23785598744E+03 -0.16422757627E+03 -0.14705477329E+03  0.32430120862E+03  0.00000000000E+00 0. -1.
          1    1    5    5  503    0 -0.59641151807E+02 -0.69307367330E+02  0.11304002398E+03  0.14539128301E+03  0.00000000000E+00 0. -1.
         -2    1    5    5    0  503 -0.14543038431E+02 -0.13569306310E+03  0.24729618139E+03  0.28245266625E+03  0.00000000000E+00 0.  1.
         -1    1    6    6    0  502  0.25353526789E+03 -0.20226171022E+03 -0.28618091479E+03  0.43253837689E+03  0.00000000000E+00 0.  1.
<mgrwt>
<rscale>  0 0.20337999E+04</rscale>
<asrwt>0</asrwt>
<pdfrwt beam="1">  1        2 0.10909586E+00 0.20337999E+04</pdfrwt>
<pdfrwt beam="2">  1       -2 0.22434761E+00 0.20337999E+04</pdfrwt>
<totfact> 0.34628571E+00</totfact>
</mgrwt>
</event>
<event>
12    1  0.5060790E-008  0.2097797E+04  0.7818608E-02  0.8562214E-01
          1   -1    0    0  501    0  0.00000000000E+00  0.00000000000E+00  0.19982383704E+04  0.19982383704E+04  0.00000000000E+00 0. -1.
         -1   -1    0    0    0  501 -0.00000000000E+00 -0.00000000000E+00 -0.55057917937E+03  0.55057917937E+03  0.00000000000E+00 0.  1.
         23    2    1    2    0    0  0.71628192166E+03 -0.32253372555E+03  0.19224019295E+03  0.81397158413E+03  0.92226094846E+02 0.  0.
        254    2    1    2    0    0 -0.71628192166E+03  0.32253372555E+03  0.12554189981E+04  0.17348459657E+04  0.90361820939E+03 0.  0.
        -24    2    4    4    0    0 -0.54835154641E+03  0.35587604999E+03  0.23984778722E+03  0.70072472932E+03  0.78428335674E+02 0.  0.
         24    2    4    4    0    0 -0.16793037525E+03 -0.33342324435E+02  0.10155712109E+04  0.10341212364E+04  0.93324838781E+02 0.  0.
         11    1    3    3    0    0  0.11269915192E+03 -0.61235893617E+02 -0.16550881187E+01  0.12827187075E+03  0.00000000000E+00 0. -1.
        -11    1    3    3    0    0  0.60358276974E+03 -0.26129783193E+03  0.19389528107E+03  0.68569971338E+03  0.00000000000E+00 0.  1.
          4    1    6    6  502    0 -0.10493242406E+03 -0.50627290466E+01  0.36268989391E+03  0.37759820443E+03  0.00000000000E+00 0. -1.
          1    1    5    5  503    0 -0.10387980139E+03  0.88678822888E+02  0.22529442464E+02  0.13842876343E+03  0.00000000000E+00 0. -1.
         -2    1    5    5    0  503 -0.44447174502E+03  0.26719722710E+03  0.21731834475E+03  0.56229596589E+03  0.00000000000E+00 0.  1.
         -3    1    6    6    0  502 -0.62997951195E+02 -0.28279595388E+02  0.65288131699E+03  0.65652303192E+03  0.00000000000E+00 0.  1.
<mgrwt>
<rscale>  0 0.20977974E+04</rscale>
<asrwt>0</asrwt>
<pdfrwt beam="1">  1        1 0.30742128E+00 0.20977974E+04</pdfrwt>
<pdfrwt beam="2">  1       -1 0.84704490E-01 0.20977974E+04</pdfrwt>
<totfact> 0.37913217E+00</totfact>
</mgrwt>
</event>
<event>
12    1  0.2406360E-008  0.1613601E+04  0.7818608E-02  0.8812236E-01
         -4   -1    0    0    0  501 -0.00000000000E+00  0.00000000000E+00  0.46681047958E+03  0.46681047958E+03  0.00000000000E+00 0.  1.
          4   -1    0    0  501    0  0.00000000000E+00 -0.00000000000E+00 -0.13944142937E+04  0.13944142937E+04  0.00000000000E+00 0. -1.
         23    2    1    2    0    0 -0.21769153988E+03  0.32754659552E+03  0.12832225357E+03  0.42361681530E+03  0.91149474349E+02 0.  0.
        254    2    1    2    0    0  0.21769153988E+03 -0.32754659552E+03 -0.10559260677E+04  0.14376079580E+04  0.89278239324E+03 0.  0.
        -24    2    4    4    0    0  0.42224469508E+03  0.10565482765E+03 -0.28732724395E+03  0.52734350748E+03  0.77978873018E+02 0.  0.
         24    2    4    4    0    0 -0.20455315521E+03 -0.43320142317E+03 -0.76859882377E+03  0.91026445053E+03  0.91278429280E+02 0.  0.
         13    1    3    3    0    0 -0.98586911778E+02  0.11608861210E+03  0.92772187054E+02  0.17833290141E+03  0.00000000000E+00 0. -1.
        -13    1    3    3    0    0 -0.11910462810E+03  0.21145798342E+03  0.35550066516E+02  0.24528391389E+03  0.00000000000E+00 0.  1.
          4    1    6    6  502    0 -0.12559093837E+03 -0.17411200626E+03 -0.29783001044E+03  0.36713865180E+03  0.00000000000E+00 0. -1.
          1    1    5    5  503    0  0.22808075906E+03  0.29787203449E+02 -0.18467465898E+03  0.29497938879E+03  0.00000000000E+00 0. -1.
         -2    1    5    5    0  503  0.19416393603E+03  0.75867624206E+02 -0.10265258497E+03  0.23236411869E+03  0.00000000000E+00 0.  1.
         -3    1    6    6    0  502 -0.78962216836E+02 -0.25908941691E+03 -0.47076881333E+03  0.54312579873E+03  0.00000000000E+00 0.  1.
<mgrwt>
<rscale>  0 0.16136012E+04</rscale>
<asrwt>0</asrwt>
<pdfrwt beam="1">  1        4 0.21452528E+00 0.16136012E+04</pdfrwt>
<pdfrwt beam="2">  1       -4 0.71816997E-01 0.16136012E+04</pdfrwt>
<totfact> 0.35866050E-01</totfact>
</mgrwt>
</event>
<event>
11    1  0.2406360E-008  0.2036095E+04  0.7818608E-02  0.8589929E-01
          1   -1    0    0  501    0  0.00000000000E+00  0.00000000000E+00  0.19542562494E+04  0.19542562494E+04  0.00000000000E+00 0. -1.
         -1   -1    0    0    0  501 -0.00000000000E+00 -0.00000000000E+00 -0.53034007612E+03  0.53034007612E+03  0.00000000000E+00 0.  1.
         23    2    1    2    0    0  0.56548599823E+02 -0.77561268294E+03  0.87743713709E+03  0.11760130576E+04  0.91312672172E+02 0.  0.
        254    2    1    2    0    0 -0.56548599823E+02  0.77561268294E+03  0.54647903621E+03  0.13085832679E+04  0.89943207302E+03 0.  0.
        -24    2    4    4    0    0  0.36628525294E+03  0.55378981539E+03  0.42626245386E+03  0.79307274952E+03  0.80104059302E+02 0.  0.
         13    1    3    3    0    0  0.64986023815E+02 -0.58586835848E+03  0.71011247089E+03  0.92288928809E+03  0.00000000000E+00 0. -1.
        -13    1    3    3    0    0 -0.84374239912E+01 -0.18974432446E+03  0.16732466620E+03  0.25312376954E+03  0.00000000000E+00 0.  1.
          4    1    4    4  502    0 -0.33816684178E+02  0.80427335786E+02  0.16442976012E+02  0.88783421485E+02  0.00000000000E+00 0. -1.
          1    1    5    5  503    0  0.15797500470E+03  0.22108134785E+03  0.22013328893E+03  0.34970234396E+03  0.00000000000E+00 0. -1.
         -2    1    5    5    0  503  0.20831024824E+03  0.33270846754E+03  0.20612916494E+03  0.44337040557E+03  0.00000000000E+00 0.  1.
         -3    1    4    4    0  502 -0.38901716859E+03  0.14139553176E+03  0.10377360634E+03  0.42672709690E+03  0.00000000000E+00 0.  1.
<mgrwt>
<rscale>  0 0.20360947E+04</rscale>
<asrwt>0</asrwt>
<pdfrwt beam="1">  1        1 0.30065480E+00 0.20360947E+04</pdfrwt>
<pdfrwt beam="2">  1       -1 0.81590782E-01 0.20360947E+04</pdfrwt>
<totfact> 0.44264804E+00</totfact>
</mgrwt>
</event>
<event>
12    1  0.2406360E-008  0.5602245E+04  0.7818608E-02  0.7741775E-01
         -2   -1    0    0    0  501 -0.00000000000E+00  0.00000000000E+00  0.46993663803E+04  0.46993663803E+04  0.00000000000E+00 0.  1.
          2   -1    0    0  501    0  0.00000000000E+00 -0.00000000000E+00 -0.16696477967E+04  0.16696477967E+04  0.00000000000E+00 0. -1.
         23    2    1    2    0    0 -0.41608884729E+03 -0.26513847668E+04  0.91979443885E+03  0.28384689145E+04  0.88954249315E+02 0.  0.
        254    2    1    2    0    0  0.41608884729E+03  0.26513847668E+04  0.21099241448E+04  0.35305452625E+04  0.89999935755E+03 0.  0.
        -24    2    4    4    0    0 -0.25300935673E+03  0.11110486891E+04  0.74473509969E+03  0.13636394808E+04  0.80245503879E+02 0.  0.
         24    2    4    4    0    0  0.66909820403E+03  0.15403360777E+04  0.13651890451E+04  0.21669057817E+04  0.10682648982E+03 0.  0.
         13    1    3    3    0    0 -0.24119005827E+03 -0.14601103879E+04  0.55215690183E+03  0.15795481105E+04  0.00000000000E+00 0. -1.
        -13    1    3    3    0    0 -0.17489878902E+03 -0.11912743789E+04  0.36763753702E+03  0.12589208040E+04  0.00000000000E+00 0.  1.
          4    1    6    6  502    0  0.60458836652E+03  0.13562381151E+04  0.11647169737E+04  0.18871869400E+04  0.00000000000E+00 0. -1.
          1    1    5    5  503    0 -0.25673409376E+03  0.10695766084E+04  0.70804101491E+03  0.13081393637E+04  0.00000000000E+00 0. -1.
         -2    1    5    5    0  503  0.37247370311E+01  0.41472080711E+02  0.36694084780E+02  0.55500117137E+02  0.00000000000E+00 0.  1.
         -3    1    6    6    0  502  0.64509837513E+02  0.18409796262E+03  0.20047207136E+03  0.27971884165E+03  0.00000000000E+00 0.  1.
<mgrwt>
<rscale>  0 0.56022448E+04</rscale>
<asrwt>0</asrwt>
<pdfrwt beam="1">  1        2 0.25686889E+00 0.56022448E+04</pdfrwt>
<pdfrwt beam="2">  1       -2 0.72297944E+00 0.56022448E+04</pdfrwt>
<totfact> 0.13371234E-03</totfact>
</mgrwt>
</event>
<event>
11    1  0.2406360E-008  0.1517435E+04  0.7818608E-02  0.8872941E-01
          2   -1    0    0  501    0  0.00000000000E+00  0.00000000000E+00  0.89063615824E+03  0.89063615824E+03  0.00000000000E+00 0.  1.
         -2   -1    0    0    0  501 -0.00000000000E+00 -0.00000000000E+00 -0.64633856290E+03  0.64633856290E+03  0.00000000000E+00 0. -1.
         23    2    1    2    0    0 -0.45785154614E+02  0.40033538458E+02 -0.41530038902E+03  0.43261330981E+03  0.10478978061E+03 0.  0.
        254    2    1    2    0    0  0.45785154614E+02 -0.40033538458E+02  0.65959798436E+03  0.11043614113E+04  0.88365471836E+03 0.  0.
        -24    2    4    4    0    0 -0.19907907503E+03  0.23156510791E+03  0.62953904373E+03  0.70407284597E+03  0.78385505901E+02 0.  0.
         11    1    3    3    0    0 -0.11043333871E+02  0.63866529352E+02 -0.34182883586E+03  0.34791930361E+03  0.00000000000E+00 0. -1.
        -11    1    3    3    0    0 -0.34741820743E+02 -0.23832990894E+02 -0.73471553156E+02  0.84694006202E+02  0.00000000000E+00 0.  1.
          4    1    4    4  502    0  0.17594316483E+03 -0.26097707454E+03 -0.18537242437E+02  0.31529138911E+03  0.00000000000E+00 0. -1.
          1    1    5    5  503    0 -0.18068883438E+03  0.15998207737E+03  0.47756457750E+03  0.53508003666E+03  0.00000000000E+00 0. -1.
         -2    1    5    5    0  503 -0.18390240649E+02  0.71583030544E+02  0.15197446623E+03  0.16899280931E+03  0.00000000000E+00 0.  1.
         -3    1    4    4    0  502  0.68921064809E+02 -0.10621571829E+02  0.48596183059E+02  0.84997176250E+02  0.00000000000E+00 0.  1.
<mgrwt>
<rscale>  0 0.15174353E+04</rscale>
<asrwt>0</asrwt>
<pdfrwt beam="1">  1        2 0.13702095E+00 0.15174353E+04</pdfrwt>
<pdfrwt beam="2">  1       -2 0.99436703E-01 0.15174353E+04</pdfrwt>
<totfact> 0.24040071E+01</totfact>
</mgrwt>
</event>
<event>
12    1  0.2406360E-008  0.1853363E+04  0.7818608E-02  0.8678425E-01
          2   -1    0    0  501    0  0.00000000000E+00  0.00000000000E+00  0.55512813824E+03  0.55512813824E+03  0.00000000000E+00 0. -1.
         -2   -1    0    0    0  501 -0.00000000000E+00 -0.00000000000E+00 -0.15469198443E+04  0.15469198443E+04  0.00000000000E+00 0.  1.
         23    2    1    2    0    0  0.38246313583E+02 -0.53417296055E+03 -0.89386084298E+03  0.10459202350E+04  0.90323856711E+02 0.  0.
        254    2    1    2    0    0 -0.38246313583E+02  0.53417296055E+03 -0.97930863084E+02  0.10561277475E+04  0.90499272532E+03 0.  0.
        -24    2    4    4    0    0 -0.32507044673E+03  0.31732547006E+03 -0.37212807591E+03  0.59268653083E+03  0.80198314576E+02 0.  0.
         24    2    4    4    0    0  0.28682413315E+03  0.21684749049E+03  0.27419721282E+03  0.46344121670E+03  0.10150237600E+03 0.  0.
         13    1    3    3    0    0 -0.31655597084E+01 -0.35432863647E+03 -0.64730806475E+03  0.73794751445E+03  0.00000000000E+00 0.  1.
        -13    1    3    3    0    0  0.41411873291E+02 -0.17984432407E+03 -0.24655277823E+03  0.30797272055E+03  0.00000000000E+00 0. -1.
          4    1    6    6  502    0  0.28554585431E+02 -0.96025845478E+01  0.21186740687E+02  0.36830041543E+02  0.00000000000E+00 0. -1.
          1    1    5    5  503    0 -0.81185778471E+02  0.36049215171E+02 -0.78417034823E+02  0.11849011727E+03  0.00000000000E+00 0. -1.
         -2    1    5    5    0  503 -0.24388466826E+03  0.28127625489E+03 -0.29371104108E+03  0.47419641356E+03  0.00000000000E+00 0.  1.
         -3    1    6    6    0  502  0.25826954772E+03  0.22645007503E+03  0.25301047214E+03  0.42661117516E+03  0.00000000000E+00 0.  1.
<mgrwt>
<rscale>  0 0.18533631E+04</rscale>
<asrwt>0</asrwt>
<pdfrwt beam="1">  1        2 0.85404331E-01 0.18533631E+04</pdfrwt>
<pdfrwt beam="2">  1       -2 0.23798766E+00 0.18533631E+04</pdfrwt>
<totfact> 0.39005121E+00</totfact>
</mgrwt>
</event>
<event>
12    1  0.2406360E-008  0.1342414E+04  0.7818608E-02  0.8996591E-01
         -2   -1    0    0    0  501 -0.00000000000E+00  0.00000000000E+00  0.18762327025E+03  0.18762327025E+03  0.00000000000E+00 0.  1.
          2   -1    0    0  501    0  0.00000000000E+00 -0.00000000000E+00 -0.24011872075E+04  0.24011872075E+04  0.00000000000E+00 0. -1.
         23    2    1    2    0    0 -0.17108365485E+03 -0.27305114815E+03 -0.32156043856E+03  0.46873915196E+03  0.11175298864E+03 0.  0.
        254    2    1    2    0    0  0.17108365485E+03  0.27305114815E+03 -0.18920034987E+04  0.21200713258E+04  0.90066566547E+03 0.  0.
        -24    2    4    4    0    0 -0.25230742597E+02 -0.27676753499E+03 -0.27365700626E+03  0.39825051627E+03  0.80488867783E+02 0.  0.
         24    2    4    4    0    0  0.19631439744E+03  0.54981868314E+03 -0.16183464925E+04  0.17218208096E+04  0.69149140134E+02 0.  0.
         11    1    3    3    0    0 -0.12310723685E+03 -0.19410977521E+03 -0.15175708102E+03  0.27543458068E+03  0.00000000000E+00 0. -1.
        -11    1    3    3    0    0 -0.47976418000E+02 -0.78941372943E+02 -0.16980335753E+03  0.19330457128E+03  0.00000000000E+00 0.  1.
          2    1    6    6  502    0  0.62507429810E+02  0.18618509541E+03 -0.64311852588E+03  0.67243847813E+03  0.00000000000E+00 0. -1.
          3    1    5    5  503    0 -0.17189727523E+02 -0.30167193835E+02 -0.78834116995E+01  0.35604697671E+02  0.00000000000E+00 0. -1.
         -4    1    5    5    0  503 -0.80410150734E+01 -0.24660034116E+03 -0.26577359456E+03  0.36264581860E+03  0.00000000000E+00 0.  1.
         -1    1    6    6    0  502  0.13380696763E+03  0.36363358774E+03 -0.97522796659E+03  0.10493823314E+04  0.00000000000E+00 0.  1.
<mgrwt>
<rscale>  0 0.13424136E+04</rscale>
<asrwt>0</asrwt>
<pdfrwt beam="1">  1        2 0.36941341E+00 0.13424136E+04</pdfrwt>
<pdfrwt beam="2">  1       -2 0.28865119E-01 0.13424136E+04</pdfrwt>
<totfact> 0.42885392E+01</totfact>
</mgrwt>
</event>
<event>
12    1  0.2406360E-008  0.1288332E+04  0.7818608E-02  0.9038870E-01
          1   -1    0    0  501    0  0.00000000000E+00  0.00000000000E+00  0.55577930248E+03  0.55577930248E+03  0.00000000000E+00 0. -1.
         -1   -1    0    0    0  501 -0.00000000000E+00 -0.00000000000E+00 -0.74660867407E+03  0.74660867407E+03  0.00000000000E+00 0.  1.
         23    2    1    2    0    0  0.19483524004E+03 -0.93251914159E+02  0.18751831039E+03  0.30005987367E+03  0.90642819899E+02 0.  0.
        254    2    1    2    0    0 -0.19483524004E+03  0.93251914159E+02 -0.37834768199E+03  0.10023281029E+04  0.90269483608E+03 0.  0.
        -24    2    4    4    0    0  0.34328091173E+03 -0.62459706713E+02 -0.85576600960E+02  0.36791375655E+03  0.79335857605E+02 0.  0.
         24    2    4    4    0    0 -0.53811615177E+03  0.15571162087E+03 -0.29277108103E+03  0.63441434633E+03  0.54328217989E+02 0.  0.
         13    1    3    3    0    0  0.15846725914E+03 -0.64469106195E+02  0.18731053732E+03  0.25367967058E+03  0.00000000000E+00 0. -1.
        -13    1    3    3    0    0  0.36367980901E+02 -0.28782807965E+02  0.20777306754E+00  0.46380203091E+02  0.00000000000E+00 0.  1.
          4    1    6    6  502    0 -0.53690515637E+03  0.15298447644E+03 -0.29426094097E+03  0.63107915379E+03  0.00000000000E+00 0. -1.
          3    1    5    5  503    0  0.27212367039E+03 -0.24380047555E+02 -0.88399286039E+02  0.28715868867E+03  0.00000000000E+00 0. -1.
         -4    1    5    5    0  503  0.71157241345E+02 -0.38079659158E+02  0.28226850793E+01  0.80755067881E+02  0.00000000000E+00 0.  1.
         -3    1    6    6    0  502 -0.12109954046E+01  0.27271444313E+01  0.14898599453E+01  0.33351925395E+01  0.00000000000E+00 0.  1.
<mgrwt>
<rscale>  0 0.12883317E+04</rscale>
<asrwt>0</asrwt>
<pdfrwt beam="1">  1        1 0.85504508E-01 0.12883317E+04</pdfrwt>
<pdfrwt beam="2">  1       -1 0.11486287E+00 0.12883317E+04</pdfrwt>
<totfact> 0.25884045E+01</totfact>
</mgrwt>
</event>
<event>
11    1  0.2406360E-008  0.1799081E+04  0.7818608E-02  0.8706788E-01
         -2   -1    0    0    0  501 -0.00000000000E+00  0.00000000000E+00  0.26667255218E+04  0.26667255218E+04  0.00000000000E+00 0.  1.
          2   -1    0    0  501    0  0.00000000000E+00 -0.00000000000E+00 -0.30343320395E+03  0.30343320395E+03  0.00000000000E+00 0. -1.
         23    2    1    2    0    0  0.44117787426E+03  0.38244090291E+03  0.14100400326E+04  0.15289444272E+04  0.92515981876E+02 0.  0.
        254    2    1    2    0    0 -0.44117787426E+03 -0.38244090291E+03  0.95325228528E+03  0.14412142986E+04  0.90967564226E+03 0.  0.
        -24    2    4    4    0    0 -0.20130624834E+03  0.18702630587E+03  0.71017609543E+03  0.76558397738E+03  0.79156144370E+02 0.  0.
         11    1    3    3    0    0  0.41767223340E+03  0.36486337855E+03  0.13784010965E+04  0.14857876572E+04  0.00000000000E+00 0. -1.
        -11    1    3    3    0    0  0.23505640862E+02  0.17577524355E+02  0.31638936140E+02  0.43156769978E+02  0.00000000000E+00 0.  1.
          2    1    4    4  502    0 -0.11683855938E+03 -0.35427976430E+03  0.20246314508E+03  0.42444873126E+03  0.00000000000E+00 0. -1.
          1    1    5    5  503    0 -0.25353305793E+01  0.32245618313E+02  0.57473557897E+02  0.65950114927E+02  0.00000000000E+00 0. -1.
         -2    1    5    5    0  503 -0.19877091776E+03  0.15478068756E+03  0.65270253753E+03  0.69963386245E+03  0.00000000000E+00 0.  1.
         -1    1    4    4    0  502 -0.12303306654E+03 -0.21518744449E+03  0.40613044764E+02  0.25118158995E+03  0.00000000000E+00 0.  1.
<mgrwt>
<rscale>  0 0.17990810E+04</rscale>
<asrwt>0</asrwt>
<pdfrwt beam="1">  1        2 0.46682033E-01 0.17990810E+04</pdfrwt>
<pdfrwt beam="2">  1       -2 0.41026545E+00 0.17990810E+04</pdfrwt>
<totfact> 0.65365679E-01</totfact>
</mgrwt>
</event>
<event>
11    1  0.2406360E-008  0.1455489E+04  0.7818608E-02  0.8914604E-01
         -1   -1    0    0    0  501 -0.00000000000E+00  0.00000000000E+00  0.12353549761E+04  0.12353549761E+04  0.00000000000E+00 0. -1.
          1   -1    0    0  501    0  0.00000000000E+00 -0.00000000000E+00 -0.42871219582E+03  0.42871219582E+03  0.00000000000E+00 0.  1.
         23    2    1    2    0    0  0.43825823781E+03 -0.72348389926E+02  0.24874562977E+03  0.51740433881E+03  0.92348735529E+02 0.  0.
        254    2    1    2    0    0 -0.43825823781E+03  0.72348389926E+02  0.55789715050E+03  0.11466628331E+04  0.89793198503E+03 0.  0.
        -24    2    4    4    0    0  0.50278920025E+02  0.19572428467E+03 -0.81114878494E+02  0.23224415663E+03  0.80757410599E+02 0.  0.
         11    1    3    3    0    0  0.93884157070E+02 -0.55142366653E+02  0.60641887990E+02  0.12462886555E+03  0.00000000000E+00 0. -1.
        -11    1    3    3    0    0  0.34437408074E+03 -0.17206023273E+02  0.18810374178E+03  0.39277547326E+03  0.00000000000E+00 0.  1.
          4    1    4    4  502    0  0.76149189438E+02 -0.21029290640E+02  0.96289114193E+02  0.12454928193E+03  0.00000000000E+00 0. -1.
          1    1    5    5  503    0  0.19308874105E+02  0.54656318815E+01 -0.23820551514E+02  0.31146820472E+02  0.00000000000E+00 0. -1.
         -2    1    5    5    0  503  0.30970045920E+02  0.19025865279E+03 -0.57294326981E+02  0.20109733616E+03  0.00000000000E+00 0.  1.
         -3    1    4    4    0  502 -0.56468634727E+03 -0.10234660411E+03  0.54272291480E+03  0.78986939453E+03  0.00000000000E+00 0.  1.
<mgrwt>
<rscale>  0 0.14554886E+04</rscale>
<asrwt>0</asrwt>
<pdfrwt beam="1">  1        1 0.65955723E-01 0.14554886E+04</pdfrwt>
<pdfrwt beam="2">  1       -1 0.19005461E+00 0.14554886E+04</pdfrwt>
<totfact> 0.93686352E+00</totfact>
</mgrwt>
</event>
<event>
12    1  0.2406360E-008  0.2278362E+04  0.7818608E-02  0.8486502E-01
         -2   -1    0    0    0  501 -0.00000000000E+00  0.00000000000E+00  0.93760856665E+03  0.93760856665E+03  0.00000000000E+00 0.  1.
          2   -1    0    0  501    0  0.00000000000E+00 -0.00000000000E+00 -0.13840890662E+04  0.13840890662E+04  0.00000000000E+00 0. -1.
         23    2    1    2    0    0 -0.31889533243E+03  0.78439032929E+03 -0.66142142447E+03  0.10783956690E+04  0.92176442250E+02 0.  0.
        254    2    1    2    0    0  0.31889533243E+03 -0.78439032929E+03  0.21494092495E+03  0.12433019638E+04  0.88466815825E+03 0.  0.
        -24    2    4    4    0    0  0.35656849690E+03 -0.89105552711E+03 -0.19644739904E+02  0.96331439859E+03  0.80421821350E+02 0.  0.
         24    2    4    4    0    0 -0.37673164468E+02  0.10666519782E+03  0.23458566486E+03  0.27998756521E+03  0.10279042157E+03 0.  0.
         13    1    3    3    0    0 -0.19573326396E+03  0.49389636619E+03 -0.35785572697E+03  0.64055120988E+03  0.00000000000E+00 0. -1.
        -13    1    3    3    0    0 -0.12316206847E+03  0.29049396310E+03 -0.30356569750E+03  0.43784445915E+03  0.00000000000E+00 0.  1.
          2    1    6    6  502    0 -0.22200444429E+01  0.77289797549E+02  0.21757178430E+03  0.23090284261E+03  0.00000000000E+00 0. -1.
          1    1    5    5  503    0  0.15377429957E+03 -0.33921510176E+03 -0.43072674887E+02  0.37492489354E+03  0.00000000000E+00 0. -1.
         -2    1    5    5    0  503  0.20279419733E+03 -0.55184042535E+03  0.23427934982E+02  0.58838950505E+03  0.00000000000E+00 0.  1.
         -1    1    6    6    0  502 -0.35453120025E+02  0.29375400268E+02  0.17013880553E+02  0.49084722591E+02  0.00000000000E+00 0.  1.
<mgrwt>
<rscale>  0 0.22783624E+04</rscale>
<asrwt>0</asrwt>
<pdfrwt beam="1">  1        2 0.21293678E+00 0.22783624E+04</pdfrwt>
<pdfrwt beam="2">  1       -2 0.14424747E+00 0.22783624E+04</pdfrwt>
<totfact> 0.44592066E+00</totfact>
</mgrwt>
</event>
<event>
12    1  0.2406360E-008  0.1903833E+04  0.7818608E-02  0.8652951E-01
         -1   -1    0    0    0  501 -0.00000000000E+00  0.00000000000E+00  0.35924761224E+03  0.35924761224E+03  0.00000000000E+00 0.  1.
          1   -1    0    0  501    0  0.00000000000E+00 -0.00000000000E+00 -0.25223400287E+04  0.25223400287E+04  0.00000000000E+00 0. -1.
         23    2    1    2    0    0  0.10311464110E+03  0.16090219918E+03 -0.19449966829E+04  0.19562890822E+04  0.86791299848E+02 0.  0.
        254    2    1    2    0    0 -0.10311464110E+03 -0.16090219918E+03 -0.21809573361E+03  0.92529855880E+03  0.87868625060E+03 0.  0.
        -24    2    4    4    0    0 -0.35486485527E+02 -0.46650919425E+03 -0.33186320888E+03  0.57923059886E+03  0.80528120983E+02 0.  0.
         24    2    4    4    0    0 -0.67628155569E+02  0.30560699508E+03  0.11376747527E+03  0.34606795994E+03  0.94078645826E+02 0.  0.
         11    1    3    3    0    0 -0.14313196823E+02  0.22422148992E+02 -0.17597345450E+03  0.17797268626E+03  0.00000000000E+00 0.  1.
        -11    1    3    3    0    0  0.11742783792E+03  0.13848005019E+03 -0.17690232284E+04  0.17783163959E+04  0.00000000000E+00 0. -1.
          4    1    6    6  502    0 -0.83867245287E+02  0.16671552508E+03  0.73203773771E+02  0.20046589143E+03  0.00000000000E+00 0. -1.
          1    1    5    5  503    0 -0.58752991336E+02 -0.35476392373E+03 -0.23547069468E+03  0.42983229709E+03  0.00000000000E+00 0. -1.
         -2    1    5    5    0  503  0.23266505809E+02 -0.11174527053E+03 -0.96392514204E+02  0.14939830177E+03  0.00000000000E+00 0.  1.
         -3    1    6    6    0  502  0.16239089719E+02  0.13889147000E+03  0.40563701504E+02  0.14560206850E+03  0.00000000000E+00 0.  1.
<mgrwt>
<rscale>  0 0.19038326E+04</rscale>
<asrwt>0</asrwt>
<pdfrwt beam="1">  1        1 0.38805231E+00 0.19038326E+04</pdfrwt>
<pdfrwt beam="2">  1       -1 0.55268864E-01 0.19038326E+04</pdfrwt>
<totfact> 0.40495168E+00</totfact>
</mgrwt>
</event>
<event>
12    1  0.2406360E-008  0.1858851E+04  0.7818608E-02  0.8675614E-01
         -2   -1    0    0    0  501 -0.00000000000E+00  0.00000000000E+00  0.93333983690E+03  0.93333983690E+03  0.00000000000E+00 0.  1.
          2   -1    0    0  501    0  0.00000000000E+00 -0.00000000000E+00 -0.92552760638E+03  0.92552760638E+03  0.00000000000E+00 0. -1.
         23    2    1    2    0    0 -0.50656875055E+03  0.20304630826E+01 -0.48211589569E+03  0.70537201190E+03  0.92184144423E+02 0.  0.
        254    2    1    2    0    0  0.50656875055E+03 -0.20304630826E+01  0.48992812621E+03  0.11534954314E+04  0.91318460322E+03 0.  0.
        -24    2    4    4    0    0 -0.69360533373E+02  0.11670729645E+03  0.53737104053E+03  0.55996832705E+03  0.79783553872E+02 0.  0.
         24    2    4    4    0    0  0.57592928392E+03 -0.11873775953E+03 -0.47442914322E+02  0.59352710433E+03  0.65041508569E+02 0.  0.
         11    1    3    3    0    0 -0.10707572988E+03 -0.37082277009E+02 -0.98631270616E+02  0.15022794261E+03  0.00000000000E+00 0.  1.
        -11    1    3    3    0    0 -0.39949302067E+03  0.39112740092E+02 -0.38348462507E+03  0.55514406929E+03  0.00000000000E+00 0. -1.
          2    1    6    6  502    0  0.33829391069E+03 -0.39113124122E+02 -0.15761590410E+02  0.34091206230E+03  0.00000000000E+00 0. -1.
          1    1    5    5  503    0 -0.60718065206E+02  0.45643923443E+02  0.37345592638E+03  0.38110284720E+03  0.00000000000E+00 0. -1.
         -2    1    5    5    0  503 -0.86424681665E+01  0.71063373006E+02  0.16391511414E+03  0.17886547986E+03  0.00000000000E+00 0.  1.
         -3    1    6    6    0  502  0.23763537323E+03 -0.79624635411E+02 -0.31681323913E+02  0.25261504203E+03  0.00000000000E+00 0.  1.
<mgrwt>
<rscale>  0 0.18588510E+04</rscale>
<asrwt>0</asrwt>
<pdfrwt beam="1">  1        2 0.14238886E+00 0.18588510E+04</pdfrwt>
<pdfrwt beam="2">  1       -2 0.14359075E+00 0.18588510E+04</pdfrwt>
<totfact> 0.89018652E+00</totfact>
</mgrwt>
</event>
<event>
12    1  0.2406360E-008  0.1921810E+04  0.7818608E-02  0.8644076E-01
          2   -1    0    0  501    0  0.00000000000E+00  0.00000000000E+00  0.10034889216E+04  0.10034889216E+04  0.00000000000E+00 0.  1.
         -2   -1    0    0    0  501 -0.00000000000E+00 -0.00000000000E+00 -0.92012787904E+03  0.92012787904E+03  0.00000000000E+00 0. -1.
         23    2    1    2    0    0  0.37232523342E+03  0.65345072458E+03  0.15103644894E+02  0.75756147139E+03  0.89706933650E+02 0.  0.
        254    2    1    2    0    0 -0.37232523342E+03 -0.65345072458E+03  0.68257397647E+02  0.11660553292E+04  0.88848299341E+03 0.  0.
        -24    2    4    4    0    0 -0.40836226470E+03  0.78570015294E+02 -0.24451612893E+02  0.42429660581E+03  0.80602368450E+02 0.  0.
         24    2    4    4    0    0  0.36037031271E+02 -0.73202073988E+03  0.92709010539E+02  0.74175872341E+03  0.66768344962E+02 0.  0.
         11    1    3    3    0    0  0.36648438957E+03  0.60535636768E+03  0.31295421365E+01  0.70765594304E+03  0.00000000000E+00 0.  1.
        -11    1    3    3    0    0  0.58408438524E+01  0.48094356905E+02  0.11974102757E+02  0.49905528349E+02  0.00000000000E+00 0. -1.
          4    1    6    6  502    0  0.48672729441E+02 -0.52162801065E+03  0.46282494332E+02  0.52593429758E+03  0.00000000000E+00 0. -1.
          3    1    5    5  503    0 -0.25770090479E+03  0.36386704664E+02 -0.52090112667E+02  0.26541877937E+03  0.00000000000E+00 0. -1.
         -4    1    5    5    0  503 -0.15066135991E+03  0.42183310631E+02  0.27638499774E+02  0.15887782644E+03  0.00000000000E+00 0.  1.
         -3    1    6    6    0  502 -0.12635698169E+02 -0.21039272923E+03  0.46426516207E+02  0.21582442584E+03  0.00000000000E+00 0.  1.
<mgrwt>
<rscale>  0 0.19218097E+04</rscale>
<asrwt>0</asrwt>
<pdfrwt beam="1">  1        2 0.15438291E+00 0.19218097E+04</pdfrwt>
<pdfrwt beam="2">  1       -2 0.14155814E+00 0.19218097E+04</pdfrwt>
<totfact> 0.81747845E+00</totfact>
</mgrwt>
</event>
<event>
12    1  0.2406360E-008  0.1886406E+04  0.7818608E-02  0.8661653E-01
          1   -1    0    0  501    0  0.00000000000E+00  0.00000000000E+00  0.13222522407E+04  0.13222522407E+04  0.00000000000E+00 0. -1.
         -1   -1    0    0    0  501 -0.00000000000E+00 -0.00000000000E+00 -0.67281568067E+03  0.67281568067E+03  0.00000000000E+00 0.  1.
         23    2    1    2    0    0  0.29306071500E+03 -0.34881228001E+03  0.84982841020E+03  0.96861345201E+03  0.91919003869E+02 0.  0.
        254    2    1    2    0    0 -0.29306071500E+03  0.34881228001E+03 -0.20039185017E+03  0.10264544694E+04  0.89771782576E+03 0.  0.
        -24    2    4    4    0    0 -0.80042413971E+02 -0.19931930899E+02  0.32368224014E+03  0.34328296541E+03  0.79176586543E+02 0.  0.
         24    2    4    4    0    0 -0.21301830103E+03  0.36874421090E+03 -0.52407409031E+03  0.68317150394E+03  0.10354014688E+03 0.  0.
         13    1    3    3    0    0  0.18796436723E+03 -0.17352103921E+03  0.40416394371E+03  0.47831856308E+03  0.00000000000E+00 0.  1.
        -13    1    3    3    0    0  0.10509634778E+03 -0.17529124080E+03  0.44566446649E+03  0.49029488893E+03  0.00000000000E+00 0. -1.
          2    1    6    6  502    0 -0.52219946849E+01 -0.61880069350E+01 -0.35045508440E+01  0.88228416587E+01  0.00000000000E+00 0. -1.
          3    1    5    5  503    0  0.51105873376E+01  0.19315386735E+02  0.44590505072E+02  0.48862208405E+02  0.00000000000E+00 0. -1.
         -4    1    5    5    0  503 -0.85153001308E+02 -0.39247317634E+02  0.27909173507E+03  0.29442075701E+03  0.00000000000E+00 0.  1.
         -1    1    6    6    0  502 -0.20779630635E+03  0.37493221784E+03 -0.52056953947E+03  0.67434866229E+03  0.00000000000E+00 0.  1.
<mgrwt>
<rscale>  0 0.18864062E+04</rscale>
<asrwt>0</asrwt>
<pdfrwt beam="1">  1        1 0.20342342E+00 0.18864062E+04</pdfrwt>
<pdfrwt beam="2">  1       -1 0.10351010E+00 0.18864062E+04</pdfrwt>
<totfact> 0.71899393E+00</totfact>
</mgrwt>
</event>
<event>
11    1  0.2406360E-008  0.3577741E+04  0.7818608E-02  0.8095610E-01
         -2   -1    0    0    0  501 -0.00000000000E+00  0.00000000000E+00  0.83672258525E+03  0.83672258525E+03  0.00000000000E+00 0.  1.
          2   -1    0    0  501    0  0.00000000000E+00 -0.00000000000E+00 -0.38245138826E+04  0.38245138826E+04  0.00000000000E+00 0. -1.
         23    2    1    2    0    0  0.44540137691E+03  0.12217555889E+04 -0.26889276978E+02  0.13038677947E+04  0.90989490363E+02 0.  0.
        254    2    1    2    0    0 -0.44540137691E+03 -0.12217555889E+04 -0.29609020204E+04  0.33573686731E+04  0.90217211631E+03 0.  0.
        -24    2    4    4    0    0 -0.78699829330E+02 -0.59997167229E+03 -0.22059824179E+04  0.22887926288E+04  0.77804876937E+02 0.  0.
         11    1    3    3    0    0  0.89758200841E+02  0.16475545190E+03 -0.19361148678E+02  0.18861534303E+03  0.00000000000E+00 0. -1.
        -11    1    3    3    0    0  0.35564317607E+03  0.10570001370E+04 -0.75281282999E+01  0.11152524517E+04  0.00000000000E+00 0.  1.
          4    1    4    4  502    0 -0.33256884216E+03 -0.63542210761E+03 -0.69774411274E+03  0.10006048853E+04  0.00000000000E+00 0. -1.
          1    1    5    5  503    0 -0.25337036667E+02 -0.32532143211E+03 -0.13169941559E+04  0.13568159810E+04  0.00000000000E+00 0. -1.
         -2    1    5    5    0  503 -0.53362792664E+02 -0.27465024018E+03 -0.88898826196E+03  0.93197664777E+03  0.00000000000E+00 0.  1.
         -3    1    4    4    0  502 -0.34132705412E+02  0.13638191004E+02 -0.57175489723E+02  0.67971159013E+02  0.00000000000E+00 0.  1.
<mgrwt>
<rscale>  0 0.35777407E+04</rscale>
<asrwt>0</asrwt>
<pdfrwt beam="1">  1        2 0.58838676E+00 0.35777407E+04</pdfrwt>
<pdfrwt beam="2">  1       -2 0.12872655E+00 0.35777407E+04</pdfrwt>
<totfact> 0.17060612E-01</totfact>
</mgrwt>
</event>
<event>
11    1  0.2406360E-008  0.3688540E+04  0.7818608E-02  0.8070506E-01
         -2   -1    0    0    0  501 -0.00000000000E+00  0.00000000000E+00  0.97329291632E+03  0.97329291632E+03  0.00000000000E+00 0. -1.
          2   -1    0    0  501    0  0.00000000000E+00 -0.00000000000E+00 -0.34946638547E+04  0.34946638547E+04  0.00000000000E+00 0.  1.
         23    2    1    2    0    0 -0.64583424776E+03 -0.14074917594E+04 -0.24609316874E+03  0.15708488191E+04  0.94176623728E+02 0.  0.
        254    2    1    2    0    0  0.64583424776E+03  0.14074917594E+04 -0.22752777696E+04  0.28971079519E+04  0.90454995866E+03 0.  0.
        -24    2    4    4    0    0  0.54361697011E+03  0.62599343630E+03 -0.61193740062E+03  0.10334785843E+04  0.78888588294E+02 0.  0.
         13    1    3    3    0    0 -0.93146130974E+02 -0.20503805843E+03 -0.24428629896E+01  0.22521717230E+03  0.00000000000E+00 0.  1.
        -13    1    3    3    0    0 -0.55268811679E+03 -0.12024537010E+04 -0.24365030575E+03  0.13456316468E+04  0.00000000000E+00 0. -1.
          2    1    4    4  502    0  0.70993032124E+02  0.14014474091E+02 -0.14437986758E+03  0.16149910915E+03  0.00000000000E+00 0. -1.
          3    1    5    5  503    0  0.52586399138E+02  0.46070315506E+02 -0.78102988952E+02  0.10482309015E+03  0.00000000000E+00 0. -1.
         -4    1    5    5    0  503  0.49103057097E+03  0.57992312079E+03 -0.53383441166E+03  0.92865549411E+03  0.00000000000E+00 0.  1.
         -1    1    4    4    0  502  0.31224245524E+02  0.76748384900E+03 -0.15189605014E+04  0.17021302585E+04  0.00000000000E+00 0.  1.
<mgrwt>
<rscale>  0 0.36885399E+04</rscale>
<asrwt>0</asrwt>
<pdfrwt beam="1">  1        2 0.53764058E+00 0.36885399E+04</pdfrwt>
<pdfrwt beam="2">  1       -2 0.14973738E+00 0.36885399E+04</pdfrwt>
<totfact> 0.19938408E-01</totfact>
</mgrwt>
</event>
<event>
12    1  0.2406360E-008  0.2015183E+04  0.7818608E-02  0.8599555E-01
         -2   -1    0    0    0  501 -0.00000000000E+00  0.00000000000E+00  0.73958144761E+03  0.73958144761E+03  0.00000000000E+00 0.  1.
          2   -1    0    0  501    0  0.00000000000E+00 -0.00000000000E+00 -0.13727228922E+04  0.13727228922E+04  0.00000000000E+00 0. -1.
         23    2    1    2    0    0  0.52910004357E+02 -0.16877150611E+03 -0.10780750024E+04  0.10962267274E+04  0.90465668910E+02 0.  0.
        254    2    1    2    0    0 -0.52910004357E+02  0.16877150611E+03  0.44493355782E+03  0.10160776124E+04  0.89619448430E+03 0.  0.
        -24    2    4    4    0    0 -0.28318603936E+02  0.52685308157E+03  0.19969061961E+03  0.57041731376E+03  0.84400565076E+02 0.  0.
         24    2    4    4    0    0 -0.24591400421E+02 -0.35808157545E+03  0.24524293820E+03  0.44566029863E+03  0.98192929413E+02 0.  0.
         11    1    3    3    0    0  0.68278294318E+02 -0.73127033204E+02 -0.62006113427E+03  0.62808064665E+03  0.00000000000E+00 0. -1.
        -11    1    3    3    0    0 -0.15368289961E+02 -0.95644472911E+02 -0.45801386815E+03  0.46814608079E+03  0.00000000000E+00 0.  1.
          2    1    6    6  502    0 -0.38082827838E+02 -0.97998743024E+02  0.34539809471E+02  0.11066640795E+03  0.00000000000E+00 0. -1.
          3    1    5    5  503    0  0.78090141622E+01  0.34493912784E+02 -0.54971766644E+01  0.35791474859E+02  0.00000000000E+00 0. -1.
         -4    1    5    5    0  503 -0.36127618098E+02  0.49235916878E+03  0.20518779628E+03  0.53462583890E+03  0.00000000000E+00 0.  1.
         -1    1    6    6    0  502  0.13491427416E+02 -0.26008283243E+03  0.21070312873E+03  0.33499389068E+03  0.00000000000E+00 0.  1.
<mgrwt>
<rscale>  0 0.20151828E+04</rscale>
<asrwt>0</asrwt>
<pdfrwt beam="1">  1        2 0.21118814E+00 0.20151828E+04</pdfrwt>
<pdfrwt beam="2">  1       -2 0.11378176E+00 0.20151828E+04</pdfrwt>
<totfact> 0.84260962E+00</totfact>
</mgrwt>
</event>
<event>
11    1  0.2406360E-008  0.1527334E+04  0.7818608E-02  0.8866477E-01
         -1   -1    0    0    0  501 -0.00000000000E+00  0.00000000000E+00  0.62494393838E+03  0.62494393838E+03  0.00000000000E+00 0.  1.
          1   -1    0    0  501    0  0.00000000000E+00 -0.00000000000E+00 -0.93318381569E+03  0.93318381569E+03  0.00000000000E+00 0. -1.
         23    2    1    2    0    0 -0.46071552864E+03  0.10664296729E+03 -0.30175407209E+03  0.56847659855E+03  0.92079325944E+02 0.  0.
        254    2    1    2    0    0  0.46071552864E+03 -0.10664296729E+03 -0.64858052163E+01  0.98965115552E+03  0.86933067537E+03 0.  0.
        -24    2    4    4    0    0 -0.19372280548E+03 -0.16182217413E+03 -0.12120080981E+03  0.29100861584E+03  0.79255515850E+02 0.  0.
         13    1    3    3    0    0 -0.32080735932E+03  0.10376846304E+03 -0.17603388190E+03  0.38035928185E+03  0.00000000000E+00 0.  1.
        -13    1    3    3    0    0 -0.13990816932E+03  0.28745042470E+01 -0.12572019019E+03  0.18811731669E+03  0.00000000000E+00 0. -1.
          2    1    4    4  502    0  0.64673892208E+03  0.28764033122E+02  0.76976227138E+02  0.65193860330E+03  0.00000000000E+00 0. -1.
          3    1    5    5  503    0 -0.12891548967E+03 -0.14038050330E+03 -0.11468116484E+03  0.22243574073E+03  0.00000000000E+00 0. -1.
         -4    1    5    5    0  503 -0.64807315815E+02 -0.21441670825E+02 -0.65196449685E+01  0.68572875114E+02  0.00000000000E+00 0.  1.
         -1    1    4    4    0  502  0.76994120445E+01  0.26415173721E+02  0.37738777458E+02  0.46703936371E+02  0.00000000000E+00 0.  1.
<mgrwt>
<rscale>  0 0.15273344E+04</rscale>
<asrwt>0</asrwt>
<pdfrwt beam="1">  1        1 0.14356674E+00 0.15273344E+04</pdfrwt>
<pdfrwt beam="2">  1       -1 0.96145222E-01 0.15273344E+04</pdfrwt>
<totfact> 0.17206025E+01</totfact>
</mgrwt>
</event>
<event>
11    1  0.2406360E-008  0.1801704E+04  0.7818608E-02  0.8705394E-01
         -2   -1    0    0    0  501 -0.00000000000E+00  0.00000000000E+00  0.47064745186E+03  0.47064745186E+03  0.00000000000E+00 0.  1.
          2   -1    0    0  501    0  0.00000000000E+00 -0.00000000000E+00 -0.17242932581E+04  0.17242932581E+04  0.00000000000E+00 0. -1.
         23    2    1    2    0    0 -0.65010194046E+03 -0.16328993144E+03 -0.60747690333E+03  0.90913430947E+03  0.90558654318E+02 0.  0.
        254    2    1    2    0    0  0.65010194046E+03  0.16328993144E+03 -0.64616890287E+03  0.12858064005E+04  0.88683014930E+03 0.  0.
        -24    2    4    4    0    0  0.19027241544E+03  0.15280243012E+02  0.20114557767E+03  0.28851287987E+03  0.79643333273E+02 0.  0.
         13    1    3    3    0    0 -0.80465965730E+02 -0.83383175920E+01 -0.39870134185E+02  0.90188285165E+02  0.00000000000E+00 0. -1.
        -13    1    3    3    0    0 -0.56963597473E+03 -0.15495161385E+03 -0.56760676915E+03  0.81894602430E+03  0.00000000000E+00 0.  1.
          4    1    4    4  502    0  0.28409658456E+02  0.71515285909E+02 -0.65405722209E+02  0.10099234283E+03  0.00000000000E+00 0. -1.
          1    1    5    5  503    0  0.25083470783E+02 -0.21215757136E+02  0.59085955236E+02  0.67605021733E+02  0.00000000000E+00 0. -1.
         -2    1    5    5    0  503  0.16518894465E+03  0.36496000148E+02  0.14205962243E+03  0.22090785814E+03  0.00000000000E+00 0.  1.
         -3    1    4    4    0  502  0.43141986656E+03  0.76494402520E+02 -0.78190875833E+03  0.89630117775E+03  0.00000000000E+00 0.  1.
<mgrwt>
<rscale>  0 0.18017039E+04</rscale>
<asrwt>0</asrwt>
<pdfrwt beam="1">  1        2 0.26527589E+00 0.18017039E+04</pdfrwt>
<pdfrwt beam="2">  1       -2 0.72407300E-01 0.18017039E+04</pdfrwt>
<totfact> 0.15486352E+01</totfact>
</mgrwt>
</event>
<event>
11    1  0.2406360E-008  0.1033788E+04  0.7818608E-02  0.9272244E-01
          4   -1    0    0  501    0  0.00000000000E+00  0.00000000000E+00  0.15754246599E+03  0.15754246599E+03  0.00000000000E+00 0. -1.
         -4   -1    0    0    0  501 -0.00000000000E+00 -0.00000000000E+00 -0.16959193678E+04  0.16959193678E+04  0.00000000000E+00 0.  1.
         23    2    1    2    0    0 -0.14005308322E+02 -0.70146785989E+02 -0.10733875593E+03  0.15900876325E+03  0.92980955143E+02 0.  0.
        254    2    1    2    0    0  0.14005308322E+02  0.70146785989E+02 -0.14310381459E+04  0.16944530706E+04  0.90453541285E+03 0.  0.
        -24    2    4    4    0    0  0.53407710258E+02 -0.13463233389E+03 -0.12083531930E+03  0.20423304823E+03  0.78305266449E+02 0.  0.
         13    1    3    3    0    0 -0.16115751522E+01  0.12150846510E+02  0.95359792671E+01  0.15529814743E+02  0.00000000000E+00 0. -1.
        -13    1    3    3    0    0 -0.12393733169E+02 -0.82297632499E+02 -0.11687473520E+03  0.14347894851E+03  0.00000000000E+00 0.  1.
          2    1    4    4  502    0  0.15980217046E+03  0.14322245050E+03 -0.60098876750E+02  0.22284810746E+03  0.00000000000E+00 0. -1.
          1    1    5    5  503    0  0.31404739993E+02 -0.49375717267E+02 -0.96544062385E+02  0.11289364522E+03  0.00000000000E+00 0. -1.
         -2    1    5    5    0  503  0.22002970265E+02 -0.85256616625E+02 -0.24291256914E+02  0.91339403005E+02  0.00000000000E+00 0.  1.
         -1    1    4    4    0  502 -0.19920457240E+03  0.61556669382E+02 -0.12501039499E+04  0.12673719149E+04  0.00000000000E+00 0.  1.
<mgrwt>
<rscale>  0 0.10337878E+04</rscale>
<asrwt>0</asrwt>
<pdfrwt beam="1">  1        4 0.24237303E-01 0.10337878E+04</pdfrwt>
<pdfrwt beam="2">  1       -4 0.26091067E+00 0.10337878E+04</pdfrwt>
<totfact> 0.17528490E+00</totfact>
</mgrwt>
</event>
<event>
12    1  0.2406360E-008  0.1989890E+04  0.7818608E-02  0.8611362E-01
          1   -1    0    0  501    0  0.00000000000E+00  0.00000000000E+00  0.65959607186E+03  0.65959607186E+03  0.00000000000E+00 0. -1.
         -1   -1    0    0    0  501 -0.00000000000E+00 -0.00000000000E+00 -0.15007900871E+04  0.15007900871E+04  0.00000000000E+00 0.  1.
         23    2    1    2    0    0  0.27798364061E+03  0.58969200786E+03 -0.81480101878E+03  0.10475094854E+04  0.91454104835E+02 0.  0.
        254    2    1    2    0    0 -0.27798364061E+03 -0.58969200786E+03 -0.26392996445E+02  0.11128766735E+04  0.90154663307E+03 0.  0.
        -24    2    4    4    0    0 -0.19071745688E+03 -0.66261749989E+03  0.30446500286E+03  0.75807620451E+03  0.80904229514E+02 0.  0.
         24    2    4    4    0    0 -0.87266183733E+02  0.72925492025E+02 -0.33085799931E+03  0.35480046900E+03  0.59015615614E+02 0.  0.
         13    1    3    3    0    0  0.36158638371E+02  0.10172058162E+03 -0.87842785444E+02  0.13917930453E+03  0.00000000000E+00 0. -1.
        -13    1    3    3    0    0  0.24182500224E+03  0.48797142624E+03 -0.72695823334E+03  0.90833018091E+03  0.00000000000E+00 0.  1.
          4    1    6    6  502    0 -0.21529245859E+02 -0.77552251086E+01 -0.80085007725E+02  0.83290217950E+02  0.00000000000E+00 0. -1.
          1    1    5    5  503    0 -0.92042875595E+02 -0.18649916221E+03  0.94794211381E+02  0.22856021299E+03  0.00000000000E+00 0. -1.
         -2    1    5    5    0  503 -0.98674581281E+02 -0.47611833768E+03  0.20967079148E+03  0.52951599151E+03  0.00000000000E+00 0.  1.
         -3    1    6    6    0  502 -0.65736937873E+02  0.80680717134E+02 -0.25077299158E+03  0.27151025105E+03  0.00000000000E+00 0.  1.
<mgrwt>
<rscale>  0 0.19898897E+04</rscale>
<asrwt>0</asrwt>
<pdfrwt beam="1">  1        1 0.10147632E+00 0.19898897E+04</pdfrwt>
<pdfrwt beam="2">  1       -1 0.23089078E+00 0.19898897E+04</pdfrwt>
<totfact> 0.25759721E+00</totfact>
</mgrwt>
</event>
<event>
12    1  0.2406360E-008  0.2112842E+04  0.7818608E-02  0.8555607E-01
          1   -1    0    0  501    0  0.00000000000E+00  0.00000000000E+00  0.85400598928E+03  0.85400598928E+03  0.00000000000E+00 0. -1.
         -1   -1    0    0    0  501 -0.00000000000E+00 -0.00000000000E+00 -0.13068117916E+04  0.13068117916E+04  0.00000000000E+00 0.  1.
         23    2    1    2    0    0  0.62005532714E+02 -0.59997039373E+03  0.41153747703E+03  0.73611167039E+03  0.93210175629E+02 0.  0.
        254    2    1    2    0    0 -0.62005532714E+02  0.59997039373E+03 -0.86434327936E+03  0.14247061105E+04  0.95858700036E+03 0.  0.
        -24    2    4    4    0    0  0.85722726387E+02  0.78623623308E+03 -0.85019926891E+03  0.11639855065E+04  0.80670084789E+02 0.  0.
         24    2    4    4    0    0 -0.14772825910E+03 -0.18626583935E+03 -0.14144010454E+02  0.26072060395E+03  0.10609702562E+03 0.  0.
         13    1    3    3    0    0  0.37128185432E+02 -0.53910443857E+03  0.39175718642E+03  0.66744721960E+03  0.00000000000E+00 0. -1.
        -13    1    3    3    0    0  0.24877347282E+02 -0.60865955160E+02  0.19780290608E+02  0.68664450787E+02  0.00000000000E+00 0.  1.
          4    1    6    6  502    0 -0.57609237782E+02 -0.13516507309E+03  0.26745380666E+02  0.14934435593E+03  0.00000000000E+00 0. -1.
          1    1    5    5  503    0  0.56178162611E+02  0.69437288348E+03 -0.71916268743E+03  0.10012515459E+04  0.00000000000E+00 0. -1.
         -2    1    5    5    0  503  0.29544563777E+02  0.91863349597E+02 -0.13103658148E+03  0.16273396060E+03  0.00000000000E+00 0.  1.
         -3    1    6    6    0  502 -0.90119021319E+02 -0.51100766259E+02 -0.40889391120E+02  0.11137624802E+03  0.00000000000E+00 0.  1.
<mgrwt>
<rscale>  0 0.21128418E+04</rscale>
<asrwt>0</asrwt>
<pdfrwt beam="1">  1        1 0.13138554E+00 0.21128418E+04</pdfrwt>
<pdfrwt beam="2">  1       -1 0.20104797E+00 0.21128418E+04</pdfrwt>
<totfact> 0.27020188E+00</totfact>
</mgrwt>
</event>
<event>
12    1  0.2971751E-008  0.3217567E+04  0.7818608E-02  0.8184193E-01
         -1   -1    0    0    0  501 -0.00000000000E+00  0.00000000000E+00  0.11985584281E+04  0.11985584281E+04  0.00000000000E+00 0.  1.
          1   -1    0    0  501    0  0.00000000000E+00 -0.00000000000E+00 -0.21594146061E+04  0.21594146061E+04  0.00000000000E+00 0. -1.
         23    2    1    2    0    0  0.61635019080E+03 -0.67655336143E+03  0.76945226736E+03  0.11995170269E+04  0.95772112660E+02 0.  0.
        254    2    1    2    0    0 -0.61635019080E+03  0.67655336143E+03 -0.17303084454E+04  0.21584560073E+04  0.90958947376E+03 0.  0.
        -24    2    4    4    0    0 -0.25373626791E+03  0.83762114872E+03 -0.10967004057E+04  0.14053605003E+04  0.79341498837E+02 0.  0.
         24    2    4    4    0    0 -0.36261392289E+03 -0.16106778730E+03 -0.63360803967E+03  0.75309550703E+03  0.90895575170E+02 0.  0.
         11    1    3    3    0    0  0.34178641451E+02 -0.19941012906E+02  0.15223137961E+02  0.42397729379E+02  0.00000000000E+00 0. -1.
        -11    1    3    3    0    0  0.58217154935E+03 -0.65661234852E+03  0.75422912940E+03  0.11571192975E+04  0.00000000000E+00 0.  1.
          4    1    6    6  502    0 -0.22289865933E+03 -0.13338452653E+03 -0.35145703721E+03  0.43703237095E+03  0.00000000000E+00 0. -1.
          1    1    5    5  503    0 -0.24384748792E+03  0.74333522483E+03 -0.94942403064E+03  0.12302092683E+04  0.00000000000E+00 0. -1.
         -2    1    5    5    0  503 -0.98887799848E+01  0.94285923897E+02 -0.14727637509E+03  0.17515123201E+03  0.00000000000E+00 0.  1.
         -3    1    6    6    0  502 -0.13971526356E+03 -0.27683260764E+02 -0.28215100246E+03  0.31606313608E+03  0.00000000000E+00 0.  1.
<mgrwt>
<rscale>  0 0.32175671E+04</rscale>
<asrwt>0</asrwt>
<pdfrwt beam="1">  1        1 0.33221763E+00 0.32175671E+04</pdfrwt>
<pdfrwt beam="2">  1       -1 0.18439361E+00 0.32175671E+04</pdfrwt>
<totfact> 0.37547823E-01</totfact>
</mgrwt>
</event>
<event>
12    1  0.2491878E-008  0.1752633E+04  0.7818608E-02  0.8731903E-01
          2   -1    0    0  501    0  0.00000000000E+00  0.00000000000E+00  0.95666350481E+03  0.95666350481E+03  0.00000000000E+00 0.  1.
         -2   -1    0    0    0  501 -0.00000000000E+00 -0.00000000000E+00 -0.80271726468E+03  0.80271726468E+03  0.00000000000E+00 0. -1.
         23    2    1    2    0    0  0.32540548811E+03  0.35691418844E+03  0.50164596734E+03  0.70234613319E+03  0.91460071441E+02 0.  0.
        254    2    1    2    0    0 -0.32540548811E+03 -0.35691418844E+03 -0.34769972721E+03  0.10570346363E+04  0.87358494289E+03 0.  0.
        -24    2    4    4    0    0 -0.43945046771E+03 -0.51147931564E+02  0.13331341473E+03  0.46877811372E+03  0.79041943842E+02 0.  0.
         24    2    4    4    0    0  0.11404497960E+03 -0.30576625688E+03 -0.48101314194E+03  0.58825652258E+03  0.90403719031E+02 0.  0.
         11    1    3    3    0    0  0.10457452329E+03  0.14066556047E+03  0.24122716925E+03  0.29818312831E+03  0.00000000000E+00 0. -1.
        -11    1    3    3    0    0  0.22083096482E+03  0.21624862797E+03  0.26041879809E+03  0.40416300489E+03  0.00000000000E+00 0.  1.
          4    1    6    6  502    0  0.12500634483E+03 -0.29280748270E+03 -0.47112363765E+03  0.56861260110E+03  0.00000000000E+00 0. -1.
          1    1    5    5  503    0 -0.38445703353E+03 -0.67039615778E+02  0.10130160268E+03  0.40319168570E+03  0.00000000000E+00 0. -1.
         -2    1    5    5    0  503 -0.54993434184E+02  0.15891684215E+02  0.32011812046E+02  0.65586428024E+02  0.00000000000E+00 0.  1.
         -3    1    6    6    0  502 -0.10961365231E+02 -0.12958774174E+02 -0.98895042883E+01  0.19643921474E+02  0.00000000000E+00 0.  1.
<mgrwt>
<rscale>  0 0.17526327E+04</rscale>
<asrwt>0</asrwt>
<pdfrwt beam="1">  1        2 0.14717900E+00 0.17526327E+04</pdfrwt>
<pdfrwt beam="2">  1       -2 0.12349496E+00 0.17526327E+04</pdfrwt>
<totfact> 0.12589018E+01</totfact>
</mgrwt>
</event>
<event>
12    1  0.2406360E-008  0.2417373E+04  0.7818608E-02  0.8433028E-01
          1   -1    0    0  501    0  0.00000000000E+00  0.00000000000E+00  0.14210170506E+04  0.14210170506E+04  0.00000000000E+00 0. -1.
         -1   -1    0    0    0  501 -0.00000000000E+00 -0.00000000000E+00 -0.10280823526E+04  0.10280823526E+04  0.00000000000E+00 0.  1.
         23    2    1    2    0    0 -0.45677743502E+03  0.41000692523E+03 -0.67944903977E+03  0.91970873674E+03  0.86382052094E+02 0.  0.
        254    2    1    2    0    0  0.45677743502E+03 -0.41000692523E+03  0.10723837378E+04  0.15293906665E+04  0.90126445944E+03 0.  0.
        -24    2    4    4    0    0 -0.16986077612E+03 -0.30136169030E+03  0.71184028875E+03  0.79511186390E+03  0.76254362365E+02 0.  0.
         24    2    4    4    0    0  0.62663821114E+03 -0.10864523492E+03  0.36054344903E+03  0.73427880260E+03  0.68516761325E+02 0.  0.
         11    1    3    3    0    0 -0.37912596339E+03  0.36945495249E+03 -0.54968654384E+03  0.76314399330E+03  0.00000000000E+00 0. -1.
        -11    1    3    3    0    0 -0.77651471627E+02  0.40551972735E+02 -0.12976249593E+03  0.15656474344E+03  0.00000000000E+00 0.  1.
          4    1    6    6  502    0  0.51074237967E+03 -0.61790775743E+02  0.29712427696E+03  0.59410328590E+03  0.00000000000E+00 0. -1.
          3    1    5    5  503    0 -0.12434026573E+03 -0.25391255498E+03  0.62683174743E+03  0.68764098688E+03  0.00000000000E+00 0. -1.
         -4    1    5    5    0  503 -0.45520510386E+02 -0.47449135327E+02  0.85008541322E+02  0.10747087702E+03  0.00000000000E+00 0.  1.
         -3    1    6    6    0  502  0.11589583147E+03 -0.46854459180E+02  0.63419172073E+02  0.14017551670E+03  0.00000000000E+00 0.  1.
<mgrwt>
<rscale>  0 0.24173726E+04</rscale>
<asrwt>0</asrwt>
<pdfrwt beam="1">  1        1 0.21861801E+00 0.24173726E+04</pdfrwt>
<pdfrwt beam="2">  1       -1 0.15816652E+00 0.24173726E+04</pdfrwt>
<totfact> 0.20053608E+00</totfact>
</mgrwt>
</event>
<event>
12    1  0.2406360E-008  0.2025469E+04  0.7818608E-02  0.8594805E-01
         -2   -1    0    0    0  501 -0.00000000000E+00  0.00000000000E+00  0.81951933802E+03  0.81951933802E+03  0.00000000000E+00 0.  1.
          2   -1    0    0  501    0  0.00000000000E+00 -0.00000000000E+00 -0.12515033103E+04  0.12515033103E+04  0.00000000000E+00 0. -1.
         23    2    1    2    0    0  0.65452706894E+02  0.47813922477E+03 -0.83481006524E+03  0.96796857606E+03  0.84582173662E+02 0.  0.
        254    2    1    2    0    0 -0.65452706894E+02 -0.47813922477E+03  0.40282609292E+03  0.11030540723E+04  0.90639850518E+03 0.  0.
        -24    2    4    4    0    0  0.49078937735E+02  0.25943153055E+03  0.14621078963E+03  0.31221985930E+03  0.79938628759E+02 0.  0.
         24    2    4    4    0    0 -0.11453164463E+03 -0.73757075532E+03  0.25661530329E+03  0.79083421300E+03  0.49388478949E+02 0.  0.
         13    1    3    3    0    0  0.64945351546E+02  0.46876614754E+03 -0.77982344756E+03  0.91218649909E+03  0.00000000000E+00 0. -1.
        -13    1    3    3    0    0  0.50735534852E+00  0.93730772339E+01 -0.54986617685E+02  0.55782076966E+02  0.00000000000E+00 0.  1.
          4    1    6    6  502    0 -0.90923171663E+02 -0.65260328242E+03  0.23894969218E+03  0.70089587156E+03  0.00000000000E+00 0. -1.
          1    1    5    5  503    0  0.37083661508E+02  0.22733113122E+03  0.91880717571E+02  0.24798529681E+03  0.00000000000E+00 0. -1.
         -2    1    5    5    0  503  0.11995276227E+02  0.32100399326E+02  0.54330072059E+02  0.64234562492E+02  0.00000000000E+00 0.  1.
         -3    1    6    6    0  502 -0.23608472967E+02 -0.84967472896E+02  0.17665611106E+02  0.89938341445E+02  0.00000000000E+00 0.  1.
<mgrwt>
<rscale>  0 0.20254690E+04</rscale>
<asrwt>0</asrwt>
<pdfrwt beam="1">  1        2 0.19253897E+00 0.20254690E+04</pdfrwt>
<pdfrwt beam="2">  1       -2 0.12607990E+00 0.20254690E+04</pdfrwt>
<totfact> 0.76803571E+00</totfact>
</mgrwt>
</event>
<event>
12    1  0.2406360E-008  0.1649082E+04  0.7818608E-02  0.8790950E-01
         -2   -1    0    0    0  501 -0.00000000000E+00  0.00000000000E+00  0.74281910526E+03  0.74281910526E+03  0.00000000000E+00 0.  1.
          2   -1    0    0  501    0  0.00000000000E+00 -0.00000000000E+00 -0.91525381924E+03  0.91525381924E+03  0.00000000000E+00 0. -1.
         23    2    1    2    0    0  0.17652277120E+03  0.50902443558E+03 -0.24404164312E+03  0.59822117264E+03  0.89699961294E+02 0.  0.
        254    2    1    2    0    0 -0.17652277120E+03 -0.50902443558E+03  0.71606929131E+02  0.10598517519E+04  0.90988571746E+03 0.  0.
        -24    2    4    4    0    0  0.31760237284E+03 -0.30366292851E+03 -0.15795184832E+03  0.47378515550E+03  0.80256749249E+02 0.  0.
         24    2    4    4    0    0 -0.49412514403E+03 -0.20536150707E+03  0.22955877746E+03  0.58606659636E+03  0.66661956934E+02 0.  0.
         11    1    3    3    0    0  0.14888331098E+03  0.48212825976E+03 -0.20917591308E+03  0.54623114316E+03  0.00000000000E+00 0. -1.
        -11    1    3    3    0    0  0.27639460212E+02  0.26896175823E+02 -0.34865730035E+02  0.51990029482E+02  0.00000000000E+00 0.  1.
          4    1    6    6  502    0 -0.29509526225E+03 -0.15761163167E+03  0.14425454287E+03  0.36432404996E+03  0.00000000000E+00 0. -1.
          1    1    5    5  503    0  0.31396060123E+03 -0.30806749873E+03 -0.15162719822E+03  0.46526084097E+03  0.00000000000E+00 0. -1.
         -2    1    5    5    0  503  0.36417716097E+01  0.44045702217E+01 -0.63246501058E+01  0.85243145329E+01  0.00000000000E+00 0.  1.
         -3    1    6    6    0  502 -0.19902988178E+03 -0.47749875402E+02  0.85304234590E+02  0.22174254639E+03  0.00000000000E+00 0.  1.
<mgrwt>
<rscale>  0 0.16490822E+04</rscale>
<asrwt>0</asrwt>
<pdfrwt beam="1">  1        2 0.14080828E+00 0.16490822E+04</pdfrwt>
<pdfrwt beam="2">  1       -2 0.11427986E+00 0.16490822E+04</pdfrwt>
<totfact> 0.16380675E+01</totfact>
</mgrwt>
</event>
<event>
11    1  0.2406360E-008  0.1526901E+04  0.7818608E-02  0.8866759E-01
          3   -1    0    0  501    0  0.00000000000E+00  0.00000000000E+00  0.66391960478E+03  0.66391960478E+03  0.00000000000E+00 0. -1.
         -3   -1    0    0    0  501 -0.00000000000E+00 -0.00000000000E+00 -0.87790240294E+03  0.87790240294E+03  0.00000000000E+00 0.  1.
         23    2    1    2    0    0  0.54516125719E+02  0.23071752959E+03  0.36497884003E+03  0.44467277883E+03  0.91223572248E+02 0.  0.
        254    2    1    2    0    0 -0.54516125719E+02 -0.23071752959E+03 -0.57896163819E+03  0.10971492289E+04  0.90129754552E+03 0.  0.
        -24    2    4    4    0    0 -0.14626608708E+03 -0.41142353374E+03  0.71922079306E+01  0.44395860162E+03  0.79902564103E+02 0.  0.
         11    1    3    3    0    0  0.46226268199E+02  0.23780128540E+03  0.34058467193E+03  0.41795243505E+03  0.00000000000E+00 0. -1.
        -11    1    3    3    0    0  0.82898575192E+01 -0.70837558118E+01  0.24394168104E+02  0.26720343777E+02  0.00000000000E+00 0.  1.
          4    1    4    4  502    0  0.10873838868E+03  0.19013147526E+03 -0.32861504802E+03  0.39492007399E+03  0.00000000000E+00 0. -1.
          1    1    5    5  503    0 -0.61754424546E+02 -0.11998682664E+03 -0.30013017721E+02  0.13824336783E+03  0.00000000000E+00 0. -1.
         -2    1    5    5    0  503 -0.84511662538E+02 -0.29143670710E+03  0.37205225652E+02  0.30571523379E+03  0.00000000000E+00 0.  1.
         -3    1    4    4    0  502 -0.16988427317E+02 -0.94254711025E+01 -0.25753879810E+03  0.25827055329E+03  0.00000000000E+00 0.  1.
<mgrwt>
<rscale>  0 0.15269009E+04</rscale>
<asrwt>0</asrwt>
<pdfrwt beam="1">  1        3 0.10214148E+00 0.15269009E+04</pdfrwt>
<pdfrwt beam="2">  1       -3 0.13506191E+00 0.15269009E+04</pdfrwt>
<totfact> 0.88675533E-01</totfact>
</mgrwt>
</event>
<event>
11    1  0.2406360E-008  0.1134511E+04  0.7818608E-02  0.9172193E-01
         -1   -1    0    0    0  501 -0.00000000000E+00  0.00000000000E+00  0.42184990807E+03  0.42184990807E+03  0.00000000000E+00 0.  1.
          1   -1    0    0  501    0  0.00000000000E+00 -0.00000000000E+00 -0.76278045628E+03  0.76278045628E+03  0.00000000000E+00 0. -1.
         23    2    1    2    0    0  0.92832725483E+02  0.14981533196E+03 -0.11076759728E+02  0.19862763993E+03  0.90926872413E+02 0.  0.
        254    2    1    2    0    0 -0.92832725483E+02 -0.14981533196E+03 -0.32985378849E+03  0.98600272442E+03  0.91232412122E+03 0.  0.
        -24    2    4    4    0    0  0.28757866191E+03 -0.12078275342E+03 -0.16999227918E+03  0.36385045276E+03  0.78738914684E+02 0.  0.
         11    1    3    3    0    0 -0.28923454404E+01  0.96249447808E+01  0.23346644223E+02  0.25417927151E+02  0.00000000000E+00 0.  1.
        -11    1    3    3    0    0  0.95725070924E+02  0.14019038718E+03 -0.34423403952E+02  0.17320971278E+03  0.00000000000E+00 0. -1.
          2    1    4    4  502    0 -0.25945722352E+03  0.18837613393E+03  0.10201380872E+02  0.32079227989E+03  0.00000000000E+00 0. -1.
          3    1    5    5  503    0  0.11587652259E+03 -0.78019609613E+01 -0.59409921514E+02  0.13045220526E+03  0.00000000000E+00 0. -1.
         -4    1    5    5    0  503  0.17170213932E+03 -0.11298079246E+03 -0.11058235766E+03  0.23339824750E+03  0.00000000000E+00 0.  1.
         -1    1    4    4    0  502 -0.12095416387E+03 -0.21740871247E+03 -0.17006289019E+03  0.30135999176E+03  0.00000000000E+00 0.  1.
<mgrwt>
<rscale>  0 0.11345111E+04</rscale>
<asrwt>0</asrwt>
<pdfrwt beam="1">  1        1 0.11735084E+00 0.11345111E+04</pdfrwt>
<pdfrwt beam="2">  1       -1 0.64899986E-01 0.11345111E+04</pdfrwt>
<totfact> 0.57095504E+01</totfact>
</mgrwt>
</event>
<event>
11    1  0.2406360E-008  0.1155511E+04  0.7818608E-02  0.9152715E-01
         -2   -1    0    0    0  501 -0.00000000000E+00  0.00000000000E+00  0.20695010666E+03  0.20695010666E+03  0.00000000000E+00 0.  1.
          2   -1    0    0  501    0  0.00000000000E+00 -0.00000000000E+00 -0.16129547973E+04  0.16129547973E+04  0.00000000000E+00 0. -1.
         23    2    1    2    0    0  0.10361543912E+03 -0.14111998036E+03 -0.46447954673E+03  0.50462366435E+03  0.90844841428E+02 0.  0.
        254    2    1    2    0    0 -0.10361543912E+03  0.14111998036E+03 -0.94152514394E+03  0.13152812396E+04  0.90157869017E+03 0.  0.
        -24    2    4    4    0    0 -0.13394008357E+03  0.51466385335E+03 -0.60585222086E+03  0.81006147316E+03  0.79522630957E+02 0.  0.
         13    1    3    3    0    0  0.11920617768E+03 -0.12938962626E+03 -0.39402868449E+03  0.43152102195E+03  0.00000000000E+00 0. -1.
        -13    1    3    3    0    0 -0.15590738563E+02 -0.11730354094E+02 -0.70450862239E+02  0.73102642403E+02  0.00000000000E+00 0.  1.
          2    1    4    4  502    0  0.50031041665E+00 -0.12700362678E+03 -0.88188657591E+02  0.15462021489E+03  0.00000000000E+00 0. -1.
          1    1    5    5  503    0 -0.16783702638E+02  0.10254817495E+02 -0.26708634074E+02  0.33169339610E+02  0.00000000000E+00 0. -1.
         -2    1    5    5    0  503 -0.11715638094E+03  0.50440903586E+03 -0.57914358679E+03  0.77689213355E+03  0.00000000000E+00 0.  1.
         -1    1    4    4    0  502  0.29824334037E+02 -0.24654024622E+03 -0.24748426548E+03  0.35059955158E+03  0.00000000000E+00 0.  1.
<mgrwt>
<rscale>  0 0.11555106E+04</rscale>
<asrwt>0</asrwt>
<pdfrwt beam="1">  1        2 0.24814689E+00 0.11555106E+04</pdfrwt>
<pdfrwt beam="2">  1       -2 0.31838478E-01 0.11555106E+04</pdfrwt>
<totfact> 0.99488742E+01</totfact>
</mgrwt>
</event>
<event>
11    1  0.2406360E-008  0.1817765E+04  0.7818608E-02  0.8696909E-01
         -1   -1    0    0    0  501 -0.00000000000E+00  0.00000000000E+00  0.53773436717E+03  0.53773436717E+03  0.00000000000E+00 0.  1.
          1   -1    0    0  501    0  0.00000000000E+00 -0.00000000000E+00 -0.15361997206E+04  0.15361997206E+04  0.00000000000E+00 0. -1.
         23    2    1    2    0    0 -0.14668685681E+03  0.40424029321E+03 -0.97977579213E+03  0.10738456630E+04  0.90866146146E+02 0.  0.
        254    2    1    2    0    0  0.14668685681E+03 -0.40424029321E+03 -0.18689561328E+02  0.10000884248E+04  0.90271828889E+03 0.  0.
        -24    2    4    4    0    0  0.47308034478E+03 -0.40559789615E+03 -0.11383012825E+03  0.63931894436E+03  0.86352466912E+02 0.  0.
         13    1    3    3    0    0 -0.12780599855E+03  0.28673898670E+03 -0.62089613398E+03  0.69574825113E+03  0.00000000000E+00 0. -1.
        -13    1    3    3    0    0 -0.18880858261E+02  0.11750130651E+03 -0.35887965815E+03  0.37809741189E+03  0.00000000000E+00 0.  1.
          4    1    4    4  502    0 -0.31964585572E+03  0.98566389411E+01  0.11358431732E+03  0.33937003926E+03  0.00000000000E+00 0. -1.
          3    1    5    5  503    0  0.43192896234E+03 -0.33938755978E+03 -0.11558100545E+03  0.56134259865E+03  0.00000000000E+00 0. -1.
         -4    1    5    5    0  503  0.41151382438E+02 -0.66210336372E+02  0.17508771939E+01  0.77976345708E+02  0.00000000000E+00 0.  1.
         -3    1    4    4    0  502 -0.67476322545E+01 -0.84990359930E+01 -0.18443750394E+02  0.21399441172E+02  0.00000000000E+00 0.  1.
<mgrwt>
<rscale>  0 0.18177650E+04</rscale>
<asrwt>0</asrwt>
<pdfrwt beam="1">  1        1 0.23633842E+00 0.18177650E+04</pdfrwt>
<pdfrwt beam="2">  1       -1 0.82728365E-01 0.18177650E+04</pdfrwt>
<totfact> 0.84450976E+00</totfact>
</mgrwt>
</event>
<event>
12    1  0.2406360E-008  0.1591672E+04  0.7818608E-02  0.8825681E-01
         -1   -1    0    0    0  501 -0.00000000000E+00  0.00000000000E+00  0.34999014065E+03  0.34999014065E+03  0.00000000000E+00 0.  1.
          1   -1    0    0  501    0  0.00000000000E+00 -0.00000000000E+00 -0.18096356121E+04  0.18096356121E+04  0.00000000000E+00 0. -1.
         23    2    1    2    0    0 -0.21671213945E+03  0.22941212562E+03  0.87903721680E+02  0.34027216123E+03  0.92000025310E+02 0.  0.
        254    2    1    2    0    0  0.21671213945E+03 -0.22941212562E+03 -0.15475491931E+04  0.18193535915E+04  0.90307525216E+03 0.  0.
        -24    2    4    4    0    0 -0.17600947742E+03  0.24665179414E+03 -0.35816043030E+03  0.47600786230E+03  0.80549037526E+02 0.  0.
         24    2    4    4    0    0  0.39272161686E+03 -0.47606391976E+03 -0.11893887628E+04  0.13433457292E+04  0.95210267476E+02 0.  0.
         13    1    3    3    0    0 -0.17206323673E+03  0.18969327152E+03  0.10696902087E+03  0.27754579103E+03  0.00000000000E+00 0.  1.
        -13    1    3    3    0    0 -0.44648902718E+02  0.39718854097E+02 -0.19065299189E+02  0.62726370195E+02  0.00000000000E+00 0. -1.
          2    1    6    6  502    0  0.14582563684E+03 -0.10924233320E+03 -0.33813331205E+03  0.38410043015E+03  0.00000000000E+00 0. -1.
          3    1    5    5  503    0 -0.16239525749E+02  0.50193569665E+02 -0.10727425051E+03  0.11954447480E+03  0.00000000000E+00 0. -1.
         -4    1    5    5    0  503 -0.15976995167E+03  0.19645822447E+03 -0.25088617978E+03  0.35646338750E+03  0.00000000000E+00 0.  1.
         -3    1    6    6    0  502  0.24689598002E+03 -0.36682158656E+03 -0.85125545079E+03  0.95924529909E+03  0.00000000000E+00 0.  1.
<mgrwt>
<rscale>  0 0.15916716E+04</rscale>
<asrwt>0</asrwt>
<pdfrwt beam="1">  1        1 0.27840548E+00 0.15916716E+04</pdfrwt>
<pdfrwt beam="2">  1       -1 0.53844636E-01 0.15916716E+04</pdfrwt>
<totfact> 0.13416889E+01</totfact>
</mgrwt>
</event>
<event>
12    1  0.2406360E-008  0.1851350E+04  0.7818608E-02  0.8679459E-01
          2   -1    0    0  501    0  0.00000000000E+00  0.00000000000E+00  0.81389800008E+03  0.81389800008E+03  0.00000000000E+00 0. -1.
         -2   -1    0    0    0  501 -0.00000000000E+00 -0.00000000000E+00 -0.10528027834E+04  0.10528027834E+04  0.00000000000E+00 0.  1.
         23    2    1    2    0    0 -0.66604517888E+02  0.67351947029E+03 -0.24495685948E+03  0.72743859388E+03  0.10534897340E+03 0.  0.
        254    2    1    2    0    0  0.66604517888E+02 -0.67351947029E+03  0.60520761260E+01  0.11392621896E+04  0.91641533731E+03 0.  0.
        -24    2    4    4    0    0  0.21129579977E+03 -0.37233711718E+03 -0.41210412060E+03  0.59962823552E+03  0.80270609730E+02 0.  0.
         24    2    4    4    0    0 -0.14469128188E+03 -0.30118235311E+03  0.41815619673E+03  0.53963395412E+03  0.68584420249E+02 0.  0.
         13    1    3    3    0    0  0.62060485309E+01  0.22258523100E+03 -0.12421740189E+03  0.25497580872E+03  0.00000000000E+00 0. -1.
        -13    1    3    3    0    0 -0.72810566419E+02  0.45093423928E+03 -0.12073945759E+03  0.47246278516E+03  0.00000000000E+00 0.  1.
          2    1    6    6  502    0 -0.10402756418E+02 -0.81545694628E+01  0.43184244131E+02  0.45161856531E+02  0.00000000000E+00 0. -1.
          3    1    5    5  503    0  0.31347508279E+02 -0.14316077712E+02 -0.25909053291E+02  0.43114909240E+02  0.00000000000E+00 0. -1.
         -4    1    5    5    0  503  0.17994829149E+03 -0.35802103947E+03 -0.38619506731E+03  0.55651332628E+03  0.00000000000E+00 0.  1.
         -1    1    6    6    0  502 -0.13428852546E+03 -0.29302778364E+03  0.37497195260E+03  0.49447209759E+03  0.00000000000E+00 0.  1.
<mgrwt>
<rscale>  0 0.18513499E+04</rscale>
<asrwt>0</asrwt>
<pdfrwt beam="1">  1        2 0.12521508E+00 0.18513499E+04</pdfrwt>
<pdfrwt beam="2">  1       -2 0.16196966E+00 0.18513499E+04</pdfrwt>
<totfact> 0.77066174E+00</totfact>
</mgrwt>
</event>
<event>
12    1  0.2406360E-008  0.2791247E+04  0.7818608E-02  0.8305991E-01
          1   -1    0    0  501    0  0.00000000000E+00  0.00000000000E+00  0.14617087519E+04  0.14617087519E+04  0.00000000000E+00 0. -1.
         -1   -1    0    0    0  501 -0.00000000000E+00 -0.00000000000E+00 -0.13325259877E+04  0.13325259877E+04  0.00000000000E+00 0.  1.
         23    2    1    2    0    0  0.42269305510E+03 -0.10219386860E+03  0.12273956763E+04  0.13058449150E+04  0.98070332005E+02 0.  0.
        254    2    1    2    0    0 -0.42269305510E+03  0.10219386860E+03 -0.10982129121E+04  0.14883898246E+04  0.90560458476E+03 0.  0.
        -24    2    4    4    0    0  0.84613988886E+02  0.38889568592E+03 -0.33540182389E+03  0.52656947782E+03  0.79885229316E+02 0.  0.
         24    2    4    4    0    0 -0.50730704399E+03 -0.28670181732E+03 -0.76281108824E+03  0.96182034676E+03  0.60491769339E+02 0.  0.
         11    1    3    3    0    0  0.37909046728E+03 -0.62074079458E+02  0.11048863216E+04  0.11697591877E+04  0.00000000000E+00 0. -1.
        -11    1    3    3    0    0  0.43602587820E+02 -0.40119789140E+02  0.12250935477E+03  0.13608572722E+03  0.00000000000E+00 0.  1.
          2    1    6    6  502    0 -0.50472274710E+03 -0.28175806556E+03 -0.76158458000E+03  0.95610863998E+03  0.00000000000E+00 0. -1.
          1    1    5    5  503    0  0.86246109875E+02  0.37928652696E+03 -0.33921422145E+03  0.51610362238E+03  0.00000000000E+00 0. -1.
         -2    1    5    5    0  503 -0.16321209893E+01  0.96091589635E+01  0.38123975639E+01  0.10465855440E+02  0.00000000000E+00 0.  1.
         -1    1    6    6    0  502 -0.25842968878E+01 -0.49437517603E+01 -0.12265082436E+01  0.57117067802E+01  0.00000000000E+00 0.  1.
<mgrwt>
<rscale>  0 0.27912470E+04</rscale>
<asrwt>0</asrwt>
<pdfrwt beam="1">  1        1 0.22487827E+00 0.27912470E+04</pdfrwt>
<pdfrwt beam="2">  1       -1 0.20500400E+00 0.27912470E+04</pdfrwt>
<totfact> 0.83791254E-01</totfact>
</mgrwt>
</event>
<event>
12    1  0.2406360E-008  0.1788495E+04  0.7818608E-02  0.8712442E-01
          1   -1    0    0  501    0  0.00000000000E+00  0.00000000000E+00  0.10801339215E+04  0.10801339215E+04  0.00000000000E+00 0. -1.
         -1   -1    0    0    0  501 -0.00000000000E+00 -0.00000000000E+00 -0.74035118226E+03  0.74035118226E+03  0.00000000000E+00 0.  1.
         23    2    1    2    0    0 -0.49892848818E+03 -0.29839187537E+03 -0.19445864736E+03  0.61978683701E+03  0.91401368642E+02 0.  0.
        254    2    1    2    0    0  0.49892848818E+03  0.29839187537E+03  0.53424138658E+03  0.12006982667E+04  0.90459666204E+03 0.  0.
        -24    2    4    4    0    0  0.35072756663E+03  0.49424040187E+03  0.63667979617E+01  0.61140100705E+03  0.80543494228E+02 0.  0.
         24    2    4    4    0    0  0.14820092155E+03 -0.19584852650E+03  0.52787458862E+03  0.58929725967E+03  0.91101704014E+02 0.  0.
         11    1    3    3    0    0 -0.77606526399E+02 -0.19055061291E+02 -0.49106324223E+02  0.93793919735E+02  0.00000000000E+00 0. -1.
        -11    1    3    3    0    0 -0.42132196178E+03 -0.27933681408E+03 -0.14535232314E+03  0.52599291727E+03  0.00000000000E+00 0.  1.
          2    1    6    6  502    0  0.13794774785E+03 -0.16913919055E+03  0.51199577101E+03  0.55657642462E+03  0.00000000000E+00 0. -1.
          3    1    5    5  503    0  0.34569690897E+03  0.49544882568E+03  0.11320102411E+02  0.60423839372E+03  0.00000000000E+00 0. -1.
         -4    1    5    5    0  503  0.50306576652E+01 -0.12084238027E+01 -0.49533044495E+01  0.71626133220E+01  0.00000000000E+00 0.  1.
         -1    1    6    6    0  502  0.10253173694E+02 -0.26709335952E+02  0.15878817607E+02  0.32720835050E+02  0.00000000000E+00 0.  1.
<mgrwt>
<rscale>  0 0.17884948E+04</rscale>
<asrwt>0</asrwt>
<pdfrwt beam="1">  1        1 0.16617445E+00 0.17884948E+04</pdfrwt>
<pdfrwt beam="2">  1       -1 0.11390018E+00 0.17884948E+04</pdfrwt>
<totfact> 0.87093440E+00</totfact>
</mgrwt>
</event>
<event>
12    1  0.2406360E-008  0.1840509E+04  0.7818608E-02  0.8685049E-01
          1   -1    0    0  501    0  0.00000000000E+00  0.00000000000E+00  0.49258304031E+03  0.49258304031E+03  0.00000000000E+00 0. -1.
         -1   -1    0    0    0  501 -0.00000000000E+00 -0.00000000000E+00 -0.17192404593E+04  0.17192404593E+04  0.00000000000E+00 0.  1.
         23    2    1    2    0    0  0.26154451844E+03  0.50776929502E+03  0.88537193242E+01  0.57841219902E+03  0.90813498682E+02 0.  0.
        254    2    1    2    0    0 -0.26154451844E+03 -0.50776929502E+03 -0.12355111383E+04  0.16334113006E+04  0.90294491080E+03 0.  0.
        -24    2    4    4    0    0 -0.13679083573E+03 -0.18927005109E+03 -0.12607565446E+04  0.12847121875E+04  0.80271133779E+02 0.  0.
         24    2    4    4    0    0 -0.12475368272E+03 -0.31849924392E+03  0.25245406273E+02  0.34869911313E+03  0.62837021172E+02 0.  0.
         13    1    3    3    0    0  0.11477336011E+03  0.17670970041E+03 -0.35114611314E+02  0.21361713025E+03  0.00000000000E+00 0.  1.
        -13    1    3    3    0    0  0.14677115834E+03  0.33105959461E+03  0.43968330638E+02  0.36479506877E+03  0.00000000000E+00 0. -1.
          2    1    6    6  502    0 -0.88845865082E+02 -0.14261375471E+03  0.18758741119E+02  0.16906851021E+03  0.00000000000E+00 0. -1.
          3    1    5    5  503    0 -0.21085482434E+02 -0.95966710079E+02 -0.48989651280E+03  0.49965267964E+03  0.00000000000E+00 0. -1.
         -4    1    5    5    0  503 -0.11570535329E+03 -0.93303341015E+02 -0.77086003180E+03  0.78505950784E+03  0.00000000000E+00 0.  1.
         -1    1    6    6    0  502 -0.35907817635E+02 -0.17588548921E+03  0.64866651536E+01  0.17963060292E+03  0.00000000000E+00 0.  1.
<mgrwt>
<rscale>  0 0.18405094E+04</rscale>
<asrwt>0</asrwt>
<pdfrwt beam="1">  1        1 0.75782007E-01 0.18405094E+04</pdfrwt>
<pdfrwt beam="2">  1       -1 0.26449853E+00 0.18405094E+04</pdfrwt>
<totfact> 0.23875024E+00</totfact>
</mgrwt>
</event>
<event>
12    1  0.2406360E-008  0.1446950E+04  0.7818608E-02  0.8920518E-01
          2   -1    0    0  501    0  0.00000000000E+00  0.00000000000E+00  0.42502395407E+03  0.42502395407E+03  0.00000000000E+00 0. -1.
         -2   -1    0    0    0  501 -0.00000000000E+00 -0.00000000000E+00 -0.12314978966E+04  0.12314978966E+04  0.00000000000E+00 0.  1.
         23    2    1    2    0    0 -0.18540941196E+03  0.55787112505E+02 -0.69547244621E+03  0.72700909978E+03  0.85857182348E+02 0.  0.
        254    2    1    2    0    0  0.18540941196E+03 -0.55787112505E+02 -0.11100149630E+03  0.92951275086E+03  0.90232132295E+03 0.  0.
        -24    2    4    4    0    0 -0.79549277449E+02 -0.33441754992E+03 -0.32435066963E+03  0.47928383263E+03  0.79664610046E+02 0.  0.
         24    2    4    4    0    0  0.26495868941E+03  0.27863043742E+03  0.21334917334E+03  0.45022891822E+03  0.96696335439E+02 0.  0.
         11    1    3    3    0    0 -0.75487679515E+02 -0.10614404916E+02 -0.35571475939E+03  0.36379121127E+03  0.00000000000E+00 0.  1.
        -11    1    3    3    0    0 -0.10992173245E+03  0.66401517421E+02 -0.33975768682E+03  0.36321788851E+03  0.00000000000E+00 0. -1.
          2    1    6    6  502    0  0.10721660006E+03  0.18258040444E+03  0.11030150683E+03  0.23874133664E+03  0.00000000000E+00 0. -1.
          1    1    5    5  503    0 -0.90145162561E+02 -0.24781189064E+03 -0.22127239959E+03  0.34423590501E+03  0.00000000000E+00 0. -1.
         -2    1    5    5    0  503  0.10595885112E+02 -0.86605659279E+02 -0.10307827004E+03  0.13504792762E+03  0.00000000000E+00 0.  1.
         -1    1    6    6    0  502  0.15774208935E+03  0.96050032982E+02  0.10304766651E+03  0.21148758158E+03  0.00000000000E+00 0.  1.
<mgrwt>
<rscale>  0 0.14469500E+04</rscale>
<asrwt>0</asrwt>
<pdfrwt beam="1">  1        2 0.65388301E-01 0.14469500E+04</pdfrwt>
<pdfrwt beam="2">  1       -2 0.18946121E+00 0.14469500E+04</pdfrwt>
<totfact> 0.11241691E+01</totfact>
</mgrwt>
</event>
<event>
11    1  0.2406360E-008  0.1501482E+04  0.7818608E-02  0.8883468E-01
         -1   -1    0    0    0  501 -0.00000000000E+00  0.00000000000E+00  0.52079036900E+03  0.52079036900E+03  0.00000000000E+00 0.  1.
          1   -1    0    0  501    0  0.00000000000E+00 -0.00000000000E+00 -0.10822245779E+04  0.10822245779E+04  0.00000000000E+00 0. -1.
         23    2    1    2    0    0  0.46982666351E+03 -0.24503465980E+02 -0.13925181785E+03  0.49954140726E+03  0.93877767340E+02 0.  0.
        254    2    1    2    0    0 -0.46982666351E+03  0.24503465980E+02 -0.42218239104E+03  0.11034735396E+04  0.90447684756E+03 0.  0.
        -24    2    4    4    0    0 -0.52112042411E+03  0.32348631484E+03 -0.45099395204E+03  0.76573339229E+03  0.82110845729E+02 0.  0.
         11    1    3    3    0    0  0.29378320847E+03  0.14630724039E+02 -0.12176751572E+03  0.31835508406E+03  0.00000000000E+00 0.  1.
        -11    1    3    3    0    0  0.17604345505E+03 -0.39134190020E+02 -0.17484302123E+02  0.18118632320E+03  0.00000000000E+00 0. -1.
          4    1    4    4  502    0  0.50471497871E+02 -0.15310200632E+02  0.74041358602E+01  0.53259699291E+02  0.00000000000E+00 0. -1.
          3    1    5    5  503    0 -0.42518455995E+03  0.22574148215E+03 -0.33841890333E+03  0.58844581816E+03  0.00000000000E+00 0. -1.
         -2    1    5    5    0  503 -0.95935864161E+02  0.97744832686E+02 -0.11257504871E+03  0.17728757413E+03  0.00000000000E+00 0.  1.
         -3    1    4    4    0  502  0.82226272713E+00 -0.28367264823E+03  0.21407425139E+02  0.28448044804E+03  0.00000000000E+00 0.  1.
<mgrwt>
<rscale>  0 0.15014821E+04</rscale>
<asrwt>0</asrwt>
<pdfrwt beam="1">  1        1 0.16649609E+00 0.15014821E+04</pdfrwt>
<pdfrwt beam="2">  1       -1 0.80121596E-01 0.15014821E+04</pdfrwt>
<totfact> 0.19670540E+01</totfact>
</mgrwt>
</event>
<event>
12    1  0.2406360E-008  0.2363721E+04  0.7818608E-02  0.8453212E-01
          1   -1    0    0  501    0  0.00000000000E+00  0.00000000000E+00  0.14705585469E+04  0.14705585469E+04  0.00000000000E+00 0. -1.
         -1   -1    0    0    0  501 -0.00000000000E+00 -0.00000000000E+00 -0.94983905472E+03  0.94983905472E+03  0.00000000000E+00 0.  1.
         23    2    1    2    0    0  0.77011765794E+03 -0.26774231627E+00 -0.43893520487E+03  0.89240706801E+03  0.10317452300E+03 0.  0.
        254    2    1    2    0    0 -0.77011765794E+03  0.26774231627E+00  0.95965469706E+03  0.15279905336E+04  0.90594517191E+03 0.  0.
        -24    2    4    4    0    0 -0.53565229759E+03 -0.15627604323E+03  0.43560227474E+02  0.56484660204E+03  0.76214203493E+02 0.  0.
         24    2    4    4    0    0 -0.23446536035E+03  0.15654378555E+03  0.91609446958E+03  0.96314393158E+03  0.94536732301E+02 0.  0.
         11    1    3    3    0    0  0.50956096203E+03 -0.43367459021E+02 -0.31543845203E+03  0.60086148782E+03  0.00000000000E+00 0. -1.
        -11    1    3    3    0    0  0.26055669591E+03  0.43099716704E+02 -0.12349675283E+03  0.29154558018E+03  0.00000000000E+00 0.  1.
          2    1    6    6  502    0 -0.13714267649E+03  0.98036502145E+02  0.38902734860E+03  0.42398295653E+03  0.00000000000E+00 0. -1.
          3    1    5    5  503    0 -0.30272364699E+01 -0.53681008266E+01 -0.65488631205E+01  0.89926789835E+01  0.00000000000E+00 0. -1.
         -4    1    5    5    0  503 -0.53262506112E+03 -0.15090794240E+03  0.50109090595E+02  0.55585392306E+03  0.00000000000E+00 0.  1.
         -1    1    6    6    0  502 -0.97322683859E+02  0.58507283401E+02  0.52706712098E+03  0.53916097505E+03  0.00000000000E+00 0.  1.
<mgrwt>
<rscale>  0 0.23637207E+04</rscale>
<asrwt>0</asrwt>
<pdfrwt beam="1">  1        1 0.22623978E+00 0.23637207E+04</pdfrwt>
<pdfrwt beam="2">  1       -1 0.14612909E+00 0.23637207E+04</pdfrwt>
<totfact> 0.23071702E+00</totfact>
</mgrwt>
</event>
<event>
11    1  0.2406360E-008  0.1231067E+04  0.7818608E-02  0.9086090E-01
          1   -1    0    0  501    0  0.00000000000E+00  0.00000000000E+00  0.10193755459E+04  0.10193755459E+04  0.00000000000E+00 0. -1.
         -1   -1    0    0    0  501 -0.00000000000E+00 -0.00000000000E+00 -0.37167976699E+03  0.37167976699E+03  0.00000000000E+00 0.  1.
         23    2    1    2    0    0 -0.11967080513E+03 -0.18792486867E+03 -0.76698536086E+02  0.25377278263E+03  0.94239598353E+02 0.  0.
        254    2    1    2    0    0  0.11967080513E+03  0.18792486867E+03  0.72439431495E+03  0.11372825302E+04  0.84795493520E+03 0.  0.
        -24    2    4    4    0    0  0.34248404640E+03 -0.11074839754E+03  0.19663540611E+03  0.41795949826E+03  0.80399811294E+02 0.  0.
         13    1    3    3    0    0 -0.24953595678E+02 -0.57414747172E+02 -0.67781018487E+02  0.92268096313E+02  0.00000000000E+00 0. -1.
        -13    1    3    3    0    0 -0.94717209457E+02 -0.13051012150E+03 -0.89175175985E+01  0.16150468631E+03  0.00000000000E+00 0.  1.
          4    1    4    4  502    0 -0.11526540682E+03  0.22424393541E+02  0.36007450150E+03  0.37873818671E+03  0.00000000000E+00 0. -1.
          3    1    5    5  503    0  0.10480505516E+03 -0.70207616704E+01  0.28294089612E+02  0.10878394269E+03  0.00000000000E+00 0. -1.
         -4    1    5    5    0  503  0.23767899124E+03 -0.10372763587E+03  0.16834131650E+03  0.30917555557E+03  0.00000000000E+00 0.  1.
         -3    1    4    4    0  502 -0.10754783444E+03  0.27624887267E+03  0.16768440733E+03  0.34058484524E+03  0.00000000000E+00 0.  1.
<mgrwt>
<rscale>  0 0.12310666E+04</rscale>
<asrwt>0</asrwt>
<pdfrwt beam="1">  1        1 0.15682701E+00 0.12310666E+04</pdfrwt>
<pdfrwt beam="2">  1       -1 0.57181503E-01 0.12310666E+04</pdfrwt>
<totfact> 0.44688151E+01</totfact>
</mgrwt>
</event>
<event>
11    1  0.2406360E-008  0.1265149E+04  0.7818608E-02  0.9057668E-01
          1   -1    0    0  501    0  0.00000000000E+00  0.00000000000E+00  0.11662414712E+04  0.11662414712E+04  0.00000000000E+00 0. -1.
         -1   -1    0    0    0  501 -0.00000000000E+00 -0.00000000000E+00 -0.34311125389E+03  0.34311125389E+03  0.00000000000E+00 0.  1.
         23    2    1    2    0    0 -0.87283261080E+02  0.19091258497E+03  0.45429329548E+03  0.51034154386E+03  0.10000055153E+03 0.  0.
        254    2    1    2    0    0  0.87283261080E+02 -0.19091258497E+03  0.36883692187E+03  0.99901118127E+03  0.90438746265E+03 0.  0.
        -24    2    4    4    0    0 -0.32225819126E+03 -0.21559350102E+03  0.24144022400E+03  0.46382331966E+03  0.80670878100E+02 0.  0.
         13    1    3    3    0    0 -0.64061758946E+02  0.14710452731E+03  0.22873634504E+03  0.27939929573E+03  0.00000000000E+00 0. -1.
        -13    1    3    3    0    0 -0.23221502134E+02  0.43808057662E+02  0.22555695045E+03  0.23094224813E+03  0.00000000000E+00 0.  1.
          4    1    4    4  502    0  0.46022019948E+03  0.23970546425E+02  0.83943343154E+02  0.46842683950E+03  0.00000000000E+00 0. -1.
          3    1    5    5  503    0 -0.26920668184E+03 -0.13933088247E+03  0.18410379068E+03  0.35465411051E+03  0.00000000000E+00 0. -1.
         -4    1    5    5    0  503 -0.53051509422E+02 -0.76262618551E+02  0.57336433324E+02  0.10916920915E+03  0.00000000000E+00 0.  1.
         -3    1    4    4    0  502 -0.50678747135E+02  0.71036962849E+00  0.43453354721E+02  0.66761022106E+02  0.00000000000E+00 0.  1.
<mgrwt>
<rscale>  0 0.12651491E+04</rscale>
<asrwt>0</asrwt>
<pdfrwt beam="1">  1        1 0.17942176E+00 0.12651491E+04</pdfrwt>
<pdfrwt beam="2">  1       -1 0.52786347E-01 0.12651491E+04</pdfrwt>
<totfact> 0.40311683E+01</totfact>
</mgrwt>
</event>
<event>
11    1  0.2406360E-008  0.1199455E+04  0.7818608E-02  0.9113334E-01
         -1   -1    0    0    0  501 -0.00000000000E+00  0.00000000000E+00  0.28521702231E+03  0.28521702231E+03  0.00000000000E+00 0.  1.
          1   -1    0    0  501    0  0.00000000000E+00 -0.00000000000E+00 -0.12610502317E+04  0.12610502317E+04  0.00000000000E+00 0. -1.
         23    2    1    2    0    0 -0.97151073112E+02 -0.62403020498E+02  0.66946268993E+02  0.16060967662E+03  0.89337547082E+02 0.  0.
        254    2    1    2    0    0  0.97151073112E+02  0.62403020498E+02 -0.10427794784E+04  0.13856575774E+04  0.90516595895E+03 0.  0.
        -24    2    4    4    0    0  0.32292105126E+03  0.28601080275E+03 -0.56195478326E+03  0.71302561530E+03  0.80821810195E+02 0.  0.
         13    1    3    3    0    0 -0.16048473107E+02 -0.33245123212E+02  0.64586917153E+02  0.74392617737E+02  0.00000000000E+00 0.  1.
        -13    1    3    3    0    0 -0.81102600006E+02 -0.29157897286E+02  0.23593518396E+01  0.86217058886E+02  0.00000000000E+00 0. -1.
          4    1    4    4  502    0 -0.73630358232E+02  0.80821794416E+02 -0.21349912675E+03  0.23986552322E+03  0.00000000000E+00 0. -1.
          3    1    5    5  503    0  0.19085287263E+03  0.16289397908E+03 -0.26089287180E+03  0.36197286911E+03  0.00000000000E+00 0. -1.
         -4    1    5    5    0  503  0.13206817863E+03  0.12311682367E+03 -0.30106191146E+03  0.35105274619E+03  0.00000000000E+00 0.  1.
         -3    1    4    4    0  502 -0.15213961991E+03 -0.30442957667E+03 -0.26732556835E+03  0.43276643885E+03  0.00000000000E+00 0.  1.
<mgrwt>
<rscale>  0 0.11994549E+04</rscale>
<asrwt>0</asrwt>
<pdfrwt beam="1">  1        1 0.19400773E+00 0.11994549E+04</pdfrwt>
<pdfrwt beam="2">  1       -1 0.43879542E-01 0.11994549E+04</pdfrwt>
<totfact> 0.48998462E+01</totfact>
</mgrwt>
</event>
<event>
11    1  0.2406360E-008  0.1561326E+04  0.7818608E-02  0.8844666E-01
         -1   -1    0    0    0  501 -0.00000000000E+00  0.00000000000E+00  0.35947733376E+03  0.35947733376E+03  0.00000000000E+00 0.  1.
          1   -1    0    0  501    0  0.00000000000E+00 -0.00000000000E+00 -0.16953355178E+04  0.16953355178E+04  0.00000000000E+00 0. -1.
         23    2    1    2    0    0  0.52192227907E+03 -0.13304876724E+03 -0.38831243163E+03  0.67010440323E+03  0.90269190841E+02 0.  0.
        254    2    1    2    0    0 -0.52192227907E+03  0.13304876724E+03 -0.94754575245E+03  0.13847084484E+04  0.85408998011E+03 0.  0.
        -24    2    4    4    0    0 -0.41986114647E+03 -0.98212541525E+01 -0.10483555901E+04  0.11320826040E+04  0.78624039212E+02 0.  0.
         11    1    3    3    0    0  0.47364249770E+03 -0.10061876225E+03 -0.32005088833E+03  0.58042563870E+03  0.00000000000E+00 0.  1.
        -11    1    3    3    0    0  0.48279781367E+02 -0.32430004995E+02 -0.68261543300E+02  0.89678764524E+02  0.00000000000E+00 0. -1.
          4    1    4    4  502    0 -0.31519786624E+02  0.12652539945E+03  0.23589606305E+01  0.13041371995E+03  0.00000000000E+00 0. -1.
          1    1    5    5  503    0 -0.98360900172E+02  0.16650698918E+02 -0.18085257253E+03  0.20654240593E+03  0.00000000000E+00 0. -1.
         -2    1    5    5    0  503 -0.32150024630E+03 -0.26471953070E+02 -0.86750301762E+03  0.92554019808E+03  0.00000000000E+00 0.  1.
         -3    1    4    4    0  502 -0.70541345971E+02  0.16344621942E+02  0.98450877067E+02  0.12221212441E+03  0.00000000000E+00 0.  1.
<mgrwt>
<rscale>  0 0.15613260E+04</rscale>
<asrwt>0</asrwt>
<pdfrwt beam="1">  1        1 0.26082085E+00 0.15613260E+04</pdfrwt>
<pdfrwt beam="2">  1       -1 0.55304206E-01 0.15613260E+04</pdfrwt>
<totfact> 0.15275998E+01</totfact>
</mgrwt>
</event>
<event>
11    1  0.2406360E-008  0.1554534E+04  0.7818608E-02  0.8848977E-01
          1   -1    0    0  501    0  0.00000000000E+00  0.00000000000E+00  0.13986886180E+04  0.13986886180E+04  0.00000000000E+00 0. -1.
         -1   -1    0    0    0  501 -0.00000000000E+00 -0.00000000000E+00 -0.43193588425E+03  0.43193588425E+03  0.00000000000E+00 0.  1.
         23    2    1    2    0    0  0.49542244791E+03 -0.61699665204E+02  0.19549186027E+03  0.54413306425E+03  0.92808801308E+02 0.  0.
        254    2    1    2    0    0 -0.49542244791E+03  0.61699665204E+02  0.77126087344E+03  0.12864914380E+04  0.90053685902E+03 0.  0.
        -24    2    4    4    0    0 -0.26182025073E+03 -0.28245316844E+03  0.75136971804E+03  0.84804906583E+03  0.79379649946E+02 0.  0.
         11    1    3    3    0    0  0.30158104424E+02  0.16033719909E+02  0.18031452716E+01  0.34202964337E+02  0.00000000000E+00 0.  1.
        -11    1    3    3    0    0  0.46526434349E+03 -0.77733385114E+02  0.19368871500E+03  0.50993009992E+03  0.00000000000E+00 0. -1.
          4    1    4    4  502    0 -0.13361441856E+03  0.15088214610E+03 -0.53978116806E+02  0.20864292932E+03  0.00000000000E+00 0. -1.
          3    1    5    5  503    0 -0.23851731401E+03 -0.24264934201E+03  0.70412092485E+03  0.78202013342E+03  0.00000000000E+00 0. -1.
         -4    1    5    5    0  503 -0.23302936716E+02 -0.39803826431E+02  0.47248793183E+02  0.66028932412E+02  0.00000000000E+00 0.  1.
         -3    1    4    4    0  502 -0.99987778618E+02  0.19327068755E+03  0.73869272215E+02  0.22979944281E+03  0.00000000000E+00 0.  1.
<mgrwt>
<rscale>  0 0.15545338E+04</rscale>
<asrwt>0</asrwt>
<pdfrwt beam="1">  1        1 0.21518286E+00 0.15545338E+04</pdfrwt>
<pdfrwt beam="2">  1       -1 0.66451675E-01 0.15545338E+04</pdfrwt>
<totfact> 0.17014661E+01</totfact>
</mgrwt>
</event>
<event>
11    1  0.2406360E-008  0.1330254E+04  0.7818608E-02  0.9005912E-01
         -2   -1    0    0    0  501 -0.00000000000E+00  0.00000000000E+00  0.55902264682E+03  0.55902264682E+03  0.00000000000E+00 0.  1.
          2   -1    0    0  501    0  0.00000000000E+00 -0.00000000000E+00 -0.79136985350E+03  0.79136985350E+03  0.00000000000E+00 0. -1.
         23    2    1    2    0    0 -0.23387805200E+03 -0.24614819844E+03 -0.17691607220E+03  0.39342399363E+03  0.90527693857E+02 0.  0.
        254    2    1    2    0    0  0.23387805200E+03  0.24614819844E+03 -0.55431134481E+02  0.95696850670E+03  0.89298837245E+03 0.  0.
        -24    2    4    4    0    0  0.26726943218E+03  0.19799400809E+03  0.19580608398E+03  0.39451986478E+03  0.81678176806E+02 0.  0.
         11    1    3    3    0    0 -0.85388631007E+02 -0.70051818083E+02 -0.14094040897E+02  0.11134234375E+03  0.00000000000E+00 0.  1.
        -11    1    3    3    0    0 -0.14848942100E+03 -0.17609638036E+03 -0.16282203130E+03  0.28208164988E+03  0.00000000000E+00 0. -1.
          2    1    4    4  502    0 -0.20732771779E+03  0.14470643121E+03 -0.14536961597E+02  0.25325097640E+03  0.00000000000E+00 0. -1.
          3    1    5    5  503    0  0.14124294656E+03  0.60449202576E+02  0.65773784001E+02  0.16712231062E+03  0.00000000000E+00 0. -1.
         -4    1    5    5    0  503  0.12602648563E+03  0.13754480552E+03  0.13003229998E+03  0.22739755417E+03  0.00000000000E+00 0.  1.
         -1    1    4    4    0  502  0.17393633761E+03 -0.96552240861E+02 -0.23670025686E+03  0.30919766551E+03  0.00000000000E+00 0.  1.
<mgrwt>
<rscale>  0 0.13302536E+04</rscale>
<asrwt>0</asrwt>
<pdfrwt beam="1">  1        2 0.12174921E+00 0.13302536E+04</pdfrwt>
<pdfrwt beam="2">  1       -2 0.86003484E-01 0.13302536E+04</pdfrwt>
<totfact> 0.40113255E+01</totfact>
</mgrwt>
</event>
<event>
11    1  0.2406360E-008  0.2448405E+04  0.7818608E-02  0.8421600E-01
         -2   -1    0    0    0  501 -0.00000000000E+00  0.00000000000E+00  0.16380577220E+04  0.16380577220E+04  0.00000000000E+00 0. -1.
          2   -1    0    0  501    0  0.00000000000E+00 -0.00000000000E+00 -0.91490804630E+03  0.91490804630E+03  0.00000000000E+00 0.  1.
         23    2    1    2    0    0  0.12486238915E+03  0.98036572398E+03  0.70295134714E+03  0.12163811244E+04  0.93460549141E+02 0.  0.
        254    2    1    2    0    0 -0.12486238915E+03 -0.98036572398E+03  0.20198328594E+02  0.13365846440E+04  0.89963490877E+03 0.  0.
        -24    2    4    4    0    0  0.26077569088E+03 -0.82903393331E+03 -0.91305535125E+02  0.87745264513E+03  0.79279380476E+02 0.  0.
         11    1    3    3    0    0  0.12702172553E+03  0.85698712861E+03  0.64480690786E+03  0.10799710208E+04  0.00000000000E+00 0. -1.
        -11    1    3    3    0    0 -0.21593363840E+01  0.12337859537E+03  0.58144439287E+02  0.13641010354E+03  0.00000000000E+00 0.  1.
          2    1    4    4  502    0 -0.31895249120E+03 -0.76952783834E+02  0.28659210053E+02  0.32935356823E+03  0.00000000000E+00 0. -1.
          3    1    5    5  503    0  0.94989608693E+02 -0.28567678079E+03  0.58834607166E+01  0.30111270972E+03  0.00000000000E+00 0. -1.
         -4    1    5    5    0  503  0.16578608219E+03 -0.54335715252E+03 -0.97188995841E+02  0.57633993542E+03  0.00000000000E+00 0.  1.
         -1    1    4    4    0  502 -0.66685588825E+02 -0.74379006836E+02  0.82844653665E+02  0.12977843063E+03  0.00000000000E+00 0.  1.
<mgrwt>
<rscale>  0 0.24484054E+04</rscale>
<asrwt>0</asrwt>
<pdfrwt beam="1">  1        2 0.14075508E+00 0.24484054E+04</pdfrwt>
<pdfrwt beam="2">  1       -2 0.25200888E+00 0.24484054E+04</pdfrwt>
<totfact> 0.16025468E+00</totfact>
</mgrwt>
</event>
<event>
11    1  0.2406360E-008  0.1315124E+04  0.7818608E-02  0.9017657E-01
          2   -1    0    0  501    0  0.00000000000E+00  0.00000000000E+00  0.20515837492E+04  0.20515837492E+04  0.00000000000E+00 0. -1.
         -2   -1    0    0    0  501 -0.00000000000E+00 -0.00000000000E+00 -0.21075796760E+03  0.21075796760E+03  0.00000000000E+00 0.  1.
         23    2    1    2    0    0  0.22630918557E+03  0.16889541885E+03  0.82055441337E+03  0.87256137793E+03  0.91171832211E+02 0.  0.
        254    2    1    2    0    0 -0.22630918557E+03 -0.16889541885E+03  0.10202713682E+04  0.13897803389E+04  0.90044112272E+03 0.  0.
        -24    2    4    4    0    0 -0.11502946396E+03 -0.24855772490E+03  0.79424729805E+03  0.84396802194E+03  0.80252921499E+02 0.  0.
         13    1    3    3    0    0  0.19126788273E+03  0.16028430757E+03  0.61223665814E+03  0.66114157923E+03  0.00000000000E+00 0. -1.
        -13    1    3    3    0    0  0.35041302842E+02  0.86111112786E+01  0.20831775522E+03  0.21141979870E+03  0.00000000000E+00 0.  1.
          4    1    4    4  502    0 -0.10067717353E+03  0.65162572744E+02  0.37605272057E+03  0.39471217717E+03  0.00000000000E+00 0. -1.
          3    1    5    5  503    0 -0.10972374892E+03 -0.14663051255E+03  0.52485613782E+03  0.55589007339E+03  0.00000000000E+00 0. -1.
         -4    1    5    5    0  503 -0.53057150424E+01 -0.10192721235E+03  0.26939116023E+03  0.28807794854E+03  0.00000000000E+00 0.  1.
         -3    1    4    4    0  502 -0.10602548071E+02  0.14499733309E+02 -0.15002865040E+03  0.15110013975E+03  0.00000000000E+00 0.  1.
<mgrwt>
<rscale>  0 0.13151238E+04</rscale>
<asrwt>0</asrwt>
<pdfrwt beam="1">  1        2 0.31562825E+00 0.13151238E+04</pdfrwt>
<pdfrwt beam="2">  1       -2 0.32424304E-01 0.13151238E+04</pdfrwt>
<totfact> 0.54314297E+01</totfact>
</mgrwt>
</event>
<event>
12    1  0.2447417E-008  0.2696628E+04  0.7818608E-02  0.8336100E-01
          2   -1    0    0  501    0  0.00000000000E+00  0.00000000000E+00  0.22300789610E+04  0.22300789610E+04  0.00000000000E+00 0.  1.
         -2   -1    0    0    0  501 -0.00000000000E+00 -0.00000000000E+00 -0.81519590335E+03  0.81519590335E+03  0.00000000000E+00 0. -1.
         23    2    1    2    0    0 -0.11405605910E+04  0.25535547471E+03  0.92585243694E+03  0.14938918228E+04  0.91788687304E+02 0.  0.
        254    2    1    2    0    0  0.11405605910E+04 -0.25535547471E+03  0.48903062073E+03  0.15513830415E+04  0.89529521017E+03 0.  0.
        -24    2    4    4    0    0  0.85773984433E+03 -0.23794286989E+03  0.74022829026E+03  0.11603983232E+04  0.79068938082E+02 0.  0.
         24    2    4    4    0    0  0.28282074667E+03 -0.17412604819E+02 -0.25119766953E+03  0.39098471831E+03  0.97355057492E+02 0.  0.
         11    1    3    3    0    0 -0.11128189625E+04  0.24448863307E+03  0.91775852655E+03  0.14630179247E+04  0.00000000000E+00 0.  1.
        -11    1    3    3    0    0 -0.27741628483E+02  0.10866841632E+02  0.80939103871E+01  0.30873898091E+02  0.00000000000E+00 0. -1.
          4    1    6    6  502    0  0.28940930053E+03 -0.21346122572E+02 -0.23632733473E+03  0.37425126496E+03  0.00000000000E+00 0. -1.
          3    1    5    5  503    0  0.35963844230E+03 -0.11169971893E+03  0.36194607707E+03  0.52232327068E+03  0.00000000000E+00 0. -1.
         -4    1    5    5    0  503  0.49810140203E+03 -0.12624315096E+03  0.37828221319E+03  0.63807505255E+03  0.00000000000E+00 0.  1.
         -3    1    6    6    0  502 -0.65885538614E+01  0.39335177528E+01 -0.14870334800E+02  0.16733453348E+02  0.00000000000E+00 0.  1.
<mgrwt>
<rscale>  0 0.26966284E+04</rscale>
<asrwt>0</asrwt>
<pdfrwt beam="1">  1        2 0.34308907E+00 0.26966284E+04</pdfrwt>
<pdfrwt beam="2">  1       -2 0.12541476E+00 0.26966284E+04</pdfrwt>
<totfact> 0.20720441E+00</totfact>
</mgrwt>
</event>
<event>
12    1  0.2406360E-008  0.1807495E+04  0.7818608E-02  0.8702324E-01
         -2   -1    0    0    0  501 -0.00000000000E+00  0.00000000000E+00  0.41978958987E+03  0.41978958987E+03  0.00000000000E+00 0.  1.
          2   -1    0    0  501    0  0.00000000000E+00 -0.00000000000E+00 -0.19456398833E+04  0.19456398833E+04  0.00000000000E+00 0. -1.
         23    2    1    2    0    0 -0.23813632344E+03 -0.19535432358E+03 -0.13459768506E+04  0.13838465801E+04  0.92225021420E+02 0.  0.
        254    2    1    2    0    0  0.23813632344E+03  0.19535432358E+03 -0.17987344280E+03  0.98158289306E+03  0.91448253140E+03 0.  0.
        -24    2    4    4    0    0  0.25709810884E+03  0.53289496801E+02 -0.53008062970E+03  0.59699891576E+03  0.80517224258E+02 0.  0.
         24    2    4    4    0    0 -0.18961785395E+02  0.14206482677E+03  0.35020718690E+03  0.38458397730E+03  0.68686225191E+02 0.  0.
         13    1    3    3    0    0 -0.10871112733E+03 -0.64032913185E+02 -0.73158207120E+03  0.74238174148E+03  0.00000000000E+00 0. -1.
        -13    1    3    3    0    0 -0.12942519612E+03 -0.13132141039E+03 -0.61439477942E+03  0.64146483863E+03  0.00000000000E+00 0.  1.
          2    1    6    6  502    0 -0.92482328323E+01  0.10435660925E+03  0.16591824113E+03  0.19622613089E+03  0.00000000000E+00 0. -1.
          3    1    5    5  503    0  0.24046956473E+03  0.25027421698E+02 -0.47108863031E+03  0.52950588382E+03  0.00000000000E+00 0. -1.
         -4    1    5    5    0  503  0.16628544112E+02  0.28262075103E+02 -0.58991999389E+02  0.67493031939E+02  0.00000000000E+00 0.  1.
         -1    1    6    6    0  502 -0.97135525626E+01  0.37708217521E+02  0.18428894577E+03  0.18835784641E+03  0.00000000000E+00 0.  1.
<mgrwt>
<rscale>  0 0.18074948E+04</rscale>
<asrwt>0</asrwt>
<pdfrwt beam="1">  1        2 0.29932921E+00 0.18074948E+04</pdfrwt>
<pdfrwt beam="2">  1       -2 0.64583014E-01 0.18074948E+04</pdfrwt>
<totfact> 0.14959053E+01</totfact>
</mgrwt>
</event>
<event>
11    1  0.2406360E-008  0.1585820E+04  0.7818608E-02  0.8829307E-01
         -1   -1    0    0    0  501 -0.00000000000E+00  0.00000000000E+00  0.48422921268E+03  0.48422921268E+03  0.00000000000E+00 0.  1.
          1   -1    0    0  501    0  0.00000000000E+00 -0.00000000000E+00 -0.12983658118E+04  0.12983658118E+04  0.00000000000E+00 0. -1.
         23    2    1    2    0    0  0.43982453970E+03  0.29723686450E+03 -0.26738762913E+03  0.60227450331E+03  0.97175376443E+02 0.  0.
        254    2    1    2    0    0 -0.43982453970E+03 -0.29723686450E+03 -0.54674896994E+03  0.11803205211E+04  0.90134716792E+03 0.  0.
        -24    2    4    4    0    0 -0.31529099690E+03 -0.25069417944E+03  0.12147656223E+03  0.42809153199E+03  0.79055804712E+02 0.  0.
         13    1    3    3    0    0  0.40728445182E+03  0.30094121093E+03 -0.25719429782E+03  0.56797459799E+03  0.00000000000E+00 0.  1.
        -13    1    3    3    0    0  0.32540087878E+02 -0.37043464348E+01 -0.10193331310E+02  0.34299905318E+02  0.00000000000E+00 0. -1.
          2    1    4    4  502    0  0.21868578884E+02 -0.15914735399E+03 -0.30224888799E+03  0.34228716791E+03  0.00000000000E+00 0. -1.
          3    1    5    5  503    0 -0.10546825422E+03 -0.60280816450E+02  0.45314895754E+01  0.12156423766E+03  0.00000000000E+00 0. -1.
         -4    1    5    5    0  503 -0.20982274269E+03 -0.19041336299E+03  0.11694507266E+03  0.30652729433E+03  0.00000000000E+00 0.  1.
         -1    1    4    4    0  502 -0.14640212168E+03  0.11260466893E+03 -0.36597664419E+03  0.40994182123E+03  0.00000000000E+00 0.  1.
<mgrwt>
<rscale>  0 0.15858205E+04</rscale>
<asrwt>0</asrwt>
<pdfrwt beam="1">  1        1 0.19974859E+00 0.15858205E+04</pdfrwt>
<pdfrwt beam="2">  1       -1 0.74496802E-01 0.15858205E+04</pdfrwt>
<totfact> 0.15799585E+01</totfact>
</mgrwt>
</event>
<event>
11    1  0.2406360E-008  0.1431990E+04  0.7818608E-02  0.8930983E-01
          2   -1    0    0  501    0  0.00000000000E+00  0.00000000000E+00  0.19467477092E+04  0.19467477092E+04  0.00000000000E+00 0. -1.
         -2   -1    0    0    0  501 -0.00000000000E+00 -0.00000000000E+00 -0.26333606307E+03  0.26333606307E+03  0.00000000000E+00 0.  1.
         23    2    1    2    0    0 -0.13045380208E+03 -0.21260820415E+03 -0.22955859330E+02  0.26734330846E+03  0.93407869845E+02 0.  0.
        254    2    1    2    0    0  0.13045380208E+03  0.21260820415E+03  0.17063675054E+04  0.19427404638E+04  0.89461164932E+03 0.  0.
        -24    2    4    4    0    0  0.32223966509E+03  0.48680836473E+03  0.10006566862E+04  0.11611848282E+04  0.78839177597E+02 0.  0.
         13    1    3    3    0    0 -0.12467971232E+03 -0.21309703439E+03 -0.39302348810E+02  0.25000010270E+03  0.00000000000E+00 0.  1.
        -13    1    3    3    0    0 -0.57740897630E+01  0.48883023533E+00  0.16346489480E+02  0.17343205756E+02  0.00000000000E+00 0. -1.
          4    1    4    4  502    0 -0.16489003496E+03 -0.23083361114E+03  0.57311393918E+03  0.63947827715E+03  0.00000000000E+00 0. -1.
          3    1    5    5  503    0  0.60688804562E+02  0.55746433684E+02  0.18079764624E+03  0.19869218594E+03  0.00000000000E+00 0. -1.
         -4    1    5    5    0  503  0.26155086053E+03  0.43106193105E+03  0.81985903997E+03  0.96249264229E+03  0.00000000000E+00 0.  1.
         -3    1    4    4    0  502 -0.26895828043E+02 -0.43366549445E+02  0.13259688003E+03  0.14207735840E+03  0.00000000000E+00 0.  1.
<mgrwt>
<rscale>  0 0.14319901E+04</rscale>
<asrwt>0</asrwt>
<pdfrwt beam="1">  1        2 0.29949964E+00 0.14319901E+04</pdfrwt>
<pdfrwt beam="2">  1       -2 0.40513242E-01 0.14319901E+04</pdfrwt>
<totfact> 0.40078010E+01</totfact>
</mgrwt>
</event>
<event>
12    1  0.2406360E-008  0.1725691E+04  0.7818608E-02  0.8746846E-01
          2   -1    0    0  501    0  0.00000000000E+00  0.00000000000E+00  0.16371061056E+04  0.16371061056E+04  0.00000000000E+00 0. -1.
         -2   -1    0    0    0  501 -0.00000000000E+00 -0.00000000000E+00 -0.45476757027E+03  0.45476757027E+03  0.00000000000E+00 0.  1.
         23    2    1    2    0    0 -0.59094867878E+03  0.65790941040E+02  0.61481367522E+03  0.86027224785E+03  0.92323866438E+02 0.  0.
        254    2    1    2    0    0  0.59094867878E+03 -0.65790941040E+02  0.56752486009E+03  0.12316014280E+04  0.91717436824E+03 0.  0.
        -24    2    4    4    0    0  0.39773614928E+03  0.46391918881E+02  0.79626374514E+03  0.89489017060E+03  0.80288299421E+02 0.  0.
         24    2    4    4    0    0  0.19321252950E+03 -0.11218285992E+03 -0.22873888506E+03  0.33671125740E+03  0.10553159578E+03 0.  0.
         11    1    3    3    0    0 -0.24609976408E+03 -0.12154570854E+02  0.22032646974E+03  0.33053983231E+03  0.00000000000E+00 0.  1.
        -11    1    3    3    0    0 -0.34484891470E+03  0.77945511894E+02  0.39448720547E+03  0.52973241554E+03  0.00000000000E+00 0. -1.
          2    1    6    6  502    0  0.14924419245E+02 -0.38017951358E+02 -0.90321683979E+02  0.99126734598E+02  0.00000000000E+00 0. -1.
          3    1    5    5  503    0  0.94003730969E+02 -0.17942725254E+02  0.15018569445E+03  0.17808533247E+03  0.00000000000E+00 0. -1.
         -4    1    5    5    0  503  0.30373241831E+03  0.64334644135E+02  0.64607805070E+03  0.71680483812E+03  0.00000000000E+00 0.  1.
         -1    1    6    6    0  502  0.17828811026E+03 -0.74164908563E+02 -0.13841720108E+03  0.23758452280E+03  0.00000000000E+00 0.  1.
<mgrwt>
<rscale>  0 0.17256915E+04</rscale>
<asrwt>0</asrwt>
<pdfrwt beam="1">  1        2 0.25186247E+00 0.17256915E+04</pdfrwt>
<pdfrwt beam="2">  1       -2 0.69964243E-01 0.17256915E+04</pdfrwt>
<totfact> 0.18787117E+01</totfact>
</mgrwt>
</event>
<event>
12    1  0.2406360E-008  0.1750165E+04  0.7818608E-02  0.8733259E-01
         -2   -1    0    0    0  501 -0.00000000000E+00  0.00000000000E+00  0.42326409396E+03  0.42326409396E+03  0.00000000000E+00 0.  1.
          2   -1    0    0  501    0  0.00000000000E+00 -0.00000000000E+00 -0.18092007553E+04  0.18092007553E+04  0.00000000000E+00 0. -1.
         23    2    1    2    0    0  0.24153584118E+03  0.15592955989E+03  0.21704230741E+03  0.37131420467E+03  0.90073776224E+02 0.  0.
        254    2    1    2    0    0 -0.24153584118E+03 -0.15592955989E+03 -0.16029789687E+04  0.18611506446E+04  0.90093648911E+03 0.  0.
        -24    2    4    4    0    0  0.16784190029E+03 -0.24344537180E+03 -0.13131017583E+04  0.13484184520E+04  0.80990995222E+02 0.  0.
         24    2    4    4    0    0 -0.40937774147E+03  0.87515811912E+02 -0.28987721036E+03  0.51273219259E+03  0.60136109617E+02 0.  0.
         11    1    3    3    0    0  0.10933461295E+03  0.22530732808E+02  0.61459263135E+02  0.12743207027E+03  0.00000000000E+00 0. -1.
        -11    1    3    3    0    0  0.13220122823E+03  0.13339882708E+03  0.15558304427E+03  0.24388213440E+03  0.00000000000E+00 0.  1.
          2    1    6    6  502    0 -0.22429968578E+03  0.63710560814E+02 -0.19181965776E+03  0.30193404198E+03  0.00000000000E+00 0. -1.
          1    1    5    5  503    0  0.16672520949E+03 -0.21756564146E+03 -0.10950821879E+04  0.11288654048E+04  0.00000000000E+00 0. -1.
         -2    1    5    5    0  503  0.11166908063E+01 -0.25879730341E+02 -0.21801957043E+03  0.21955304719E+03  0.00000000000E+00 0.  1.
         -1    1    6    6    0  502 -0.18507805569E+03  0.23805251097E+02 -0.98057552600E+02  0.21079815061E+03  0.00000000000E+00 0.  1.
<mgrwt>
<rscale>  0 0.17501654E+04</rscale>
<asrwt>0</asrwt>
<pdfrwt beam="1">  1        2 0.27833857E+00 0.17501654E+04</pdfrwt>
<pdfrwt beam="2">  1       -2 0.65117554E-01 0.17501654E+04</pdfrwt>
<totfact> 0.17575782E+01</totfact>
</mgrwt>
</event>
<event>
12    1  0.2406360E-008  0.1334999E+04  0.7818608E-02  0.9002262E-01
          1   -1    0    0  501    0  0.00000000000E+00  0.00000000000E+00  0.13498732478E+04  0.13498732478E+04  0.00000000000E+00 0. -1.
         -1   -1    0    0    0  501 -0.00000000000E+00 -0.00000000000E+00 -0.33007234714E+03  0.33007234714E+03  0.00000000000E+00 0.  1.
         23    2    1    2    0    0  0.24213593751E+03  0.52768372446E+02  0.61315278891E+03  0.66749327559E+03  0.90424648431E+02 0.  0.
        254    2    1    2    0    0 -0.24213593751E+03 -0.52768372446E+02  0.40664811173E+03  0.10124523193E+04  0.89346667469E+03 0.  0.
        -24    2    4    4    0    0  0.26525660265E+03 -0.23755664168E+03  0.24377726577E+03  0.43881599977E+03  0.79610948333E+02 0.  0.
         24    2    4    4    0    0 -0.50739254016E+03  0.18478826923E+03  0.16287084597E+03  0.57363631956E+03  0.10458403510E+03 0.  0.
         11    1    3    3    0    0  0.23035371048E+03  0.33327102962E+02  0.59326550835E+03  0.63728917387E+03  0.00000000000E+00 0. -1.
        -11    1    3    3    0    0  0.11782227032E+02  0.19441269484E+02  0.19887280551E+02  0.30204101719E+02  0.00000000000E+00 0.  1.
          2    1    6    6  502    0 -0.14177644551E+02  0.16572869961E+02 -0.10812529781E+02  0.24342892680E+02  0.00000000000E+00 0. -1.
          1    1    5    5  503    0  0.13041812117E+02  0.39409462055E+01  0.19562630153E+02  0.23839387970E+02  0.00000000000E+00 0. -1.
         -2    1    5    5    0  503  0.25221479053E+03 -0.24149758788E+03  0.22421463561E+03  0.41497661180E+03  0.00000000000E+00 0.  1.
         -1    1    6    6    0  502 -0.49321489561E+03  0.16821539927E+03  0.17368337575E+03  0.54929342688E+03  0.00000000000E+00 0.  1.
<mgrwt>
<rscale>  0 0.13349994E+04</rscale>
<asrwt>0</asrwt>
<pdfrwt beam="1">  1        1 0.20767280E+00 0.13349994E+04</pdfrwt>
<pdfrwt beam="2">  1       -1 0.50780362E-01 0.13349994E+04</pdfrwt>
<totfact> 0.31824696E+01</totfact>
</mgrwt>
</event>
<event>
11    1  0.2406360E-008  0.1478293E+04  0.7818608E-02  0.8899018E-01
          2   -1    0    0  501    0  0.00000000000E+00  0.00000000000E+00  0.92575842707E+03  0.92575842707E+03  0.00000000000E+00 0. -1.
         -2   -1    0    0    0  501 -0.00000000000E+00 -0.00000000000E+00 -0.59015129809E+03  0.59015129809E+03  0.00000000000E+00 0.  1.
         23    2    1    2    0    0 -0.24300952384E+03  0.31303209949E+03 -0.16064185596E+03  0.43703230045E+03  0.90270159868E+02 0.  0.
        254    2    1    2    0    0  0.24300952384E+03 -0.31303209949E+03  0.49624898494E+03  0.10788774247E+04  0.87216438732E+03 0.  0.
        -24    2    4    4    0    0  0.24545768205E+02  0.17092037416E+03 -0.11351004422E+03  0.22187670625E+03  0.80798970284E+02 0.  0.
         11    1    3    3    0    0 -0.13952293008E+03  0.22953389586E+03 -0.13854613573E+03  0.30223747135E+03  0.00000000000E+00 0. -1.
        -11    1    3    3    0    0 -0.10348659377E+03  0.83498203633E+02 -0.22095720230E+02  0.13479482910E+03  0.00000000000E+00 0.  1.
          4    1    4    4  502    0  0.21379995122E+03 -0.44023017705E+03  0.63848950328E+03  0.80447614864E+03  0.00000000000E+00 0. -1.
          1    1    5    5  503    0  0.15939023797E+02  0.15126797674E+03 -0.12559161054E+03  0.19725441922E+03  0.00000000000E+00 0. -1.
         -2    1    5    5    0  503  0.86067444084E+01  0.19652397426E+02  0.12081566319E+02  0.24622287031E+02  0.00000000000E+00 0.  1.
         -3    1    4    4    0  502  0.46638044161E+01 -0.43722296598E+02 -0.28730474119E+02  0.52524569818E+02  0.00000000000E+00 0.  1.
<mgrwt>
<rscale>  0 0.14782930E+04</rscale>
<asrwt>0</asrwt>
<pdfrwt beam="1">  1        2 0.14242437E+00 0.14782930E+04</pdfrwt>
<pdfrwt beam="2">  1       -2 0.90792507E-01 0.14782930E+04</pdfrwt>
<totfact> 0.28244393E+01</totfact>
</mgrwt>
</event>
<event>
12    1  0.2406360E-008  0.1557778E+04  0.7818608E-02  0.8846915E-01
          2   -1    0    0  501    0  0.00000000000E+00  0.00000000000E+00  0.25613513360E+04  0.25613513360E+04  0.00000000000E+00 0. -1.
         -2   -1    0    0    0  501 -0.00000000000E+00 -0.00000000000E+00 -0.23685481898E+03  0.23685481898E+03  0.00000000000E+00 0.  1.
         23    2    1    2    0    0  0.14400478485E+03 -0.47283044066E+03  0.52905190596E+03  0.73032862310E+03  0.95801747605E+02 0.  0.
        254    2    1    2    0    0 -0.14400478485E+03  0.47283044066E+03  0.17954446111E+04  0.20678775319E+04  0.89899395539E+03 0.  0.
        -24    2    4    4    0    0  0.17258142408E+03  0.14434654990E+03  0.29730639372E+02  0.24132783134E+03  0.82066661053E+02 0.  0.
         24    2    4    4    0    0 -0.31658620893E+03  0.32848389076E+03  0.17657139717E+04  0.18265497006E+04  0.10202688149E+03 0.  0.
         13    1    3    3    0    0  0.15690210081E+03 -0.42851105960E+03  0.49282522427E+03  0.67165221589E+03  0.00000000000E+00 0. -1.
        -13    1    3    3    0    0 -0.12897315956E+02 -0.44319381062E+02  0.36226681690E+02  0.58676407208E+02  0.00000000000E+00 0.  1.
          2    1    6    6  502    0  0.70677370901E+01  0.29457486666E+01  0.18135195940E+02  0.19685417815E+02  0.00000000000E+00 0. -1.
          3    1    5    5  503    0  0.88866234371E+02  0.87405820554E+02  0.56123243989E+02  0.13669968396E+03  0.00000000000E+00 0. -1.
         -4    1    5    5    0  503  0.83715189712E+02  0.56940729349E+02 -0.26392604617E+02  0.10462814739E+03  0.00000000000E+00 0.  1.
         -1    1    6    6    0  502 -0.32365394602E+03  0.32553814209E+03  0.17475787758E+04  0.18068642828E+04  0.00000000000E+00 0.  1.
<mgrwt>
<rscale>  0 0.15577784E+04</rscale>
<asrwt>0</asrwt>
<pdfrwt beam="1">  1        2 0.39405403E+00 0.15577784E+04</pdfrwt>
<pdfrwt beam="2">  1       -2 0.36439205E-01 0.15577784E+04</pdfrwt>
<totfact> 0.21928830E+01</totfact>
</mgrwt>
</event>
<event>
12    1  0.2406360E-008  0.1478769E+04  0.7818608E-02  0.8898696E-01
          2   -1    0    0  501    0  0.00000000000E+00  0.00000000000E+00  0.16965326594E+04  0.16965326594E+04  0.00000000000E+00 0. -1.
         -2   -1    0    0    0  501 -0.00000000000E+00 -0.00000000000E+00 -0.32223912029E+03  0.32223912029E+03  0.00000000000E+00 0.  1.
         23    2    1    2    0    0 -0.44237622775E+03  0.10446823824E+03  0.50918441765E+03  0.68940810493E+03  0.96976410970E+02 0.  0.
        254    2    1    2    0    0  0.44237622775E+03 -0.10446823824E+03  0.86510912143E+03  0.13293636747E+04  0.90121232128E+03 0.  0.
        -24    2    4    4    0    0 -0.11414352106E+03  0.18695836790E+03 -0.29206935651E+02  0.23535004996E+03  0.80959410809E+02 0.  0.
         24    2    4    4    0    0  0.55651974881E+03 -0.29142660614E+03  0.89431605708E+03  0.10940136248E+04  0.49202679160E+02 0.  0.
         13    1    3    3    0    0 -0.34951296787E+03  0.78177334041E+02  0.33568902580E+03  0.49087486421E+03  0.00000000000E+00 0. -1.
        -13    1    3    3    0    0 -0.92863259882E+02  0.26290904198E+02  0.17349539184E+03  0.19853324072E+03  0.00000000000E+00 0.  1.
          2    1    6    6  502    0  0.22816122865E+03 -0.14648674860E+03  0.39281631630E+03  0.47730553331E+03  0.00000000000E+00 0. -1.
          1    1    5    5  503    0 -0.26297902044E+02  0.96051841597E+02  0.16462199062E+02  0.10093829761E+03  0.00000000000E+00 0. -1.
         -2    1    5    5    0  503 -0.87845619020E+02  0.90906526302E+02 -0.45669134713E+02  0.13441175235E+03  0.00000000000E+00 0.  1.
         -1    1    6    6    0  502  0.32835852016E+03 -0.14493985753E+03  0.50149974078E+03  0.61670809145E+03  0.00000000000E+00 0.  1.
<mgrwt>
<rscale>  0 0.14787687E+04</rscale>
<asrwt>0</asrwt>
<pdfrwt beam="1">  1        2 0.26100502E+00 0.14787687E+04</pdfrwt>
<pdfrwt beam="2">  1       -2 0.49575250E-01 0.14787687E+04</pdfrwt>
<totfact> 0.36703063E+01</totfact>
</mgrwt>
</event>
<event>
11    1  0.2485321E-008  0.2346762E+04  0.7818608E-02  0.8459708E-01
          2   -1    0    0  501    0  0.00000000000E+00  0.00000000000E+00  0.22052720669E+04  0.22052720669E+04  0.00000000000E+00 0. -1.
         -2   -1    0    0    0  501 -0.00000000000E+00 -0.00000000000E+00 -0.62433232588E+03  0.62433232588E+03  0.00000000000E+00 0.  1.
         23    2    1    2    0    0  0.54700437569E+03 -0.22868973812E+03 -0.29780460495E+03  0.66981015432E+03  0.91898186913E+02 0.  0.
        254    2    1    2    0    0 -0.54700437569E+03  0.22868973812E+03  0.18787443459E+04  0.21597942384E+04  0.88516555038E+03 0.  0.
        -24    2    4    4    0    0  0.12318725329E+03 -0.70586294001E+02  0.97846344407E+03  0.99217207678E+03  0.82808177613E+02 0.  0.
         11    1    3    3    0    0  0.43040765208E+02 -0.21950568439E+02  0.13799331949E+01  0.48334657753E+02  0.00000000000E+00 0. -1.
        -11    1    3    3    0    0  0.50396361048E+03 -0.20673916968E+03 -0.29918453815E+03  0.62147549657E+03  0.00000000000E+00 0.  1.
          2    1    4    4  502    0 -0.51761096787E+03  0.27726460135E+03  0.67526233028E+03  0.89486087629E+03  0.00000000000E+00 0. -1.
          1    1    5    5  503    0  0.11262324994E+03 -0.59270873277E+02  0.95848850238E+03  0.96690084395E+03  0.00000000000E+00 0. -1.
         -2    1    5    5    0  503  0.10564003344E+02 -0.11315420724E+02  0.19974941695E+02  0.25271232825E+02  0.00000000000E+00 0.  1.
         -1    1    4    4    0  502 -0.15258066110E+03  0.22011430770E+02  0.22501857158E+03  0.27276128535E+03  0.00000000000E+00 0.  1.
<mgrwt>
<rscale>  0 0.23467617E+04</rscale>
<asrwt>0</asrwt>
<pdfrwt beam="1">  1        2 0.33927262E+00 0.23467617E+04</pdfrwt>
<pdfrwt beam="2">  1       -2 0.96051128E-01 0.23467617E+04</pdfrwt>
<totfact> 0.42066408E+00</totfact>
</mgrwt>
</event>
<event>
12    1  0.2406360E-008  0.1511832E+04  0.7818608E-02  0.8876623E-01
         -2   -1    0    0    0  501 -0.00000000000E+00  0.00000000000E+00  0.35512744041E+03  0.35512744041E+03  0.00000000000E+00 0.  1.
          2   -1    0    0  501    0  0.00000000000E+00 -0.00000000000E+00 -0.16090253626E+04  0.16090253626E+04  0.00000000000E+00 0. -1.
         23    2    1    2    0    0  0.25810614412E+03 -0.37624066889E+03 -0.62510921258E+03  0.77875768408E+03  0.86753560713E+02 0.  0.
        254    2    1    2    0    0 -0.25810614412E+03  0.37624066889E+03 -0.62878870957E+03  0.11853951189E+04  0.89532704866E+03 0.  0.
        -24    2    4    4    0    0  0.27813194971E+02  0.48614744063E+03 -0.70840104006E+03  0.86315831057E+03  0.78085387311E+02 0.  0.
         24    2    4    4    0    0 -0.28591933909E+03 -0.10990677174E+03  0.79612330484E+02  0.32223680832E+03  0.60572853092E+02 0.  0.
         11    1    3    3    0    0  0.10750378704E+03 -0.97476107853E+02 -0.23491115548E+03  0.27611937057E+03  0.00000000000E+00 0.  1.
        -11    1    3    3    0    0  0.15060235708E+03 -0.27876456104E+03 -0.39019805710E+03  0.50263831351E+03  0.00000000000E+00 0. -1.
          4    1    6    6  502    0 -0.16506715997E+03 -0.52577848549E+02  0.73934838621E+02  0.18835593386E+03  0.00000000000E+00 0. -1.
          3    1    5    5  503    0  0.44623340941E+02  0.43163477393E+03 -0.64985051035E+03  0.78141250721E+03  0.00000000000E+00 0. -1.
         -4    1    5    5    0  503 -0.16810145970E+02  0.54512666705E+02 -0.58550529703E+02  0.81745803362E+02  0.00000000000E+00 0.  1.
         -3    1    6    6    0  502 -0.12085217912E+03 -0.57328923192E+02  0.56774918630E+01  0.13388087446E+03  0.00000000000E+00 0.  1.
<mgrwt>
<rscale>  0 0.15118321E+04</rscale>
<asrwt>0</asrwt>
<pdfrwt beam="1">  1        2 0.24754237E+00 0.15118321E+04</pdfrwt>
<pdfrwt beam="2">  1       -2 0.54634989E-01 0.15118321E+04</pdfrwt>
<totfact> 0.33538209E+01</totfact>
</mgrwt>
</event>
<event>
12    1  0.2406360E-008  0.1620833E+04  0.7818608E-02  0.8807851E-01
          1   -1    0    0  501    0  0.00000000000E+00  0.00000000000E+00  0.17246807920E+04  0.17246807920E+04  0.00000000000E+00 0. -1.
         -1   -1    0    0    0  501 -0.00000000000E+00 -0.00000000000E+00 -0.38080950962E+03  0.38080950962E+03  0.00000000000E+00 0.  1.
         23    2    1    2    0    0  0.39371121082E+03 -0.24250471846E+03  0.87853378501E+03  0.99658151821E+03  0.86810454621E+02 0.  0.
        254    2    1    2    0    0 -0.39371121082E+03  0.24250471846E+03  0.46533749735E+03  0.11089087834E+04  0.89404845923E+03 0.  0.
        -24    2    4    4    0    0  0.26900435023E+03  0.12781602584E+03  0.40798402670E+02  0.31108394103E+03  0.80052681395E+02 0.  0.
         24    2    4    4    0    0 -0.66271556105E+03  0.11468869262E+03  0.42453909468E+03  0.79782484237E+03  0.62814210994E+02 0.  0.
         11    1    3    3    0    0  0.22428212934E+03 -0.11538510778E+03  0.39459023960E+03  0.46831362763E+03  0.00000000000E+00 0.  1.
        -11    1    3    3    0    0  0.16942908148E+03 -0.12711961068E+03  0.48394354541E+03  0.52826789058E+03  0.00000000000E+00 0. -1.
          2    1    6    6  502    0 -0.14039050642E+03  0.21577352447E+02  0.12088160419E+03  0.18651391011E+03  0.00000000000E+00 0. -1.
          3    1    5    5  503    0  0.99284307573E+01 -0.22891705220E+01 -0.12697180732E+02  0.16279816876E+02  0.00000000000E+00 0. -1.
         -4    1    5    5    0  503  0.25907591948E+03  0.13010519637E+03  0.53495583402E+02  0.29480412415E+03  0.00000000000E+00 0.  1.
         -1    1    6    6    0  502 -0.52232505463E+03  0.93111340170E+02  0.30365749049E+03  0.61131093226E+03  0.00000000000E+00 0.  1.
<mgrwt>
<rscale>  0 0.16208329E+04</rscale>
<asrwt>0</asrwt>
<pdfrwt beam="1">  1        1 0.26533550E+00 0.16208329E+04</pdfrwt>
<pdfrwt beam="2">  1       -1 0.58586080E-01 0.16208329E+04</pdfrwt>
<totfact> 0.12966775E+01</totfact>
</mgrwt>
</event>
<event>
11    1  0.2406360E-008  0.1104406E+04  0.7818608E-02  0.9200908E-01
         -2   -1    0    0    0  501 -0.00000000000E+00  0.00000000000E+00  0.14887628096E+03  0.14887628096E+03  0.00000000000E+00 0.  1.
          2   -1    0    0  501    0  0.00000000000E+00 -0.00000000000E+00 -0.20481972274E+04  0.20481972274E+04  0.00000000000E+00 0. -1.
         23    2    1    2    0    0 -0.16648251239E+02 -0.12540046509E+03 -0.54369894991E+03  0.56545146374E+03  0.90135280578E+02 0.  0.
        254    2    1    2    0    0  0.16648251239E+02  0.12540046509E+03 -0.13556219965E+04  0.16316220446E+04  0.89915352308E+03 0.  0.
        -24    2    4    4    0    0 -0.30521534663E+03 -0.27698992771E+02 -0.11643588509E+04  0.12064305667E+04  0.76285888431E+02 0.  0.
         13    1    3    3    0    0  0.10337882386E+02 -0.38075880966E+02 -0.33882372379E+03  0.34111311955E+03  0.00000000000E+00 0. -1.
        -13    1    3    3    0    0 -0.26986133625E+02 -0.87324584123E+02 -0.20487522611E+03  0.22433834419E+03  0.00000000000E+00 0.  1.
          2    1    4    4  502    0  0.72459136535E+02  0.42157231239E+02  0.12233954053E+02  0.84718523623E+02  0.00000000000E+00 0. -1.
          1    1    5    5  503    0 -0.80305831104E+02  0.25845000874E+02 -0.28990791458E+03  0.30193308781E+03  0.00000000000E+00 0. -1.
         -2    1    5    5    0  503 -0.22490951552E+03 -0.53543993644E+02 -0.87445093627E+03  0.90449747892E+03  0.00000000000E+00 0.  1.
         -1    1    4    4    0  502  0.24940446133E+03  0.11094222662E+03 -0.20349709973E+03  0.34047295425E+03  0.00000000000E+00 0.  1.
<mgrwt>
<rscale>  0 0.11044057E+04</rscale>
<asrwt>0</asrwt>
<pdfrwt beam="1">  1        2 0.31510724E+00 0.11044057E+04</pdfrwt>
<pdfrwt beam="2">  1       -2 0.22904045E-01 0.11044057E+04</pdfrwt>
<totfact> 0.10501621E+02</totfact>
</mgrwt>
</event>
<event>
11    1  0.2406360E-008  0.2022053E+04  0.7818608E-02  0.8596379E-01
          2   -1    0    0  501    0  0.00000000000E+00  0.00000000000E+00  0.64727558818E+03  0.64727558818E+03  0.00000000000E+00 0. -1.
         -2   -1    0    0    0  501 -0.00000000000E+00 -0.00000000000E+00 -0.15791950670E+04  0.15791950670E+04  0.00000000000E+00 0.  1.
         23    2    1    2    0    0 -0.32709880079E+03  0.97305507906E+02  0.43277182066E+03  0.55827962951E+03  0.89009598483E+02 0.  0.
        254    2    1    2    0    0  0.32709880079E+03 -0.97305507906E+02 -0.13646912994E+04  0.16681910256E+04  0.89666993251E+03 0.  0.
        -24    2    4    4    0    0  0.27307730892E+02  0.16508508207E+03 -0.61544693888E+03  0.64323202055E+03  0.83508689412E+02 0.  0.
         13    1    3    3    0    0 -0.36392792656E+01  0.99149980462E+00 -0.45263441470E+01  0.58919620478E+01  0.00000000000E+00 0.  1.
        -13    1    3    3    0    0 -0.32345952152E+03  0.96314008101E+02  0.43729816481E+03  0.55238766747E+03  0.00000000000E+00 0. -1.
          4    1    4    4  502    0 -0.73910383743E+02  0.13412345455E+03 -0.13831749277E+03  0.20635788013E+03  0.00000000000E+00 0. -1.
          3    1    5    5  503    0 -0.21156851919E+02  0.78898285978E+02 -0.19705547064E+03  0.21331528408E+03  0.00000000000E+00 0. -1.
         -4    1    5    5    0  503  0.48464582811E+02  0.86186796087E+02 -0.41839146824E+03  0.42991673648E+03  0.00000000000E+00 0.  1.
         -3    1    4    4    0  502  0.37370145364E+03 -0.39651404453E+03 -0.61092686778E+03  0.81860112493E+03  0.00000000000E+00 0.  1.
<mgrwt>
<rscale>  0 0.20220528E+04</rscale>
<asrwt>0</asrwt>
<pdfrwt beam="1">  1        2 0.99580861E-01 0.20220528E+04</pdfrwt>
<pdfrwt beam="2">  1       -2 0.24295308E+00 0.20220528E+04</pdfrwt>
<totfact> 0.29761288E+00</totfact>
</mgrwt>
</event>
<event>
12    1  0.2406360E-008  0.2846290E+04  0.7818608E-02  0.8289040E-01
          1   -1    0    0  501    0  0.00000000000E+00  0.00000000000E+00  0.15422026872E+04  0.15422026872E+04  0.00000000000E+00 0. -1.
         -1   -1    0    0    0  501 -0.00000000000E+00 -0.00000000000E+00 -0.13132781252E+04  0.13132781252E+04  0.00000000000E+00 0.  1.
         23    2    1    2    0    0 -0.24439276204E+03  0.89703953647E+03 -0.78085201652E+03  0.12175010263E+04  0.90394277171E+02 0.  0.
        254    2    1    2    0    0  0.24439276204E+03 -0.89703953647E+03  0.10097765785E+04  0.16379797860E+04  0.89382396971E+03 0.  0.
        -24    2    4    4    0    0 -0.27284230922E+03 -0.46286712639E+03  0.20083386972E+03  0.57971097809E+03  0.83914673900E+02 0.  0.
         24    2    4    4    0    0  0.51723507126E+03 -0.43417241008E+03  0.80894270875E+03  0.10582688079E+04  0.97502631566E+02 0.  0.
         13    1    3    3    0    0 -0.56140046884E+02  0.28308454436E+03 -0.29088065104E+03  0.40975616807E+03  0.00000000000E+00 0. -1.
        -13    1    3    3    0    0 -0.18825271516E+03  0.61395499210E+03 -0.48997136547E+03  0.80774485828E+03  0.00000000000E+00 0.  1.
          4    1    6    6  502    0  0.17425824283E+03 -0.15009474774E+03  0.34971674735E+03  0.41856441783E+03  0.00000000000E+00 0. -1.
          3    1    5    5  503    0 -0.20727543948E+03 -0.37977920831E+03  0.12788644947E+03  0.45116548941E+03  0.00000000000E+00 0. -1.
         -2    1    5    5    0  503 -0.65566869744E+02 -0.83087918074E+02  0.72947420246E+02  0.12854548867E+03  0.00000000000E+00 0.  1.
         -3    1    6    6    0  502  0.34297682844E+03 -0.28407766234E+03  0.45922596139E+03  0.63970439009E+03  0.00000000000E+00 0.  1.
<mgrwt>
<rscale>  0 0.28462896E+04</rscale>
<asrwt>0</asrwt>
<pdfrwt beam="1">  1        1 0.23726195E+00 0.28462896E+04</pdfrwt>
<pdfrwt beam="2">  1       -1 0.20204279E+00 0.28462896E+04</pdfrwt>
<totfact> 0.76846190E-01</totfact>
</mgrwt>
</event>
<event>
11    1  0.2406360E-008  0.2184110E+04  0.7818608E-02  0.8525071E-01
         -2   -1    0    0    0  501 -0.00000000000E+00  0.00000000000E+00  0.24085079374E+03  0.24085079374E+03  0.00000000000E+00 0.  1.
          2   -1    0    0  501    0  0.00000000000E+00 -0.00000000000E+00 -0.49515473351E+04  0.49515473351E+04  0.00000000000E+00 0. -1.
         23    2    1    2    0    0 -0.15877622765E+03  0.19746208931E+03  0.10161018811E+03  0.28803283204E+03  0.91853768677E+02 0.  0.
        254    2    1    2    0    0  0.15877622765E+03 -0.19746208931E+03 -0.48123067295E+04  0.49043652968E+04  0.91120894355E+03 0.  0.
        -24    2    4    4    0    0  0.16212049553E+03 -0.19121731805E+03 -0.35271478409E+03  0.44022336427E+03  0.80881232300E+02 0.  0.
         13    1    3    3    0    0 -0.35422014126E+02 -0.11433847672E+01  0.17886470293E+02  0.39698264861E+02  0.00000000000E+00 0. -1.
        -13    1    3    3    0    0 -0.12335421353E+03  0.19860547408E+03  0.83723717820E+02  0.24833456717E+03  0.00000000000E+00 0.  1.
          2    1    4    4  502    0 -0.19853038091E+02 -0.69027957917E+02 -0.64321543769E+03  0.64721333529E+03  0.00000000000E+00 0. -1.
          3    1    5    5  503    0  0.30678063870E+02 -0.59413507338E+02 -0.15427810227E+03  0.16814529817E+03  0.00000000000E+00 0. -1.
         -4    1    5    5    0  503  0.13144243166E+03 -0.13180381071E+03 -0.19843668182E+03  0.27207806610E+03  0.00000000000E+00 0.  1.
         -1    1    4    4    0  502  0.16508770211E+02  0.62783186656E+02 -0.38163765077E+04  0.38169285973E+04  0.00000000000E+00 0.  1.
<mgrwt>
<rscale>  0 0.21841100E+04</rscale>
<asrwt>0</asrwt>
<pdfrwt beam="1">  1        2 0.76177655E+00 0.21841100E+04</pdfrwt>
<pdfrwt beam="2">  1       -2 0.37053966E-01 0.21841100E+04</pdfrwt>
<totfact> 0.25234954E-01</totfact>
</mgrwt>
</event>
<event>
12    1  0.2406360E-008  0.1422554E+04  0.7818608E-02  0.8937653E-01
         -2   -1    0    0    0  501 -0.00000000000E+00  0.00000000000E+00  0.40201529361E+03  0.40201529361E+03  0.00000000000E+00 0.  1.
          2   -1    0    0  501    0  0.00000000000E+00 -0.00000000000E+00 -0.12584465665E+04  0.12584465665E+04  0.00000000000E+00 0. -1.
         23    2    1    2    0    0  0.16014833086E+03 -0.42649651137E+02  0.18400548571E+03  0.26400700222E+03  0.91516106956E+02 0.  0.
        254    2    1    2    0    0 -0.16014833086E+03  0.42649651137E+02 -0.10404367586E+04  0.13964548579E+04  0.91657571474E+03 0.  0.
        -24    2    4    4    0    0 -0.46612707594E+03  0.23603377546E+03 -0.77337021663E+03  0.93679132116E+03  0.80561115644E+02 0.  0.
         24    2    4    4    0    0  0.30597874508E+03 -0.19338412432E+03 -0.26706654201E+03  0.45966353675E+03  0.94581272875E+02 0.  0.
         13    1    3    3    0    0  0.33244874091E+02  0.65575054477E+01  0.96298111299E+02  0.10208598714E+03  0.00000000000E+00 0. -1.
        -13    1    3    3    0    0  0.12690345677E+03 -0.49207156585E+02  0.87707374411E+02  0.16192101508E+03  0.00000000000E+00 0.  1.
          4    1    6    6  502    0 -0.27937096068E+01 -0.95525105919E+01  0.27102932681E+01  0.10315084177E+02  0.00000000000E+00 0. -1.
          1    1    5    5  503    0 -0.33592042600E+03  0.18767621643E+03 -0.62156077583E+03  0.73102851714E+03  0.00000000000E+00 0. -1.
         -2    1    5    5    0  503 -0.13020664994E+03  0.48357559022E+02 -0.15180944079E+03  0.20576280402E+03  0.00000000000E+00 0.  1.
         -3    1    6    6    0  502  0.30877245469E+03 -0.18383161373E+03 -0.26977683528E+03  0.44934845257E+03  0.00000000000E+00 0.  1.
<mgrwt>
<rscale>  0 0.14225537E+04</rscale>
<asrwt>0</asrwt>
<pdfrwt beam="1">  1        2 0.19360717E+00 0.14225537E+04</pdfrwt>
<pdfrwt beam="2">  1       -2 0.61848505E-01 0.14225537E+04</pdfrwt>
<totfact> 0.41259445E+01</totfact>
</mgrwt>
</event>
<event>
11    1  0.2406360E-008  0.1325354E+04  0.7818608E-02  0.9009697E-01
          3   -1    0    0  501    0  0.00000000000E+00  0.00000000000E+00  0.77920865673E+03  0.77920865673E+03  0.00000000000E+00 0. -1.
         -3   -1    0    0    0  501 -0.00000000000E+00 -0.00000000000E+00 -0.56357274890E+03  0.56357274890E+03  0.00000000000E+00 0.  1.
         23    2    1    2    0    0 -0.10028240816E+03  0.29772872193E+02 -0.28044265735E+03  0.31278462906E+03  0.90791821260E+02 0.  0.
        254    2    1    2    0    0  0.10028240816E+03 -0.29772872193E+02  0.49607856519E+03  0.10299967766E+04  0.89658041000E+03 0.  0.
        -24    2    4    4    0    0  0.45405566032E+02  0.90091717389E+02 -0.15880822298E+02  0.12813892704E+03  0.77389929181E+02 0.  0.
         11    1    3    3    0    0 -0.10853876933E+03  0.14506623073E+02 -0.27253643781E+03  0.29371281296E+03  0.00000000000E+00 0.  1.
        -11    1    3    3    0    0  0.82563611715E+01  0.15266249120E+02 -0.79062195425E+01  0.19071816102E+02  0.00000000000E+00 0. -1.
          2    1    4    4  502    0 -0.19552839246E+03 -0.58628742989E+02 -0.10764114664E+03  0.23077109484E+03  0.00000000000E+00 0. -1.
          1    1    5    5  503    0  0.56269479644E+01 -0.14183788808E+02 -0.47431849610E+01  0.15979368320E+02  0.00000000000E+00 0.  1.
         -2    1    5    5    0  503  0.39778618067E+02  0.10427550620E+03 -0.11137637337E+02  0.11215955872E+03  0.00000000000E+00 0.  1.
         -1    1    4    4    0  502  0.25040523459E+03 -0.61235846592E+02  0.61960053413E+03  0.67108675468E+03  0.00000000000E+00 0. -1.
<mgrwt>
<rscale>  0 0.13253539E+04</rscale>
<asrwt>0</asrwt>
<pdfrwt beam="1">  1        3 0.11987825E+00 0.13253539E+04</pdfrwt>
<pdfrwt beam="2">  1       -3 0.86703500E-01 0.13253539E+04</pdfrwt>
<totfact> 0.17672719E+00</totfact>
</mgrwt>
</event>
<event>
12    1  0.2406360E-008  0.1401046E+04  0.7818608E-02  0.8953061E-01
          1   -1    0    0  501    0  0.00000000000E+00  0.00000000000E+00  0.10555225768E+04  0.10555225768E+04  0.00000000000E+00 0. -1.
         -1   -1    0    0    0  501 -0.00000000000E+00 -0.00000000000E+00 -0.46491922403E+03  0.46491922403E+03  0.00000000000E+00 0.  1.
         23    2    1    2    0    0 -0.20314291454E+03 -0.34725710083E+03  0.11725621345E+03  0.43047436397E+03  0.98512032989E+02 0.  0.
        254    2    1    2    0    0  0.20314291454E+03  0.34725710083E+03  0.47334713930E+03  0.10899674368E+04  0.89560982646E+03 0.  0.
        -24    2    4    4    0    0 -0.22702958840E+03  0.33247781317E+03  0.50059874570E+03  0.64779794332E+03  0.83421465576E+02 0.  0.
         24    2    4    4    0    0  0.43017250293E+03  0.14779287665E+02 -0.27251606399E+02  0.44216949350E+03  0.97490519078E+02 0.  0.
         11    1    3    3    0    0 -0.21329881032E+03 -0.34093952926E+03  0.11250290375E+03  0.41760393730E+03  0.00000000000E+00 0.  1.
        -11    1    3    3    0    0  0.10155895784E+02 -0.63175715725E+01  0.47533096920E+01  0.12870426675E+02  0.00000000000E+00 0. -1.
          2    1    6    6  502    0  0.56252271063E+02 -0.31370894354E+02  0.25873907357E+00  0.64408989731E+02  0.00000000000E+00 0. -1.
          1    1    5    5  503    0  0.62543000656E+01  0.23749862490E+01  0.11286549771E+02  0.13120329063E+02  0.00000000000E+00 0. -1.
         -2    1    5    5    0  503 -0.23328388846E+03  0.33010282692E+03  0.48931219593E+03  0.63467761425E+03  0.00000000000E+00 0.  1.
         -1    1    6    6    0  502  0.37392023187E+03  0.46150182019E+02 -0.27510345473E+02  0.37776050377E+03  0.00000000000E+00 0.  1.
<mgrwt>
<rscale>  0 0.14010464E+04</rscale>
<asrwt>0</asrwt>
<pdfrwt beam="1">  1        1 0.16238809E+00 0.14010464E+04</pdfrwt>
<pdfrwt beam="2">  1       -1 0.71526035E-01 0.14010464E+04</pdfrwt>
<totfact> 0.26373083E+01</totfact>
</mgrwt>
</event>
<event>
11    1  0.2406360E-008  0.1365551E+04  0.7818608E-02  0.8979139E-01
          1   -1    0    0  501    0  0.00000000000E+00  0.00000000000E+00  0.35837016268E+04  0.35837016268E+04  0.00000000000E+00 0. -1.
         -1   -1    0    0    0  501 -0.00000000000E+00 -0.00000000000E+00 -0.13008412143E+03  0.13008412143E+03  0.00000000000E+00 0.  1.
         23    2    1    2    0    0 -0.33739236711E+03 -0.20725156693E+03  0.11845928220E+04  0.12521902348E+04  0.89069685058E+02 0.  0.
        254    2    1    2    0    0  0.33739236711E+03  0.20725156693E+03  0.22690246834E+04  0.24615955135E+04  0.86844265021E+03 0.  0.
        -24    2    4    4    0    0 -0.66650673033E+02  0.20340912767E+03  0.10777425800E+03  0.25262835976E+03  0.79926291239E+02 0.  0.
         11    1    3    3    0    0 -0.37670493713E+02 -0.33545491153E+02  0.25962102547E+03  0.26447578895E+03  0.00000000000E+00 0.  1.
        -11    1    3    3    0    0 -0.29972187340E+03 -0.17370607578E+03  0.92497179653E+03  0.98771444585E+03  0.00000000000E+00 0. -1.
          4    1    4    4  502    0  0.37311477030E+03  0.47403767163E+02  0.15336099157E+04  0.15790570359E+04  0.00000000000E+00 0. -1.
          1    1    5    5  503    0 -0.60536699113E+02  0.20727396362E+03  0.90931888694E+02  0.23429851967E+03  0.00000000000E+00 0. -1.
         -2    1    5    5    0  503 -0.61139739200E+01 -0.38648359541E+01  0.16842369302E+02  0.18329840091E+02  0.00000000000E+00 0.  1.
         -3    1    4    4    0  502  0.30928269844E+02 -0.43561327903E+02  0.62764050966E+03  0.62991011782E+03  0.00000000000E+00 0.  1.
<mgrwt>
<rscale>  0 0.13655514E+04</rscale>
<asrwt>0</asrwt>
<pdfrwt beam="1">  1        1 0.55133864E+00 0.13655514E+04</pdfrwt>
<pdfrwt beam="2">  1       -1 0.20012945E-01 0.13655514E+04</pdfrwt>
<totfact> 0.43558479E+00</totfact>
</mgrwt>
</event>
<event>
12    1  0.2406360E-008  0.1651097E+04  0.7818608E-02  0.8789758E-01
          2   -1    0    0  501    0  0.00000000000E+00  0.00000000000E+00  0.31273595997E+04  0.31273595997E+04  0.00000000000E+00 0. -1.
         -2   -1    0    0    0  501 -0.00000000000E+00 -0.00000000000E+00 -0.21792523439E+03  0.21792523439E+03  0.00000000000E+00 0.  1.
         23    2    1    2    0    0 -0.60955118312E+01  0.34140138049E+03  0.96340252075E+02  0.36847755499E+03  0.99509831151E+02 0.  0.
        254    2    1    2    0    0  0.60955118312E+01 -0.34140138049E+03  0.28130941133E+04  0.29768072792E+04  0.91175162692E+03 0.  0.
        -24    2    4    4    0    0  0.27340617060E+03 -0.19323570353E+03  0.25140285860E+04  0.25374748747E+04  0.79674570334E+02 0.  0.
         24    2    4    4    0    0 -0.26731065877E+03 -0.14816567695E+03  0.29906552728E+03  0.43933240448E+03  0.10082021571E+03 0.  0.
         11    1    3    3    0    0  0.45182898015E+02  0.18850515395E+03  0.62772956888E+02  0.20375507713E+03  0.00000000000E+00 0. -1.
        -11    1    3    3    0    0 -0.51278409847E+02  0.15289622654E+03  0.33567295187E+02  0.16472247786E+03  0.00000000000E+00 0.  1.
          2    1    6    6  502    0 -0.57117875026E+02 -0.36373839396E+02  0.13242379799E+03  0.14873321793E+03  0.00000000000E+00 0. -1.
          1    1    5    5  503    0  0.73019884046E+01 -0.11131456185E+02  0.33058559477E+02  0.35638416156E+02  0.00000000000E+00 0. -1.
         -2    1    5    5    0  503  0.26610418220E+03 -0.18210424735E+03  0.24809700265E+04  0.25018364585E+04  0.00000000000E+00 0.  1.
         -1    1    6    6    0  502 -0.21019278375E+03 -0.11179183756E+03  0.16664172929E+03  0.29059918655E+03  0.00000000000E+00 0.  1.
<mgrwt>
<rscale>  0 0.16510973E+04</rscale>
<asrwt>0</asrwt>
<pdfrwt beam="1">  1        2 0.48113221E+00 0.16510973E+04</pdfrwt>
<pdfrwt beam="2">  1       -2 0.33526961E-01 0.16510973E+04</pdfrwt>
<totfact> 0.11555871E+01</totfact>
</mgrwt>
</event>
<event>
12    1  0.2406360E-008  0.1738330E+04  0.7818608E-02  0.8739800E-01
          2   -1    0    0  501    0  0.00000000000E+00  0.00000000000E+00  0.44213433272E+03  0.44213433272E+03  0.00000000000E+00 0. -1.
         -2   -1    0    0    0  501 -0.00000000000E+00 -0.00000000000E+00 -0.17086388371E+04  0.17086388371E+04  0.00000000000E+00 0.  1.
         23    2    1    2    0    0 -0.35591245837E+03 -0.52102815721E+03 -0.47857498071E+03  0.79717659640E+03  0.91172885526E+02 0.  0.
        254    2    1    2    0    0  0.35591245837E+03  0.52102815721E+03 -0.78792952370E+03  0.13535965735E+04  0.90180193543E+03 0.  0.
        -24    2    4    4    0    0  0.52096837705E+03  0.28381946867E+03 -0.10904337301E+03  0.60836872242E+03  0.79123350101E+02 0.  0.
         24    2    4    4    0    0 -0.16505591868E+03  0.23720868853E+03 -0.67888615068E+03  0.74522785104E+03  0.10472213792E+03 0.  0.
         11    1    3    3    0    0 -0.15743583900E+03 -0.21397977705E+03 -0.14706004912E+03  0.30364460548E+03  0.00000000000E+00 0. -1.
        -11    1    3    3    0    0 -0.19847661938E+03 -0.30704838015E+03 -0.33151493160E+03  0.49353199092E+03  0.00000000000E+00 0.  1.
          2    1    6    6  502    0 -0.13551735984E+03  0.21494591522E+03 -0.65121754836E+03  0.69903576202E+03  0.00000000000E+00 0. -1.
          1    1    5    5  503    0  0.39221865555E+03  0.22999781504E+03 -0.11392789257E+03  0.46873663543E+03  0.00000000000E+00 0. -1.
         -2    1    5    5    0  503  0.12874972150E+03  0.53821653636E+02  0.48845195542E+01  0.13963208699E+03  0.00000000000E+00 0.  1.
         -1    1    6    6    0  502 -0.29538558837E+02  0.22262773312E+02 -0.27668602324E+02  0.46192089022E+02  0.00000000000E+00 0.  1.
<mgrwt>
<rscale>  0 0.17383301E+04</rscale>
<asrwt>0</asrwt>
<pdfrwt beam="1">  1        2 0.68020666E-01 0.17383301E+04</pdfrwt>
<pdfrwt beam="2">  1       -2 0.26286751E+00 0.17383301E+04</pdfrwt>
<totfact> 0.36091714E+00</totfact>
</mgrwt>
</event>
<event>
12    1  0.2406360E-008  0.1691871E+04  0.7818608E-02  0.8766014E-01
         -2   -1    0    0    0  501 -0.00000000000E+00  0.00000000000E+00  0.25315314768E+03  0.25315314768E+03  0.00000000000E+00 0.  1.
          2   -1    0    0  501    0  0.00000000000E+00 -0.00000000000E+00 -0.28267739057E+04  0.28267739057E+04  0.00000000000E+00 0. -1.
         23    2    1    2    0    0  0.29904454829E+03  0.55863755204E+03 -0.11920045514E+04  0.13530572018E+04  0.91571743509E+02 0.  0.
        254    2    1    2    0    0 -0.29904454829E+03 -0.55863755204E+03 -0.13816162066E+04  0.17268698517E+04  0.81958073775E+03 0.  0.
        -24    2    4    4    0    0  0.17731487350E+03 -0.11871327952E+03 -0.85894744110E+03  0.88859178907E+03  0.79191249094E+02 0.  0.
         24    2    4    4    0    0 -0.47635942179E+03 -0.43992427253E+03 -0.52266876554E+03  0.83827806259E+03  0.95267032384E+02 0.  0.
         13    1    3    3    0    0  0.33484539669E+02  0.18352861641E+02 -0.68591471507E+02  0.78503706223E+02  0.00000000000E+00 0. -1.
        -13    1    3    3    0    0  0.26556000862E+03  0.54028469040E+03 -0.11234130799E+04  0.12745534955E+04  0.00000000000E+00 0.  1.
          2    1    6    6  502    0 -0.96641089979E+02 -0.45362827972E+02 -0.10317436103E+03  0.14846627633E+03  0.00000000000E+00 0. -1.
          1    1    5    5  503    0  0.90943206788E+02 -0.28459965738E+02 -0.26403070700E+03  0.28070064259E+03  0.00000000000E+00 0. -1.
         -2    1    5    5    0  503  0.86371666708E+02 -0.90253313778E+02 -0.59491673410E+03  0.60789114648E+03  0.00000000000E+00 0.  1.
         -1    1    6    6    0  502 -0.37971833181E+03 -0.39456144455E+03 -0.41949440451E+03  0.68981178625E+03  0.00000000000E+00 0.  1.
<mgrwt>
<rscale>  0 0.16918708E+04</rscale>
<asrwt>0</asrwt>
<pdfrwt beam="1">  1        2 0.43488828E+00 0.16918708E+04</pdfrwt>
<pdfrwt beam="2">  1       -2 0.38946639E-01 0.16918708E+04</pdfrwt>
<totfact> 0.13263441E+01</totfact>
</mgrwt>
</event>
<event>
12    1  0.2406360E-008  0.1207932E+04  0.7818608E-02  0.9105942E-01
         -1   -1    0    0    0  501 -0.00000000000E+00  0.00000000000E+00  0.20892339243E+03  0.20892339243E+03  0.00000000000E+00 0.  1.
          1   -1    0    0  501    0  0.00000000000E+00 -0.00000000000E+00 -0.17459738922E+04  0.17459738922E+04  0.00000000000E+00 0. -1.
         23    2    1    2    0    0  0.28956337735E+02 -0.20875540225E+03 -0.12077440452E+03  0.25929532300E+03  0.90721112630E+02 0.  0.
        254    2    1    2    0    0 -0.28956337735E+02  0.20875540225E+03 -0.14162760952E+04  0.16956019616E+04  0.90819091981E+03 0.  0.
        -24    2    4    4    0    0 -0.29863789051E+03  0.35190544288E+03 -0.12495557559E+04  0.13349677360E+04  0.87904712836E+02 0.  0.
         24    2    4    4    0    0  0.26968155277E+03 -0.14315004063E+03 -0.16672033930E+03  0.36063422563E+03  0.95085746167E+02 0.  0.
         13    1    3    3    0    0 -0.10392211709E+02 -0.98413581184E+02 -0.99307076522E+02  0.14019674202E+03  0.00000000000E+00 0. -1.
        -13    1    3    3    0    0  0.39348549444E+02 -0.11034182106E+03 -0.21467328003E+02  0.11909858098E+03  0.00000000000E+00 0.  1.
          4    1    6    6  502    0  0.12486151354E+03 -0.50216544117E+02 -0.12477051101E+03  0.18352051461E+03  0.00000000000E+00 0. -1.
          1    1    5    5  503    0 -0.67424300326E+02  0.36140511743E+02 -0.16246867399E+03  0.17957795770E+03  0.00000000000E+00 0. -1.
         -2    1    5    5    0  503 -0.23121359018E+03  0.31576493114E+03 -0.10870870819E+04  0.11553897783E+04  0.00000000000E+00 0.  1.
         -3    1    6    6    0  502  0.14482003923E+03 -0.92933496516E+02 -0.41949828287E+02  0.17711371102E+03  0.00000000000E+00 0.  1.
<mgrwt>
<rscale>  0 0.12079318E+04</rscale>
<asrwt>0</asrwt>
<pdfrwt beam="1">  1        1 0.26861137E+00 0.12079318E+04</pdfrwt>
<pdfrwt beam="2">  1       -1 0.32142060E-01 0.12079318E+04</pdfrwt>
<totfact> 0.39641703E+01</totfact>
</mgrwt>
</event>
<event>
12    1  0.2406360E-008  0.1461412E+04  0.7818608E-02  0.8910527E-01
          1   -1    0    0  501    0  0.00000000000E+00  0.00000000000E+00  0.16406269076E+04  0.16406269076E+04  0.00000000000E+00 0. -1.
         -1   -1    0    0    0  501 -0.00000000000E+00 -0.00000000000E+00 -0.32544363851E+03  0.32544363851E+03  0.00000000000E+00 0.  1.
         23    2    1    2    0    0 -0.12343895512E+03  0.28358309727E+03  0.83837279833E+03  0.89815876831E+03  0.90353059742E+02 0.  0.
        254    2    1    2    0    0  0.12343895512E+03 -0.28358309727E+03  0.47681047074E+03  0.10679117778E+04  0.90411879276E+03 0.  0.
        -24    2    4    4    0    0 -0.31337712458E+03 -0.19104311861E+03 -0.40085677790E+02  0.37783649147E+03  0.80317229437E+02 0.  0.
         24    2    4    4    0    0  0.43681607970E+03 -0.92539978660E+02  0.51689614853E+03  0.69007528631E+03  0.98236130177E+02 0.  0.
         13    1    3    3    0    0 -0.26752890525E+02  0.82177490507E+02  0.13623469489E+03  0.16133427778E+03  0.00000000000E+00 0.  1.
        -13    1    3    3    0    0 -0.96686064593E+02  0.20140560676E+03  0.70213810345E+03  0.73682449052E+03  0.00000000000E+00 0. -1.
          2    1    6    6  502    0  0.41866045058E+03 -0.68778167140E+02  0.45990664306E+03  0.62571649290E+03  0.00000000000E+00 0. -1.
          3    1    5    5  503    0 -0.22776842677E+03 -0.13486804757E+03  0.77570680567E+01  0.26481695300E+03  0.00000000000E+00 0. -1.
         -4    1    5    5    0  503 -0.85608697813E+02 -0.56175071037E+02 -0.47842745847E+02  0.11301953848E+03  0.00000000000E+00 0.  1.
         -1    1    6    6    0  502  0.18155629122E+02 -0.23761811519E+02  0.56989505467E+02  0.64358793408E+02  0.00000000000E+00 0.  1.
<mgrwt>
<rscale>  0 0.14614125E+04</rscale>
<asrwt>0</asrwt>
<pdfrwt beam="1">  1        1 0.25240413E+00 0.14614125E+04</pdfrwt>
<pdfrwt beam="2">  1       -1 0.50068253E-01 0.14614125E+04</pdfrwt>
<totfact> 0.20330034E+01</totfact>
</mgrwt>
</event>
<event>
12    1  0.2406360E-008  0.2423390E+04  0.7818608E-02  0.8430798E-01
          2   -1    0    0  501    0  0.00000000000E+00  0.00000000000E+00  0.12137106087E+04  0.12137106087E+04  0.00000000000E+00 0. -1.
         -2   -1    0    0    0  501 -0.00000000000E+00 -0.00000000000E+00 -0.12096827433E+04  0.12096827433E+04  0.00000000000E+00 0.  1.
         23    2    1    2    0    0  0.47293371089E+02  0.68926547718E+02 -0.10354244422E+04  0.10427930557E+04  0.91247189600E+02 0.  0.
        254    2    1    2    0    0 -0.47293371089E+02 -0.68926547718E+02  0.10394523076E+04  0.13806002963E+04  0.90476988587E+03 0.  0.
        -24    2    4    4    0    0 -0.16176479486E+03 -0.57130279555E+02 -0.11156131843E+03  0.22019951330E+03  0.81303014650E+02 0.  0.
         24    2    4    4    0    0  0.11447142377E+03 -0.11796268162E+02  0.11510136260E+04  0.11604007830E+04  0.91949720099E+02 0.  0.
         11    1    3    3    0    0 -0.30701026898E+01  0.35070804723E+02 -0.11259462362E+03  0.11797006460E+03  0.00000000000E+00 0. -1.
        -11    1    3    3    0    0  0.50363473779E+02  0.33855742995E+02 -0.92282981861E+03  0.92482299114E+03  0.00000000000E+00 0.  1.
          4    1    6    6  502    0  0.28238149739E+02  0.19042812763E+02  0.66262273619E+03  0.66349748480E+03  0.00000000000E+00 0. -1.
          1    1    5    5  503    0 -0.56509379946E+02 -0.24866306624E+02 -0.88196422538E+02  0.10765803349E+03  0.00000000000E+00 0. -1.
         -2    1    5    5    0  503 -0.10525541491E+03 -0.32263972931E+02 -0.23364895889E+02  0.11254147981E+03  0.00000000000E+00 0.  1.
         -3    1    6    6    0  502  0.86233274029E+02 -0.30839080925E+02  0.48839088984E+03  0.49690329818E+03  0.00000000000E+00 0.  1.
<mgrwt>
<rscale>  0 0.24233900E+04</rscale>
<asrwt>0</asrwt>
<pdfrwt beam="1">  1        2 0.18672471E+00 0.24233900E+04</pdfrwt>
<pdfrwt beam="2">  1       -2 0.18610504E+00 0.24233900E+04</pdfrwt>
<totfact> 0.27471414E+00</totfact>
</mgrwt>
</event>
<event>
12    1  0.2406360E-008  0.1800152E+04  0.7818608E-02  0.8706218E-01
         -1   -1    0    0    0  501 -0.00000000000E+00  0.00000000000E+00  0.48768327638E+03  0.48768327638E+03  0.00000000000E+00 0.  1.
          1   -1    0    0  501    0  0.00000000000E+00 -0.00000000000E+00 -0.16611954274E+04  0.16611954274E+04  0.00000000000E+00 0. -1.
         23    2    1    2    0    0 -0.38979129863E+03 -0.37282208492E+03 -0.91068859860E+03  0.10626924419E+04  0.95015466627E+02 0.  0.
        254    2    1    2    0    0  0.38979129863E+03  0.37282208492E+03 -0.26282355240E+03  0.10861862619E+04  0.90542300187E+03 0.  0.
        -24    2    4    4    0    0  0.15632161512E+03  0.63661145418E+03 -0.34999088963E+02  0.66097793016E+03  0.77177049575E+02 0.  0.
         24    2    4    4    0    0  0.23346968351E+03 -0.26378936926E+03 -0.22782446343E+03  0.42520833172E+03  0.69319656506E+02 0.  0.
         11    1    3    3    0    0 -0.15480380964E+03 -0.13954163269E+03 -0.44388534148E+03  0.49037769435E+03  0.00000000000E+00 0. -1.
        -11    1    3    3    0    0 -0.23498748898E+03 -0.23328045224E+03 -0.46680325712E+03  0.57231474752E+03  0.00000000000E+00 0.  1.
          4    1    6    6  502    0  0.20644186430E+03 -0.24628086025E+03 -0.22615596333E+03  0.39296186228E+03  0.00000000000E+00 0. -1.
          1    1    5    5  503    0  0.10074059598E+03  0.49313529210E+03 -0.63020081454E+00  0.50332045572E+03  0.00000000000E+00 0. -1.
         -2    1    5    5    0  503  0.55581019140E+02  0.14347616209E+03 -0.34368888148E+02  0.15765747444E+03  0.00000000000E+00 0.  1.
         -3    1    6    6    0  502  0.27027819202E+02 -0.17508509014E+02 -0.16685001038E+01  0.32246469440E+02  0.00000000000E+00 0.  1.
<mgrwt>
<rscale>  0 0.18001525E+04</rscale>
<asrwt>0</asrwt>
<pdfrwt beam="1">  1        1 0.25556852E+00 0.18001525E+04</pdfrwt>
<pdfrwt beam="2">  1       -1 0.75028197E-01 0.18001525E+04</pdfrwt>
<totfact> 0.85395711E+00</totfact>
</mgrwt>
</event>
<event>
11    1  0.2406360E-008  0.2593537E+04  0.7818608E-02  0.8370400E-01
         -1   -1    0    0    0  501 -0.00000000000E+00  0.00000000000E+00  0.10735411712E+04  0.10735411712E+04  0.00000000000E+00 0.  1.
          1   -1    0    0  501    0  0.00000000000E+00 -0.00000000000E+00 -0.15664123971E+04  0.15664123971E+04  0.00000000000E+00 0. -1.
         23    2    1    2    0    0  0.86445336445E+02  0.99753402912E+03 -0.76651104656E+03  0.12642636426E+04  0.90974930805E+02 0.  0.
        254    2    1    2    0    0 -0.86445336445E+02 -0.99753402912E+03  0.27363982070E+03  0.13756899258E+04  0.90282727301E+03 0.  0.
        -24    2    4    4    0    0  0.10269081018E+03 -0.11678790863E+03  0.42048533091E+03  0.45526930114E+03  0.79230076051E+02 0.  0.
         11    1    3    3    0    0  0.76168121702E+02  0.81199479468E+03 -0.66634078984E+03  0.10531605659E+04  0.00000000000E+00 0. -1.
        -11    1    3    3    0    0  0.10277214744E+02  0.18553923444E+03 -0.10017025672E+03  0.21110307670E+03  0.00000000000E+00 0.  1.
          4    1    4    4  502    0 -0.68909931116E+02 -0.55202416713E+03 -0.58147892175E+02  0.55933928618E+03  0.00000000000E+00 0. -1.
          3    1    5    5  503    0  0.10643391408E+03 -0.10483861702E+03  0.31047951921E+03  0.34455310989E+03  0.00000000000E+00 0. -1.
         -4    1    5    5    0  503 -0.37431039032E+01 -0.11949291606E+02  0.11000581170E+03  0.11071619125E+03  0.00000000000E+00 0.  1.
         -3    1    4    4    0  502 -0.12022621551E+03 -0.32872195337E+03 -0.88697618036E+02  0.36108133843E+03  0.00000000000E+00 0.  1.
<mgrwt>
<rscale>  0 0.25935367E+04</rscale>
<asrwt>0</asrwt>
<pdfrwt beam="1">  1        1 0.24098652E+00 0.25935367E+04</pdfrwt>
<pdfrwt beam="2">  1       -1 0.16516018E+00 0.25935367E+04</pdfrwt>
<totfact> 0.13860786E+00</totfact>
</mgrwt>
</event>
<event>
12    1  0.2406360E-008  0.2236411E+04  0.7818608E-02  0.8503424E-01
         -1   -1    0    0    0  501 -0.00000000000E+00  0.00000000000E+00  0.41926952533E+03  0.41926952533E+03  0.00000000000E+00 0.  1.
          1   -1    0    0  501    0  0.00000000000E+00 -0.00000000000E+00 -0.29822915133E+04  0.29822915133E+04  0.00000000000E+00 0. -1.
         23    2    1    2    0    0  0.87486796683E+03 -0.29255933225E+03 -0.13079676572E+04  0.16030899968E+04  0.90184384515E+02 0.  0.
        254    2    1    2    0    0 -0.87486796683E+03  0.29255933225E+03 -0.12550543308E+04  0.17984710419E+04  0.89908386315E+03 0.  0.
        -24    2    4    4    0    0  0.83005970185E+02  0.22680070786E+02  0.71803608438E+02  0.13721264709E+03  0.79165495261E+02 0.  0.
         24    2    4    4    0    0 -0.95787393701E+03  0.26987926147E+03 -0.13268579393E+04  0.16612583948E+04  0.94181571357E+02 0.  0.
         13    1    3    3    0    0  0.56316542708E+03 -0.22959924724E+03 -0.88852880752E+03  0.10767332791E+04  0.00000000000E+00 0. -1.
        -13    1    3    3    0    0  0.31170253975E+03 -0.62960085015E+02 -0.41943884966E+03  0.52635671764E+03  0.00000000000E+00 0.  1.
          4    1    6    6  502    0 -0.10118965051E+03  0.53330370674E+02 -0.18371773308E+03  0.21641552452E+03  0.00000000000E+00 0. -1.
          3    1    5    5  503    0  0.25910245232E+02  0.10862974317E+02  0.73702568335E+02  0.78875938018E+02  0.00000000000E+00 0. -1.
         -4    1    5    5    0  503  0.57095724953E+02  0.11817096469E+02 -0.18989598970E+01  0.58336709074E+02  0.00000000000E+00 0.  1.
         -3    1    6    6    0  502 -0.85668428650E+03  0.21654889079E+03 -0.11431402062E+04  0.14448428703E+04  0.00000000000E+00 0.  1.
<mgrwt>
<rscale>  0 0.22364114E+04</rscale>
<asrwt>0</asrwt>
<pdfrwt beam="1">  1        1 0.45881409E+00 0.22364114E+04</pdfrwt>
<pdfrwt beam="2">  1       -1 0.64503003E-01 0.22364114E+04</pdfrwt>
<totfact> 0.13649638E+00</totfact>
</mgrwt>
</event>
<event>
11    1  0.2406360E-008  0.1312360E+04  0.7818608E-02  0.9019821E-01
         -2   -1    0    0    0  501 -0.00000000000E+00  0.00000000000E+00  0.10872662788E+03  0.10872662788E+03  0.00000000000E+00 0.  1.
          2   -1    0    0  501    0  0.00000000000E+00 -0.00000000000E+00 -0.39601355080E+04  0.39601355080E+04  0.00000000000E+00 0. -1.
         23    2    1    2    0    0 -0.16250624246E+03  0.70448276375E+02 -0.18680178182E+04  0.18785978708E+04  0.90929383080E+02 0.  0.
        254    2    1    2    0    0  0.16250624246E+03 -0.70448276375E+02 -0.19833910619E+04  0.21902642651E+04  0.91216566905E+03 0.  0.
        -24    2    4    4    0    0  0.18788568229E+02  0.10827237906E+03 -0.75153682615E+03  0.76361582775E+03  0.78902553600E+02 0.  0.
         13    1    3    3    0    0 -0.16907491148E+03  0.57128153824E+02 -0.18072983942E+04  0.18160884993E+04  0.00000000000E+00 0. -1.
        -13    1    3    3    0    0  0.65686690134E+01  0.13320122551E+02 -0.60719423986E+02  0.62509371510E+02  0.00000000000E+00 0.  1.
          4    1    4    4  502    0  0.18149952035E+03 -0.35017406658E+03 -0.34946529057E+03  0.52696294187E+03  0.00000000000E+00 0. -1.
          3    1    5    5  503    0  0.36360283098E+02  0.10102658367E+03 -0.70821471240E+03  0.71630755940E+03  0.00000000000E+00 0. -1.
         -4    1    5    5    0  503 -0.17571714869E+02  0.72457953803E+01 -0.43322113749E+02  0.47308268345E+02  0.00000000000E+00 0.  1.
         -3    1    4    4    0  502 -0.37781846117E+02  0.17145341115E+03 -0.88238894522E+03  0.89968549545E+03  0.00000000000E+00 0.  1.
<mgrwt>
<rscale>  0 0.13123600E+04</rscale>
<asrwt>0</asrwt>
<pdfrwt beam="1">  1        2 0.60925163E+00 0.13123600E+04</pdfrwt>
<pdfrwt beam="2">  1       -2 0.16727173E-01 0.13123600E+04</pdfrwt>
<totfact> 0.10857915E+01</totfact>
</mgrwt>
</event>
<event>
11    1  0.2406360E-008  0.1365400E+04  0.7818608E-02  0.8979252E-01
          1   -1    0    0  501    0  0.00000000000E+00  0.00000000000E+00  0.42705817650E+03  0.42705817650E+03  0.00000000000E+00 0. -1.
         -1   -1    0    0    0  501 -0.00000000000E+00 -0.00000000000E+00 -0.10913719644E+04  0.10913719644E+04  0.00000000000E+00 0.  1.
         23    2    1    2    0    0 -0.26472483649E+03  0.99927593449E+02 -0.46697763552E+03  0.55393262874E+03  0.93319248369E+02 0.  0.
        254    2    1    2    0    0  0.26472483649E+03 -0.99927593449E+02 -0.19733615236E+03  0.96449751215E+03  0.90069369429E+03 0.  0.
        -24    2    4    4    0    0  0.24758052051E+03  0.30925330456E+03  0.59602434631E+02  0.40855103924E+03  0.80173442810E+02 0.  0.
         11    1    3    3    0    0 -0.11444708333E+03  0.45530984489E+01 -0.13327546364E+03  0.17573051754E+03  0.00000000000E+00 0. -1.
        -11    1    3    3    0    0 -0.15027775316E+03  0.95374495000E+02 -0.33370217188E+03  0.37820211119E+03  0.00000000000E+00 0.  1.
          2    1    4    4  502    0  0.78229046358E+02 -0.40959301875E+03 -0.17143003137E+03  0.45085971250E+03  0.00000000000E+00 0. -1.
          3    1    5    5  503    0  0.17708357988E+03  0.27060879600E+03  0.54830624962E+02  0.32801541453E+03  0.00000000000E+00 0. -1.
         -4    1    5    5    0  503  0.70496940628E+02  0.38644508565E+02  0.47718096694E+01  0.80535624712E+02  0.00000000000E+00 0.  1.
         -1    1    4    4    0  502 -0.61084730377E+02  0.41212074191E+00 -0.85508555619E+02  0.10508676041E+03  0.00000000000E+00 0.  1.
<mgrwt>
<rscale>  0 0.13654000E+04</rscale>
<asrwt>0</asrwt>
<pdfrwt beam="1">  1        1 0.65701260E-01 0.13654000E+04</pdfrwt>
<pdfrwt beam="2">  1       -1 0.16790337E+00 0.13654000E+04</pdfrwt>
<totfact> 0.13699619E+01</totfact>
</mgrwt>
</event>
<event>
11    1  0.2406360E-008  0.2960417E+04  0.7818608E-02  0.8255125E-01
          2   -1    0    0  501    0  0.00000000000E+00  0.00000000000E+00  0.20881193598E+04  0.20881193598E+04  0.00000000000E+00 0. -1.
         -2   -1    0    0    0  501 -0.00000000000E+00 -0.00000000000E+00 -0.10492775197E+04  0.10492775197E+04  0.00000000000E+00 0.  1.
         23    2    1    2    0    0  0.29484782441E+03 -0.13026789836E+04  0.60739986994E+03  0.14704392815E+04  0.96691803905E+02 0.  0.
        254    2    1    2    0    0 -0.29484782441E+03  0.13026789836E+04  0.43144197013E+03  0.16669575980E+04  0.89927620120E+03 0.  0.
        -24    2    4    4    0    0 -0.43550857510E+03  0.11598177543E+04  0.19267510145E+03  0.12563731302E+04  0.80652374939E+02 0.  0.
         11    1    3    3    0    0  0.95151154608E+02 -0.24645961815E+03  0.12131995527E+03  0.29071397824E+03  0.00000000000E+00 0.  1.
        -11    1    3    3    0    0  0.19969666981E+03 -0.10562193654E+04  0.48607991468E+03  0.11797253033E+04  0.00000000000E+00 0. -1.
          2    1    4    4  502    0 -0.56477096122E+02  0.74506527061E+02  0.16430768787E+03  0.18904470703E+03  0.00000000000E+00 0. -1.
          1    1    5    5  503    0 -0.84941305087E+02  0.32722182736E+03  0.47238950959E+02  0.34135123861E+03  0.00000000000E+00 0. -1.
         -2    1    5    5    0  503 -0.35056727001E+03  0.83259592690E+03  0.14543615050E+03  0.91502189163E+03  0.00000000000E+00 0.  1.
         -1    1    4    4    0  502  0.19713784681E+03  0.68354702231E+02  0.74459180809E+02  0.22153976069E+03  0.00000000000E+00 0.  1.
<mgrwt>
<rscale>  0 0.29604167E+04</rscale>
<asrwt>0</asrwt>
<pdfrwt beam="1">  1        2 0.32124913E+00 0.29604167E+04</pdfrwt>
<pdfrwt beam="2">  1       -2 0.16142731E+00 0.29604167E+04</pdfrwt>
<totfact> 0.12598176E+00</totfact>
</mgrwt>
</event>
<event>
12    1  0.2406360E-008  0.2950302E+04  0.7818608E-02  0.8258067E-01
         -2   -1    0    0    0  501 -0.00000000000E+00  0.00000000000E+00  0.17307497041E+04  0.17307497041E+04  0.00000000000E+00 0. -1.
          2   -1    0    0  501    0  0.00000000000E+00 -0.00000000000E+00 -0.12572992390E+04  0.12572992390E+04  0.00000000000E+00 0.  1.
         23    2    1    2    0    0  0.25516709462E+03  0.11164136040E+04 -0.48147538455E+03  0.12455735318E+04  0.90251292391E+02 0.  0.
        254    2    1    2    0    0 -0.25516709462E+03 -0.11164136040E+04  0.95492584960E+03  0.17424754113E+04  0.90158061175E+03 0.  0.
        -24    2    4    4    0    0 -0.26831258651E+03 -0.49567920583E+02 -0.31948040145E+02  0.28606625039E+03  0.79778440164E+02 0.  0.
         24    2    4    4    0    0  0.13145491887E+02 -0.10668456834E+04  0.98687388975E+03  0.14564091609E+04  0.94207503046E+02 0.  0.
         11    1    3    3    0    0  0.65393133858E+02  0.40167226913E+03 -0.13359023501E+03  0.42832607279E+03  0.00000000000E+00 0. -1.
        -11    1    3    3    0    0  0.18977396077E+03  0.71474133483E+03 -0.34788514954E+03  0.81724745896E+03  0.00000000000E+00 0.  1.
          2    1    6    6  502    0  0.41991209063E+02 -0.82717604902E+03  0.73187937503E+03  0.11052741277E+04  0.00000000000E+00 0. -1.
          3    1    5    5  503    0 -0.19526853039E+03 -0.19778173027E+02 -0.55097390622E+02  0.20385459902E+03  0.00000000000E+00 0. -1.
         -4    1    5    5    0  503 -0.73044056122E+02 -0.29789747556E+02  0.23149350477E+02  0.82211651374E+02  0.00000000000E+00 0.  1.
         -1    1    6    6    0  502 -0.28845717176E+02 -0.23966963436E+03  0.25499451472E+03  0.35113503325E+03  0.00000000000E+00 0.  1.
<mgrwt>
<rscale>  0 0.29503019E+04</rscale>
<asrwt>0</asrwt>
<pdfrwt beam="1">  1        2 0.19343065E+00 0.29503019E+04</pdfrwt>
<pdfrwt beam="2">  1       -2 0.26626918E+00 0.29503019E+04</pdfrwt>
<totfact> 0.76887320E-01</totfact>
</mgrwt>
</event>
<event>
11    1  0.2406360E-008  0.1220908E+04  0.7818608E-02  0.9094750E-01
         -2   -1    0    0    0  501 -0.00000000000E+00  0.00000000000E+00  0.12521636603E+03  0.12521636603E+03  0.00000000000E+00 0.  1.
          2   -1    0    0  501    0  0.00000000000E+00 -0.00000000000E+00 -0.29760832610E+04  0.29760832610E+04  0.00000000000E+00 0. -1.
         23    2    1    2    0    0  0.24070709681E+03 -0.32370162918E+02 -0.56940578181E+03  0.62569621736E+03  0.91022404668E+02 0.  0.
        254    2    1    2    0    0 -0.24070709681E+03  0.32370162918E+02 -0.22814611131E+04  0.24756034096E+04  0.92981702351E+03 0.  0.
        -24    2    4    4    0    0 -0.21108982586E+03  0.42963763481E+02 -0.23073988816E+04  0.23187944058E+04  0.79455007235E+02 0.  0.
         11    1    3    3    0    0  0.17491700726E+03 -0.87755020011E-01 -0.47501492382E+03  0.50619674533E+03  0.00000000000E+00 0. -1.
        -11    1    3    3    0    0  0.65790089547E+02 -0.32282407898E+02 -0.94390857993E+02  0.11949947203E+03  0.00000000000E+00 0.  1.
          4    1    4    4  502    0 -0.23188053015E+02  0.17725678537E+02  0.85608389349E+02  0.90447121619E+02  0.00000000000E+00 0. -1.
          1    1    5    5  503    0 -0.11750342704E+03  0.33553911246E+02 -0.16734577004E+04  0.16779134648E+04  0.00000000000E+00 0. -1.
         -2    1    5    5    0  503 -0.93586398821E+02  0.94098522349E+01 -0.63394118116E+03  0.64088094100E+03  0.00000000000E+00 0.  1.
         -3    1    4    4    0  502 -0.64292179335E+01 -0.28319279100E+02 -0.59670620914E+02  0.66361882223E+02  0.00000000000E+00 0.  1.
<mgrwt>
<rscale>  0 0.12209084E+04</rscale>
<asrwt>0</asrwt>
<pdfrwt beam="1">  1        2 0.45785894E+00 0.12209084E+04</pdfrwt>
<pdfrwt beam="2">  1       -2 0.19264057E-01 0.12209084E+04</pdfrwt>
<totfact> 0.41086354E+01</totfact>
</mgrwt>
</event>
<event>
12    1  0.2406360E-008  0.1764902E+04  0.7818608E-02  0.8725190E-01
         -2   -1    0    0    0  501 -0.00000000000E+00  0.00000000000E+00  0.36603970367E+03  0.36603970367E+03  0.00000000000E+00 0.  1.
          2   -1    0    0  501    0  0.00000000000E+00 -0.00000000000E+00 -0.21274180691E+04  0.21274180691E+04  0.00000000000E+00 0. -1.
         23    2    1    2    0    0  0.46141289127E+03 -0.14890031046E+03 -0.12078106883E+04  0.13047432730E+04  0.92060800809E+02 0.  0.
        254    2    1    2    0    0 -0.46141289127E+03  0.14890031046E+03 -0.55356767716E+03  0.11887144998E+04  0.93355869129E+03 0.  0.
        -24    2    4    4    0    0  0.10240972209E+03  0.35411513947E+03 -0.43145972093E+03  0.57291884183E+03  0.78697047947E+02 0.  0.
         24    2    4    4    0    0 -0.56382261335E+03 -0.20521482901E+03 -0.12210795623E+03  0.61579565794E+03  0.65458948903E+02 0.  0.
         13    1    3    3    0    0  0.26326995687E+03 -0.67425266520E+02 -0.56070736513E+03  0.62309709201E+03  0.00000000000E+00 0.  1.
        -13    1    3    3    0    0  0.19814293439E+03 -0.81475043941E+02 -0.64710332318E+03  0.68164618102E+03  0.00000000000E+00 0. -1.
          2    1    6    6  502    0 -0.37627879832E+03 -0.10839922552E+03 -0.95564049693E+02  0.40307395569E+03  0.00000000000E+00 0. -1.
          3    1    5    5  503    0  0.76557732400E+02  0.20708845921E+03 -0.20247706533E+03  0.29957249259E+03  0.00000000000E+00 0. -1.
         -4    1    5    5    0  503  0.25851989687E+02  0.14702668026E+03 -0.22898265560E+03  0.27334634924E+03  0.00000000000E+00 0.  1.
         -1    1    6    6    0  502 -0.18754381503E+03 -0.96815603493E+02 -0.26543906538E+02  0.21272170226E+03  0.00000000000E+00 0.  1.
<mgrwt>
<rscale>  0 0.17649017E+04</rscale>
<asrwt>0</asrwt>
<pdfrwt beam="1">  1        2 0.32729509E+00 0.17649017E+04</pdfrwt>
<pdfrwt beam="2">  1       -2 0.56313801E-01 0.17649017E+04</pdfrwt>
<totfact> 0.15895065E+01</totfact>
</mgrwt>
</event>
<event>
12    1  0.2406360E-008  0.1879827E+04  0.7818608E-02  0.8664963E-01
          2   -1    0    0  501    0  0.00000000000E+00  0.00000000000E+00  0.81675924841E+03  0.81675924841E+03  0.00000000000E+00 0.  1.
         -2   -1    0    0    0  501 -0.00000000000E+00 -0.00000000000E+00 -0.10816372877E+04  0.10816372877E+04  0.00000000000E+00 0. -1.
         23    2    1    2    0    0  0.27235156542E+02 -0.39708466083E+03 -0.66059642241E+03  0.77621299765E+03  0.87755357612E+02 0.  0.
        254    2    1    2    0    0 -0.27235156542E+02  0.39708466083E+03  0.39571838314E+03  0.11221835385E+04  0.97174321382E+03 0.  0.
        -24    2    4    4    0    0 -0.40317636046E+03  0.33291354091E+02  0.42712187962E+03  0.59394955265E+03  0.81752548274E+02 0.  0.
         24    2    4    4    0    0  0.37594120392E+03  0.36379330674E+03 -0.31403496476E+02  0.52823398581E+03  0.66087860726E+02 0.  0.
         11    1    3    3    0    0  0.35867658027E+02 -0.38611276388E+03 -0.65498481167E+03  0.76116664328E+03  0.00000000000E+00 0. -1.
        -11    1    3    3    0    0 -0.86325014852E+01 -0.10971896952E+02 -0.56116107454E+01  0.15046354368E+02  0.00000000000E+00 0.  1.
          2    1    6    6  502    0  0.42062771802E+02  0.16349717356E+02 -0.77638635453E+01  0.45791566979E+02  0.00000000000E+00 0. -1.
          1    1    5    5  503    0 -0.14642665411E+02  0.11171990602E+02  0.35727703655E+01  0.18761282270E+02  0.00000000000E+00 0. -1.
         -2    1    5    5    0  503 -0.38853369505E+03  0.22119363490E+02  0.42354910925E+03  0.57518827038E+03  0.00000000000E+00 0.  1.
         -1    1    6    6    0  502  0.33387843212E+03  0.34744358939E+03 -0.23639632931E+02  0.48244241883E+03  0.00000000000E+00 0.  1.
<mgrwt>
<rscale>  0 0.18798269E+04</rscale>
<asrwt>0</asrwt>
<pdfrwt beam="1">  1        2 0.12565527E+00 0.18798269E+04</pdfrwt>
<pdfrwt beam="2">  1       -2 0.16640574E+00 0.18798269E+04</pdfrwt>
<totfact> 0.71045974E+00</totfact>
</mgrwt>
</event>
<event>
12    1  0.2406360E-008  0.1394303E+04  0.7818608E-02  0.8957952E-01
         -1   -1    0    0    0  501 -0.00000000000E+00  0.00000000000E+00  0.36562960710E+03  0.36562960710E+03  0.00000000000E+00 0.  1.
          1   -1    0    0  501    0  0.00000000000E+00 -0.00000000000E+00 -0.13292700581E+04  0.13292700581E+04  0.00000000000E+00 0. -1.
         23    2    1    2    0    0 -0.20545164050E+03 -0.31962126286E+02 -0.69331345413E+03  0.72946557252E+03  0.90578814917E+02 0.  0.
        254    2    1    2    0    0  0.20545164050E+03  0.31962126286E+02 -0.27032699684E+03  0.96543409266E+03  0.90319120232E+03 0.  0.
        -24    2    4    4    0    0  0.24046940403E+03 -0.39781443565E+03 -0.59337385601E+02  0.47530403338E+03  0.79442679503E+02 0.  0.
         24    2    4    4    0    0 -0.35017763531E+02  0.42977656194E+03 -0.21098961124E+03  0.49013005928E+03  0.98877307845E+02 0.  0.
         13    1    3    3    0    0 -0.98915755148E+02 -0.57101199791E+02 -0.29354112594E+03  0.31497819964E+03  0.00000000000E+00 0. -1.
        -13    1    3    3    0    0 -0.10653588535E+03  0.25139073506E+02 -0.39977232819E+03  0.41448737288E+03  0.00000000000E+00 0.  1.
          2    1    6    6  502    0 -0.50870258444E+02  0.10051035088E+03 -0.49352923497E+02  0.12298709235E+03  0.00000000000E+00 0. -1.
          1    1    5    5  503    0  0.12979806130E+02 -0.46933475254E+02  0.14179135579E+02  0.50717594111E+02  0.00000000000E+00 0. -1.
         -2    1    5    5    0  503  0.22748959790E+03 -0.35088096040E+03 -0.73516521180E+02  0.42458643926E+03  0.00000000000E+00 0.  1.
         -1    1    6    6    0  502  0.15852494913E+02  0.32926621106E+03 -0.16163668775E+03  0.36714296693E+03  0.00000000000E+00 0.  1.
<mgrwt>
<rscale>  0 0.13943034E+04</rscale>
<asrwt>0</asrwt>
<pdfrwt beam="1">  1        1 0.20450309E+00 0.13943034E+04</pdfrwt>
<pdfrwt beam="2">  1       -1 0.56250708E-01 0.13943034E+04</pdfrwt>
<totfact> 0.26890290E+01</totfact>
</mgrwt>
</event>
<event>
11    1  0.2406360E-008  0.1452749E+04  0.7818608E-02  0.8916497E-01
         -2   -1    0    0    0  501 -0.00000000000E+00  0.00000000000E+00  0.16859495411E+03  0.16859495411E+03  0.00000000000E+00 0.  1.
          2   -1    0    0  501    0  0.00000000000E+00 -0.00000000000E+00 -0.31295139233E+04  0.31295139233E+04  0.00000000000E+00 0. -1.
         23    2    1    2    0    0  0.16563782542E+03  0.36854289980E+03 -0.13342477828E+04  0.13969608896E+04  0.89570212883E+02 0.  0.
        254    2    1    2    0    0 -0.16563782542E+03 -0.36854289980E+03 -0.16266711864E+04  0.19011479878E+04  0.89724286823E+03 0.  0.
        -24    2    4    4    0    0 -0.97710871987E+02 -0.58772535094E+03 -0.63195428160E+03  0.87227551037E+03  0.80807483021E+02 0.  0.
         11    1    3    3    0    0  0.12839639039E+03  0.24720970924E+03 -0.10367268646E+04  0.10734993550E+04  0.00000000000E+00 0. -1.
        -11    1    3    3    0    0  0.37241435038E+02  0.12133319056E+03 -0.29752091821E+03  0.32346153464E+03  0.00000000000E+00 0.  1.
          2    1    4    4  502    0 -0.21639461929E+01  0.13327135320E+03 -0.33850796576E+03  0.36380431434E+03  0.00000000000E+00 0. -1.
          3    1    5    5  503    0 -0.61334711864E+02 -0.50037533684E+03 -0.50116487875E+03  0.71084714270E+03  0.00000000000E+00 0. -1.
         -4    1    5    5    0  503 -0.36376160123E+02 -0.87350014095E+02 -0.13078940285E+03  0.16142836766E+03  0.00000000000E+00 0.  1.
         -1    1    4    4    0  502 -0.65763007245E+02  0.85911097935E+02 -0.65620893902E+03  0.66506816306E+03  0.00000000000E+00 0.  1.
<mgrwt>
<rscale>  0 0.14527495E+04</rscale>
<asrwt>0</asrwt>
<pdfrwt beam="1">  1        2 0.48146368E+00 0.14527495E+04</pdfrwt>
<pdfrwt beam="2">  1       -2 0.25937685E-01 0.14527495E+04</pdfrwt>
<totfact> 0.18924658E+01</totfact>
</mgrwt>
</event>
<event>
12    1  0.2406360E-008  0.3126111E+04  0.7818608E-02  0.8208608E-01
          2   -1    0    0  501    0  0.00000000000E+00  0.00000000000E+00  0.23001546523E+04  0.23001546523E+04  0.00000000000E+00 0. -1.
         -2   -1    0    0    0  501 -0.00000000000E+00 -0.00000000000E+00 -0.10621646872E+04  0.10621646872E+04  0.00000000000E+00 0.  1.
         23    2    1    2    0    0  0.55847307688E+03  0.80614937165E+03 -0.54529036369E+03  0.11262680231E+04  0.96794070593E+02 0.  0.
        254    2    1    2    0    0 -0.55847307688E+03 -0.80614937165E+03  0.17832803287E+04  0.22360513164E+04  0.92631947592E+03 0.  0.
        -24    2    4    4    0    0 -0.81296032298E+02 -0.48706568437E+03  0.15115482405E+04  0.15920886177E+04  0.78269134672E+02 0.  0.
         24    2    4    4    0    0 -0.47717704458E+03 -0.31908368728E+03  0.27173208827E+03  0.64396269869E+03  0.10647674933E+03 0.  0.
         13    1    3    3    0    0  0.22402181576E+02  0.40870816647E+02 -0.48221417103E+01  0.46856530425E+02  0.00000000000E+00 0. -1.
        -13    1    3    3    0    0  0.53607089530E+03  0.76527855500E+03 -0.54046822198E+03  0.10794114927E+04  0.00000000000E+00 0.  1.
          2    1    6    6  502    0 -0.25572725268E+03 -0.15777193916E+03  0.19932942033E+03  0.36058373557E+03  0.00000000000E+00 0. -1.
          1    1    5    5  503    0 -0.56705577178E+01 -0.16963708519E+03  0.61545949436E+03  0.63843502809E+03  0.00000000000E+00 0. -1.
         -2    1    5    5    0  503 -0.75625474580E+02 -0.31742859919E+03  0.89608874612E+03  0.95365358958E+03  0.00000000000E+00 0.  1.
         -1    1    6    6    0  502 -0.22144979189E+03 -0.16131174812E+03  0.72402667936E+02  0.28337896311E+03  0.00000000000E+00 0.  1.
<mgrwt>
<rscale>  0 0.31261114E+04</rscale>
<asrwt>0</asrwt>
<pdfrwt beam="1">  1        2 0.35386995E+00 0.31261114E+04</pdfrwt>
<pdfrwt beam="2">  1       -2 0.16340995E+00 0.31261114E+04</pdfrwt>
<totfact> 0.91299477E-01</totfact>
</mgrwt>
</event>
<event>
11    1  0.2406360E-008  0.1660936E+04  0.7818608E-02  0.8783963E-01
          2   -1    0    0  501    0  0.00000000000E+00  0.00000000000E+00  0.49108448789E+03  0.49108448789E+03  0.00000000000E+00 0. -1.
         -2   -1    0    0    0  501 -0.00000000000E+00 -0.00000000000E+00 -0.14043959656E+04  0.14043959656E+04  0.00000000000E+00 0.  1.
         23    2    1    2    0    0 -0.40801925699E+03 -0.29747848984E+03 -0.65680140365E+03  0.83350205041E+03  0.91457193360E+02 0.  0.
        254    2    1    2    0    0  0.40801925699E+03  0.29747848984E+03 -0.25651007406E+03  0.10619784031E+04  0.89834711806E+03 0.  0.
        -24    2    4    4    0    0  0.46267022976E+03 -0.17188610811E+03 -0.25183108614E+03  0.55981260770E+03  0.79766434853E+02 0.  0.
         11    1    3    3    0    0 -0.31622865056E+03 -0.20916007097E+03 -0.54567165996E+03  0.66445922012E+03  0.00000000000E+00 0.  1.
        -11    1    3    3    0    0 -0.91790606431E+02 -0.88318418870E+02 -0.11112974369E+03  0.16904283029E+03  0.00000000000E+00 0. -1.
          2    1    4    4  502    0  0.47887695517E+01  0.14568676554E+03  0.74476627887E+02  0.16368974943E+03  0.00000000000E+00 0. -1.
          3    1    5    5  503    0  0.97377375113E+02 -0.72279786044E+02 -0.65140071997E+02  0.13765881604E+03  0.00000000000E+00 0. -1.
         -4    1    5    5    0  503  0.36529285464E+03 -0.99606322069E+02 -0.18669101415E+03  0.42215379166E+03  0.00000000000E+00 0.  1.
         -1    1    4    4    0  502 -0.59439742322E+02  0.32367783242E+03 -0.79155615808E+02  0.33847604594E+03  0.00000000000E+00 0.  1.
<mgrwt>
<rscale>  0 0.16609360E+04</rscale>
<asrwt>0</asrwt>
<pdfrwt beam="1">  1        2 0.75551460E-01 0.16609360E+04</pdfrwt>
<pdfrwt beam="2">  1       -2 0.21606092E+00 0.16609360E+04</pdfrwt>
<totfact> 0.62792788E+00</totfact>
</mgrwt>
</event>
<event>
12    1  0.2406360E-008  0.1620925E+04  0.7818608E-02  0.8807795E-01
          2   -1    0    0  501    0  0.00000000000E+00  0.00000000000E+00  0.20641448761E+04  0.20641448761E+04  0.00000000000E+00 0. -1.
         -2   -1    0    0    0  501 -0.00000000000E+00 -0.00000000000E+00 -0.31821856881E+03  0.31821856881E+03  0.00000000000E+00 0.  1.
         23    2    1    2    0    0  0.22401849423E+03  0.22061747389E+03 -0.79279773596E+02  0.33667553772E+03  0.90602315938E+02 0.  0.
        254    2    1    2    0    0 -0.22401849423E+03 -0.22061747389E+03  0.18252060809E+04  0.20456879072E+04  0.86868027513E+03 0.  0.
        -24    2    4    4    0    0 -0.35078808846E+02 -0.21599394879E+03  0.25737013619E+02  0.23506590564E+03  0.81912620416E+02 0.  0.
         24    2    4    4    0    0 -0.18893968539E+03 -0.46235251038E+01  0.17994690673E+04  0.18106220015E+04  0.67405687933E+02 0.  0.
         11    1    3    3    0    0  0.36665865478E+01  0.31948116819E+01  0.12814765795E+02  0.13706527677E+02  0.00000000000E+00 0. -1.
        -11    1    3    3    0    0  0.22035190769E+03  0.21742266221E+03 -0.92094539390E+02  0.32296901004E+03  0.00000000000E+00 0.  1.
          2    1    6    6  502    0 -0.30063204297E+02 -0.13906075287E+02  0.15673472904E+03  0.16019659943E+03  0.00000000000E+00 0. -1.
          3    1    5    5  503    0 -0.35618183531E+02 -0.85184388665E+02  0.45224005512E+02  0.10281170043E+03  0.00000000000E+00 0. -1.
         -4    1    5    5    0  503  0.53937468464E+00 -0.13080956012E+03 -0.19486991893E+02  0.13225420521E+03  0.00000000000E+00 0.  1.
         -1    1    6    6    0  502 -0.15887648109E+03  0.92825501831E+01  0.16427343382E+04  0.16504254021E+04  0.00000000000E+00 0.  1.
<mgrwt>
<rscale>  0 0.16209247E+04</rscale>
<asrwt>0</asrwt>
<pdfrwt beam="1">  1        2 0.31756074E+00 0.16209247E+04</pdfrwt>
<pdfrwt beam="2">  1       -2 0.48956704E-01 0.16209247E+04</pdfrwt>
<totfact> 0.23280641E+01</totfact>
</mgrwt>
</event>
<event>
11    1  0.2406360E-008  0.2239940E+04  0.7818608E-02  0.8501986E-01
         -2   -1    0    0    0  501 -0.00000000000E+00  0.00000000000E+00  0.13161702428E+04  0.13161702428E+04  0.00000000000E+00 0.  1.
          2   -1    0    0  501    0  0.00000000000E+00 -0.00000000000E+00 -0.95301742725E+03  0.95301742725E+03  0.00000000000E+00 0. -1.
         23    2    1    2    0    0 -0.49250337492E+03  0.66426962412E+03  0.59300813007E+03  0.10221082465E+04  0.96088070663E+02 0.  0.
        254    2    1    2    0    0  0.49250337492E+03 -0.66426962412E+03 -0.22985531449E+03  0.12470794236E+04  0.90474301067E+03 0.  0.
        -24    2    4    4    0    0 -0.57650502966E+02  0.71813952531E+02 -0.99755730274E+02  0.15723139154E+03  0.79307505910E+02 0.  0.
         11    1    3    3    0    0 -0.41342718091E+03  0.52698300504E+03  0.51845491066E+03  0.84701157955E+03  0.00000000000E+00 0.  1.
        -11    1    3    3    0    0 -0.79076194016E+02  0.13728661909E+03  0.74553219416E+02  0.17509666692E+03  0.00000000000E+00 0. -1.
          2    1    4    4  502    0  0.51810549327E+03 -0.40552844284E+03 -0.29265645398E+03  0.72009334128E+03  0.00000000000E+00 0. -1.
          3    1    5    5  503    0 -0.75636213688E+02  0.42681725994E+02 -0.65303621968E+02  0.10866061659E+03  0.00000000000E+00 0. -1.
         -4    1    5    5    0  503  0.17985710721E+02  0.29132226537E+02 -0.34452108306E+02  0.48570774957E+02  0.00000000000E+00 0.  1.
         -3    1    4    4    0  502  0.32048384621E+02 -0.33055513382E+03  0.16255686977E+03  0.36975469079E+03  0.00000000000E+00 0.  1.
<mgrwt>
<rscale>  0 0.22399403E+04</rscale>
<asrwt>0</asrwt>
<pdfrwt beam="1">  1        2 0.14661807E+00 0.22399403E+04</pdfrwt>
<pdfrwt beam="2">  1       -2 0.20248773E+00 0.22399403E+04</pdfrwt>
<totfact> 0.31532062E+00</totfact>
</mgrwt>
</event>
<event>
12    1  0.2406360E-008  0.2127225E+04  0.7818608E-02  0.8549344E-01
          1   -1    0    0  501    0  0.00000000000E+00  0.00000000000E+00  0.24778692986E+04  0.24778692986E+04  0.00000000000E+00 0. -1.
         -1   -1    0    0    0  501 -0.00000000000E+00 -0.00000000000E+00 -0.45655017648E+03  0.45655017648E+03  0.00000000000E+00 0.  1.
         23    2    1    2    0    0 -0.68829368346E+03 -0.44847829531E+03  0.38907021954E+03  0.91342568109E+03  0.89943666099E+02 0.  0.
        254    2    1    2    0    0  0.68829368346E+03  0.44847829531E+03  0.16322489025E+04  0.20209937940E+04  0.86330670060E+03 0.  0.
        -24    2    4    4    0    0 -0.24445583477E+02 -0.15261957935E+03  0.61025929056E+03  0.63463072162E+03  0.80308334284E+02 0.  0.
         24    2    4    4    0    0  0.71273926694E+03  0.60109787466E+03  0.10219896120E+04  0.13863630723E+04  0.90685631659E+02 0.  0.
         13    1    3    3    0    0 -0.68149947726E+03 -0.45011919966E+03  0.39189538069E+03  0.90588675938E+03  0.00000000000E+00 0.  1.
        -13    1    3    3    0    0 -0.67942062022E+01  0.16409043464E+01 -0.28251611505E+01  0.75389217079E+01  0.00000000000E+00 0. -1.
          4    1    6    6  502    0  0.71498497034E+03  0.59468501197E+03  0.10143957070E+04  0.13761731075E+04  0.00000000000E+00 0. -1.
          3    1    5    5  503    0  0.21477061259E+02 -0.78844318984E+02  0.37587667522E+03  0.38465694557E+03  0.00000000000E+00 0. -1.
         -4    1    5    5    0  503 -0.45922644736E+02 -0.73775260361E+02  0.23438261534E+03  0.24997377605E+03  0.00000000000E+00 0.  1.
         -3    1    6    6    0  502 -0.22457034047E+01  0.64128626848E+01  0.75939049678E+01  0.10189964880E+02  0.00000000000E+00 0.  1.
<mgrwt>
<rscale>  0 0.21272251E+04</rscale>
<asrwt>0</asrwt>
<pdfrwt beam="1">  1        1 0.38121065E+00 0.21272251E+04</pdfrwt>
<pdfrwt beam="2">  1       -1 0.70238490E-01 0.21272251E+04</pdfrwt>
<totfact> 0.26387296E+00</totfact>
</mgrwt>
</event>
<event>
12    1  0.2406360E-008  0.3190711E+04  0.7818608E-02  0.8191275E-01
          2   -1    0    0  501    0  0.00000000000E+00  0.00000000000E+00  0.13654906212E+04  0.13654906212E+04  0.00000000000E+00 0. -1.
         -2   -1    0    0    0  501 -0.00000000000E+00 -0.00000000000E+00 -0.18639150165E+04  0.18639150165E+04  0.00000000000E+00 0.  1.
         23    2    1    2    0    0  0.39996089906E+03 -0.28051402452E+03 -0.16305590887E+04  0.17047065804E+04  0.92977119613E+02 0.  0.
        254    2    1    2    0    0 -0.39996089906E+03  0.28051402452E+03  0.11321346934E+04  0.15246990574E+04  0.89683968073E+03 0.  0.
        -24    2    4    4    0    0  0.18463274014E+03  0.36927878073E+03  0.48184338097E+03  0.64039862546E+03  0.86494445320E+02 0.  0.
         24    2    4    4    0    0 -0.58459363919E+03 -0.88764756206E+02  0.65029131241E+03  0.88430043194E+03  0.97363021755E+02 0.  0.
         13    1    3    3    0    0  0.10100065257E+03 -0.11697290400E+03 -0.44069770940E+03  0.46700991763E+03  0.00000000000E+00 0. -1.
        -13    1    3    3    0    0  0.29896024649E+03 -0.16354112052E+03 -0.11898613793E+04  0.12376966627E+04  0.00000000000E+00 0.  1.
          4    1    6    6  502    0 -0.47196420412E+03 -0.52927837543E+02  0.46598782272E+03  0.66535420408E+03  0.00000000000E+00 0. -1.
          1    1    5    5  503    0  0.16167029867E+03  0.31707439109E+03  0.45415574999E+03  0.57700164662E+03  0.00000000000E+00 0. -1.
         -2    1    5    5    0  503  0.22962441462E+02  0.52204389642E+02  0.27687630985E+02  0.63396978834E+02  0.00000000000E+00 0.  1.
         -1    1    6    6    0  502 -0.11262943507E+03 -0.35836918664E+02  0.18430348969E+03  0.21894622786E+03  0.00000000000E+00 0.  1.
<mgrwt>
<rscale>  0 0.31907106E+04</rscale>
<asrwt>0</asrwt>
<pdfrwt beam="1">  1        2 0.21007548E+00 0.31907106E+04</pdfrwt>
<pdfrwt beam="2">  1       -2 0.28675616E+00 0.31907106E+04</pdfrwt>
<totfact> 0.48881588E-01</totfact>
</mgrwt>
</event>
<event>
11    1  0.2406360E-008  0.1862044E+04  0.7818608E-02  0.8673983E-01
         -2   -1    0    0    0  501 -0.00000000000E+00  0.00000000000E+00  0.27011881580E+03  0.27011881580E+03  0.00000000000E+00 0. -1.
          2   -1    0    0  501    0  0.00000000000E+00 -0.00000000000E+00 -0.32089663875E+04  0.32089663875E+04  0.00000000000E+00 0.  1.
         23    2    1    2    0    0 -0.43704888577E+03  0.24971530840E+03 -0.20100258506E+04  0.20739500395E+04  0.87723329430E+02 0.  0.
        254    2    1    2    0    0  0.43704888577E+03 -0.24971530840E+03 -0.92882172116E+03  0.14051351638E+04  0.92645862032E+03 0.  0.
        -24    2    4    4    0    0  0.59997165375E+03 -0.23401330955E+02 -0.24542857226E+03  0.65373479260E+03  0.81365762903E+02 0.  0.
         11    1    3    3    0    0 -0.29675548812E+03  0.18035467287E+03 -0.12142638585E+04  0.12629443162E+04  0.00000000000E+00 0.  1.
        -11    1    3    3    0    0 -0.14029339765E+03  0.69360635535E+02 -0.79576199209E+03  0.81100572331E+03  0.00000000000E+00 0. -1.
          4    1    4    4  502    0 -0.10805137727E+03 -0.16679916366E+03 -0.61201936142E+03  0.64347863981E+03  0.00000000000E+00 0. -1.
          1    1    5    5  503    0  0.20690304853E+03 -0.41069180119E+02 -0.63844360683E+02  0.22038977162E+03  0.00000000000E+00 0. -1.
         -2    1    5    5    0  503  0.39306860523E+03  0.17667849164E+02 -0.18158421157E+03  0.43334502097E+03  0.00000000000E+00 0.  1.
         -3    1    4    4    0  502 -0.54871390705E+02 -0.59514813785E+02 -0.71373787475E+02  0.10792173144E+03  0.00000000000E+00 0.  1.
<mgrwt>
<rscale>  0 0.18620443E+04</rscale>
<asrwt>0</asrwt>
<pdfrwt beam="1">  1        2 0.49368712E+00 0.18620443E+04</pdfrwt>
<pdfrwt beam="2">  1       -2 0.41556742E-01 0.18620443E+04</pdfrwt>
<totfact> 0.66254452E+00</totfact>
</mgrwt>
</event>
<event>
12    1  0.2406360E-008  0.1641057E+04  0.7818608E-02  0.8795715E-01
         -2   -1    0    0    0  501 -0.00000000000E+00  0.00000000000E+00  0.38555488908E+03  0.38555488908E+03  0.00000000000E+00 0.  1.
          2   -1    0    0  501    0  0.00000000000E+00 -0.00000000000E+00 -0.17462278081E+04  0.17462278081E+04  0.00000000000E+00 0. -1.
         23    2    1    2    0    0 -0.15745629582E+03 -0.26073786457E+02 -0.11919838512E+04  0.12064342104E+04  0.95841927370E+02 0.  0.
        254    2    1    2    0    0  0.15745629582E+03  0.26073786457E+02 -0.16868906786E+03  0.92534848682E+03  0.89573516902E+03 0.  0.
        -24    2    4    4    0    0  0.31812235739E+03  0.15414371722E+03  0.25991928605E+03  0.44620250716E+03  0.81095760091E+02 0.  0.
         24    2    4    4    0    0 -0.16066606156E+03 -0.12806993076E+03 -0.42860835391E+03  0.47914597966E+03  0.60500068439E+02 0.  0.
         13    1    3    3    0    0 -0.36859968175E+02  0.20562056728E+02 -0.13176178801E+03  0.13835687266E+03  0.00000000000E+00 0.  1.
        -13    1    3    3    0    0 -0.12059632765E+03 -0.46635843184E+02 -0.10602220632E+04  0.10680773377E+04  0.00000000000E+00 0. -1.
          2    1    6    6  502    0 -0.12167845225E+03 -0.11694369180E+03 -0.38039429298E+03  0.41615056281E+03  0.00000000000E+00 0. -1.
          1    1    5    5  503    0  0.18503673991E+03  0.76488473535E+02  0.19339138929E+03  0.27836901974E+03  0.00000000000E+00 0. -1.
         -2    1    5    5    0  503  0.13308561748E+03  0.77655243685E+02  0.66527896762E+02  0.16783348742E+03  0.00000000000E+00 0.  1.
         -1    1    6    6    0  502 -0.38987609311E+02 -0.11126238962E+02 -0.48214060935E+02  0.62995416857E+02  0.00000000000E+00 0.  1.
<mgrwt>
<rscale>  0 0.16410566E+04</rscale>
<asrwt>0</asrwt>
<pdfrwt beam="1">  1        2 0.26865044E+00 0.16410566E+04</pdfrwt>
<pdfrwt beam="2">  1       -2 0.59316136E-01 0.16410566E+04</pdfrwt>
<totfact> 0.23442986E+01</totfact>
</mgrwt>
</event>
<event>
11    1  0.2406360E-008  0.2158437E+04  0.7818608E-02  0.8535930E-01
         -1   -1    0    0    0  501 -0.00000000000E+00  0.00000000000E+00  0.10802075751E+04  0.10802075751E+04  0.00000000000E+00 0.  1.
          1   -1    0    0  501    0  0.00000000000E+00 -0.00000000000E+00 -0.10782299911E+04  0.10782299911E+04  0.00000000000E+00 0. -1.
         23    2    1    2    0    0 -0.53305663179E+03 -0.48079046406E+03 -0.52381353145E+03  0.89190224653E+03  0.76158772408E+02 0.  0.
        254    2    1    2    0    0  0.53305663179E+03  0.48079046406E+03  0.52579111550E+03  0.12665353196E+04  0.90130271035E+03 0.  0.
        -24    2    4    4    0    0  0.21226706960E+03  0.21724742571E+03 -0.19427471891E+03  0.37048699812E+03  0.85230256091E+02 0.  0.
         13    1    3    3    0    0 -0.47020325132E+03 -0.39859919781E+03 -0.47078225651E+03  0.77563416060E+03  0.00000000000E+00 0. -1.
        -13    1    3    3    0    0 -0.62853380469E+02 -0.82191266254E+02 -0.53031274937E+02  0.11626808593E+03  0.00000000000E+00 0.  1.
          4    1    4    4  502    0  0.13219330425E+03  0.30213024589E+03  0.36327836235E+03  0.49064133918E+03  0.00000000000E+00 0. -1.
          1    1    5    5  503    0  0.16198732917E+03  0.11002063550E+03 -0.10511258692E+03  0.22224556458E+03  0.00000000000E+00 0. -1.
         -2    1    5    5    0  503  0.50279740435E+02  0.10722679021E+03 -0.89162131992E+02  0.14824143354E+03  0.00000000000E+00 0.  1.
         -3    1    4    4    0  502  0.18859625794E+03 -0.38587207533E+02  0.35678747207E+03  0.40540698232E+03  0.00000000000E+00 0.  1.
<mgrwt>
<rscale>  0 0.21584367E+04</rscale>
<asrwt>0</asrwt>
<pdfrwt beam="1">  1        1 0.16588154E+00 0.21584367E+04</pdfrwt>
<pdfrwt beam="2">  1       -1 0.16618578E+00 0.21584367E+04</pdfrwt>
<totfact> 0.31643510E+00</totfact>
</mgrwt>
</event>
<event>
11    1  0.2406360E-008  0.2558204E+04  0.7818608E-02  0.8382539E-01
          1   -1    0    0  501    0  0.00000000000E+00  0.00000000000E+00  0.22684032138E+04  0.22684032138E+04  0.00000000000E+00 0. -1.
         -1   -1    0    0    0  501 -0.00000000000E+00 -0.00000000000E+00 -0.72125701098E+03  0.72125701098E+03  0.00000000000E+00 0.  1.
         23    2    1    2    0    0 -0.77356521623E+03 -0.73802246940E+03  0.29322347173E+03  0.11124262116E+04  0.91824631187E+02 0.  0.
        254    2    1    2    0    0  0.77356521623E+03  0.73802246940E+03  0.12539227311E+04  0.18772340131E+04  0.89922467459E+03 0.  0.
        -24    2    4    4    0    0  0.54083242908E+03  0.42273077826E+03  0.10987965724E+04  0.12982486460E+04  0.83033801844E+02 0.  0.
         11    1    3    3    0    0 -0.75035239096E+03 -0.69298159623E+03  0.28943435876E+03  0.10616140784E+04  0.00000000000E+00 0.  1.
        -11    1    3    3    0    0 -0.23212825270E+02 -0.45040873163E+02  0.37891129685E+01  0.50812133289E+02  0.00000000000E+00 0. -1.
          4    1    4    4  502    0  0.14058145905E+03  0.14693575645E+03 -0.12553081230E+03  0.23897959743E+03  0.00000000000E+00 0. -1.
          3    1    5    5  503    0  0.37356777450E+03  0.32733523571E+03  0.83673457276E+03  0.97304983630E+03  0.00000000000E+00 0. -1.
         -4    1    5    5    0  503  0.16726465458E+03  0.95395542544E+02  0.26206199961E+03  0.32519880973E+03  0.00000000000E+00 0.  1.
         -3    1    4    4    0  502  0.92151328102E+02  0.16835593469E+03  0.28065697102E+03  0.34000576966E+03  0.00000000000E+00 0.  1.
<mgrwt>
<rscale>  0 0.25582038E+04</rscale>
<asrwt>0</asrwt>
<pdfrwt beam="1">  1        1 0.34898511E+00 0.25582038E+04</pdfrwt>
<pdfrwt beam="2">  1       -1 0.11096262E+00 0.25582038E+04</pdfrwt>
<totfact> 0.12923086E+00</totfact>
</mgrwt>
</event>
<event>
12    1  0.2406360E-008  0.2046821E+04  0.7818608E-02  0.8585038E-01
          1   -1    0    0  501    0  0.00000000000E+00  0.00000000000E+00  0.23312557038E+04  0.23312557038E+04  0.00000000000E+00 0. -1.
         -1   -1    0    0    0  501 -0.00000000000E+00 -0.00000000000E+00 -0.44927268153E+03  0.44927268153E+03  0.00000000000E+00 0.  1.
         23    2    1    2    0    0  0.74005203909E+03 -0.18530145542E+03  0.11802306047E+04  0.14083007843E+04  0.91395672324E+02 0.  0.
        254    2    1    2    0    0 -0.74005203909E+03  0.18530145542E+03  0.70175241753E+03  0.13722276010E+04  0.89918767973E+03 0.  0.
        -24    2    4    4    0    0 -0.78871980017E+03 -0.15098498748E+03  0.35321118497E+03  0.88099600858E+03  0.80749218747E+02 0.  0.
         24    2    4    4    0    0  0.48667761072E+02  0.33628644290E+03  0.34854123256E+03  0.49123159238E+03  0.66108727928E+02 0.  0.
         11    1    3    3    0    0  0.10801970320E+03 -0.27041967515E+02  0.23774356194E+03  0.26252909463E+03  0.00000000000E+00 0.  1.
        -11    1    3    3    0    0  0.63203233590E+03 -0.15825948791E+03  0.94248704278E+03  0.11457716897E+04  0.00000000000E+00 0. -1.
          4    1    6    6  502    0  0.51383235212E+02  0.14360555870E+03  0.17206047099E+03  0.22992955232E+03  0.00000000000E+00 0. -1.
          1    1    5    5  503    0 -0.35570898899E+03 -0.28744272115E+02  0.16793384132E+03  0.39440701450E+03  0.00000000000E+00 0. -1.
         -2    1    5    5    0  503 -0.43301081118E+03 -0.12224071537E+03  0.18527734364E+03  0.48658899408E+03  0.00000000000E+00 0.  1.
         -1    1    6    6    0  502 -0.27154741397E+01  0.19268088420E+03  0.17648076157E+03  0.26130204006E+03  0.00000000000E+00 0.  1.
<mgrwt>
<rscale>  0 0.20468214E+04</rscale>
<asrwt>0</asrwt>
<pdfrwt beam="1">  1        1 0.35865472E+00 0.20468214E+04</pdfrwt>
<pdfrwt beam="2">  1       -1 0.69118875E-01 0.20468214E+04</pdfrwt>
<totfact> 0.34663924E+00</totfact>
</mgrwt>
</event>
<event>
12    1  0.2406360E-008  0.1096198E+04  0.7818608E-02  0.9208906E-01
          1   -1    0    0  501    0  0.00000000000E+00  0.00000000000E+00  0.24423855312E+03  0.24423855312E+03  0.00000000000E+00 0. -1.
         -1   -1    0    0    0  501 -0.00000000000E+00 -0.00000000000E+00 -0.12299957721E+04  0.12299957721E+04  0.00000000000E+00 0.  1.
         23    2    1    2    0    0 -0.82916901926E+02 -0.90036930079E+02 -0.27377741492E+03  0.31382471241E+03  0.92466295452E+02 0.  0.
        254    2    1    2    0    0  0.82916901926E+02  0.90036930079E+02 -0.71197980404E+03  0.11604096128E+04  0.90810427082E+03 0.  0.
        -24    2    4    4    0    0  0.14551840157E+02  0.66458698332E+02 -0.91434672361E+03  0.92046942178E+03  0.81274293714E+02 0.  0.
         24    2    4    4    0    0  0.68365061768E+02  0.23578231747E+02  0.20236691957E+03  0.23994019101E+03  0.10672024382E+03 0.  0.
         11    1    3    3    0    0 -0.66046264470E+02 -0.21983366126E+02 -0.71708245585E+02  0.99937229907E+02  0.00000000000E+00 0. -1.
        -11    1    3    3    0    0 -0.16870637456E+02 -0.68053563953E+02 -0.20206916933E+03  0.21388748250E+03  0.00000000000E+00 0.  1.
          2    1    6    6  502    0  0.76690761604E+02  0.49370672019E+02  0.18869913932E+03  0.20958602375E+03  0.00000000000E+00 0. -1.
          3    1    5    5  503    0 -0.85433072396E+01  0.72427515884E+02 -0.81676170413E+03  0.82001122827E+03  0.00000000000E+00 0. -1.
         -4    1    5    5    0  503  0.23095147397E+02 -0.59688175522E+01 -0.97585019482E+02  0.10045819351E+03  0.00000000000E+00 0.  1.
         -1    1    6    6    0  502 -0.83256998353E+01 -0.25792440272E+02  0.13667780249E+02  0.30354167257E+02  0.00000000000E+00 0.  1.
<mgrwt>
<rscale>  0 0.10961978E+04</rscale>
<asrwt>0</asrwt>
<pdfrwt beam="1">  1        1 0.37575163E-01 0.10961978E+04</pdfrwt>
<pdfrwt beam="2">  1       -1 0.18923011E+00 0.10961978E+04</pdfrwt>
<totfact> 0.20454885E+01</totfact>
</mgrwt>
</event>
<event>
12    1  0.2406360E-008  0.1780030E+04  0.7818608E-02  0.8716992E-01
          1   -1    0    0  501    0  0.00000000000E+00  0.00000000000E+00  0.27807894628E+04  0.27807894628E+04  0.00000000000E+00 0. -1.
         -1   -1    0    0    0  501 -0.00000000000E+00 -0.00000000000E+00 -0.28485690752E+03  0.28485690752E+03  0.00000000000E+00 0.  1.
         23    2    1    2    0    0 -0.50482399356E+02  0.55286184415E+03  0.14933212921E+04  0.15958271403E+04  0.91929804310E+02 0.  0.
        254    2    1    2    0    0  0.50482399356E+02 -0.55286184415E+03  0.10026112631E+04  0.14698192300E+04  0.92029046092E+03 0.  0.
        -24    2    4    4    0    0  0.17569508105E+03  0.20633089812E+03  0.39369025239E+03  0.48438801310E+03  0.78730752500E+02 0.  0.
         24    2    4    4    0    0 -0.12521268169E+03 -0.75919274227E+03  0.60892101075E+03  0.98543121687E+03  0.90763705696E+02 0.  0.
         11    1    3    3    0    0  0.24620264282E+02  0.99207645747E+02  0.24253780385E+03  0.26319745570E+03  0.00000000000E+00 0.  1.
        -11    1    3    3    0    0 -0.75102663638E+02  0.45365419840E+03  0.12507834882E+04  0.13326296846E+04  0.00000000000E+00 0. -1.
          2    1    6    6  502    0 -0.13206091352E+03 -0.57776490468E+03  0.48178692052E+03  0.76378727847E+03  0.00000000000E+00 0. -1.
          3    1    5    5  503    0  0.15245153789E+03  0.20409602545E+03  0.33233856822E+03  0.41874286017E+03  0.00000000000E+00 0. -1.
         -4    1    5    5    0  503  0.23243543153E+02  0.22348726676E+01  0.61351684166E+02  0.65645152938E+02  0.00000000000E+00 0.  1.
         -1    1    6    6    0  502  0.68482318335E+01 -0.18142783759E+03  0.12713409023E+03  0.22164393840E+03  0.00000000000E+00 0.  1.
<mgrwt>
<rscale>  0 0.17800304E+04</rscale>
<asrwt>0</asrwt>
<pdfrwt beam="1">  1        1 0.42781375E+00 0.17800304E+04</pdfrwt>
<pdfrwt beam="2">  1       -1 0.43824141E-01 0.17800304E+04</pdfrwt>
<totfact> 0.41924300E+00</totfact>
</mgrwt>
</event>
<event>
12    1  0.2406360E-008  0.1392135E+04  0.7818608E-02  0.8959531E-01
         -2   -1    0    0    0  501 -0.00000000000E+00  0.00000000000E+00  0.20353441940E+03  0.20353441940E+03  0.00000000000E+00 0.  1.
          2   -1    0    0  501    0  0.00000000000E+00 -0.00000000000E+00 -0.23804817982E+04  0.23804817982E+04  0.00000000000E+00 0. -1.
         23    2    1    2    0    0  0.13897483835E+03 -0.36157716298E+03 -0.49096200840E+03  0.63223419673E+03  0.92867299636E+02 0.  0.
        254    2    1    2    0    0 -0.13897483835E+03  0.36157716298E+03 -0.16859853704E+04  0.19517820209E+04  0.90379994319E+03 0.  0.
        -24    2    4    4    0    0 -0.20181058617E+03 -0.20711241941E+03 -0.10451463457E+04  0.10873956332E+04  0.80469325313E+02 0.  0.
         24    2    4    4    0    0  0.62835747819E+02  0.56868958239E+03 -0.64083902472E+03  0.86438638765E+03  0.95566726501E+02 0.  0.
         11    1    3    3    0    0 -0.18509893372E+01 -0.68456426983E+02 -0.12602014890E+03  0.14342519473E+03  0.00000000000E+00 0. -1.
        -11    1    3    3    0    0  0.14082582769E+03 -0.29312073600E+03 -0.36494185950E+03  0.48880900200E+03  0.00000000000E+00 0.  1.
          2    1    6    6  502    0  0.16765032085E+02  0.47850354015E+03 -0.53063702428E+03  0.71471837515E+03  0.00000000000E+00 0. -1.
          1    1    5    5  503    0 -0.19171997483E+03 -0.20916395207E+03 -0.10339912944E+04  0.10722145795E+04  0.00000000000E+00 0. -1.
         -2    1    5    5    0  503 -0.10090611344E+02  0.20515326513E+01 -0.11155051292E+02  0.15181053746E+02  0.00000000000E+00 0.  1.
         -1    1    6    6    0  502  0.46070715734E+02  0.90186042242E+02 -0.11020200045E+03  0.14966801250E+03  0.00000000000E+00 0.  1.
<mgrwt>
<rscale>  0 0.13921350E+04</rscale>
<asrwt>0</asrwt>
<pdfrwt beam="1">  1        2 0.36622797E+00 0.13921350E+04</pdfrwt>
<pdfrwt beam="2">  1       -2 0.31312988E-01 0.13921350E+04</pdfrwt>
<totfact> 0.37697845E+01</totfact>
</mgrwt>
</event>
<event>
11    1  0.2406360E-008  0.2631437E+04  0.7818608E-02  0.8357601E-01
         -1   -1    0    0    0  501 -0.00000000000E+00  0.00000000000E+00  0.73815573109E+03  0.73815573109E+03  0.00000000000E+00 0.  1.
          1   -1    0    0  501    0  0.00000000000E+00 -0.00000000000E+00 -0.23451893504E+04  0.23451893504E+04  0.00000000000E+00 0. -1.
         23    2    1    2    0    0  0.58740149095E+03  0.89636588609E+03 -0.18326140304E+03  0.10911595566E+04  0.92369490699E+02 0.  0.
        254    2    1    2    0    0 -0.58740149095E+03 -0.89636588609E+03 -0.14237722163E+04  0.19921855249E+04  0.89059728746E+03 0.  0.
        -24    2    4    4    0    0 -0.15290410565E+03 -0.71803046768E+03 -0.63306891994E+03  0.97259123524E+03  0.78803778010E+02 0.  0.
         13    1    3    3    0    0  0.11140764643E+03  0.16816192187E+03  0.17828108601E+01  0.20172573972E+03  0.00000000000E+00 0. -1.
        -13    1    3    3    0    0  0.47599384452E+03  0.72820396422E+03 -0.18504421390E+03  0.88943381689E+03  0.00000000000E+00 0.  1.
          4    1    4    4  502    0 -0.14852192598E+03  0.12581376129E+03 -0.11723805388E+03  0.22722813713E+03  0.00000000000E+00 0. -1.
          3    1    5    5  503    0 -0.53732964681E+02 -0.41241281090E+03 -0.33018682081E+03  0.53103191498E+03  0.00000000000E+00 0. -1.
         -4    1    5    5    0  503 -0.99171140966E+02 -0.30561765678E+03 -0.30288209913E+03  0.44155932026E+03  0.00000000000E+00 0.  1.
         -3    1    4    4    0  502 -0.28597545932E+03 -0.30414917970E+03 -0.67346524248E+03  0.79236615253E+03  0.00000000000E+00 0.  1.
<mgrwt>
<rscale>  0 0.26314368E+04</rscale>
<asrwt>0</asrwt>
<pdfrwt beam="1">  1        1 0.36079836E+00 0.26314368E+04</pdfrwt>
<pdfrwt beam="2">  1       -1 0.11356242E+00 0.26314368E+04</pdfrwt>
<totfact> 0.10763639E+00</totfact>
</mgrwt>
</event>
<event>
12    1  0.2406360E-008  0.2192616E+04  0.7818608E-02  0.8521508E-01
          2   -1    0    0  501    0  0.00000000000E+00  0.00000000000E+00  0.92980582178E+03  0.92980582178E+03  0.00000000000E+00 0.  1.
         -2   -1    0    0    0  501 -0.00000000000E+00 -0.00000000000E+00 -0.12926265652E+04  0.12926265652E+04  0.00000000000E+00 0. -1.
         23    2    1    2    0    0 -0.87802532935E+03 -0.21212564138E+03 -0.25457760832E+03  0.94305345933E+03  0.92813262993E+02 0.  0.
        254    2    1    2    0    0  0.87802532935E+03  0.21212564138E+03 -0.10824313512E+03  0.12793789277E+04  0.89953771323E+03 0.  0.
        -24    2    4    4    0    0 -0.89716238342E+02  0.26335626835E+03 -0.98852847920E+02  0.30581618509E+03  0.79662576038E+02 0.  0.
         24    2    4    4    0    0  0.96774156769E+03 -0.51230626965E+02 -0.93902872005E+01  0.97356274257E+03  0.92671016207E+02 0.  0.
         13    1    3    3    0    0 -0.93125406672E+02 -0.28235545806E+02  0.11262556346E+01  0.97318322358E+02  0.00000000000E+00 0.  1.
        -13    1    3    3    0    0 -0.78489992268E+03 -0.18389009558E+03 -0.25570386395E+03  0.84573513697E+03  0.00000000000E+00 0. -1.
          2    1    6    6  502    0  0.62436639638E+03  0.69106300454E+01 -0.25528921671E+02  0.62492629932E+03  0.00000000000E+00 0. -1.
          1    1    5    5  503    0 -0.74354579861E+02  0.26359761205E+03 -0.95779349907E+02  0.29014821815E+03  0.00000000000E+00 0. -1.
         -2    1    5    5    0  503 -0.15361658481E+02 -0.24134370431E+00 -0.30734980138E+01  0.15667966943E+02  0.00000000000E+00 0.  1.
         -1    1    6    6    0  502  0.34337517131E+03 -0.58141257011E+02  0.16138634470E+02  0.34863644325E+03  0.00000000000E+00 0.  1.
<mgrwt>
<rscale>  0 0.21926164E+04</rscale>
<asrwt>0</asrwt>
<pdfrwt beam="1">  1        2 0.14304705E+00 0.21926164E+04</pdfrwt>
<pdfrwt beam="2">  1       -2 0.19886563E+00 0.21926164E+04</pdfrwt>
<totfact> 0.34638938E+00</totfact>
</mgrwt>
</event>
<event>
12    1  0.2406360E-008  0.1146679E+04  0.7818608E-02  0.9160853E-01
          1   -1    0    0  501    0  0.00000000000E+00  0.00000000000E+00  0.11322202790E+04  0.11322202790E+04  0.00000000000E+00 0. -1.
         -1   -1    0    0    0  501 -0.00000000000E+00 -0.00000000000E+00 -0.29033073703E+03  0.29033073703E+03  0.00000000000E+00 0.  1.
         23    2    1    2    0    0 -0.20767670102E+03 -0.55757782758E+02  0.17935039710E+03  0.29420245739E+03  0.90277231398E+02 0.  0.
        254    2    1    2    0    0  0.20767670102E+03  0.55757782758E+02  0.66253914489E+03  0.11283485587E+04  0.88767888834E+03 0.  0.
        -24    2    4    4    0    0 -0.21075747565E+03  0.32853348335E+03  0.22317212005E+03  0.45643785474E+03  0.78592345997E+02 0.  0.
         24    2    4    4    0    0  0.41843417667E+03 -0.27277570059E+03  0.43936702484E+03  0.67191070391E+03  0.94482106622E+02 0.  0.
         13    1    3    3    0    0 -0.76743717162E+02 -0.20488607949E+02  0.12502784418E+03  0.14812610506E+03  0.00000000000E+00 0. -1.
        -13    1    3    3    0    0 -0.13093298386E+03 -0.35269174809E+02  0.54322552915E+02  0.14607635233E+03  0.00000000000E+00 0.  1.
          2    1    6    6  502    0  0.35322431227E+03 -0.26520550568E+03  0.39604967280E+03  0.59325940223E+03  0.00000000000E+00 0. -1.
          1    1    5    5  503    0 -0.21235695410E+03  0.33108726100E+03  0.22476741218E+03  0.45302829926E+03  0.00000000000E+00 0. -1.
         -2    1    5    5    0  503  0.15994784452E+01 -0.25537776557E+01 -0.15952921283E+01  0.34095554822E+01  0.00000000000E+00 0.  1.
         -1    1    6    6    0  502  0.65209864409E+02 -0.75701949085E+01  0.43317352047E+02  0.78651301677E+02  0.00000000000E+00 0.  1.
<mgrwt>
<rscale>  0 0.11466793E+04</rscale>
<asrwt>0</asrwt>
<pdfrwt beam="1">  1        1 0.17418773E+00 0.11466793E+04</pdfrwt>
<pdfrwt beam="2">  1       -1 0.44666268E-01 0.11466793E+04</pdfrwt>
<totfact> 0.59131186E+01</totfact>
</mgrwt>
</event>
<event>
12    1  0.2406360E-008  0.1860231E+04  0.7818608E-02  0.8674909E-01
          2   -1    0    0  501    0  0.00000000000E+00  0.00000000000E+00  0.18241824328E+04  0.18241824328E+04  0.00000000000E+00 0. -1.
         -2   -1    0    0    0  501 -0.00000000000E+00 -0.00000000000E+00 -0.47424813870E+03  0.47424813870E+03  0.00000000000E+00 0.  1.
         23    2    1    2    0    0 -0.67227978834E+02  0.15300783178E+03  0.14001194239E+04  0.14131687364E+04  0.93704208367E+02 0.  0.
        254    2    1    2    0    0  0.67227978834E+02 -0.15300783178E+03 -0.50185129768E+02  0.88526183512E+03  0.86789341036E+03 0.  0.
        -24    2    4    4    0    0  0.14532696650E+03  0.22937582376E+03 -0.30330971456E+03  0.41596469965E+03  0.85420446566E+02 0.  0.
         24    2    4    4    0    0 -0.78098987668E+02 -0.38238365554E+03  0.25312458479E+03  0.46929713546E+03  0.62056700105E+02 0.  0.
         11    1    3    3    0    0  0.21613245062E+02  0.11501273572E+02  0.18829564362E+03  0.18988064952E+03  0.00000000000E+00 0.  1.
        -11    1    3    3    0    0 -0.88841223896E+02  0.14150655821E+03  0.12118237803E+04  0.12232880869E+04  0.00000000000E+00 0. -1.
          2    1    6    6  502    0 -0.31518754849E+02 -0.14218480192E+03  0.13078996732E+03  0.19574464323E+03  0.00000000000E+00 0. -1.
          3    1    5    5  503    0  0.10796005088E+03  0.90758916698E+02 -0.15426145448E+03  0.20901949642E+03  0.00000000000E+00 0. -1.
         -4    1    5    5    0  503  0.37366915621E+02  0.13861690707E+03 -0.14904826007E+03  0.20694520323E+03  0.00000000000E+00 0.  1.
         -1    1    6    6    0  502 -0.46580232820E+02 -0.24019885363E+03  0.12233461747E+03  0.27355249223E+03  0.00000000000E+00 0.  1.
<mgrwt>
<rscale>  0 0.18602313E+04</rscale>
<asrwt>0</asrwt>
<pdfrwt beam="1">  1        2 0.28064345E+00 0.18602313E+04</pdfrwt>
<pdfrwt beam="2">  1       -2 0.72961253E-01 0.18602313E+04</pdfrwt>
<totfact> 0.13339328E+01</totfact>
</mgrwt>
</event>
<event>
12    1  0.2406360E-008  0.3292298E+04  0.7818608E-02  0.8164858E-01
          1   -1    0    0  501    0  0.00000000000E+00  0.00000000000E+00  0.15171075775E+04  0.15171075775E+04  0.00000000000E+00 0. -1.
         -1   -1    0    0    0  501 -0.00000000000E+00 -0.00000000000E+00 -0.17861666552E+04  0.17861666552E+04  0.00000000000E+00 0.  1.
         23    2    1    2    0    0 -0.77600159783E+03  0.91118248562E+03  0.82024358884E+03  0.14537566188E+04  0.90425436914E+02 0.  0.
        254    2    1    2    0    0  0.77600159783E+03 -0.91118248562E+03 -0.10893026666E+04  0.18495176140E+04  0.89537874839E+03 0.  0.
        -24    2    4    4    0    0 -0.11859204626E+03 -0.33961359403E+03 -0.52805764759E+03  0.64434657465E+03  0.83283626271E+02 0.  0.
         24    2    4    4    0    0  0.89459364409E+03 -0.57156889159E+03 -0.56124501896E+03  0.12051710393E+04  0.10223735521E+03 0.  0.
         13    1    3    3    0    0 -0.69380194277E+03  0.78943936919E+03  0.74846978277E+03  0.12902645733E+04  0.00000000000E+00 0. -1.
        -13    1    3    3    0    0 -0.82199655061E+02  0.12174311643E+03  0.71773806068E+02  0.16349204546E+03  0.00000000000E+00 0.  1.
          4    1    6    6  502    0  0.17618691853E+03 -0.85526055077E+02 -0.14116875123E+03  0.24142318174E+03  0.00000000000E+00 0. -1.
          3    1    5    5  503    0 -0.53958097649E+02 -0.19969338758E+03 -0.23383117791E+03  0.31219536369E+03  0.00000000000E+00 0. -1.
         -4    1    5    5    0  503 -0.64633948608E+02 -0.13992020645E+03 -0.29422646968E+03  0.33215121097E+03  0.00000000000E+00 0.  1.
         -3    1    6    6    0  502  0.71840672555E+03 -0.48604283651E+03 -0.42007626773E+03  0.96374785757E+03  0.00000000000E+00 0.  1.
<mgrwt>
<rscale>  0 0.32922983E+04</rscale>
<asrwt>0</asrwt>
<pdfrwt beam="1">  1        1 0.23340117E+00 0.32922983E+04</pdfrwt>
<pdfrwt beam="2">  1       -1 0.27479487E+00 0.32922983E+04</pdfrwt>
<totfact> 0.25415847E-01</totfact>
</mgrwt>
</event>
<event>
11    1  0.2406360E-008  0.2152121E+04  0.7818608E-02  0.8538625E-01
          2   -1    0    0  501    0  0.00000000000E+00  0.00000000000E+00  0.92538257793E+03  0.92538257793E+03  0.00000000000E+00 0. -1.
         -2   -1    0    0    0  501 -0.00000000000E+00 -0.00000000000E+00 -0.12512728305E+04  0.12512728305E+04  0.00000000000E+00 0.  1.
         23    2    1    2    0    0  0.18618518629E+03  0.72068598786E+03  0.33259889793E+03  0.82012801441E+03  0.89077025245E+02 0.  0.
        254    2    1    2    0    0 -0.18618518629E+03 -0.72068598786E+03 -0.65848915053E+03  0.13565273940E+04  0.92331218596E+03 0.  0.
        -24    2    4    4    0    0  0.26817793352E+03  0.13608878976E+02 -0.31062460193E+03  0.41822536111E+03  0.79499708995E+02 0.  0.
         13    1    3    3    0    0  0.14461291395E+03  0.65770730201E+03  0.28754211773E+03  0.73223784351E+03  0.00000000000E+00 0. -1.
        -13    1    3    3    0    0  0.41572272342E+02  0.62978685846E+02  0.45056780203E+02  0.87890170900E+02  0.00000000000E+00 0.  1.
          4    1    4    4  502    0 -0.86713923835E+02 -0.14323593262E+03 -0.19195151033E+02  0.16853572560E+03  0.00000000000E+00 0. -1.
          1    1    5    5  503    0  0.72542071056E+02  0.10708268610E+02 -0.14248725814E+03  0.16024867495E+03  0.00000000000E+00 0. -1.
         -2    1    5    5    0  503  0.19563586247E+03  0.29006103662E+01 -0.16813734379E+03  0.25797668616E+03  0.00000000000E+00 0.  1.
         -3    1    4    4    0  502 -0.36764919598E+03 -0.59105893422E+03 -0.32866939756E+03  0.76976630734E+03  0.00000000000E+00 0.  1.
<mgrwt>
<rscale>  0 0.21521209E+04</rscale>
<asrwt>0</asrwt>
<pdfrwt beam="1">  1        2 0.14236655E+00 0.21521209E+04</pdfrwt>
<pdfrwt beam="2">  1       -2 0.19250351E+00 0.21521209E+04</pdfrwt>
<totfact> 0.38565418E+00</totfact>
</mgrwt>
</event>
<event>
12    1  0.2406360E-008  0.4573632E+04  0.7818608E-02  0.7897871E-01
          2   -1    0    0  501    0  0.00000000000E+00  0.00000000000E+00  0.22363933706E+04  0.22363933706E+04  0.00000000000E+00 0.  1.
         -2   -1    0    0    0  501 -0.00000000000E+00 -0.00000000000E+00 -0.23383757339E+04  0.23383757339E+04  0.00000000000E+00 0. -1.
         23    2    1    2    0    0 -0.14405564602E+04 -0.82313913172E+03 -0.14891989914E+04  0.22312932528E+04  0.90526232796E+02 0.  0.
        254    2    1    2    0    0  0.14405564602E+04  0.82313913172E+03  0.13872166281E+04  0.23434758516E+04  0.90263400592E+03 0.  0.
        -24    2    4    4    0    0  0.95890229742E+03  0.27523785709E+03  0.32630797430E+03  0.10526433003E+04  0.79570909059E+02 0.  0.
         24    2    4    4    0    0  0.48165416280E+03  0.54790127463E+03  0.10609086538E+04  0.12908325513E+04  0.92384872356E+02 0.  0.
         13    1    3    3    0    0 -0.86372219352E+03 -0.47863981226E+03 -0.94292632501E+03  0.13653652082E+04  0.00000000000E+00 0. -1.
        -13    1    3    3    0    0 -0.57683426670E+03 -0.34449931945E+03 -0.54627266638E+03  0.86592804457E+03  0.00000000000E+00 0.  1.
          4    1    6    6  502    0  0.17483045280E+02  0.55288672677E+02  0.97228211517E+02  0.11320697555E+03  0.00000000000E+00 0. -1.
          1    1    5    5  503    0  0.13116091811E+03  0.33352246940E+02  0.73422996101E+02  0.15396913707E+03  0.00000000000E+00 0. -1.
         -4    1    5    5    0  503  0.82774137931E+03  0.24188561015E+03  0.25288497820E+03  0.89867416321E+03  0.00000000000E+00 0.  1.
         -3    1    6    6    0  502  0.46417111752E+03  0.49261260195E+03  0.96368044226E+03  0.11776255758E+04  0.00000000000E+00 0.  1.
<mgrwt>
<rscale>  0 0.45736322E+04</rscale>
<asrwt>0</asrwt>
<pdfrwt beam="1">  1        2 0.34406052E+00 0.45736322E+04</pdfrwt>
<pdfrwt beam="2">  1       -2 0.35975011E+00 0.45736322E+04</pdfrwt>
<totfact> 0.50074046E-02</totfact>
</mgrwt>
</event>
<event>
11    1  0.2406360E-008  0.2357833E+04  0.7818608E-02  0.8455461E-01
         -1   -1    0    0    0  501 -0.00000000000E+00  0.00000000000E+00  0.10939630819E+04  0.10939630819E+04  0.00000000000E+00 0.  1.
          1   -1    0    0  501    0  0.00000000000E+00 -0.00000000000E+00 -0.12704668051E+04  0.12704668051E+04  0.00000000000E+00 0. -1.
         23    2    1    2    0    0 -0.61586433706E+03  0.19494662100E+03 -0.84878680098E+03  0.10705234420E+04  0.91040318929E+02 0.  0.
        254    2    1    2    0    0  0.61586433706E+03 -0.19494662100E+03  0.67228307774E+03  0.12939064449E+04  0.89718241455E+03 0.  0.
        -24    2    4    4    0    0  0.56291677774E+03  0.42873276988E+02  0.62009810617E+03  0.84313364741E+03  0.87402915084E+02 0.  0.
         11    1    3    3    0    0 -0.60822597760E+03  0.20011428169E+03 -0.84579737086E+03  0.10608288072E+04  0.00000000000E+00 0. -1.
        -11    1    3    3    0    0 -0.76383594624E+01 -0.51676606906E+01 -0.29894301212E+01  0.96946348430E+01  0.00000000000E+00 0.  1.
          2    1    4    4  502    0  0.11044825582E+02  0.19397102023E+02  0.16520998169E+03  0.16671104880E+03  0.00000000000E+00 0. -1.
          1    1    5    5  503    0  0.33540905252E+03 -0.15842066544E+02  0.34688693258E+03  0.48278436965E+03  0.00000000000E+00 0. -1.
         -2    1    5    5    0  503  0.22750772522E+03  0.58715343532E+02  0.27321117360E+03  0.36034927776E+03  0.00000000000E+00 0.  1.
         -1    1    4    4    0  502  0.41902733733E+02 -0.25721700001E+03 -0.11302501013E+03  0.28406174875E+03  0.00000000000E+00 0.  1.
<mgrwt>
<rscale>  0 0.23578327E+04</rscale>
<asrwt>0</asrwt>
<pdfrwt beam="1">  1        1 0.19545643E+00 0.23578327E+04</pdfrwt>
<pdfrwt beam="2">  1       -1 0.16830201E+00 0.23578327E+04</pdfrwt>
<totfact> 0.21636723E+00</totfact>
</mgrwt>
</event>
<event>
11    1  0.2406360E-008  0.2020719E+04  0.7818608E-02  0.8596995E-01
         -2   -1    0    0    0  501 -0.00000000000E+00  0.00000000000E+00  0.11588448922E+04  0.11588448922E+04  0.00000000000E+00 0.  1.
          2   -1    0    0  501    0  0.00000000000E+00 -0.00000000000E+00 -0.88089979042E+03  0.88089979042E+03  0.00000000000E+00 0. -1.
         23    2    1    2    0    0 -0.45328200938E+03  0.66901945609E+02  0.77622068032E+03  0.90585493373E+03  0.90078665910E+02 0.  0.
        254    2    1    2    0    0  0.45328200938E+03 -0.66901945609E+02 -0.49827557857E+03  0.11338897489E+04  0.90966310248E+03 0.  0.
        -24    2    4    4    0    0  0.43934239332E+03  0.11174070013E+03  0.13043386690E+03  0.47843686847E+03  0.79881918148E+02 0.  0.
         11    1    3    3    0    0 -0.21846232349E+03  0.26176966762E+02  0.28665697931E+03  0.36136303652E+03  0.00000000000E+00 0. -1.
        -11    1    3    3    0    0 -0.23481968589E+03  0.40724978847E+02  0.48956370101E+03  0.54449189721E+03  0.00000000000E+00 0.  1.
          4    1    4    4  502    0 -0.87424544334E+01 -0.10084500009E+03 -0.40697408363E+03  0.41937340080E+03  0.00000000000E+00 0. -1.
          3    1    5    5  503    0  0.35475860263E+03  0.72013069983E+02  0.74671262107E+02  0.36961513196E+03  0.00000000000E+00 0. -1.
         -4    1    5    5    0  503  0.84583790688E+02  0.39727630149E+02  0.55762604796E+02  0.10882173651E+03  0.00000000000E+00 0.  1.
         -3    1    4    4    0  502  0.22682070499E+02 -0.77797645651E+02 -0.22173536184E+03  0.23607947959E+03  0.00000000000E+00 0.  1.
<mgrwt>
<rscale>  0 0.20207189E+04</rscale>
<asrwt>0</asrwt>
<pdfrwt beam="1">  1        2 0.13552304E+00 0.20207189E+04</pdfrwt>
<pdfrwt beam="2">  1       -2 0.17828383E+00 0.20207189E+04</pdfrwt>
<totfact> 0.52205912E+00</totfact>
</mgrwt>
</event>
<event>
11    1  0.2406360E-008  0.1502915E+04  0.7818608E-02  0.8882517E-01
         -2   -1    0    0    0  501 -0.00000000000E+00  0.00000000000E+00  0.46305152410E+03  0.46305152410E+03  0.00000000000E+00 0.  1.
          2   -1    0    0  501    0  0.00000000000E+00 -0.00000000000E+00 -0.12194936851E+04  0.12194936851E+04  0.00000000000E+00 0. -1.
         23    2    1    2    0    0  0.12456840195E+03  0.46494229454E+03 -0.21195365003E+03  0.53403704267E+03  0.92642264447E+02 0.  0.
        254    2    1    2    0    0 -0.12456840195E+03 -0.46494229454E+03 -0.54448851096E+03  0.11485081665E+04  0.88933382146E+03 0.  0.
        -24    2    4    4    0    0  0.37713475717E+03 -0.26498222965E+03 -0.28974994460E+03  0.55019875675E+03  0.79482290082E+02 0.  0.
         13    1    3    3    0    0  0.81150949221E+02  0.17931703037E+03 -0.51016150134E+02  0.20332909658E+03  0.00000000000E+00 0.  1.
        -13    1    3    3    0    0  0.43417452728E+02  0.28562526417E+03 -0.16093749990E+03  0.33070794609E+03  0.00000000000E+00 0. -1.
          2    1    4    4  502    0 -0.30105134747E+03 -0.13075253220E+03 -0.13777110571E+03  0.35596209918E+03  0.00000000000E+00 0. -1.
          3    1    5    5  503    0  0.78694583365E+02 -0.77336970456E+02 -0.10446262843E+03  0.15194171642E+03  0.00000000000E+00 0. -1.
         -4    1    5    5    0  503  0.29844017380E+03 -0.18764525919E+03 -0.18528731617E+03  0.39825704033E+03  0.00000000000E+00 0.  1.
         -1    1    4    4    0  502 -0.20065181165E+03 -0.69207532696E+02 -0.11696746066E+03  0.24234731060E+03  0.00000000000E+00 0.  1.
<mgrwt>
<rscale>  0 0.15029150E+04</rscale>
<asrwt>0</asrwt>
<pdfrwt beam="1">  1        2 0.18761441E+00 0.15029150E+04</pdfrwt>
<pdfrwt beam="2">  1       -2 0.71238697E-01 0.15029150E+04</pdfrwt>
<totfact> 0.31866806E+01</totfact>
</mgrwt>
</event>
<event>
11    1  0.2406360E-008  0.3089838E+04  0.7818608E-02  0.8218532E-01
          1   -1    0    0  501    0  0.00000000000E+00  0.00000000000E+00  0.24700483425E+04  0.24700483425E+04  0.00000000000E+00 0. -1.
         -1   -1    0    0    0  501 -0.00000000000E+00 -0.00000000000E+00 -0.96628664686E+03  0.96628664686E+03  0.00000000000E+00 0.  1.
         23    2    1    2    0    0 -0.71115977502E+03  0.73620008126E+03 -0.39907769514E+03  0.11024346971E+04  0.91435602151E+02 0.  0.
        254    2    1    2    0    0  0.71115977502E+03 -0.73620008126E+03  0.19028393908E+04  0.23339002923E+04  0.88235709434E+03 0.  0.
        -24    2    4    4    0    0  0.54972153314E+03 -0.45087178069E+03  0.46070801619E+03  0.85071616541E+03  0.77375650495E+02 0.  0.
         13    1    3    3    0    0 -0.34334613044E+02  0.13545289757E+02 -0.72785244273E+01  0.37620705009E+02  0.00000000000E+00 0. -1.
        -13    1    3    3    0    0 -0.67682516197E+03  0.72265479151E+03 -0.39179917072E+03  0.10648139921E+04  0.00000000000E+00 0.  1.
          2    1    4    4  502    0  0.11741791898E+03 -0.19737715486E+03  0.12010821038E+04  0.12228421522E+04  0.00000000000E+00 0. -1.
          3    1    5    5  503    0  0.32214165109E+03 -0.31225678775E+03  0.29416648611E+03  0.53648249404E+03  0.00000000000E+00 0. -1.
         -4    1    5    5    0  503  0.22757988204E+03 -0.13861499294E+03  0.16654153009E+03  0.31423367137E+03  0.00000000000E+00 0.  1.
         -1    1    4    4    0  502  0.44020322901E+02 -0.87951145707E+02  0.24104927078E+03  0.26034197473E+03  0.00000000000E+00 0.  1.
<mgrwt>
<rscale>  0 0.30898380E+04</rscale>
<asrwt>0</asrwt>
<pdfrwt beam="1">  1        1 0.38000744E+00 0.30898380E+04</pdfrwt>
<pdfrwt beam="2">  1       -1 0.14865948E+00 0.30898380E+04</pdfrwt>
<totfact> 0.42886032E-01</totfact>
</mgrwt>
</event>
<event>
11    1  0.2406360E-008  0.1213042E+04  0.7818608E-02  0.9101517E-01
          2   -1    0    0  501    0  0.00000000000E+00  0.00000000000E+00  0.24869532616E+03  0.24869532616E+03  0.00000000000E+00 0. -1.
         -2   -1    0    0    0  501 -0.00000000000E+00 -0.00000000000E+00 -0.14791912743E+04  0.14791912743E+04  0.00000000000E+00 0.  1.
         23    2    1    2    0    0 -0.51943012167E+02  0.24523741936E+03 -0.36922795422E+03  0.45623013461E+03  0.94748008854E+02 0.  0.
        254    2    1    2    0    0  0.51943012167E+02 -0.24523741936E+03 -0.86126799394E+03  0.12716564659E+04  0.90138124090E+03 0.  0.
        -24    2    4    4    0    0 -0.13915077596E+03  0.19511182528E+03 -0.71302920236E+03  0.75651442994E+03  0.80447973668E+02 0.  0.
         11    1    3    3    0    0 -0.77395737168E+02  0.21452976010E+03 -0.31695139033E+03  0.39047573796E+03  0.00000000000E+00 0.  1.
        -11    1    3    3    0    0  0.25452725000E+02  0.30707659254E+02 -0.52276563891E+02  0.65754396652E+02  0.00000000000E+00 0. -1.
          2    1    4    4  502    0  0.30374941180E+02 -0.16471445094E+03 -0.92191429611E+02  0.19118772736E+03  0.00000000000E+00 0. -1.
          3    1    5    5  503    0 -0.82574799311E+02  0.11044102964E+03 -0.28596762733E+03  0.31747960940E+03  0.00000000000E+00 0. -1.
         -4    1    5    5    0  503 -0.56575976653E+02  0.84670795642E+02 -0.42706157503E+03  0.43903482053E+03  0.00000000000E+00 0.  1.
         -3    1    4    4    0  502  0.16071884695E+03 -0.27563479370E+03 -0.56047361969E+02  0.32395430858E+03  0.00000000000E+00 0.  1.
<mgrwt>
<rscale>  0 0.12130424E+04</rscale>
<asrwt>0</asrwt>
<pdfrwt beam="1">  1        2 0.38260820E-01 0.12130424E+04</pdfrwt>
<pdfrwt beam="2">  1       -2 0.22756788E+00 0.12130424E+04</pdfrwt>
<totfact> 0.11829951E+01</totfact>
</mgrwt>
</event>
<event>
12    1  0.2406360E-008  0.1412637E+04  0.7818608E-02  0.8944722E-01
          2   -1    0    0  501    0  0.00000000000E+00  0.00000000000E+00  0.26098277531E+04  0.26098277531E+04  0.00000000000E+00 0. -1.
         -2   -1    0    0    0  501 -0.00000000000E+00 -0.00000000000E+00 -0.19115653894E+03  0.19115653894E+03  0.00000000000E+00 0.  1.
         23    2    1    2    0    0 -0.51673864820E+02 -0.14119952875E+03  0.14075434578E+04  0.14184968643E+04  0.91363412882E+02 0.  0.
        254    2    1    2    0    0  0.51673864820E+02  0.14119952875E+03  0.10111277563E+04  0.13824874277E+04  0.93074413934E+03 0.  0.
        -24    2    4    4    0    0 -0.20548998361E+03  0.83371934721E+02  0.10700990333E+04  0.10957961381E+04  0.80499828298E+02 0.  0.
         24    2    4    4    0    0  0.25716384843E+03  0.57827594025E+02 -0.58971277018E+02  0.28669128956E+03  0.96109356603E+02 0.  0.
         13    1    3    3    0    0 -0.12844212932E+02 -0.13223666459E+03  0.95414990091E+03  0.96335535638E+03  0.00000000000E+00 0.  1.
        -13    1    3    3    0    0 -0.38829651888E+02 -0.89628641579E+01  0.45339355693E+03  0.45514150796E+03  0.00000000000E+00 0. -1.
          4    1    6    6  502    0  0.24308732139E+03  0.33088441143E+02 -0.31872042990E+02  0.24739061802E+03  0.00000000000E+00 0. -1.
          1    1    5    5  503    0 -0.16295496796E+03  0.34910852146E+02  0.86103057117E+03  0.87701011036E+03  0.00000000000E+00 0. -1.
         -2    1    5    5    0  503 -0.42535015651E+02  0.48461082575E+02  0.20906846214E+03  0.21878602776E+03  0.00000000000E+00 0.  1.
         -3    1    6    6    0  502  0.14076527038E+02  0.24739152882E+02 -0.27099234029E+02  0.39300671543E+02  0.00000000000E+00 0.  1.
<mgrwt>
<rscale>  0 0.14126367E+04</rscale>
<asrwt>0</asrwt>
<pdfrwt beam="1">  1        2 0.40151193E+00 0.14126367E+04</pdfrwt>
<pdfrwt beam="2">  1       -2 0.29408700E-01 0.14126367E+04</pdfrwt>
<totfact> 0.31218661E+01</totfact>
</mgrwt>
</event>
<event>
11    1  0.2406360E-008  0.1866427E+04  0.7818608E-02  0.8671751E-01
         -1   -1    0    0    0  501 -0.00000000000E+00  0.00000000000E+00  0.82299133229E+03  0.82299133229E+03  0.00000000000E+00 0. -1.
          1   -1    0    0  501    0  0.00000000000E+00 -0.00000000000E+00 -0.10581976425E+04  0.10581976425E+04  0.00000000000E+00 0.  1.
         23    2    1    2    0    0  0.27273038169E+03  0.25928361072E+03  0.53438600037E+03  0.65997305876E+03  0.91576137788E+02 0.  0.
        254    2    1    2    0    0 -0.27273038169E+03 -0.25928361072E+03 -0.76959231060E+03  0.12212159160E+04  0.87033679524E+03 0.  0.
        -24    2    4    4    0    0  0.17241540529E+03 -0.21125978112E+02  0.73235187639E+02  0.20448462117E+03  0.79228711057E+02 0.  0.
         13    1    3    3    0    0  0.45794553720E+02  0.42903804733E+02  0.39617403668E+02  0.74211968606E+02  0.00000000000E+00 0.  1.
        -13    1    3    3    0    0  0.22693582797E+03  0.21637980599E+03  0.49476859671E+03  0.58576109016E+03  0.00000000000E+00 0. -1.
          4    1    4    4  502    0 -0.38023979445E+03 -0.13300999667E+03 -0.44543925984E+03  0.60057480359E+03  0.00000000000E+00 0. -1.
          1    1    5    5  503    0  0.70953898041E+02 -0.41744393251E+01  0.72620352439E+02  0.10161494565E+03  0.00000000000E+00 0. -1.
         -2    1    5    5    0  503  0.10146150724E+03 -0.16951538787E+02  0.61483519982E+00  0.10286967552E+03  0.00000000000E+00 0.  1.
         -3    1    4    4    0  502 -0.64905992525E+02 -0.10514763594E+03 -0.39738823840E+03  0.41615649127E+03  0.00000000000E+00 0.  1.
<mgrwt>
<rscale>  0 0.18664271E+04</rscale>
<asrwt>0</asrwt>
<pdfrwt beam="1">  1        1 0.16279964E+00 0.18664271E+04</pdfrwt>
<pdfrwt beam="2">  1       -1 0.12661405E+00 0.18664271E+04</pdfrwt>
<totfact> 0.69375296E+00</totfact>
</mgrwt>
</event>
<event>
12    1  0.3942795E-008  0.2095317E+04  0.7818608E-02  0.8563309E-01
         -2   -1    0    0    0  501 -0.00000000000E+00  0.00000000000E+00  0.93626815097E+03  0.93626815097E+03  0.00000000000E+00 0. -1.
          2   -1    0    0  501    0  0.00000000000E+00 -0.00000000000E+00 -0.11723012429E+04  0.11723012429E+04  0.00000000000E+00 0.  1.
         23    2    1    2    0    0  0.23416645968E+03 -0.66108269923E+03 -0.58293878297E+03  0.91643685051E+03  0.90413551142E+02 0.  0.
        254    2    1    2    0    0 -0.23416645968E+03  0.66108269923E+03  0.34690569100E+03  0.11921325434E+04  0.89942880571E+03 0.  0.
        -24    2    4    4    0    0 -0.23601109823E+02 -0.21512274287E+03  0.28602983821E+02  0.23202269712E+03  0.78623116270E+02 0.  0.
         24    2    4    4    0    0 -0.21056534986E+03  0.87620544210E+03  0.31830270717E+03  0.96010984628E+03  0.91763610468E+02 0.  0.
         11    1    3    3    0    0 -0.70141126171E+01 -0.82096147686E+01 -0.56675017458E+01  0.12194922160E+02  0.00000000000E+00 0.  1.
        -11    1    3    3    0    0  0.24118057230E+03 -0.65287308446E+03 -0.57727128123E+03  0.90424192835E+03  0.00000000000E+00 0. -1.
          4    1    6    6  502    0 -0.15033615252E+02  0.32957120475E+02 -0.39749119813E+01  0.36441477781E+02  0.00000000000E+00 0. -1.
          3    1    5    5  503    0 -0.11289244409E+02 -0.18196722384E+01  0.13700516237E+02  0.17845514606E+02  0.00000000000E+00 0. -1.
         -2    1    5    5    0  503 -0.12311865414E+02 -0.21330307063E+03  0.14902467583E+02  0.21417718252E+03  0.00000000000E+00 0.  1.
         -3    1    6    6    0  502 -0.19553173460E+03  0.84324832162E+03  0.32227761916E+03  0.92366836850E+03  0.00000000000E+00 0.  1.
<mgrwt>
<rscale>  0 0.20953170E+04</rscale>
<asrwt>0</asrwt>
<pdfrwt beam="1">  1        2 0.18035404E+00 0.20953170E+04</pdfrwt>
<pdfrwt beam="2">  1       -2 0.14404125E+00 0.20953170E+04</pdfrwt>
<totfact> 0.60502525E+00</totfact>
</mgrwt>
</event>
<event>
11    1  0.2406360E-008  0.1323211E+04  0.7818608E-02  0.9011358E-01
          2   -1    0    0  501    0  0.00000000000E+00  0.00000000000E+00  0.64606838493E+03  0.64606838493E+03  0.00000000000E+00 0. -1.
         -2   -1    0    0    0  501 -0.00000000000E+00 -0.00000000000E+00 -0.67751656783E+03  0.67751656783E+03  0.00000000000E+00 0.  1.
         23    2    1    2    0    0 -0.16483400010E+03 -0.15491308811E+03 -0.27476446607E+03  0.36746173330E+03  0.91456553467E+02 0.  0.
        254    2    1    2    0    0  0.16483400010E+03  0.15491308811E+03  0.24331628316E+03  0.95612321946E+03  0.89654920929E+03 0.  0.
        -24    2    4    4    0    0  0.77596412687E+02 -0.19645270205E+03  0.45863169141E+03  0.51136420090E+03  0.80842131321E+02 0.  0.
         13    1    3    3    0    0 -0.61252842712E+02 -0.87384056731E+02 -0.67977760335E+02  0.12652612383E+03  0.00000000000E+00 0. -1.
        -13    1    3    3    0    0 -0.10358115739E+03 -0.67529031377E+02 -0.20678670573E+03  0.24093560947E+03  0.00000000000E+00 0.  1.
          4    1    4    4  502    0  0.73377190249E+02  0.34411542632E+03 -0.23233843362E+03  0.42164058915E+03  0.00000000000E+00 0. -1.
          3    1    5    5  503    0  0.67617791353E+02 -0.15431481287E+03  0.27343920663E+03  0.32117631747E+03  0.00000000000E+00 0. -1.
         -4    1    5    5    0  503  0.99786213347E+01 -0.42137889181E+02  0.18519248477E+03  0.19018788343E+03  0.00000000000E+00 0.  1.
         -3    1    4    4    0  502  0.13860397167E+02  0.72503638384E+01  0.17023025373E+02  0.23118429408E+02  0.00000000000E+00 0.  1.
<mgrwt>
<rscale>  0 0.13232113E+04</rscale>
<asrwt>0</asrwt>
<pdfrwt beam="1">  1        2 0.99395136E-01 0.13232113E+04</pdfrwt>
<pdfrwt beam="2">  1       -2 0.10423332E+00 0.13232113E+04</pdfrwt>
<totfact> 0.33171857E+01</totfact>
</mgrwt>
</event>
<event>
11    1  0.2406360E-008  0.1047357E+04  0.7818608E-02  0.9258077E-01
         -1   -1    0    0    0  501 -0.00000000000E+00  0.00000000000E+00  0.74185794855E+03  0.74185794855E+03  0.00000000000E+00 0.  1.
          1   -1    0    0  501    0  0.00000000000E+00 -0.00000000000E+00 -0.36966550305E+03  0.36966550305E+03  0.00000000000E+00 0. -1.
         23    2    1    2    0    0 -0.56734172043E+02  0.28002834687E+02 -0.26145864578E+02  0.11267642046E+03  0.89495499695E+02 0.  0.
        254    2    1    2    0    0  0.56734172043E+02 -0.28002834687E+02  0.39833831008E+03  0.99884703114E+03  0.91379377176E+03 0.  0.
        -24    2    4    4    0    0  0.36372153539E+03 -0.21545911017E+03  0.28833823918E+03  0.51778504524E+03  0.79034356022E+02 0.  0.
         11    1    3    3    0    0 -0.17071571894E+02  0.56306323299E+02 -0.34895678840E+01  0.58940798216E+02  0.00000000000E+00 0.  1.
        -11    1    3    3    0    0 -0.39662600149E+02 -0.28303488612E+02 -0.22656296694E+02  0.53735622245E+02  0.00000000000E+00 0. -1.
          2    1    4    4  502    0 -0.87642998360E+02 -0.62394631249E+02 -0.42000035911E+02  0.11549193992E+03  0.00000000000E+00 0. -1.
          3    1    5    5  503    0  0.25536521865E+02 -0.18833280232E+02  0.51485123198E+02  0.60477469392E+02  0.00000000000E+00 0. -1.
         -4    1    5    5    0  503  0.33818501353E+03 -0.19662582994E+03  0.23685311598E+03  0.45730757584E+03  0.00000000000E+00 0.  1.
         -1    1    4    4    0  502 -0.21934436499E+03  0.24985090673E+03  0.15200010681E+03  0.36557004598E+03  0.00000000000E+00 0.  1.
<mgrwt>
<rscale>  0 0.10473572E+04</rscale>
<asrwt>0</asrwt>
<pdfrwt beam="1">  1        1 0.56871616E-01 0.10473572E+04</pdfrwt>
<pdfrwt beam="2">  1       -1 0.11413199E+00 0.10473572E+04</pdfrwt>
<totfact> 0.46584268E+01</totfact>
</mgrwt>
</event>
<event>
12    1  0.3523489E-008  0.2605182E+04  0.7818608E-02  0.8366443E-01
         -1   -1    0    0    0  501 -0.00000000000E+00  0.00000000000E+00  0.73831686402E+03  0.73831686402E+03  0.00000000000E+00 0.  1.
          1   -1    0    0  501    0  0.00000000000E+00 -0.00000000000E+00 -0.22981238481E+04  0.22981238481E+04  0.00000000000E+00 0. -1.
         23    2    1    2    0    0 -0.41615843389E+02  0.55675814102E+03  0.47344751990E+03  0.73770386410E+03  0.91339646300E+02 0.  0.
        254    2    1    2    0    0  0.41615843389E+02 -0.55675814102E+03 -0.20332545040E+04  0.22987368480E+04  0.91561766720E+03 0.  0.
        -24    2    4    4    0    0  0.22260433457E+02  0.10480977982E+02  0.75710498366E+02  0.11279098049E+03  0.79902114610E+02 0.  0.
         24    2    4    4    0    0  0.19355409932E+02 -0.56723911900E+03 -0.21089650024E+04  0.21859458676E+04  0.92147190128E+02 0.  0.
         13    1    3    3    0    0 -0.44884189249E+02  0.52552464936E+03  0.41415396990E+03  0.67060738015E+03  0.00000000000E+00 0.  1.
        -13    1    3    3    0    0  0.32683458599E+01  0.31233491663E+02  0.59293550001E+02  0.67096483945E+02  0.00000000000E+00 0. -1.
          2    1    6    6  502    0  0.38772244675E+01 -0.15514311929E+03 -0.74546978518E+03  0.76145231035E+03  0.00000000000E+00 0. -1.
          1    1    5    5  503    0  0.12406635460E+02 -0.32500898814E+02  0.15315063275E+02  0.38010316892E+02  0.00000000000E+00 0. -1.
         -2    1    5    5    0  503  0.98537979968E+01  0.42981876795E+02  0.60395435091E+02  0.74780663595E+02  0.00000000000E+00 0.  1.
         -1    1    6    6    0  502  0.15478185465E+02 -0.41209599971E+03 -0.13634952172E+04  0.14244935572E+04  0.00000000000E+00 0.  1.
<mgrwt>
<rscale>  0 0.26051822E+04</rscale>
<asrwt>0</asrwt>
<pdfrwt beam="1">  1        1 0.35355752E+00 0.26051822E+04</pdfrwt>
<pdfrwt beam="2">  1       -1 0.11358721E+00 0.26051822E+04</pdfrwt>
<totfact> 0.11615369E+00</totfact>
</mgrwt>
</event>
<event>
11    1  0.2406360E-008  0.2054348E+04  0.7818608E-02  0.8581625E-01
         -2   -1    0    0    0  501 -0.00000000000E+00  0.00000000000E+00  0.72658037919E+03  0.72658037919E+03  0.00000000000E+00 0. -1.
          2   -1    0    0  501    0  0.00000000000E+00 -0.00000000000E+00 -0.14521256141E+04  0.14521256141E+04  0.00000000000E+00 0.  1.
         23    2    1    2    0    0 -0.15774300163E+00  0.21465766771E+03 -0.11373831453E+04  0.11635537584E+04  0.11890748682E+03 0.  0.
        254    2    1    2    0    0  0.15774300163E+00 -0.21465766771E+03  0.41183791034E+03  0.10151522349E+04  0.90268801722E+03 0.  0.
        -24    2    4    4    0    0 -0.15495388789E+03 -0.15383977282E+03  0.65072918684E+03  0.69085229817E+03  0.78428567584E+02 0.  0.
         11    1    3    3    0    0  0.25022223051E+02  0.17854809845E+03 -0.10535482449E+04  0.10688636206E+04  0.00000000000E+00 0.  1.
        -11    1    3    3    0    0 -0.25179966052E+02  0.36109569256E+02 -0.83834900367E+02  0.94690137827E+02  0.00000000000E+00 0. -1.
          2    1    4    4  502    0  0.14432446876E+03 -0.69934435741E+02 -0.25601732319E+03  0.30210138589E+03  0.00000000000E+00 0. -1.
          1    1    5    5  503    0 -0.11587602818E+03 -0.10801655972E+03  0.55984489713E+03  0.58182569549E+03  0.00000000000E+00 0. -1.
         -2    1    5    5    0  503 -0.39077859709E+02 -0.45823213099E+02  0.90884289701E+02  0.10902660268E+03  0.00000000000E+00 0.  1.
         -1    1    4    4    0  502  0.10787162129E+02  0.91165408539E+01  0.17126046687E+02  0.22198550832E+02  0.00000000000E+00 0.  1.
<mgrwt>
<rscale>  0 0.20543476E+04</rscale>
<asrwt>0</asrwt>
<pdfrwt beam="1">  1        2 0.22340394E+00 0.20543476E+04</pdfrwt>
<pdfrwt beam="2">  1       -2 0.11178160E+00 0.20543476E+04</pdfrwt>
<totfact> 0.78990420E+00</totfact>
</mgrwt>
</event>
<event>
12    1  0.2406360E-008  0.1681126E+04  0.7818608E-02  0.8772202E-01
          1   -1    0    0  501    0  0.00000000000E+00  0.00000000000E+00  0.66109255148E+03  0.66109255148E+03  0.00000000000E+00 0. -1.
         -1   -1    0    0    0  501 -0.00000000000E+00 -0.00000000000E+00 -0.10687557639E+04  0.10687557639E+04  0.00000000000E+00 0.  1.
         23    2    1    2    0    0 -0.64931103173E+02  0.56933513734E+03 -0.11264855731E+03  0.59108004407E+03  0.91254447905E+02 0.  0.
        254    2    1    2    0    0  0.64931103173E+02 -0.56933513734E+03 -0.29501465509E+03  0.11387682713E+04  0.93882958103E+03 0.  0.
        -24    2    4    4    0    0 -0.30121542633E+03 -0.59943854890E+03 -0.31942435044E+02  0.67628118561E+03  0.79237717545E+02 0.  0.
         24    2    4    4    0    0  0.36614652951E+03  0.30103411555E+02 -0.26307222005E+03  0.46248708569E+03  0.98578978539E+02 0.  0.
         13    1    3    3    0    0 -0.24375743274E+02  0.33547826337E+03 -0.22241016359E+02  0.33709717421E+03  0.00000000000E+00 0. -1.
        -13    1    3    3    0    0 -0.40555359899E+02  0.23385687398E+03 -0.90407540946E+02  0.25398286986E+03  0.00000000000E+00 0.  1.
          2    1    6    6  502    0  0.19430570502E+02 -0.52519615032E+01  0.72824518348E+01  0.21404772234E+02  0.00000000000E+00 0. -1.
          3    1    5    5  503    0 -0.32331965500E+01 -0.12104653469E+01 -0.66218457277E+01  0.74677725681E+01  0.00000000000E+00 0. -1.
         -4    1    5    5    0  503 -0.29798222978E+03 -0.59822808355E+03 -0.25320589316E+02  0.66881341304E+03  0.00000000000E+00 0.  1.
         -1    1    6    6    0  502  0.34671595901E+03  0.35355373059E+02 -0.27035467188E+03  0.44108231345E+03  0.00000000000E+00 0.  1.
<mgrwt>
<rscale>  0 0.16811264E+04</rscale>
<asrwt>0</asrwt>
<pdfrwt beam="1">  1        1 0.10170655E+00 0.16811264E+04</pdfrwt>
<pdfrwt beam="2">  1       -1 0.16442396E+00 0.16811264E+04</pdfrwt>
<totfact> 0.76609966E+00</totfact>
</mgrwt>
</event>
<event>
11    1  0.2406360E-008  0.1439999E+04  0.7818608E-02  0.8925364E-01
          2   -1    0    0  501    0  0.00000000000E+00  0.00000000000E+00  0.11817638739E+04  0.11817638739E+04  0.00000000000E+00 0.  1.
         -2   -1    0    0    0  501 -0.00000000000E+00 -0.00000000000E+00 -0.43866554707E+03  0.43866554707E+03  0.00000000000E+00 0. -1.
         23    2    1    2    0    0  0.26397543073E+03 -0.25386429521E+03  0.58069971640E+03  0.69254399751E+03  0.90966584257E+02 0.  0.
        254    2    1    2    0    0 -0.26397543073E+03  0.25386429521E+03  0.16239861041E+03  0.92788542345E+03  0.83693962863E+03 0.  0.
        -24    2    4    4    0    0 -0.40633836304E+02  0.17555819012E+03  0.46150340990E+03  0.50178461935E+03  0.79565194009E+02 0.  0.
         11    1    3    3    0    0  0.46063980174E+02 -0.68990905312E+02  0.75741750553E+02  0.11233186575E+03  0.00000000000E+00 0. -1.
        -11    1    3    3    0    0  0.21791145055E+03 -0.18487338990E+03  0.50495796584E+03  0.58021213176E+03  0.00000000000E+00 0.  1.
          2    1    4    4  502    0 -0.12933887183E+03  0.13528896976E+03 -0.14477776976E+03  0.23662681954E+03  0.00000000000E+00 0. -1.
          1    1    5    5  503    0  0.62132241363E+01  0.90518618786E+02  0.29923778423E+03  0.31269070343E+03  0.00000000000E+00 0. -1.
         -2    1    5    5    0  503 -0.46847060440E+02  0.85039571329E+02  0.16226562567E+03  0.18909391592E+03  0.00000000000E+00 0.  1.
         -1    1    4    4    0  502 -0.94002722591E+02 -0.56982864669E+02 -0.15432702973E+03  0.18947398456E+03  0.00000000000E+00 0.  1.
<mgrwt>
<rscale>  0 0.14399987E+04</rscale>
<asrwt>0</asrwt>
<pdfrwt beam="1">  1        2 0.18180983E+00 0.14399987E+04</pdfrwt>
<pdfrwt beam="2">  1       -2 0.67487008E-01 0.14399987E+04</pdfrwt>
<totfact> 0.37950089E+01</totfact>
</mgrwt>
</event>
<event>
11    1  0.2406360E-008  0.1843095E+04  0.7818608E-02  0.8683712E-01
         -2   -1    0    0    0  501 -0.00000000000E+00  0.00000000000E+00  0.51732746363E+03  0.51732746363E+03  0.00000000000E+00 0.  1.
          2   -1    0    0  501    0  0.00000000000E+00 -0.00000000000E+00 -0.16416100668E+04  0.16416100668E+04  0.00000000000E+00 0. -1.
         23    2    1    2    0    0  0.19376188368E+03 -0.10035405671E+03  0.34385004046E+03  0.42122076181E+03  0.10760797177E+03 0.  0.
        254    2    1    2    0    0 -0.19376188368E+03  0.10035405671E+03 -0.14681326437E+04  0.17377167687E+04  0.90367665923E+03 0.  0.
        -24    2    4    4    0    0 -0.38602903799E+03  0.42290318813E+02 -0.20045462934E+03  0.44469107272E+03  0.82226531582E+02 0.  0.
         13    1    3    3    0    0  0.18462541580E+03 -0.81320037920E+02  0.23222504243E+03  0.30761658450E+03  0.00000000000E+00 0. -1.
        -13    1    3    3    0    0  0.91364678769E+01 -0.19034018791E+02  0.11162499803E+03  0.11360417731E+03  0.00000000000E+00 0.  1.
          2    1    4    4  502    0  0.17921761389E+03  0.94508369410E+02 -0.11787716754E+04  0.11960574600E+04  0.00000000000E+00 0. -1.
          3    1    5    5  503    0 -0.18994740872E+03  0.35691847225E+02 -0.56532149889E+02  0.20136983391E+03  0.00000000000E+00 0. -1.
         -4    1    5    5    0  503 -0.19608162927E+03  0.65984715887E+01 -0.14392247945E+03  0.24332123881E+03  0.00000000000E+00 0.  1.
         -1    1    4    4    0  502  0.13049540421E+02 -0.36444631512E+02 -0.88906338934E+02  0.96968235902E+02  0.00000000000E+00 0.  1.
<mgrwt>
<rscale>  0 0.18430952E+04</rscale>
<asrwt>0</asrwt>
<pdfrwt beam="1">  1        2 0.25255539E+00 0.18430952E+04</pdfrwt>
<pdfrwt beam="2">  1       -2 0.79588841E-01 0.18430952E+04</pdfrwt>
<totfact> 0.13905997E+01</totfact>
</mgrwt>
</event>
<event>
11    1  0.2406360E-008  0.1546625E+04  0.7818608E-02  0.8854026E-01
          2   -1    0    0  501    0  0.00000000000E+00  0.00000000000E+00  0.15109750976E+04  0.15109750976E+04  0.00000000000E+00 0. -1.
         -2   -1    0    0    0  501 -0.00000000000E+00 -0.00000000000E+00 -0.39577900323E+03  0.39577900323E+03  0.00000000000E+00 0.  1.
         23    2    1    2    0    0 -0.29748134599E+03  0.20770713234E+02  0.87084160418E+03  0.92508151789E+03  0.92109399296E+02 0.  0.
        254    2    1    2    0    0  0.29748134599E+03 -0.20770713234E+02  0.24435449015E+03  0.98167258290E+03  0.90279863171E+03 0.  0.
        -24    2    4    4    0    0  0.25273443254E+02 -0.40217529658E+03  0.19019571274E+03  0.45250076905E+03  0.78732590025E+02 0.  0.
         11    1    3    3    0    0 -0.51460204455E+02 -0.83505607340E+01  0.73301248496E+02  0.89949750073E+02  0.00000000000E+00 0.  1.
        -11    1    3    3    0    0 -0.24602114153E+03  0.29121273968E+02  0.79754035568E+03  0.83513176782E+03  0.00000000000E+00 0. -1.
          2    1    4    4  502    0  0.10352219713E+03  0.33615570980E+03  0.37637326474E+02  0.35374295028E+03  0.00000000000E+00 0. -1.
          1    1    5    5  503    0  0.39488041093E+01 -0.33131585589E+03  0.18204178595E+03  0.37805423057E+03  0.00000000000E+00 0. -1.
         -2    1    5    5    0  503  0.21324639145E+02 -0.70859440692E+02  0.81539267861E+01  0.74446538481E+02  0.00000000000E+00 0.  1.
         -1    1    4    4    0  502  0.16868570560E+03  0.45248873549E+02  0.16521450940E+02  0.17542886357E+03  0.00000000000E+00 0.  1.
<mgrwt>
<rscale>  0 0.15466250E+04</rscale>
<asrwt>0</asrwt>
<pdfrwt beam="1">  1        2 0.23245770E+00 0.15466250E+04</pdfrwt>
<pdfrwt beam="2">  1       -2 0.60889078E-01 0.15466250E+04</pdfrwt>
<totfact> 0.30243132E+01</totfact>
</mgrwt>
</event>
<event>
11    1  0.2406360E-008  0.1640578E+04  0.7818608E-02  0.8796000E-01
          1   -1    0    0  501    0  0.00000000000E+00  0.00000000000E+00  0.15809570630E+04  0.15809570630E+04  0.00000000000E+00 0. -1.
         -1   -1    0    0    0  501 -0.00000000000E+00 -0.00000000000E+00 -0.42561206177E+03  0.42561206177E+03  0.00000000000E+00 0.  1.
         23    2    1    2    0    0 -0.27847771504E+03 -0.43756975928E+03  0.68734342266E+03  0.86585720174E+03  0.90832709540E+02 0.  0.
        254    2    1    2    0    0  0.27847771504E+03  0.43756975928E+03  0.46800157853E+03  0.11407119230E+04  0.90176553591E+03 0.  0.
        -24    2    4    4    0    0  0.32012516294E+03 -0.74414282519E+02  0.30772996172E+03  0.45741329787E+03  0.80694425650E+02 0.  0.
         13    1    3    3    0    0 -0.27938480236E+03 -0.43051307657E+03  0.68840777322E+03  0.85866328622E+03  0.00000000000E+00 0. -1.
        -13    1    3    3    0    0  0.90708731627E+00 -0.70566827108E+01 -0.10643505618E+01  0.71939155123E+01  0.00000000000E+00 0.  1.
          4    1    4    4  502    0  0.50315176216E+02  0.55815832701E+03  0.14822473796E+03  0.57969208026E+03  0.00000000000E+00 0. -1.
          1    1    5    5  503    0  0.27672329862E+03 -0.63919194986E+02  0.22100343071E+03  0.35986659177E+03  0.00000000000E+00 0. -1.
         -2    1    5    5    0  503  0.43401864326E+02 -0.10495087532E+02  0.86726531010E+02  0.97546706097E+02  0.00000000000E+00 0.  1.
         -3    1    4    4    0  502 -0.91962624118E+02 -0.46174285217E+02  0.12046878851E+02  0.10360654487E+03  0.00000000000E+00 0.  1.
<mgrwt>
<rscale>  0 0.16405784E+04</rscale>
<asrwt>0</asrwt>
<pdfrwt beam="1">  1        1 0.24322416E+00 0.16405784E+04</pdfrwt>
<pdfrwt beam="2">  1       -1 0.65478780E-01 0.16405784E+04</pdfrwt>
<totfact> 0.13002986E+01</totfact>
</mgrwt>
</event>
<event>
12    1  0.2406360E-008  0.1994064E+04  0.7818608E-02  0.8609401E-01
         -1   -1    0    0    0  501 -0.00000000000E+00  0.00000000000E+00  0.14957454766E+04  0.14957454766E+04  0.00000000000E+00 0.  1.
          1   -1    0    0  501    0  0.00000000000E+00 -0.00000000000E+00 -0.66460002019E+03  0.66460002019E+03  0.00000000000E+00 0. -1.
         23    2    1    2    0    0 -0.66466121225E+02  0.28193317269E+03  0.11285249491E+04  0.11686633296E+04  0.91111789269E+02 0.  0.
        254    2    1    2    0    0  0.66466121225E+02 -0.28193317269E+03 -0.29737949261E+03  0.99168216724E+03  0.90060807184E+03 0.  0.
        -24    2    4    4    0    0  0.23013433177E+03 -0.53372976921E+03 -0.33434735180E+03  0.67548869689E+03  0.81655071924E+02 0.  0.
         24    2    4    4    0    0 -0.16366821054E+03  0.25179659652E+03  0.36967859188E+02  0.31619347035E+03  0.91776243744E+02 0.  0.
         11    1    3    3    0    0 -0.63337075418E+02  0.10655467149E+03  0.37355408567E+03  0.39358371163E+03  0.00000000000E+00 0. -1.
        -11    1    3    3    0    0 -0.31290458066E+01  0.17537850120E+03  0.75497086339E+03  0.77507961796E+03  0.00000000000E+00 0.  1.
          2    1    6    6  502    0 -0.10759917811E+03  0.22944192742E+03  0.24915675924E+02  0.25464086887E+03  0.00000000000E+00 0. -1.
          3    1    5    5  503    0  0.16411879816E+03 -0.38961808506E+03 -0.28347000648E+03  0.50901127364E+03  0.00000000000E+00 0. -1.
         -4    1    5    5    0  503  0.66015533604E+02 -0.14411168415E+03 -0.50877345317E+02  0.16647742325E+03  0.00000000000E+00 0.  1.
         -1    1    6    6    0  502 -0.56069032427E+02  0.22354669102E+02  0.12052183264E+02  0.61552601484E+02  0.00000000000E+00 0.  1.
<mgrwt>
<rscale>  0 0.19940637E+04</rscale>
<asrwt>0</asrwt>
<pdfrwt beam="1">  1        1 0.10224616E+00 0.19940637E+04</pdfrwt>
<pdfrwt beam="2">  1       -1 0.23011469E+00 0.19940637E+04</pdfrwt>
<totfact> 0.25764849E+00</totfact>
</mgrwt>
</event>
<event>
11    1  0.2406360E-008  0.1560881E+04  0.7818608E-02  0.8844948E-01
         -2   -1    0    0    0  501 -0.00000000000E+00  0.00000000000E+00  0.28737823106E+03  0.28737823106E+03  0.00000000000E+00 0.  1.
          2   -1    0    0  501    0  0.00000000000E+00 -0.00000000000E+00 -0.21194615865E+04  0.21194615865E+04  0.00000000000E+00 0. -1.
         23    2    1    2    0    0 -0.10303776849E+03 -0.43485070591E+03 -0.10021442019E+04  0.11010508033E+04  0.91147967354E+02 0.  0.
        254    2    1    2    0    0  0.10303776849E+03  0.43485070591E+03 -0.82993915360E+03  0.13057890143E+04  0.90364485999E+03 0.  0.
        -24    2    4    4    0    0  0.19857949133E+03  0.46389544982E+03 -0.53257116930E+02  0.51433466596E+03  0.84089389126E+02 0.  0.
         13    1    3    3    0    0 -0.34064295361E+02 -0.25683782955E+03 -0.66367993928E+03  0.71245849613E+03  0.00000000000E+00 0. -1.
        -13    1    3    3    0    0 -0.68973473130E+02 -0.17801287636E+03 -0.33846426260E+03  0.38859230718E+03  0.00000000000E+00 0.  1.
          4    1    4    4  502    0  0.19831071491E+02 -0.24666594295E+02 -0.26642111127E+03  0.26829446659E+03  0.00000000000E+00 0. -1.
          3    1    5    5  503    0  0.36346071958E+02  0.17674633484E+03 -0.36503043485E+02  0.18409990769E+03  0.00000000000E+00 0. -1.
         -4    1    5    5    0  503  0.16223341937E+03  0.28714911498E+03 -0.16754073445E+02  0.33023475827E+03  0.00000000000E+00 0.  1.
         -3    1    4    4    0  502 -0.11537279433E+03 -0.43781496163E+01 -0.51026092540E+03  0.52315988174E+03  0.00000000000E+00 0.  1.
<mgrwt>
<rscale>  0 0.15608807E+04</rscale>
<asrwt>0</asrwt>
<pdfrwt beam="1">  1        2 0.32607100E+00 0.15608807E+04</pdfrwt>
<pdfrwt beam="2">  1       -2 0.44212037E-01 0.15608807E+04</pdfrwt>
<totfact> 0.26754908E+01</totfact>
</mgrwt>
</event>
<event>
12    1  0.2406360E-008  0.2139974E+04  0.7818608E-02  0.8543836E-01
         -2   -1    0    0    0  501 -0.00000000000E+00  0.00000000000E+00  0.82568416834E+03  0.82568416834E+03  0.00000000000E+00 0.  1.
          2   -1    0    0  501    0  0.00000000000E+00 -0.00000000000E+00 -0.13865739406E+04  0.13865739406E+04  0.00000000000E+00 0. -1.
         23    2    1    2    0    0 -0.64474445904E+02  0.28701836749E+03  0.62568307269E+03  0.69750678676E+03  0.92194970940E+02 0.  0.
        254    2    1    2    0    0  0.64474445904E+02 -0.28701836749E+03 -0.11865728450E+04  0.15147513222E+04  0.89441598501E+03 0.  0.
        -24    2    4    4    0    0 -0.18161008064E+03 -0.31027569129E+03 -0.81085119141E+02  0.37816821277E+03  0.84753611204E+02 0.  0.
         24    2    4    4    0    0  0.24608452654E+03  0.23257323793E+02 -0.11054877258E+04  0.11365831094E+04  0.92841560601E+02 0.  0.
         13    1    3    3    0    0 -0.10798094309E+02  0.20474143986E+03  0.47822442164E+03  0.52032129832E+03  0.00000000000E+00 0.  1.
        -13    1    3    3    0    0 -0.53676351595E+02  0.82276927636E+02  0.14745865105E+03  0.17718548843E+03  0.00000000000E+00 0. -1.
          2    1    6    6  502    0 -0.67951346119E+01 -0.36387133856E-02 -0.10305463744E+02  0.12344085653E+02  0.00000000000E+00 0. -1.
          3    1    5    5  503    0 -0.40256742869E+02 -0.38801632896E+02  0.14055811565E+02  0.57651868144E+02  0.00000000000E+00 0. -1.
         -4    1    5    5    0  503 -0.14135333777E+03 -0.27147405839E+03 -0.95140930707E+02  0.32051634463E+03  0.00000000000E+00 0.  1.
         -1    1    6    6    0  502  0.25287966116E+03  0.23260962506E+02 -0.10951822621E+04  0.11242390238E+04  0.00000000000E+00 0.  1.
<mgrwt>
<rscale>  0 0.21399740E+04</rscale>
<asrwt>0</asrwt>
<pdfrwt beam="1">  1        2 0.21331907E+00 0.21399740E+04</pdfrwt>
<pdfrwt beam="2">  1       -2 0.12702833E+00 0.21399740E+04</pdfrwt>
<totfact> 0.62308703E+00</totfact>
</mgrwt>
</event>
<event>
11    1  0.2406360E-008  0.1804257E+04  0.7818608E-02  0.8704039E-01
         -4   -1    0    0    0  501 -0.00000000000E+00  0.00000000000E+00  0.46661370875E+03  0.46661370875E+03  0.00000000000E+00 0. -1.
          4   -1    0    0  501    0  0.00000000000E+00 -0.00000000000E+00 -0.17441315522E+04  0.17441315522E+04  0.00000000000E+00 0.  1.
         23    2    1    2    0    0 -0.21976712200E+03 -0.14250588153E+03 -0.12361388761E+04  0.12669216278E+04  0.91899813450E+02 0.  0.
        254    2    1    2    0    0  0.21976712200E+03  0.14250588153E+03 -0.41378967311E+02  0.94382363315E+03  0.90580644587E+03 0.  0.
        -24    2    4    4    0    0 -0.27815045992E+03  0.22650428677E+03  0.12780419799E+03  0.38876824406E+03  0.78326012836E+02 0.  0.
         11    1    3    3    0    0 -0.18296750957E+03 -0.14406471929E+03 -0.11482473696E+04  0.11716244171E+04  0.00000000000E+00 0.  1.
        -11    1    3    3    0    0 -0.36799612426E+02  0.15588377668E+01 -0.87891506530E+02  0.95297210715E+02  0.00000000000E+00 0. -1.
          2    1    4    4  502    0  0.64791625954E+02 -0.69056146700E+02 -0.40318419305E+02  0.10291880842E+03  0.00000000000E+00 0. -1.
          3    1    5    5  503    0 -0.66707810458E+02  0.97059957030E+02  0.25103327175E+02  0.12041903616E+03  0.00000000000E+00 0. -1.
         -4    1    5    5    0  503 -0.21144264946E+03  0.12944432974E+03  0.10270087082E+03  0.26834920790E+03  0.00000000000E+00 0.  1.
         -3    1    4    4    0  502  0.43312595597E+03 -0.14942258541E+02 -0.12886474600E+03  0.45213658068E+03  0.00000000000E+00 0.  1.
<mgrwt>
<rscale>  0 0.18042568E+04</rscale>
<asrwt>0</asrwt>
<pdfrwt beam="1">  1        4 0.26832793E+00 0.18042568E+04</pdfrwt>
<pdfrwt beam="2">  1       -4 0.71786725E-01 0.18042568E+04</pdfrwt>
<totfact> 0.16271730E-01</totfact>
</mgrwt>
</event>
<event>
12    1  0.2406360E-008  0.1551737E+04  0.7818608E-02  0.8850759E-01
         -4   -1    0    0    0  501 -0.00000000000E+00  0.00000000000E+00  0.60265400393E+03  0.60265400393E+03  0.00000000000E+00 0.  1.
          4   -1    0    0  501    0  0.00000000000E+00 -0.00000000000E+00 -0.99886811603E+03  0.99886811603E+03  0.00000000000E+00 0. -1.
         23    2    1    2    0    0 -0.42332948281E+03 -0.19066003720E+03  0.84013813657E+02  0.48050235052E+03  0.90912524820E+02 0.  0.
        254    2    1    2    0    0  0.42332948281E+03  0.19066003720E+03 -0.48022792576E+03  0.11210197694E+04  0.90028182365E+03 0.  0.
        -24    2    4    4    0    0  0.16905517517E+03  0.30339001833E+03 -0.68273922368E+03  0.77003941591E+03  0.78757215769E+02 0.  0.
         24    2    4    4    0    0  0.25427430764E+03 -0.11272998113E+03  0.20251129792E+03  0.35098035352E+03  0.69375143982E+02 0.  0.
         13    1    3    3    0    0 -0.34062329255E+03 -0.14548785626E+03  0.29341606498E+02  0.37155332540E+03  0.00000000000E+00 0. -1.
        -13    1    3    3    0    0 -0.82706190259E+02 -0.45172180943E+02  0.54672207159E+02  0.10894902512E+03  0.00000000000E+00 0.  1.
          4    1    6    6  502    0  0.12981855079E+03 -0.23042196044E+02  0.11102261214E+03  0.17236536582E+03  0.00000000000E+00 0. -1.
          1    1    5    5  503    0  0.17046845739E+03  0.28965081649E+03 -0.67539280582E+03  0.75439547494E+03  0.00000000000E+00 0. -1.
         -4    1    5    5    0  503 -0.14132822268E+01  0.13739201834E+02 -0.73464178616E+01  0.15643940970E+02  0.00000000000E+00 0.  1.
         -3    1    6    6    0  502  0.12445575686E+03 -0.89687785082E+02  0.91488685777E+02  0.17861498770E+03  0.00000000000E+00 0.  1.
<mgrwt>
<rscale>  0 0.15517369E+04</rscale>
<asrwt>0</asrwt>
<pdfrwt beam="1">  1        4 0.15367202E+00 0.15517369E+04</pdfrwt>
<pdfrwt beam="2">  1       -4 0.92716002E-01 0.15517369E+04</pdfrwt>
<totfact> 0.53056415E-01</totfact>
</mgrwt>
</event>
<event>
11    1  0.2406360E-008  0.1522818E+04  0.7818608E-02  0.8869420E-01
         -2   -1    0    0    0  501 -0.00000000000E+00  0.00000000000E+00  0.27895507666E+03  0.27895507666E+03  0.00000000000E+00 0.  1.
          2   -1    0    0  501    0  0.00000000000E+00 -0.00000000000E+00 -0.20782683854E+04  0.20782683854E+04  0.00000000000E+00 0. -1.
         23    2    1    2    0    0 -0.17600035713E+03  0.25784859955E+03 -0.34901947804E+01  0.32298439589E+03  0.82732777851E+02 0.  0.
        254    2    1    2    0    0  0.17600035713E+03 -0.25784859955E+03 -0.17958231140E+04  0.20342390662E+04  0.90315330688E+03 0.  0.
        -24    2    4    4    0    0  0.15217469637E+03 -0.55742319209E+03 -0.86355672692E+03  0.10424591416E+04  0.84339124846E+02 0.  0.
         13    1    3    3    0    0 -0.76343417842E+01  0.11279386469E+02 -0.19729323177E+02  0.23974026083E+02  0.00000000000E+00 0. -1.
        -13    1    3    3    0    0 -0.16836601535E+03  0.24656921308E+03  0.16239128397E+02  0.29901036981E+03  0.00000000000E+00 0.  1.
          2    1    4    4  502    0  0.23124090316E+02  0.90743416494E+01 -0.13692311267E+02  0.28364530970E+02  0.00000000000E+00 0. -1.
          1    1    5    5  503    0  0.63049073766E+02 -0.28781278318E+03 -0.50996275063E+03  0.58895958341E+03  0.00000000000E+00 0. -1.
         -2    1    5    5    0  503  0.89125622603E+02 -0.26961040891E+03 -0.35359397629E+03  0.45349955818E+03  0.00000000000E+00 0.  1.
         -1    1    4    4    0  502  0.70157044774E+00  0.29050025090E+03 -0.91857407578E+03  0.96341539362E+03  0.00000000000E+00 0.  1.
<mgrwt>
<rscale>  0 0.15228178E+04</rscale>
<asrwt>0</asrwt>
<pdfrwt beam="1">  1        2 0.31973360E+00 0.15228178E+04</pdfrwt>
<pdfrwt beam="2">  1       -2 0.42916165E-01 0.15228178E+04</pdfrwt>
<totfact> 0.30018062E+01</totfact>
</mgrwt>
</event>
<event>
12    1  0.2406360E-008  0.1485326E+04  0.7818608E-02  0.8894270E-01
          1   -1    0    0  501    0  0.00000000000E+00  0.00000000000E+00  0.13745299378E+04  0.13745299378E+04  0.00000000000E+00 0. -1.
         -1   -1    0    0    0  501 -0.00000000000E+00 -0.00000000000E+00 -0.40126314273E+03  0.40126314273E+03  0.00000000000E+00 0.  1.
         23    2    1    2    0    0  0.39154751961E+03  0.13857676781E+03  0.68423141314E+02  0.43280195869E+03  0.10061226807E+03 0.  0.
        254    2    1    2    0    0 -0.39154751961E+03 -0.13857676781E+03  0.90484365377E+03  0.13429911219E+04  0.90131577982E+03 0.  0.
        -24    2    4    4    0    0 -0.51805289704E+03 -0.14908882313E+03  0.10235873507E+04  0.11598401343E+04  0.83016812952E+02 0.  0.
         24    2    4    4    0    0  0.12650537742E+03  0.10512055323E+02 -0.11874369697E+03  0.18315098756E+03  0.57707060665E+02 0.  0.
         13    1    3    3    0    0  0.35853231871E+03  0.13287989925E+03  0.90179252503E+02  0.39285466621E+03  0.00000000000E+00 0.  1.
        -13    1    3    3    0    0  0.33015200903E+02  0.56968685638E+01 -0.21756111189E+02  0.39947292476E+02  0.00000000000E+00 0. -1.
          4    1    6    6  502    0  0.12116336087E+03  0.39196630074E+01 -0.84247173821E+02  0.14762625130E+03  0.00000000000E+00 0. -1.
          1    1    5    5  503    0 -0.33863770974E+03 -0.57233491116E+02  0.66709061869E+03  0.75030731338E+03  0.00000000000E+00 0. -1.
         -2    1    5    5    0  503 -0.17941518730E+03 -0.91855332017E+02  0.35649673205E+03  0.40953282093E+03  0.00000000000E+00 0.  1.
         -3    1    6    6    0  502  0.53420165542E+01  0.65923923157E+01 -0.34496523150E+02  0.35524736265E+02  0.00000000000E+00 0.  1.
<mgrwt>
<rscale>  0 0.14853258E+04</rscale>
<asrwt>0</asrwt>
<pdfrwt beam="1">  1        1 0.21146614E+00 0.14853258E+04</pdfrwt>
<pdfrwt beam="2">  1       -1 0.61732792E-01 0.14853258E+04</pdfrwt>
<totfact> 0.20637843E+01</totfact>
</mgrwt>
</event>
<event>
11    1  0.2406360E-008  0.1274877E+04  0.7818608E-02  0.9049729E-01
          1   -1    0    0  501    0  0.00000000000E+00  0.00000000000E+00  0.22160671293E+04  0.22160671293E+04  0.00000000000E+00 0. -1.
         -1   -1    0    0    0  501 -0.00000000000E+00 -0.00000000000E+00 -0.18335524316E+03  0.18335524316E+03  0.00000000000E+00 0.  1.
         23    2    1    2    0    0  0.27034142906E+03  0.99283784684E+01  0.66880827724E+03  0.72718442698E+03  0.91157107080E+02 0.  0.
        254    2    1    2    0    0 -0.27034142906E+03 -0.99283784684E+01  0.13639036089E+04  0.16722379454E+04  0.92895835801E+03 0.  0.
        -24    2    4    4    0    0 -0.36320637174E+03  0.29593052008E+03  0.32173574168E+03  0.57480326061E+03  0.85971854364E+02 0.  0.
         13    1    3    3    0    0  0.69235247082E+02 -0.22791795581E+02  0.10611116340E+03  0.12873447239E+03  0.00000000000E+00 0.  1.
        -13    1    3    3    0    0  0.20110618197E+03  0.32720174050E+02  0.56269711384E+03  0.59844995459E+03  0.00000000000E+00 0. -1.
          4    1    4    4  502    0  0.10671417098E+03 -0.30817859732E+03  0.10226231781E+04  0.10733685884E+04  0.00000000000E+00 0. -1.
          3    1    5    5  503    0 -0.34390461943E+03  0.27270972477E+03  0.27120824086E+03  0.51594078261E+03  0.00000000000E+00 0. -1.
         -4    1    5    5    0  503 -0.19301752312E+02  0.23220795313E+02  0.50527500819E+02  0.58862477999E+02  0.00000000000E+00 0.  1.
         -3    1    4    4    0  502 -0.13849228295E+02  0.23196987741E+01  0.19544689067E+02  0.24066096433E+02  0.00000000000E+00 0.  1.
<mgrwt>
<rscale>  0 0.12748765E+04</rscale>
<asrwt>0</asrwt>
<pdfrwt beam="1">  1        1 0.34093339E+00 0.12748765E+04</pdfrwt>
<pdfrwt beam="2">  1       -1 0.28208500E-01 0.12748765E+04</pdfrwt>
<totfact> 0.23829506E+01</totfact>
</mgrwt>
</event>
<event>
12    1  0.2406360E-008  0.1641925E+04  0.7818608E-02  0.8795198E-01
         -2   -1    0    0    0  501 -0.00000000000E+00  0.00000000000E+00  0.48809215739E+03  0.48809215739E+03  0.00000000000E+00 0.  1.
          2   -1    0    0  501    0  0.00000000000E+00 -0.00000000000E+00 -0.13808442493E+04  0.13808442493E+04  0.00000000000E+00 0. -1.
         23    2    1    2    0    0 -0.33092908076E+03 -0.27217777958E+03 -0.76501363195E+03  0.88156327220E+03  0.91176453368E+02 0.  0.
        254    2    1    2    0    0  0.33092908076E+03  0.27217777958E+03 -0.12773845998E+03  0.98737313451E+03  0.88033731740E+03 0.  0.
        -24    2    4    4    0    0  0.29518149135E+03  0.54899550402E+03 -0.23776575387E+03  0.67202468954E+03  0.80971929523E+02 0.  0.
         24    2    4    4    0    0  0.35747589411E+02 -0.27681772444E+03  0.11002729388E+03  0.31534844497E+03  0.97122055347E+02 0.  0.
         13    1    3    3    0    0 -0.30788794075E+03 -0.27160265820E+03 -0.74668400427E+03  0.85211500998E+03  0.00000000000E+00 0. -1.
        -13    1    3    3    0    0 -0.23041140004E+02 -0.57512138102E+00 -0.18329627678E+02  0.29448262225E+02  0.00000000000E+00 0.  1.
          4    1    6    6  502    0  0.55652579276E+02 -0.25051299166E+03  0.75274035883E+02  0.26743251308E+03  0.00000000000E+00 0. -1.
          1    1    5    5  503    0  0.24130082543E+02  0.92536953763E+02 -0.17241121307E+02  0.97173067046E+02  0.00000000000E+00 0. -1.
         -2    1    5    5    0  503  0.27105140880E+03  0.45645855026E+03 -0.22052463256E+03  0.57485162249E+03  0.00000000000E+00 0.  1.
         -3    1    6    6    0  502 -0.19904989866E+02 -0.26304732779E+02  0.34753258000E+02  0.47915931899E+02  0.00000000000E+00 0.  1.
<mgrwt>
<rscale>  0 0.16419248E+04</rscale>
<asrwt>0</asrwt>
<pdfrwt beam="1">  1        2 0.21243758E+00 0.16419248E+04</pdfrwt>
<pdfrwt beam="2">  1       -2 0.75091101E-01 0.16419248E+04</pdfrwt>
<totfact> 0.22592294E+01</totfact>
</mgrwt>
</event>
<event>
12    1  0.2406360E-008  0.3456272E+04  0.7818608E-02  0.8124232E-01
          1   -1    0    0  501    0  0.00000000000E+00  0.00000000000E+00  0.15369681344E+04  0.15369681344E+04  0.00000000000E+00 0. -1.
         -1   -1    0    0    0  501 -0.00000000000E+00 -0.00000000000E+00 -0.19430815253E+04  0.19430815253E+04  0.00000000000E+00 0.  1.
         23    2    1    2    0    0  0.18877379471E+02  0.10041564812E+04 -0.14548726379E+04  0.17700845424E+04  0.88647057052E+02 0.  0.
        254    2    1    2    0    0 -0.18877379471E+02 -0.10041564812E+04  0.10487592469E+04  0.17099651173E+04  0.90299399238E+03 0.  0.
        -24    2    4    4    0    0 -0.10918567542E+03 -0.40850308393E+03  0.10097018397E+04  0.10970150828E+04  0.71749602202E+02 0.  0.
         24    2    4    4    0    0  0.90308295946E+02 -0.59565339722E+03  0.39057407210E+02  0.61295003452E+03  0.10594199274E+03 0.  0.
         11    1    3    3    0    0 -0.21614940896E+02  0.75947042814E+03 -0.11192024162E+04  0.13527293097E+04  0.00000000000E+00 0.  1.
        -11    1    3    3    0    0  0.40492320367E+02  0.24468605301E+03 -0.33567022167E+03  0.41735523270E+03  0.00000000000E+00 0. -1.
          2    1    6    6  502    0  0.34128897344E+02 -0.53174221308E+02  0.23294888830E+02  0.67341898483E+02  0.00000000000E+00 0. -1.
          1    1    5    5  503    0 -0.26293977339E+02 -0.54628228039E+02  0.94393082161E+02  0.11218587479E+03  0.00000000000E+00 0. -1.
         -2    1    5    5    0  503 -0.82891698078E+02 -0.35387485590E+03  0.91530875756E+03  0.98482920799E+03  0.00000000000E+00 0.  1.
         -1    1    6    6    0  502  0.56179398602E+02 -0.54247917591E+03  0.15762518380E+02  0.54560813604E+03  0.00000000000E+00 0.  1.
<mgrwt>
<rscale>  0 0.34562722E+04</rscale>
<asrwt>0</asrwt>
<pdfrwt beam="1">  1        1 0.23645664E+00 0.34562722E+04</pdfrwt>
<pdfrwt beam="2">  1       -1 0.29893562E+00 0.34562722E+04</pdfrwt>
<totfact> 0.16942137E-01</totfact>
</mgrwt>
</event>
<event>
12    1  0.2406360E-008  0.3213233E+04  0.7818608E-02  0.8185331E-01
          2   -1    0    0  501    0  0.00000000000E+00  0.00000000000E+00  0.37529503530E+04  0.37529503530E+04  0.00000000000E+00 0. -1.
         -2   -1    0    0    0  501 -0.00000000000E+00 -0.00000000000E+00 -0.68778314249E+03  0.68778314249E+03  0.00000000000E+00 0.  1.
         23    2    1    2    0    0 -0.50094110971E+03 -0.11053519956E+04  0.23410334525E+03  0.12395899250E+04  0.95046179921E+02 0.  0.
        254    2    1    2    0    0  0.50094110971E+03  0.11053519956E+04  0.28310638652E+04  0.32011435705E+04  0.87158047272E+03 0.  0.
        -24    2    4    4    0    0  0.14235857259E+03 -0.12604612203E+03  0.43330105950E+03  0.47989521629E+03  0.79975136050E+02 0.  0.
         24    2    4    4    0    0  0.35858253712E+03  0.12313981176E+04  0.23977628057E+04  0.27212483542E+04  0.10489696261E+03 0.  0.
         11    1    3    3    0    0 -0.28922577902E+03 -0.74446008383E+03  0.16441399375E+03  0.81541665976E+03  0.00000000000E+00 0.  1.
        -11    1    3    3    0    0 -0.21171533069E+03 -0.36089191173E+03  0.69689351492E+02  0.42417326520E+03  0.00000000000E+00 0. -1.
          2    1    6    6  502    0  0.11667566877E+03  0.58760955135E+03  0.11214913401E+04  0.12714719904E+04  0.00000000000E+00 0. -1.
          1    1    5    5  503    0  0.14845228787E+03 -0.99672449168E+02  0.38580777305E+03  0.42522972220E+03  0.00000000000E+00 0. -1.
         -2    1    5    5    0  503 -0.60937152817E+01 -0.26373672865E+02  0.47493286448E+02  0.54665494089E+02  0.00000000000E+00 0.  1.
         -1    1    6    6    0  502  0.24190686835E+03  0.64378856625E+03  0.12762714657E+04  0.14497763638E+04  0.00000000000E+00 0.  1.
<mgrwt>
<rscale>  0 0.32132326E+04</rscale>
<asrwt>0</asrwt>
<pdfrwt beam="1">  1        2 0.57737696E+00 0.32132326E+04</pdfrwt>
<pdfrwt beam="2">  1       -2 0.10581279E+00 0.32132326E+04</pdfrwt>
<totfact> 0.32302199E-01</totfact>
</mgrwt>
</event>
<event>
12    1  0.2406360E-008  0.1484218E+04  0.7818608E-02  0.8895016E-01
          2   -1    0    0  501    0  0.00000000000E+00  0.00000000000E+00  0.11947684282E+04  0.11947684282E+04  0.00000000000E+00 0. -1.
         -2   -1    0    0    0  501 -0.00000000000E+00 -0.00000000000E+00 -0.46094766794E+03  0.46094766794E+03  0.00000000000E+00 0.  1.
         23    2    1    2    0    0 -0.29438615715E+03  0.22352575796E+03  0.54952352891E+03  0.66845195271E+03  0.90691401216E+02 0.  0.
        254    2    1    2    0    0  0.29438615715E+03 -0.22352575796E+03  0.18429723132E+03  0.98726414340E+03  0.89671514171E+03 0.  0.
        -24    2    4    4    0    0  0.22941678637E+03  0.18167160825E+03 -0.24147848651E+03  0.38769078885E+03  0.79722350708E+02 0.  0.
         24    2    4    4    0    0  0.64969370785E+02 -0.40519736621E+03  0.42577571783E+03  0.59957335455E+03  0.98981416805E+02 0.  0.
         13    1    3    3    0    0 -0.13283103332E+03  0.11740985631E+03  0.18738201174E+03  0.25795576384E+03  0.00000000000E+00 0.  1.
        -13    1    3    3    0    0 -0.16155512383E+03  0.10611590165E+03  0.36214151716E+03  0.41049618887E+03  0.00000000000E+00 0. -1.
          2    1    6    6  502    0 -0.16790455822E+02 -0.20446034560E+02  0.13294020397E+02  0.29608963410E+02  0.00000000000E+00 0. -1.
          3    1    5    5  503    0  0.15410705176E+03  0.85455941648E+02 -0.10774152282E+03  0.20654282148E+03  0.00000000000E+00 0. -1.
         -4    1    5    5    0  503  0.75309734608E+02  0.96215666598E+02 -0.13373696369E+03  0.18114796737E+03  0.00000000000E+00 0.  1.
         -1    1    6    6    0  502  0.81759826607E+02 -0.38475133165E+03  0.41248169743E+03  0.56996439114E+03  0.00000000000E+00 0.  1.
<mgrwt>
<rscale>  0 0.14842179E+04</rscale>
<asrwt>0</asrwt>
<pdfrwt beam="1">  1        2 0.18381053E+00 0.14842179E+04</pdfrwt>
<pdfrwt beam="2">  1       -2 0.70915026E-01 0.14842179E+04</pdfrwt>
<totfact> 0.33347224E+01</totfact>
</mgrwt>
</event>
<event>
11    1  0.2406360E-008  0.3133165E+04  0.7818608E-02  0.8206695E-01
          2   -1    0    0  501    0  0.00000000000E+00  0.00000000000E+00  0.45555987383E+04  0.45555987383E+04  0.00000000000E+00 0. -1.
         -2   -1    0    0    0  501 -0.00000000000E+00 -0.00000000000E+00 -0.53871738326E+03  0.53871738326E+03  0.00000000000E+00 0.  1.
         23    2    1    2    0    0 -0.12562378120E+04 -0.69464791240E+03  0.19122084743E+04  0.23927625003E+04  0.90010951114E+02 0.  0.
        254    2    1    2    0    0  0.12562378120E+04  0.69464791240E+03  0.21046728808E+04  0.27015536212E+04  0.89892984751E+03 0.  0.
        -24    2    4    4    0    0  0.35508054496E+03  0.58639335154E+03  0.49219360278E+03  0.84766598341E+03  0.79647477495E+02 0.  0.
         13    1    3    3    0    0 -0.35136371623E+03 -0.21071939654E+03  0.48376317625E+03  0.63394474196E+03  0.00000000000E+00 0. -1.
        -13    1    3    3    0    0 -0.90487409581E+03 -0.48392851585E+03  0.14284452980E+04  0.17588177584E+04  0.00000000000E+00 0.  1.
          2    1    4    4  502    0  0.19566152676E+02  0.20158432945E+02  0.38138739695E+02  0.47368346128E+02  0.00000000000E+00 0. -1.
          3    1    5    5  503    0  0.21697849106E+03  0.37237386524E+03  0.35498710254E+03  0.55835275953E+03  0.00000000000E+00 0. -1.
         -4    1    5    5    0  503  0.13810205390E+03  0.21401948629E+03  0.13720650024E+03  0.28931322388E+03  0.00000000000E+00 0.  1.
         -1    1    4    4    0  502  0.88159111440E+03  0.88096127913E+02  0.15743405383E+04  0.18065192917E+04  0.00000000000E+00 0.  1.
<mgrwt>
<rscale>  0 0.31331647E+04</rscale>
<asrwt>0</asrwt>
<pdfrwt beam="1">  1        2 0.70086132E+00 0.31331647E+04</pdfrwt>
<pdfrwt beam="2">  1       -2 0.82879600E-01 0.31331647E+04</pdfrwt>
<totfact> 0.11687254E-01</totfact>
</mgrwt>
</event>
<event>
11    1  0.2406360E-008  0.1306655E+04  0.7818608E-02  0.9024304E-01
          2   -1    0    0  501    0  0.00000000000E+00  0.00000000000E+00  0.58644225319E+03  0.58644225319E+03  0.00000000000E+00 0. -1.
         -2   -1    0    0    0  501 -0.00000000000E+00 -0.00000000000E+00 -0.72784158518E+03  0.72784158518E+03  0.00000000000E+00 0.  1.
         23    2    1    2    0    0  0.24384147189E+03 -0.70885802734E+02  0.17818553379E+03  0.32257797309E+03  0.88447746313E+02 0.  0.
        254    2    1    2    0    0 -0.24384147189E+03  0.70885802734E+02 -0.31958486579E+03  0.99170586528E+03  0.90380450118E+03 0.  0.
        -24    2    4    4    0    0 -0.42851719795E+03 -0.80702955235E+02  0.12388548659E+03  0.45998969735E+03  0.78121392448E+02 0.  0.
         11    1    3    3    0    0  0.21657020490E+03 -0.80659582077E+02  0.12683795817E+03  0.26362186834E+03  0.00000000000E+00 0. -1.
        -11    1    3    3    0    0  0.27271266987E+02  0.97737793433E+01  0.51347575617E+02  0.58956104752E+02  0.00000000000E+00 0.  1.
          2    1    4    4  502    0 -0.10251730104E+01 -0.29013157775E+02 -0.19838431166E+02  0.35162162262E+02  0.00000000000E+00 0. -1.
          1    1    5    5  503    0 -0.40779253706E+01 -0.57431050699E+00  0.13580249719E+02  0.14190929861E+02  0.00000000000E+00 0. -1.
         -4    1    5    5    0  503 -0.42443927258E+03 -0.80128644728E+02  0.11030523687E+03  0.44579876749E+03  0.00000000000E+00 0.  1.
         -1    1    4    4    0  502  0.18570089907E+03  0.18060191574E+03 -0.42363192121E+03  0.49655400567E+03  0.00000000000E+00 0.  1.
<mgrwt>
<rscale>  0 0.13066554E+04</rscale>
<asrwt>0</asrwt>
<pdfrwt beam="1">  1        2 0.90221885E-01 0.13066554E+04</pdfrwt>
<pdfrwt beam="2">  1       -2 0.11197563E+00 0.13066554E+04</pdfrwt>
<totfact> 0.31430401E+01</totfact>
</mgrwt>
</event>
<event>
12    1  0.2406360E-008  0.1330740E+04  0.7818608E-02  0.9005537E-01
          2   -1    0    0  501    0  0.00000000000E+00  0.00000000000E+00  0.22906999605E+04  0.22906999605E+04  0.00000000000E+00 0.  1.
         -2   -1    0    0    0  501 -0.00000000000E+00 -0.00000000000E+00 -0.19326726762E+03  0.19326726762E+03  0.00000000000E+00 0. -1.
         23    2    1    2    0    0 -0.11402322352E+02 -0.91499812233E+02 -0.36884191381E+02  0.13304304572E+03  0.88531236561E+02 0.  0.
        254    2    1    2    0    0  0.11402322352E+02  0.91499812233E+02  0.21343168843E+04  0.23509241824E+04  0.98134281492E+03 0.  0.
        -24    2    4    4    0    0  0.25465874683E+03  0.40643210140E+03  0.16360403098E+04  0.17067564611E+04  0.79696873833E+02 0.  0.
         24    2    4    4    0    0 -0.24325642448E+03 -0.31493228917E+03  0.49827657451E+03  0.64416772139E+03  0.91194702531E+02 0.  0.
         13    1    3    3    0    0 -0.24919611478E+01 -0.85022377163E+01  0.26686106375E+02  0.28118431500E+02  0.00000000000E+00 0.  1.
        -13    1    3    3    0    0 -0.89103612041E+01 -0.82997574516E+02 -0.63570297756E+02  0.10492461422E+03  0.00000000000E+00 0. -1.
          4    1    6    6  502    0 -0.24160403537E+03 -0.32102745443E+03  0.49258820715E+03  0.63566837127E+03  0.00000000000E+00 0. -1.
          3    1    5    5  503    0  0.24169707953E+03  0.36785421992E+03  0.15546705459E+04  0.16157768137E+04  0.00000000000E+00 0. -1.
         -4    1    5    5    0  503  0.12961667300E+02  0.38577881480E+02  0.81369763888E+02  0.90979647360E+02  0.00000000000E+00 0.  1.
         -3    1    6    6    0  502 -0.16523891037E+01  0.60951652631E+01  0.56883673605E+01  0.84993501259E+01  0.00000000000E+00 0.  1.
<mgrwt>
<rscale>  0 0.13307401E+04</rscale>
<asrwt>0</asrwt>
<pdfrwt beam="1">  1        2 0.35241536E+00 0.13307401E+04</pdfrwt>
<pdfrwt beam="2">  1       -2 0.29733427E-01 0.13307401E+04</pdfrwt>
<totfact> 0.46921219E+01</totfact>
</mgrwt>
</event>
<event>
12    1  0.2406360E-008  0.3566617E+04  0.7818608E-02  0.8098182E-01
         -2   -1    0    0    0  501 -0.00000000000E+00  0.00000000000E+00  0.73580767878E+03  0.73580767878E+03  0.00000000000E+00 0.  1.
          2   -1    0    0  501    0  0.00000000000E+00 -0.00000000000E+00 -0.43220387135E+04  0.43220387135E+04  0.00000000000E+00 0. -1.
         23    2    1    2    0    0  0.10432840536E+04  0.12538693053E+04 -0.19819441590E+04  0.25684893361E+04  0.91678616421E+02 0.  0.
        254    2    1    2    0    0 -0.10432840536E+04 -0.12538693053E+04 -0.16042868757E+04  0.24893570562E+04  0.98108731636E+03 0.  0.
        -24    2    4    4    0    0 -0.89477527062E+03 -0.14066934367E+04 -0.14073140423E+04  0.21831452623E+04  0.78620690364E+02 0.  0.
         24    2    4    4    0    0 -0.14850878299E+03  0.15282413134E+03 -0.19697283337E+03  0.30621179388E+03  0.97761402811E+02 0.  0.
         11    1    3    3    0    0  0.99860284522E+03  0.12041286026E+04 -0.19264271550E+04  0.24815831474E+04  0.00000000000E+00 0. -1.
        -11    1    3    3    0    0  0.44681208396E+02  0.49740702707E+02 -0.55517004054E+02  0.86906188667E+02  0.00000000000E+00 0.  1.
          2    1    6    6  502    0 -0.10356511529E+03  0.15799050989E+03 -0.16490176173E+03  0.25075750306E+03  0.00000000000E+00 0. -1.
          1    1    5    5  503    0 -0.51936761689E+03 -0.79276467325E+03 -0.75161049495E+03  0.12096019530E+04  0.00000000000E+00 0. -1.
         -2    1    5    5    0  503 -0.37540765373E+03 -0.61392876342E+03 -0.65570354737E+03  0.97354330929E+03  0.00000000000E+00 0.  1.
         -1    1    6    6    0  502 -0.44943667701E+02 -0.51663785518E+01 -0.32071071645E+02  0.55454290819E+02  0.00000000000E+00 0.  1.
<mgrwt>
<rscale>  0 0.35666170E+04</rscale>
<asrwt>0</asrwt>
<pdfrwt beam="1">  1        2 0.66492904E+00 0.35666170E+04</pdfrwt>
<pdfrwt beam="2">  1       -2 0.11320118E+00 0.35666170E+04</pdfrwt>
<totfact> 0.90343309E-02</totfact>
</mgrwt>
</event>
<event>
12    1  0.3799443E-008  0.1057710E+04  0.7818608E-02  0.9247420E-01
         -1   -1    0    0    0  501 -0.00000000000E+00  0.00000000000E+00  0.77399916211E+03  0.77399916211E+03  0.00000000000E+00 0.  1.
          1   -1    0    0  501    0  0.00000000000E+00 -0.00000000000E+00 -0.36135374587E+03  0.36135374587E+03  0.00000000000E+00 0. -1.
         23    2    1    2    0    0  0.13480604269E+03  0.16134300453E+03  0.11147867456E+03  0.25477143241E+03  0.90976665328E+02 0.  0.
        254    2    1    2    0    0 -0.13480604269E+03 -0.16134300453E+03  0.30116674168E+03  0.88058147557E+03  0.80032374360E+03 0.  0.
        -24    2    4    4    0    0 -0.40204153632E+02 -0.18291277960E+03  0.55598304587E+03  0.59265758206E+03  0.83978588744E+02 0.  0.
         24    2    4    4    0    0 -0.94601889058E+02  0.21569775070E+02 -0.25481630419E+03  0.28792389352E+03  0.92488090959E+02 0.  0.
         13    1    3    3    0    0  0.40104352925E+02  0.34759392375E+02  0.76091553679E+02  0.92771218722E+02  0.00000000000E+00 0.  1.
        -13    1    3    3    0    0  0.94701689765E+02  0.12658361216E+03  0.35387120876E+02  0.16200021369E+03  0.00000000000E+00 0. -1.
          4    1    6    6  502    0  0.16599015787E+02 -0.25692787615E+01 -0.15165824599E+02  0.22630306101E+02  0.00000000000E+00 0. -1.
          1    1    5    5  503    0  0.69655787452E+01  0.68050820278E+01  0.24942653087E+02  0.26776190388E+02  0.00000000000E+00 0. -1.
         -2    1    5    5    0  503 -0.47169732377E+02 -0.18971786163E+03  0.53104039278E+03  0.56588139167E+03  0.00000000000E+00 0.  1.
         -3    1    6    6    0  502 -0.11120090484E+03  0.24139053832E+02 -0.23965047959E+03  0.26529358742E+03  0.00000000000E+00 0.  1.
<mgrwt>
<rscale>  0 0.10577098E+04</rscale>
<asrwt>0</asrwt>
<pdfrwt beam="1">  1        1 0.55592884E-01 0.10577098E+04</pdfrwt>
<pdfrwt beam="2">  1       -1 0.11907679E+00 0.10577098E+04</pdfrwt>
<totfact> 0.43300653E+01</totfact>
</mgrwt>
</event>
<event>
11    1  0.2406360E-008  0.3489132E+04  0.7818608E-02  0.8116370E-01
         -1   -1    0    0    0  501 -0.00000000000E+00  0.00000000000E+00  0.16856050760E+04  0.16856050760E+04  0.00000000000E+00 0.  1.
          1   -1    0    0  501    0  0.00000000000E+00 -0.00000000000E+00 -0.18055893256E+04  0.18055893256E+04  0.00000000000E+00 0. -1.
         23    2    1    2    0    0  0.41218672128E+03 -0.36487109498E+03  0.14761390248E+04  0.15781326379E+04  0.92127048756E+02 0.  0.
        254    2    1    2    0    0 -0.41218672128E+03  0.36487109498E+03 -0.15961232743E+04  0.19130617637E+04  0.89953710086E+03 0.  0.
        -24    2    4    4    0    0 -0.21567453936E+02 -0.24594918962E+03 -0.17469193693E+03  0.31321286878E+03  0.81417869026E+02 0.  0.
         13    1    3    3    0    0  0.32081759584E+00 -0.13405706186E+01  0.47389618428E+02  0.47409661339E+02  0.00000000000E+00 0. -1.
        -13    1    3    3    0    0  0.41186590368E+03 -0.36353052437E+03  0.14287494064E+04  0.15307229766E+04  0.00000000000E+00 0.  1.
          4    1    4    4  502    0 -0.38194953750E+02  0.38750992269E+02 -0.56161945937E+02  0.78196279101E+02  0.00000000000E+00 0. -1.
          1    1    5    5  503    0 -0.20408629284E+02 -0.31038889349E+02 -0.57411531762E+02  0.68381348192E+02  0.00000000000E+00 0. -1.
         -2    1    5    5    0  503 -0.11588246520E+01 -0.21491030027E+03 -0.11728040517E+03  0.24483152059E+03  0.00000000000E+00 0.  1.
         -3    1    4    4    0  502 -0.35242431359E+03  0.57206929234E+03 -0.13652693914E+04  0.15216526158E+04  0.00000000000E+00 0.  1.
<mgrwt>
<rscale>  0 0.34891320E+04</rscale>
<asrwt>0</asrwt>
<pdfrwt beam="1">  1        1 0.27778297E+00 0.34891320E+04</pdfrwt>
<pdfrwt beam="2">  1       -1 0.25932386E+00 0.34891320E+04</pdfrwt>
<totfact> 0.19989290E-01</totfact>
</mgrwt>
</event>
<event>
12    1  0.2406360E-008  0.1319227E+04  0.7818608E-02  0.9014455E-01
          2   -1    0    0  501    0  0.00000000000E+00  0.00000000000E+00  0.29131789431E+04  0.29131789431E+04  0.00000000000E+00 0. -1.
         -2   -1    0    0    0  501 -0.00000000000E+00 -0.00000000000E+00 -0.14935236011E+03  0.14935236011E+03  0.00000000000E+00 0.  1.
         23    2    1    2    0    0 -0.79084415237E+02 -0.16949583314E+03  0.68961528620E+02  0.21597283762E+03  0.83098688150E+02 0.  0.
        254    2    1    2    0    0  0.79084415237E+02  0.16949583314E+03  0.26948650544E+04  0.28465584656E+04  0.89756016767E+03 0.  0.
        -24    2    4    4    0    0  0.26407269222E+03  0.22429731352E+03  0.37412991872E+03  0.51604707445E+03  0.79295115476E+02 0.  0.
         24    2    4    4    0    0 -0.18498827698E+03 -0.54801480373E+02  0.23207351356E+04  0.23305113911E+04  0.90818002291E+02 0.  0.
         13    1    3    3    0    0 -0.40953017006E+02 -0.64890797214E+02 -0.12859316839E+02  0.77803131007E+02  0.00000000000E+00 0.  1.
        -13    1    3    3    0    0 -0.38131398231E+02 -0.10460503593E+03  0.81820845459E+02  0.13816970661E+03  0.00000000000E+00 0. -1.
          2    1    6    6  502    0 -0.14661344977E+03 -0.49073369291E+02  0.21440009434E+04  0.21495682693E+04  0.00000000000E+00 0. -1.
          1    1    5    5  503    0  0.20658417933E+03  0.21306081316E+03  0.31660351290E+03  0.43394667603E+03  0.00000000000E+00 0. -1.
         -2    1    5    5    0  503  0.57488512887E+02  0.11236500356E+02  0.57526405821E+02  0.82100398421E+02  0.00000000000E+00 0.  1.
         -1    1    6    6    0  502 -0.38374827216E+02 -0.57281110829E+01  0.17673419227E+03  0.18094312183E+03  0.00000000000E+00 0.  1.
<mgrwt>
<rscale>  0 0.13192273E+04</rscale>
<asrwt>0</asrwt>
<pdfrwt beam="1">  1        2 0.44818134E+00 0.13192273E+04</pdfrwt>
<pdfrwt beam="2">  1       -2 0.22977288E-01 0.13192273E+04</pdfrwt>
<totfact> 0.32556474E+01</totfact>
</mgrwt>
</event>
<event>
11    1  0.2406360E-008  0.2891247E+04  0.7818608E-02  0.8275486E-01
         -2   -1    0    0    0  501 -0.00000000000E+00  0.00000000000E+00  0.13895177974E+04  0.13895177974E+04  0.00000000000E+00 0.  1.
          2   -1    0    0  501    0  0.00000000000E+00 -0.00000000000E+00 -0.15039950288E+04  0.15039950288E+04  0.00000000000E+00 0. -1.
         23    2    1    2    0    0  0.96174983966E+03 -0.70019350601E+02  0.82628386871E+03  0.12729960734E+04  0.88929789930E+02 0.  0.
        254    2    1    2    0    0 -0.96174983966E+03  0.70019350601E+02 -0.94076110006E+03  0.16205167528E+04  0.90065400415E+03 0.  0.
        -24    2    4    4    0    0 -0.69901274337E+03  0.44627655382E+03 -0.63940519713E+03  0.10501666721E+04  0.78926897304E+02 0.  0.
         11    1    3    3    0    0  0.45935505950E+03 -0.56383909619E+01  0.43869592980E+03  0.63521097359E+03  0.00000000000E+00 0.  1.
        -11    1    3    3    0    0  0.50239478016E+03 -0.64380959639E+02  0.38758793891E+03  0.63778509977E+03  0.00000000000E+00 0. -1.
          4    1    4    4  502    0 -0.14853246272E+03 -0.32753465469E+03 -0.21336299254E+03  0.41816815887E+03  0.00000000000E+00 0. -1.
          3    1    5    5  503    0 -0.28167315446E+03  0.20196396175E+03 -0.22424473419E+03  0.41281340652E+03  0.00000000000E+00 0. -1.
         -4    1    5    5    0  503 -0.41733958891E+03  0.24431259207E+03 -0.41516046294E+03  0.63735326554E+03  0.00000000000E+00 0.  1.
         -3    1    4    4    0  502 -0.11420463357E+03 -0.48722548532E+02 -0.87992910384E+02  0.15218192187E+03  0.00000000000E+00 0.  1.
<mgrwt>
<rscale>  0 0.28912474E+04</rscale>
<asrwt>0</asrwt>
<pdfrwt beam="1">  1        2 0.23138385E+00 0.28912474E+04</pdfrwt>
<pdfrwt beam="2">  1       -2 0.21377197E+00 0.28912474E+04</pdfrwt>
<totfact> 0.11812003E+00</totfact>
</mgrwt>
</event>
<event>
11    1  0.2406360E-008  0.2275908E+04  0.7818608E-02  0.8487481E-01
         -2   -1    0    0    0  501 -0.00000000000E+00  0.00000000000E+00  0.83393778450E+03  0.83393778450E+03  0.00000000000E+00 0.  1.
          2   -1    0    0  501    0  0.00000000000E+00 -0.00000000000E+00 -0.15528005440E+04  0.15528005440E+04  0.00000000000E+00 0. -1.
         23    2    1    2    0    0  0.58707731112E+03  0.26531052026E+02 -0.10987801555E+04  0.12494310671E+04  0.91632391990E+02 0.  0.
        254    2    1    2    0    0 -0.58707731112E+03 -0.26531052026E+02  0.37991739607E+03  0.11373072614E+04  0.89653048639E+03 0.  0.
        -24    2    4    4    0    0 -0.38604255764E+03 -0.14303269073E+02  0.11773845672E+03  0.41171307297E+03  0.80074155884E+02 0.  0.
         11    1    3    3    0    0  0.68476677400E+02  0.30559932016E+02 -0.16656233030E+03  0.18266355594E+03  0.00000000000E+00 0.  1.
        -11    1    3    3    0    0  0.51860063372E+03 -0.40288799899E+01 -0.93221782523E+03  0.10667675112E+04  0.00000000000E+00 0. -1.
          2    1    4    4  502    0 -0.11257457217E+03 -0.24133734538E+03 -0.10298754823E+03  0.28552265001E+03  0.00000000000E+00 0. -1.
          3    1    5    5  503    0 -0.38881618434E+03 -0.10180918678E+02  0.11868652544E+03  0.40665485074E+03  0.00000000000E+00 0. -1.
         -4    1    5    5    0  503  0.27736266924E+01 -0.41223503946E+01 -0.94806871960E+00  0.50582222274E+01  0.00000000000E+00 0.  1.
         -1    1    4    4    0  502 -0.88460181305E+02  0.22910956243E+03  0.36516648758E+03  0.44007153841E+03  0.00000000000E+00 0.  1.
<mgrwt>
<rscale>  0 0.22759078E+04</rscale>
<asrwt>0</asrwt>
<pdfrwt beam="1">  1        2 0.23889239E+00 0.22759078E+04</pdfrwt>
<pdfrwt beam="2">  1       -2 0.12829812E+00 0.22759078E+04</pdfrwt>
<totfact> 0.48356289E+00</totfact>
</mgrwt>
</event>
<event>
12    1  0.2406360E-008  0.1460649E+04  0.7818608E-02  0.8911051E-01
          1   -1    0    0  501    0  0.00000000000E+00  0.00000000000E+00  0.18670773927E+04  0.18670773927E+04  0.00000000000E+00 0. -1.
         -1   -1    0    0    0  501 -0.00000000000E+00 -0.00000000000E+00 -0.28567301441E+03  0.28567301441E+03  0.00000000000E+00 0.  1.
         23    2    1    2    0    0 -0.32773568915E+03 -0.12840878390E+03  0.96414089669E+02  0.37654061921E+03  0.92669647158E+02 0.  0.
        254    2    1    2    0    0  0.32773568915E+03  0.12840878390E+03  0.14849902886E+04  0.17762097879E+04  0.90874944600E+03 0.  0.
        -24    2    4    4    0    0  0.23275002546E+03  0.49579957885E+03  0.10609678570E+04  0.11964717397E+04  0.76824693570E+02 0.  0.
         24    2    4    4    0    0  0.94985663689E+02 -0.36739079495E+03  0.42402243163E+03  0.57973804822E+03  0.11091848137E+03 0.  0.
         11    1    3    3    0    0 -0.26545287602E+03 -0.12752198629E+03  0.10705443199E+03  0.31334922656E+03  0.00000000000E+00 0.  1.
        -11    1    3    3    0    0 -0.62282813124E+02 -0.88679761160E+00 -0.10640342319E+02  0.63191392652E+02  0.00000000000E+00 0. -1.
          4    1    6    6  502    0 -0.11273742668E+02 -0.26103011696E+02  0.48345284005E+01  0.28841587304E+02  0.00000000000E+00 0. -1.
          1    1    5    5  503    0  0.20363985299E+03  0.40041766212E+03  0.91972545194E+03  0.10235713951E+04  0.00000000000E+00 0. -1.
         -2    1    5    5    0  503  0.29110172468E+02  0.95381916733E+02  0.14124240505E+03  0.17290034461E+03  0.00000000000E+00 0.  1.
         -3    1    6    6    0  502  0.10625940636E+03 -0.34128778325E+03  0.41918790323E+03  0.55089646092E+03  0.00000000000E+00 0.  1.
<mgrwt>
<rscale>  0 0.14606487E+04</rscale>
<asrwt>0</asrwt>
<pdfrwt beam="1">  1        1 0.28724267E+00 0.14606487E+04</pdfrwt>
<pdfrwt beam="2">  1       -1 0.43949696E-01 0.14606487E+04</pdfrwt>
<totfact> 0.18225531E+01</totfact>
</mgrwt>
</event>
<event>
11    1  0.2406360E-008  0.1616601E+04  0.7818608E-02  0.8810414E-01
          2   -1    0    0  501    0  0.00000000000E+00  0.00000000000E+00  0.17899952858E+04  0.17899952858E+04  0.00000000000E+00 0. -1.
         -2   -1    0    0    0  501 -0.00000000000E+00 -0.00000000000E+00 -0.36500074510E+03  0.36500074510E+03  0.00000000000E+00 0.  1.
         23    2    1    2    0    0  0.51649794210E+03 -0.13780143015E+03  0.76625949041E+03  0.94094889961E+03  0.11167751196E+03 0.  0.
        254    2    1    2    0    0 -0.51649794210E+03  0.13780143015E+03  0.65873505030E+03  0.12140471313E+04  0.86845795073E+03 0.  0.
        -24    2    4    4    0    0 -0.58543987100E+03  0.20858647939E+03  0.24348307879E+03  0.67212868512E+03  0.78897387531E+02 0.  0.
         13    1    3    3    0    0  0.51077671112E+03 -0.11666900045E+03  0.72922872417E+03  0.89793041849E+03  0.00000000000E+00 0. -1.
        -13    1    3    3    0    0  0.57212309711E+01 -0.21132429701E+02  0.37030766247E+02  0.43018481118E+02  0.00000000000E+00 0.  1.
          2    1    4    4  502    0  0.18831562147E+03  0.30568844034E+02  0.20947104745E+03  0.28332904411E+03  0.00000000000E+00 0. -1.
          1    1    5    5  503    0 -0.29113685307E+03  0.74001298412E+02  0.14701464412E+03  0.33444007679E+03  0.00000000000E+00 0. -1.
         -2    1    5    5    0  503 -0.29430301794E+03  0.13458518098E+03  0.96468434668E+02  0.33768860832E+03  0.00000000000E+00 0.  1.
         -1    1    4    4    0  502 -0.11937369256E+03 -0.10135389327E+03  0.20578092407E+03  0.25858940208E+03  0.00000000000E+00 0.  1.
<mgrwt>
<rscale>  0 0.16166009E+04</rscale>
<asrwt>0</asrwt>
<pdfrwt beam="1">  1        2 0.27538388E+00 0.16166009E+04</pdfrwt>
<pdfrwt beam="2">  1       -2 0.56153962E-01 0.16166009E+04</pdfrwt>
<totfact> 0.24918241E+01</totfact>
</mgrwt>
</event>
<event>
12    1  0.2406360E-008  0.2036396E+04  0.7818608E-02  0.8589791E-01
         -2   -1    0    0    0  501 -0.00000000000E+00  0.00000000000E+00  0.49126395391E+03  0.49126395391E+03  0.00000000000E+00 0. -1.
          2   -1    0    0  501    0  0.00000000000E+00 -0.00000000000E+00 -0.21103253275E+04  0.21103253275E+04  0.00000000000E+00 0.  1.
         23    2    1    2    0    0  0.62901208844E+03  0.31147636652E+03 -0.63905187063E+02  0.71036239301E+03  0.88640409269E+02 0.  0.
        254    2    1    2    0    0 -0.62901208844E+03 -0.31147636652E+03 -0.15551561865E+04  0.18912268884E+04  0.81581532508E+03 0.  0.
        -24    2    4    4    0    0 -0.14623017411E+03 -0.51562025723E+03 -0.72416824977E+03  0.90430156012E+03  0.78064999682E+02 0.  0.
         24    2    4    4    0    0 -0.48278191433E+03  0.20414389071E+03 -0.83098793676E+03  0.98692532829E+03  0.93421344751E+02 0.  0.
         11    1    3    3    0    0  0.25897345972E+02  0.19349315474E+02  0.14919033976E+02  0.35604018207E+02  0.00000000000E+00 0.  1.
        -11    1    3    3    0    0  0.60311474247E+03  0.29212705104E+03 -0.78824221038E+02  0.67475837480E+03  0.00000000000E+00 0. -1.
          4    1    6    6  502    0 -0.47189872664E+03  0.21235062489E+03 -0.81894123662E+03  0.96873419736E+03  0.00000000000E+00 0. -1.
          1    1    5    5  503    0 -0.15409177386E+03 -0.48567609955E+03 -0.66778073793E+03  0.83997420341E+03  0.00000000000E+00 0. -1.
         -2    1    5    5    0  503  0.78615997487E+01 -0.29944157681E+02 -0.56387511842E+02  0.64327356712E+02  0.00000000000E+00 0.  1.
         -3    1    6    6    0  502 -0.10883187688E+02 -0.82067341802E+01 -0.12046700142E+02  0.18191130929E+02  0.00000000000E+00 0.  1.
<mgrwt>
<rscale>  0 0.20363956E+04</rscale>
<asrwt>0</asrwt>
<pdfrwt beam="1">  1        2 0.32466544E+00 0.20363956E+04</pdfrwt>
<pdfrwt beam="2">  1       -2 0.75579069E-01 0.20363956E+04</pdfrwt>
<totfact> 0.84307495E+00</totfact>
</mgrwt>
</event>
<event>
12    1  0.2406360E-008  0.1381637E+04  0.7818608E-02  0.8967219E-01
          1   -1    0    0  501    0  0.00000000000E+00  0.00000000000E+00  0.13772782577E+04  0.13772782577E+04  0.00000000000E+00 0. -1.
         -1   -1    0    0    0  501 -0.00000000000E+00 -0.00000000000E+00 -0.34650239299E+03  0.34650239299E+03  0.00000000000E+00 0.  1.
         23    2    1    2    0    0  0.33170794914E+03  0.60669656604E+01  0.35197416986E+02  0.34615406160E+03  0.92286535331E+02 0.  0.
        254    2    1    2    0    0 -0.33170794914E+03 -0.60669656604E+01  0.99557844769E+03  0.13776265891E+04  0.89253100885E+03 0.  0.
        -24    2    4    4    0    0  0.26751799536E+03 -0.14994275976E+03  0.23286159430E+03  0.39259851523E+03  0.76553007841E+02 0.  0.
         24    2    4    4    0    0 -0.59922594450E+03  0.14387579410E+03  0.76271685339E+03  0.98502807383E+03  0.93655384726E+02 0.  0.
         11    1    3    3    0    0  0.29809717384E+03  0.25137436394E+02  0.86693305033E+01  0.29928075957E+03  0.00000000000E+00 0.  1.
        -11    1    3    3    0    0  0.33610775302E+02 -0.19070470733E+02  0.26528086483E+02  0.46873302026E+02  0.00000000000E+00 0. -1.
          4    1    6    6  502    0 -0.56540226165E+03  0.15740416551E+03  0.71823404253E+03  0.92753217122E+03  0.00000000000E+00 0. -1.
          3    1    5    5  503    0  0.52168829805E+02 -0.67920019758E+02  0.63258860998E+02  0.10647252877E+03  0.00000000000E+00 0. -1.
         -4    1    5    5    0  503  0.21534916556E+03 -0.82022740007E+02  0.16960273330E+03  0.28612598646E+03  0.00000000000E+00 0.  1.
         -3    1    6    6    0  502 -0.33823682849E+02 -0.13528371406E+02  0.44482810861E+02  0.57495902606E+02  0.00000000000E+00 0.  1.
<mgrwt>
<rscale>  0 0.13816370E+04</rscale>
<asrwt>0</asrwt>
<pdfrwt beam="1">  1        1 0.21188896E+00 0.13816370E+04</pdfrwt>
<pdfrwt beam="2">  1       -1 0.53308061E-01 0.13816370E+04</pdfrwt>
<totfact> 0.27625185E+01</totfact>
</mgrwt>
</event>
<event>
12    1  0.2406360E-008  0.1709928E+04  0.7818608E-02  0.8755722E-01
          1   -1    0    0  501    0  0.00000000000E+00  0.00000000000E+00  0.12120945450E+04  0.12120945450E+04  0.00000000000E+00 0. -1.
         -1   -1    0    0    0  501 -0.00000000000E+00 -0.00000000000E+00 -0.60305781199E+03  0.60305781199E+03  0.00000000000E+00 0.  1.
         23    2    1    2    0    0  0.49004039695E+03  0.30687895173E+03  0.17616120464E+02  0.58562610355E+03  0.91287040708E+02 0.  0.
        254    2    1    2    0    0 -0.49004039695E+03 -0.30687895173E+03  0.59142061257E+03  0.12295262535E+04  0.90974841869E+03 0.  0.
        -24    2    4    4    0    0 -0.72684598257E+02 -0.38104056554E+03  0.68520991968E+03  0.79145220913E+03  0.80056242100E+02 0.  0.
         24    2    4    4    0    0 -0.41735579869E+03  0.74161613813E+02 -0.93789307109E+02  0.43807404433E+03  0.58537394217E+02 0.  0.
         13    1    3    3    0    0  0.25404604715E+03  0.19453209413E+03  0.43758272120E+02  0.32295033070E+03  0.00000000000E+00 0. -1.
        -13    1    3    3    0    0  0.23599434980E+03  0.11234685760E+03 -0.26142151656E+02  0.26267577285E+03  0.00000000000E+00 0.  1.
          4    1    6    6  502    0 -0.12478470412E+03  0.34826769979E+02 -0.43792467091E+01  0.12962755915E+03  0.00000000000E+00 0. -1.
          1    1    5    5  503    0  0.16495408790E+02 -0.57597365052E+02  0.88208211663E+02  0.10663134425E+03  0.00000000000E+00 0. -1.
         -2    1    5    5    0  503 -0.89180007047E+02 -0.32344320049E+03  0.59700170802E+03  0.68482086488E+03  0.00000000000E+00 0.  1.
         -3    1    6    6    0  502 -0.29257109457E+03  0.39334843835E+02 -0.89410060400E+02  0.30844648518E+03  0.00000000000E+00 0.  1.
<mgrwt>
<rscale>  0 0.17099276E+04</rscale>
<asrwt>0</asrwt>
<pdfrwt beam="1">  1        1 0.18647608E+00 0.17099276E+04</pdfrwt>
<pdfrwt beam="2">  1       -1 0.92778125E-01 0.17099276E+04</pdfrwt>
<totfact> 0.11241436E+01</totfact>
</mgrwt>
</event>
<event>
11    1  0.2406360E-008  0.2097368E+04  0.7818608E-02  0.8562404E-01
          2   -1    0    0  501    0  0.00000000000E+00  0.00000000000E+00  0.28451509685E+03  0.28451509685E+03  0.00000000000E+00 0. -1.
         -2   -1    0    0    0  501 -0.00000000000E+00 -0.00000000000E+00 -0.38653075277E+04  0.38653075277E+04  0.00000000000E+00 0.  1.
         23    2    1    2    0    0 -0.36503414628E+03  0.19074503310E+03  0.71157533606E+01  0.42569157468E+03  0.10737358711E+03 0.  0.
        254    2    1    2    0    0  0.36503414628E+03 -0.19074503310E+03 -0.35879081842E+04  0.37241310499E+04  0.90908379298E+03 0.  0.
        -24    2    4    4    0    0 -0.21569489967E+03  0.38577110137E+01 -0.44170735266E+03  0.49815780363E+03  0.80725709975E+02 0.  0.
         11    1    3    3    0    0 -0.36631347786E+03  0.19680830088E+03 -0.54827634224E+00  0.41583575119E+03  0.00000000000E+00 0. -1.
        -11    1    3    3    0    0  0.12793315758E+01 -0.60632677875E+01  0.76640297028E+01  0.98558234983E+01  0.00000000000E+00 0.  1.
          2    1    4    4  502    0  0.30712074408E+03 -0.24328713419E+03 -0.23553403650E+04  0.23877060154E+04  0.00000000000E+00 0. -1.
          3    1    5    5  503    0 -0.30884538071E+02  0.28631274908E+02 -0.59551659963E+02  0.72938363013E+02  0.00000000000E+00 0. -1.
         -4    1    5    5    0  503 -0.18481036160E+03 -0.24773563894E+02 -0.38215569269E+03  0.42521944062E+03  0.00000000000E+00 0.  1.
         -1    1    4    4    0  502  0.27360830187E+03  0.48684390081E+02 -0.79086046659E+03  0.83826723084E+03  0.00000000000E+00 0.  1.
<mgrwt>
<rscale>  0 0.20973682E+04</rscale>
<asrwt>0</asrwt>
<pdfrwt beam="1">  1        2 0.43771554E-01 0.20973682E+04</pdfrwt>
<pdfrwt beam="2">  1       -2 0.59466269E+00 0.20973682E+04</pdfrwt>
<totfact> 0.56101228E-02</totfact>
</mgrwt>
</event>
<event>
12    1  0.2406360E-008  0.1861084E+04  0.7818608E-02  0.8674473E-01
          1   -1    0    0  501    0  0.00000000000E+00  0.00000000000E+00  0.10243850272E+04  0.10243850272E+04  0.00000000000E+00 0. -1.
         -1   -1    0    0    0  501 -0.00000000000E+00 -0.00000000000E+00 -0.84529621043E+03  0.84529621043E+03  0.00000000000E+00 0.  1.
         23    2    1    2    0    0  0.59857704453E+03  0.16599323520E+03 -0.25374193380E+03  0.67826438209E+03  0.99042267072E+02 0.  0.
        254    2    1    2    0    0 -0.59857704453E+03 -0.16599323520E+03  0.43283075058E+03  0.11914168555E+04  0.91993664600E+03 0.  0.
        -24    2    4    4    0    0 -0.55557911341E+02 -0.33770784835E+03  0.49852316092E+03  0.60952475624E+03  0.76562485235E+02 0.  0.
         24    2    4    4    0    0 -0.54301913319E+03  0.17171461315E+03 -0.65692410343E+02  0.58189209930E+03  0.99635511104E+02 0.  0.
         11    1    3    3    0    0  0.55580580267E+03  0.17662663875E+03 -0.24831191821E+03  0.63385792456E+03  0.00000000000E+00 0.  1.
        -11    1    3    3    0    0  0.42771241857E+02 -0.10633403544E+02 -0.54300155912E+01  0.44406457529E+02  0.00000000000E+00 0. -1.
          2    1    6    6  502    0 -0.11135627739E+03  0.39882710263E+02  0.26529494026E+02  0.12122155396E+03  0.00000000000E+00 0. -1.
          3    1    5    5  503    0 -0.27807225886E+02 -0.29917521328E+02  0.72537140885E+02  0.83246241366E+02  0.00000000000E+00 0. -1.
         -4    1    5    5    0  503 -0.27750685455E+02 -0.30779032702E+03  0.42598602004E+03  0.52627851488E+03  0.00000000000E+00 0.  1.
         -1    1    6    6    0  502 -0.43166285581E+03  0.13183190288E+03 -0.92221904369E+02  0.46067054534E+03  0.00000000000E+00 0.  1.
<mgrwt>
<rscale>  0 0.18610844E+04</rscale>
<asrwt>0</asrwt>
<pdfrwt beam="1">  1        1 0.15759770E+00 0.18610844E+04</pdfrwt>
<pdfrwt beam="2">  1       -1 0.13004557E+00 0.18610844E+04</pdfrwt>
<totfact> 0.68898642E+00</totfact>
</mgrwt>
</event>
<event>
11    1  0.2406360E-008  0.1359627E+04  0.7818608E-02  0.8983572E-01
          2   -1    0    0  501    0  0.00000000000E+00  0.00000000000E+00  0.11425586675E+04  0.11425586675E+04  0.00000000000E+00 0. -1.
         -2   -1    0    0    0  501 -0.00000000000E+00 -0.00000000000E+00 -0.40448380266E+03  0.40448380266E+03  0.00000000000E+00 0.  1.
         23    2    1    2    0    0 -0.24647824352E+02  0.10778580212E+02 -0.21392060657E+03  0.23361391984E+03  0.89943007464E+02 0.  0.
        254    2    1    2    0    0  0.24647824352E+02 -0.10778580212E+02  0.95199547141E+03  0.13134285503E+04  0.90447525458E+03 0.  0.
        -24    2    4    4    0    0  0.32142731886E+03  0.22957383827E+03  0.19186214331E+03  0.44640553460E+03  0.80294151448E+02 0.  0.
         13    1    3    3    0    0 -0.28351392874E+02 -0.36264656810E+02 -0.91833339393E+02  0.10272433517E+03  0.00000000000E+00 0. -1.
        -13    1    3    3    0    0  0.37035685222E+01  0.47043237022E+02 -0.12208726718E+03  0.13088958468E+03  0.00000000000E+00 0.  1.
          4    1    4    4  502    0  0.61325239000E+01 -0.55130361051E+02  0.58192325259E+02  0.80394721706E+02  0.00000000000E+00 0. -1.
          1    1    5    5  503    0  0.72780232191E+02  0.95675432464E+02  0.47690359337E+02  0.12932563918E+03  0.00000000000E+00 0. -1.
         -2    1    5    5    0  503  0.24864708667E+03  0.13389840581E+03  0.14417178397E+03  0.31707989542E+03  0.00000000000E+00 0.  1.
         -3    1    4    4    0  502 -0.30291201841E+03 -0.18522205743E+03  0.70194100285E+03  0.78662829401E+03  0.00000000000E+00 0.  1.
<mgrwt>
<rscale>  0 0.13596271E+04</rscale>
<asrwt>0</asrwt>
<pdfrwt beam="1">  1        2 0.17577826E+00 0.13596271E+04</pdfrwt>
<pdfrwt beam="2">  1       -2 0.62228278E-01 0.13596271E+04</pdfrwt>
<totfact> 0.47999138E+01</totfact>
</mgrwt>
</event>
<event>
12    1  0.2406360E-008  0.1784163E+04  0.7818608E-02  0.8714767E-01
         -2   -1    0    0    0  501 -0.00000000000E+00  0.00000000000E+00  0.23828108140E+03  0.23828108140E+03  0.00000000000E+00 0.  1.
          2   -1    0    0  501    0  0.00000000000E+00 -0.00000000000E+00 -0.33397928021E+04  0.33397928021E+04  0.00000000000E+00 0. -1.
         23    2    1    2    0    0  0.17045448038E+03  0.63201454602E+03 -0.93360875837E+03  0.11436431319E+04  0.88301659951E+02 0.  0.
        254    2    1    2    0    0 -0.17045448038E+03 -0.63201454602E+03 -0.21679029624E+04  0.24344307517E+04  0.89339392995E+03 0.  0.
        -24    2    4    4    0    0  0.14201736138E+03 -0.29465182711E+03 -0.16049508605E+03  0.37397596032E+03  0.84325062114E+02 0.  0.
         24    2    4    4    0    0 -0.31247184176E+03 -0.33736271891E+03 -0.20074078763E+04  0.20604547913E+04  0.65843064897E+02 0.  0.
         11    1    3    3    0    0  0.14892365950E+03  0.48878753668E+03 -0.66692448608E+03  0.84016652070E+03  0.00000000000E+00 0. -1.
        -11    1    3    3    0    0  0.21530820883E+02  0.14322700934E+03 -0.26668427229E+03  0.30347661119E+03  0.00000000000E+00 0.  1.
          2    1    6    6  502    0 -0.23434523202E+03 -0.21618057645E+03 -0.14569195788E+04  0.14913974616E+04  0.00000000000E+00 0. -1.
          1    1    5    5  503    0  0.11150109818E+03 -0.21559768556E+03 -0.15717921589E+03  0.28917151108E+03  0.00000000000E+00 0. -1.
         -2    1    5    5    0  503  0.30516263201E+02 -0.79054141546E+02 -0.33158701571E+01  0.84804449236E+02  0.00000000000E+00 0.  1.
         -1    1    6    6    0  502 -0.78126609745E+02 -0.12118214246E+03 -0.55048829750E+03  0.56905732970E+03  0.00000000000E+00 0.  1.
<mgrwt>
<rscale>  0 0.17841630E+04</rscale>
<asrwt>0</asrwt>
<pdfrwt beam="1">  1        2 0.51381426E+00 0.17841630E+04</pdfrwt>
<pdfrwt beam="2">  1       -2 0.36658629E-01 0.17841630E+04</pdfrwt>
<totfact> 0.69866604E+00</totfact>
</mgrwt>
</event>
<event>
12    1  0.2406360E-008  0.1455534E+04  0.7818608E-02  0.8914573E-01
          1   -1    0    0  501    0  0.00000000000E+00  0.00000000000E+00  0.24094730781E+04  0.24094730781E+04  0.00000000000E+00 0. -1.
         -1   -1    0    0    0  501 -0.00000000000E+00 -0.00000000000E+00 -0.21981768951E+03  0.21981768951E+03  0.00000000000E+00 0.  1.
         23    2    1    2    0    0 -0.40307576178E+03  0.14513932955E+03  0.51822725188E+03  0.67799148853E+03  0.87048717419E+02 0.  0.
        254    2    1    2    0    0  0.40307576178E+03 -0.14513932955E+03  0.16714281367E+04  0.19512992790E+04  0.91124166149E+03 0.  0.
        -24    2    4    4    0    0  0.28010295027E+02  0.36044166038E+03  0.61626372700E+03  0.71879385651E+03  0.78618444192E+02 0.  0.
         24    2    4    4    0    0  0.37506546675E+03 -0.50558098993E+03  0.10551644097E+04  0.12325054225E+04  0.97012594121E+02 0.  0.
         13    1    3    3    0    0 -0.37476722646E+02 -0.10962860277E+02  0.56970703283E+02  0.69067720958E+02  0.00000000000E+00 0. -1.
        -13    1    3    3    0    0 -0.36559903913E+03  0.15610218983E+03  0.46125654860E+03  0.60892376757E+03  0.00000000000E+00 0.  1.
          2    1    6    6  502    0  0.25913030342E+03 -0.41413662301E+03  0.78417194107E+03  0.92389571372E+03  0.00000000000E+00 0. -1.
          1    1    5    5  503    0 -0.86443228218E+01  0.23185471177E+03  0.44144711212E+03  0.49870520800E+03  0.00000000000E+00 0. -1.
         -4    1    5    5    0  503  0.36654617849E+02  0.12858694861E+03  0.17481661488E+03  0.22008864851E+03  0.00000000000E+00 0.  1.
         -1    1    6    6    0  502  0.11593516333E+03 -0.91444366927E+02  0.27099246860E+03  0.30860970882E+03  0.00000000000E+00 0.  1.
<mgrwt>
<rscale>  0 0.14555340E+04</rscale>
<asrwt>0</asrwt>
<pdfrwt beam="1">  1        1 0.37068815E+00 0.14555340E+04</pdfrwt>
<pdfrwt beam="2">  1       -1 0.33818108E-01 0.14555340E+04</pdfrwt>
<totfact> 0.12568619E+01</totfact>
</mgrwt>
</event>
<event>
11    1  0.2406360E-008  0.1573587E+04  0.7818608E-02  0.8836941E-01
          1   -1    0    0  501    0  0.00000000000E+00  0.00000000000E+00  0.13659658087E+04  0.13659658087E+04  0.00000000000E+00 0. -1.
         -1   -1    0    0    0  501 -0.00000000000E+00 -0.00000000000E+00 -0.45319131426E+03  0.45319131426E+03  0.00000000000E+00 0.  1.
         23    2    1    2    0    0  0.35281631056E+03  0.21066902983E+03  0.68328582780E+03  0.80242216622E+03  0.90227607922E+02 0.  0.
        254    2    1    2    0    0 -0.35281631056E+03 -0.21066902983E+03  0.22948866660E+03  0.10167349567E+04  0.90123478349E+03 0.  0.
        -24    2    4    4    0    0  0.18926463508E+02 -0.19053571067E+02 -0.31654590059E+03  0.32753467024E+03  0.79727055890E+02 0.  0.
         13    1    3    3    0    0  0.23302325620E+03  0.90187228412E+02  0.38000498773E+03  0.45479376073E+03  0.00000000000E+00 0. -1.
        -13    1    3    3    0    0  0.11979305436E+03  0.12048180142E+03  0.30328084007E+03  0.34762840549E+03  0.00000000000E+00 0.  1.
          4    1    4    4  502    0 -0.18139796361E+02 -0.90989679380E+01  0.45042512495E+02  0.49403151331E+02  0.00000000000E+00 0. -1.
          1    1    5    5  503    0  0.32852790118E+01 -0.58374708373E+01  0.29955753867E+01  0.73377514171E+01  0.00000000000E+00 0. -1.
         -2    1    5    5    0  503  0.15641184496E+02 -0.13216100230E+02 -0.31954147597E+03  0.32019691882E+03  0.00000000000E+00 0.  1.
         -3    1    4    4    0  502 -0.35360297771E+03 -0.18251649083E+03  0.50099205470E+03  0.63979713514E+03  0.00000000000E+00 0.  1.
<mgrwt>
<rscale>  0 0.15735868E+04</rscale>
<asrwt>0</asrwt>
<pdfrwt beam="1">  1        1 0.21014858E+00 0.15735868E+04</pdfrwt>
<pdfrwt beam="2">  1       -1 0.69721741E-01 0.15735868E+04</pdfrwt>
<totfact> 0.16241050E+01</totfact>
</mgrwt>
</event>
<event>
12    1  0.2406360E-008  0.1288027E+04  0.7818608E-02  0.9039114E-01
         -2   -1    0    0    0  501 -0.00000000000E+00  0.00000000000E+00  0.53356730907E+03  0.53356730907E+03  0.00000000000E+00 0. -1.
          2   -1    0    0  501    0  0.00000000000E+00 -0.00000000000E+00 -0.77732123753E+03  0.77732123753E+03  0.00000000000E+00 0.  1.
         23    2    1    2    0    0 -0.25626185071E+03  0.21910804043E+03 -0.62555138438E+02  0.35375006754E+03  0.86876322608E+02 0.  0.
        254    2    1    2    0    0  0.25626185071E+03 -0.21910804043E+03 -0.18119879002E+03  0.95713847905E+03  0.87726996818E+03 0.  0.
        -24    2    4    4    0    0  0.13673227520E+03  0.31375831946E+03  0.59166141748E+02  0.35667929657E+03  0.81114056506E+02 0.  0.
         24    2    4    4    0    0  0.11952957551E+03 -0.53286635988E+03 -0.24036493177E+03  0.60045918248E+03  0.67394751156E+02 0.  0.
         13    1    3    3    0    0 -0.28148983629E+02  0.67577111206E+02 -0.24863095608E+02  0.77312384270E+02  0.00000000000E+00 0.  1.
        -13    1    3    3    0    0 -0.22811286708E+03  0.15153092922E+03 -0.37692042830E+02  0.27643768327E+03  0.00000000000E+00 0. -1.
          2    1    6    6  502    0  0.12209541754E+03 -0.49601363612E+03 -0.20871794905E+03  0.55181518686E+03  0.00000000000E+00 0. -1.
          1    1    5    5  503    0  0.11228814084E+03  0.18236697262E+03  0.62150895944E+02  0.22300016400E+03  0.00000000000E+00 0. -1.
         -2    1    5    5    0  503  0.24444134362E+02  0.13139134684E+03 -0.29847541967E+01  0.13367913257E+03  0.00000000000E+00 0.  1.
         -1    1    6    6    0  502 -0.25658420305E+01 -0.36852723770E+02 -0.31646982718E+02  0.48643995619E+02  0.00000000000E+00 0.  1.
<mgrwt>
<rscale>  0 0.12880267E+04</rscale>
<asrwt>0</asrwt>
<pdfrwt beam="1">  1        2 0.11958788E+00 0.12880267E+04</pdfrwt>
<pdfrwt beam="2">  1       -2 0.82087278E-01 0.12880267E+04</pdfrwt>
<totfact> 0.45802498E+01</totfact>
</mgrwt>
</event>
<event>
11    1  0.2406360E-008  0.2131830E+04  0.7818608E-02  0.8547350E-01
          1   -1    0    0  501    0  0.00000000000E+00  0.00000000000E+00  0.60895813312E+03  0.60895813312E+03  0.00000000000E+00 0. -1.
         -1   -1    0    0    0  501 -0.00000000000E+00 -0.00000000000E+00 -0.18657685908E+04  0.18657685908E+04  0.00000000000E+00 0.  1.
         23    2    1    2    0    0  0.84094731874E+03 -0.13965933756E+03 -0.75051195798E+03  0.11396052412E+04  0.93460062267E+02 0.  0.
        254    2    1    2    0    0 -0.84094731874E+03  0.13965933756E+03 -0.50629849967E+03  0.13351214827E+04  0.89415551180E+03 0.  0.
        -24    2    4    4    0    0  0.33859968880E+02  0.25490707190E+03  0.58374707278E+02  0.27535084238E+03  0.79286613934E+02 0.  0.
         11    1    3    3    0    0  0.75978356991E+03 -0.15303773940E+03 -0.68675522291E+03  0.10355309551E+04  0.00000000000E+00 0.  1.
        -11    1    3    3    0    0  0.81163748828E+02  0.13378401837E+02 -0.63756735069E+02  0.10407428609E+03  0.00000000000E+00 0. -1.
          4    1    4    4  502    0 -0.55930067591E+03 -0.11822814012E+03 -0.43630480752E+03  0.71913630437E+03  0.00000000000E+00 0. -1.
          1    1    5    5  503    0  0.11958362966E+02  0.22611647382E+03  0.28080545425E+02  0.22816699851E+03  0.00000000000E+00 0. -1.
         -2    1    5    5    0  503  0.21901605914E+02  0.28790598080E+02  0.30294161853E+02  0.47183843864E+02  0.00000000000E+00 0.  1.
         -3    1    4    4    0  502 -0.31550661171E+03  0.29804057752E+01 -0.12836839943E+03  0.34063433594E+03  0.00000000000E+00 0.  1.
<mgrwt>
<rscale>  0 0.21318302E+04</rscale>
<asrwt>0</asrwt>
<pdfrwt beam="1">  1        1 0.93685867E-01 0.21318302E+04</pdfrwt>
<pdfrwt beam="2">  1       -1 0.28704132E+00 0.21318302E+04</pdfrwt>
<totfact> 0.12322324E+00</totfact>
</mgrwt>
</event>
<event>
12    1  0.2406360E-008  0.3754147E+04  0.7818608E-02  0.8056067E-01
         -2   -1    0    0    0  501 -0.00000000000E+00  0.00000000000E+00  0.15080052856E+04  0.15080052856E+04  0.00000000000E+00 0. -1.
          2   -1    0    0  501    0  0.00000000000E+00 -0.00000000000E+00 -0.23364672205E+04  0.23364672205E+04  0.00000000000E+00 0.  1.
         23    2    1    2    0    0 -0.15961175780E+04  0.11006297367E+03  0.37897689982E+03  0.16467850594E+04  0.92587041117E+02 0.  0.
        254    2    1    2    0    0  0.15961175780E+04 -0.11006297367E+03 -0.12074388347E+04  0.21976874468E+04  0.90123048849E+03 0.  0.
        -24    2    4    4    0    0  0.18893409471E+03  0.13504358115E+03 -0.58668072526E+03  0.63657381779E+03  0.84256104541E+02 0.  0.
         24    2    4    4    0    0  0.14071834833E+04 -0.24510655482E+03 -0.62075810946E+03  0.15611136290E+04  0.10720332758E+03 0.  0.
         11    1    3    3    0    0 -0.70587671814E+03  0.92812319807E+02  0.15469888634E+03  0.72856558617E+03  0.00000000000E+00 0.  1.
        -11    1    3    3    0    0 -0.89024085984E+03  0.17250653865E+02  0.22427801347E+03  0.91821947318E+03  0.00000000000E+00 0. -1.
          4    1    6    6  502    0  0.12326155668E+04 -0.21304874967E+03 -0.58096076740E+03  0.13792194599E+04  0.00000000000E+00 0. -1.
          3    1    5    5  503    0  0.20257534761E+02  0.39131488274E+02 -0.18914952674E+03  0.19421427484E+03  0.00000000000E+00 0. -1.
         -4    1    5    5    0  503  0.16867655995E+03  0.95912092875E+02 -0.39753119853E+03  0.44235954295E+03  0.00000000000E+00 0.  1.
         -3    1    6    6    0  502  0.17456791647E+03 -0.32057805151E+02 -0.39797342060E+02  0.18189416914E+03  0.00000000000E+00 0.  1.
<mgrwt>
<rscale>  0 0.37541470E+04</rscale>
<asrwt>0</asrwt>
<pdfrwt beam="1">  1        2 0.35945649E+00 0.37541470E+04</pdfrwt>
<pdfrwt beam="2">  1       -2 0.23200081E+00 0.37541470E+04</pdfrwt>
<totfact> 0.28897699E-01</totfact>
</mgrwt>
</event>
<event>
12    1  0.2406360E-008  0.1839326E+04  0.7818608E-02  0.8685661E-01
         -2   -1    0    0    0  501 -0.00000000000E+00  0.00000000000E+00  0.28623758106E+03  0.28623758106E+03  0.00000000000E+00 0.  1.
          2   -1    0    0  501    0  0.00000000000E+00 -0.00000000000E+00 -0.29548190576E+04  0.29548190576E+04  0.00000000000E+00 0. -1.
         23    2    1    2    0    0  0.32603569381E+03 -0.32170815542E+03 -0.98175008324E+02  0.47717119602E+03  0.90876879098E+02 0.  0.
        254    2    1    2    0    0 -0.32603569381E+03  0.32170815542E+03 -0.25704064682E+04  0.27638854426E+04  0.90679541090E+03 0.  0.
        -24    2    4    4    0    0 -0.17786473693E+03  0.43332501155E+03 -0.52552632888E+03  0.70848307382E+03  0.79774139118E+02 0.  0.
         24    2    4    4    0    0 -0.14817095688E+03 -0.11161685613E+03 -0.20448801393E+04  0.20554023688E+04  0.93440667880E+02 0.  0.
         13    1    3    3    0    0  0.58443029645E+02 -0.10082092537E+03  0.11688358392E+00  0.11653523230E+03  0.00000000000E+00 0. -1.
        -13    1    3    3    0    0  0.26759266416E+03 -0.22088723005E+03 -0.98291891908E+02  0.36063596372E+03  0.00000000000E+00 0.  1.
          4    1    6    6  502    0 -0.11115458539E+03 -0.12398695111E+03 -0.17602999244E+04  0.17681583441E+04  0.00000000000E+00 0. -1.
          3    1    5    5  503    0 -0.16079938155E+03  0.32461210292E+03 -0.43424907729E+03  0.56551014102E+03  0.00000000000E+00 0. -1.
         -4    1    5    5    0  503 -0.17065355376E+02  0.10871290863E+03 -0.91277251593E+02  0.14297293281E+03  0.00000000000E+00 0.  1.
         -3    1    6    6    0  502 -0.37016371492E+02  0.12370094982E+02 -0.28458021488E+03  0.28724402467E+03  0.00000000000E+00 0.  1.
<mgrwt>
<rscale>  0 0.18393262E+04</rscale>
<asrwt>0</asrwt>
<pdfrwt beam="1">  1        2 0.45458755E+00 0.18393262E+04</pdfrwt>
<pdfrwt beam="2">  1       -2 0.44036551E-01 0.18393262E+04</pdfrwt>
<totfact> 0.85787844E+00</totfact>
</mgrwt>
</event>
<event>
11    1  0.2406360E-008  0.1218582E+04  0.7818608E-02  0.9096745E-01
          2   -1    0    0  501    0  0.00000000000E+00  0.00000000000E+00  0.59611518502E+03  0.59611518502E+03  0.00000000000E+00 0. -1.
         -2   -1    0    0    0  501 -0.00000000000E+00 -0.00000000000E+00 -0.62275822172E+03  0.62275822172E+03  0.00000000000E+00 0.  1.
         23    2    1    2    0    0  0.12233558705E+03 -0.22756579748E+03  0.25007272563E+03  0.37034502533E+03  0.88695443217E+02 0.  0.
        254    2    1    2    0    0 -0.12233558705E+03  0.22756579748E+03 -0.27671576233E+03  0.84852838141E+03  0.75939226549E+03 0.  0.
        -24    2    4    4    0    0  0.17382369664E+03 -0.15309999316E+03  0.28246406159E+02  0.24666234516E+03  0.79938524142E+02 0.  0.
         13    1    3    3    0    0  0.65045644662E+02 -0.41238429863E+02  0.55580613515E+02  0.94977621500E+02  0.00000000000E+00 0.  1.
        -13    1    3    3    0    0  0.57289942386E+02 -0.18632736762E+03  0.19449211211E+03  0.27536740383E+03  0.00000000000E+00 0. -1.
          4    1    4    4  502    0 -0.28398140394E+03  0.40071636742E+03 -0.27206424386E+03  0.56146059317E+03  0.00000000000E+00 0. -1.
          3    1    5    5  503    0  0.12968819736E+03 -0.13362385875E+03  0.51368101212E+02  0.19316585098E+03  0.00000000000E+00 0. -1.
         -4    1    5    5    0  503  0.44135499282E+02 -0.19476134412E+02 -0.23121695053E+02  0.53496494190E+02  0.00000000000E+00 0.  1.
         -3    1    4    4    0  502 -0.12177879756E+02 -0.20050576784E+02 -0.32897924626E+02  0.40405443066E+02  0.00000000000E+00 0.  1.
<mgrwt>
<rscale>  0 0.12185822E+04</rscale>
<asrwt>0</asrwt>
<pdfrwt beam="1">  1        2 0.91710029E-01 0.12185822E+04</pdfrwt>
<pdfrwt beam="2">  1       -2 0.95808957E-01 0.12185822E+04</pdfrwt>
<totfact> 0.45028209E+01</totfact>
</mgrwt>
</event>
<event>
11    1  0.2406360E-008  0.1137370E+04  0.7818608E-02  0.9169515E-01
          1   -1    0    0  501    0  0.00000000000E+00  0.00000000000E+00  0.17123739992E+04  0.17123739992E+04  0.00000000000E+00 0. -1.
         -1   -1    0    0    0  501 -0.00000000000E+00 -0.00000000000E+00 -0.18886205637E+03  0.18886205637E+03  0.00000000000E+00 0.  1.
         23    2    1    2    0    0 -0.10580206269E+02 -0.36462589602E+02  0.57238929173E+03  0.58080239642E+03  0.90887079419E+02 0.  0.
        254    2    1    2    0    0  0.10580206269E+02  0.36462589602E+02  0.95112265115E+03  0.13204336592E+04  0.91513348185E+03 0.  0.
        -24    2    4    4    0    0  0.19065250314E+03  0.39193970436E+03  0.71673963275E+03  0.84263523771E+03  0.79707803003E+02 0.  0.
         13    1    3    3    0    0  0.40324021670E+02 -0.19738993723E+02  0.25494473232E+03  0.25886767108E+03  0.00000000000E+00 0.  1.
        -13    1    3    3    0    0 -0.50904227940E+02 -0.16723595878E+02  0.31744455941E+03  0.32193472534E+03  0.00000000000E+00 0. -1.
          2    1    4    4  502    0 -0.10172617432E+02 -0.11839316855E+03  0.32903812195E+02  0.12330079222E+03  0.00000000000E+00 0. -1.
          3    1    5    5  503    0 -0.32862420782E+01  0.32602619124E+02  0.34862248905E+02  0.47844608468E+02  0.00000000000E+00 0. -1.
         -4    1    5    5    0  503  0.19393874522E+03  0.35933708524E+03  0.68187738385E+03  0.79479062924E+03  0.00000000000E+00 0.  1.
         -1    1    4    4    0  502 -0.16989967944E+03 -0.23708394621E+03  0.20147920620E+03  0.35449762927E+03  0.00000000000E+00 0.  1.
<mgrwt>
<rscale>  0 0.11373697E+04</rscale>
<asrwt>0</asrwt>
<pdfrwt beam="1">  1        1 0.26344214E+00 0.11373697E+04</pdfrwt>
<pdfrwt beam="2">  1       -1 0.29055702E-01 0.11373697E+04</pdfrwt>
<totfact> 0.50174615E+01</totfact>
</mgrwt>
</event>
<event>
11    1  0.2406360E-008  0.1395626E+04  0.7818608E-02  0.8956991E-01
          2   -1    0    0  501    0  0.00000000000E+00  0.00000000000E+00  0.11432436259E+04  0.11432436259E+04  0.00000000000E+00 0.  1.
         -2   -1    0    0    0  501 -0.00000000000E+00 -0.00000000000E+00 -0.42593104993E+03  0.42593104993E+03  0.00000000000E+00 0. -1.
         23    2    1    2    0    0  0.64212559669E+02  0.38436829872E+03  0.32356079508E+03  0.51430754886E+03  0.89210004037E+02 0.  0.
        254    2    1    2    0    0 -0.64212559669E+02 -0.38436829872E+03  0.39375178085E+03  0.10548671269E+04  0.89768699930E+03 0.  0.
        -24    2    4    4    0    0  0.23920888786E+03 -0.16010731633E+02  0.20640164474E+03  0.32632833525E+03  0.80070643035E+02 0.  0.
         11    1    3    3    0    0  0.10292322741E+02  0.94831497391E+02  0.33939291694E+02  0.10124633487E+03  0.00000000000E+00 0.  1.
        -11    1    3    3    0    0  0.53920236928E+02  0.28953680133E+03  0.28962150339E+03  0.41306121398E+03  0.00000000000E+00 0. -1.
          4    1    4    4  502    0  0.10605484017E+03 -0.25130562462E+03  0.29539464155E+02  0.27436239908E+03  0.00000000000E+00 0. -1.
          3    1    5    5  503    0  0.10691124449E+03  0.59895245802E+01  0.44150238214E+02  0.11582371147E+03  0.00000000000E+00 0. -1.
         -4    1    5    5    0  503  0.13229764337E+03 -0.22000256213E+02  0.16225140652E+03  0.21050462378E+03  0.00000000000E+00 0.  1.
         -1    1    4    4    0  502 -0.40947628770E+03 -0.11705194247E+03  0.15781067196E+03  0.45417639261E+03  0.00000000000E+00 0.  1.
<mgrwt>
<rscale>  0 0.13956260E+04</rscale>
<asrwt>0</asrwt>
<pdfrwt beam="1">  1        2 0.17588363E+00 0.13956260E+04</pdfrwt>
<pdfrwt beam="2">  1       -2 0.65527854E-01 0.13956260E+04</pdfrwt>
<totfact> 0.42815323E+01</totfact>
</mgrwt>
</event>
<event>
12    1  0.2406360E-008  0.1578263E+04  0.7818608E-02  0.8834014E-01
         -1   -1    0    0    0  501 -0.00000000000E+00  0.00000000000E+00  0.47467584268E+03  0.47467584268E+03  0.00000000000E+00 0.  1.
          1   -1    0    0  501    0  0.00000000000E+00 -0.00000000000E+00 -0.13119032716E+04  0.13119032716E+04  0.00000000000E+00 0. -1.
         23    2    1    2    0    0 -0.52680588306E+02  0.10411403757E+03 -0.86915129637E+03  0.88175725967E+03  0.91961469089E+02 0.  0.
        254    2    1    2    0    0  0.52680588306E+02 -0.10411403757E+03  0.31923867444E+02  0.90482185462E+03  0.89669865511E+03 0.  0.
        -24    2    4    4    0    0 -0.16235840355E+03  0.21342226115E+03  0.31174602742E+03  0.41888685531E+03  0.79820418340E+02 0.  0.
         24    2    4    4    0    0  0.21503899185E+03 -0.31753629872E+03 -0.27982215997E+03  0.48593499931E+03  0.10373675010E+03 0.  0.
         13    1    3    3    0    0 -0.56369024924E+02  0.20210810804E+02 -0.25775575880E+03  0.26462043580E+03  0.00000000000E+00 0.  1.
        -13    1    3    3    0    0  0.36884366183E+01  0.83903226771E+02 -0.61139553757E+03  0.61713682387E+03  0.00000000000E+00 0. -1.
          2    1    6    6  502    0  0.66618365753E+02 -0.16506584523E+03 -0.17145871512E+03  0.24714941009E+03  0.00000000000E+00 0. -1.
          1    1    5    5  503    0 -0.35146896631E+02  0.74744570505E+02  0.14774930852E+03  0.16926876064E+03  0.00000000000E+00 0. -1.
         -4    1    5    5    0  503 -0.12721150692E+03  0.13867769064E+03  0.16399671890E+03  0.24961809466E+03  0.00000000000E+00 0.  1.
         -1    1    6    6    0  502  0.14842062610E+03 -0.15247045349E+03 -0.10836344485E+03  0.23878558922E+03  0.00000000000E+00 0.  1.
<mgrwt>
<rscale>  0 0.15782633E+04</rscale>
<asrwt>0</asrwt>
<pdfrwt beam="1">  1        1 0.20183127E+00 0.15782633E+04</pdfrwt>
<pdfrwt beam="2">  1       -1 0.73027054E-01 0.15782633E+04</pdfrwt>
<totfact> 0.16116812E+01</totfact>
</mgrwt>
</event>
<event>
12    1  0.2406360E-008  0.3380529E+04  0.7818608E-02  0.8142702E-01
         -2   -1    0    0    0  501 -0.00000000000E+00  0.00000000000E+00  0.21299467609E+04  0.21299467609E+04  0.00000000000E+00 0.  1.
          2   -1    0    0  501    0  0.00000000000E+00 -0.00000000000E+00 -0.13413455427E+04  0.13413455427E+04  0.00000000000E+00 0. -1.
         23    2    1    2    0    0 -0.21646754468E+02  0.99505759003E+03  0.16074694559E+04  0.18929354560E+04  0.92942990804E+02 0.  0.
        254    2    1    2    0    0  0.21646754468E+02 -0.99505759003E+03 -0.81886823773E+03  0.15783568476E+04  0.91107461724E+03 0.  0.
        -24    2    4    4    0    0 -0.19178139270E+03 -0.10800371606E+04 -0.67784283080E+03  0.12921673635E+04  0.83457901190E+02 0.  0.
         24    2    4    4    0    0  0.21342814717E+03  0.84979570553E+02 -0.14102540693E+03  0.28618948408E+03  0.96141322980E+02 0.  0.
         11    1    3    3    0    0 -0.36977893015E+02  0.53768977474E+03  0.94243055279E+03  0.10856578675E+04  0.00000000000E+00 0.  1.
        -11    1    3    3    0    0  0.15331138547E+02  0.45736781529E+03  0.66503890310E+03  0.80727758851E+03  0.00000000000E+00 0. -1.
          2    1    6    6  502    0  0.29066045643E+02 -0.14011420303E+02  0.26204256747E+01  0.32373160781E+02  0.00000000000E+00 0. -1.
          3    1    5    5  503    0  0.71825935188E+01 -0.74948514594E+02 -0.53018409032E+02  0.92085944561E+02  0.00000000000E+00 0. -1.
         -4    1    5    5    0  503 -0.19896398622E+03 -0.10050886460E+04 -0.62482442177E+03  0.12000814190E+04  0.00000000000E+00 0.  1.
         -1    1    6    6    0  502  0.18436210153E+03  0.98990990856E+02 -0.14364583260E+03  0.25381632330E+03  0.00000000000E+00 0.  1.
<mgrwt>
<rscale>  0 0.33805293E+04</rscale>
<asrwt>0</asrwt>
<pdfrwt beam="1">  1        2 0.20636085E+00 0.33805293E+04</pdfrwt>
<pdfrwt beam="2">  1       -2 0.32768412E+00 0.33805293E+04</pdfrwt>
<totfact> 0.27841521E-01</totfact>
</mgrwt>
</event>
<event>
11    1  0.2406360E-008  0.2295940E+04  0.7818608E-02  0.8479524E-01
         -2   -1    0    0    0  501 -0.00000000000E+00  0.00000000000E+00  0.68952609575E+03  0.68952609575E+03  0.00000000000E+00 0.  1.
          2   -1    0    0  501    0  0.00000000000E+00 -0.00000000000E+00 -0.19112191649E+04  0.19112191649E+04  0.00000000000E+00 0. -1.
         23    2    1    2    0    0  0.72554525855E+03  0.48986512495E+03 -0.56285154169E+02  0.88246192479E+03  0.95850233603E+02 0.  0.
        254    2    1    2    0    0 -0.72554525855E+03 -0.48986512495E+03 -0.11654079150E+04  0.17182833359E+04  0.90991112267E+03 0.  0.
        -24    2    4    4    0    0 -0.31598098588E+03 -0.68754643426E+03 -0.58738169647E+03  0.96143041422E+03  0.82262393289E+02 0.  0.
         11    1    3    3    0    0  0.24033464608E+03  0.16728653227E+03 -0.64090639082E+02  0.29975512673E+03  0.00000000000E+00 0.  1.
        -11    1    3    3    0    0  0.48521061247E+03  0.32257859269E+03  0.78054849122E+01  0.58270679806E+03  0.00000000000E+00 0. -1.
          2    1    4    4  502    0 -0.30731482533E+03  0.57115474870E+02 -0.40499071529E+03  0.51158778212E+03  0.00000000000E+00 0. -1.
          1    1    5    5  503    0 -0.82078502941E+02 -0.20350790692E+03 -0.12626444815E+03  0.25317002131E+03  0.00000000000E+00 0. -1.
         -2    1    5    5    0  503 -0.23390248294E+03 -0.48403852734E+03 -0.46111724831E+03  0.70826039291E+03  0.00000000000E+00 0.  1.
         -1    1    4    4    0  502 -0.10224944733E+03  0.14056583443E+03 -0.17303550324E+03  0.24526513954E+03  0.00000000000E+00 0.  1.
<mgrwt>
<rscale>  0 0.22959403E+04</rscale>
<asrwt>0</asrwt>
<pdfrwt beam="1">  1        2 0.29403371E+00 0.22959403E+04</pdfrwt>
<pdfrwt beam="2">  1       -2 0.10608094E+00 0.22959403E+04</pdfrwt>
<totfact> 0.48686377E+00</totfact>
</mgrwt>
</event>
<event>
12    1  0.2406360E-008  0.1237694E+04  0.7818608E-02  0.9080488E-01
          1   -1    0    0  501    0  0.00000000000E+00  0.00000000000E+00  0.14018549543E+04  0.14018549543E+04  0.00000000000E+00 0. -1.
         -1   -1    0    0    0  501 -0.00000000000E+00 -0.00000000000E+00 -0.27318926168E+03  0.27318926168E+03  0.00000000000E+00 0.  1.
         23    2    1    2    0    0 -0.19154986880E+03 -0.17433913249E+02 -0.11920148653E+02  0.21341636950E+03  0.91701489956E+02 0.  0.
        254    2    1    2    0    0  0.19154986880E+03  0.17433913249E+02  0.11405858413E+04  0.14616278465E+04  0.89354608540E+03 0.  0.
        -24    2    4    4    0    0 -0.21094135086E+03  0.23187052882E+03  0.12580127252E+03  0.34710725347E+03  0.79983058264E+02 0.  0.
         24    2    4    4    0    0  0.40249121966E+03 -0.21443661557E+03  0.10147845688E+04  0.11145205930E+04  0.66228296521E+02 0.  0.
         13    1    3    3    0    0 -0.94099240862E+02  0.30563939221E+02  0.18399327645E+02  0.10063476919E+03  0.00000000000E+00 0.  1.
        -13    1    3    3    0    0 -0.97450627937E+02 -0.47997852470E+02 -0.30319476298E+02  0.11278160032E+03  0.00000000000E+00 0. -1.
          2    1    6    6  502    0  0.25606279641E+03 -0.15383330816E+03  0.59398304113E+03  0.66486742705E+03  0.00000000000E+00 0. -1.
          1    1    5    5  503    0 -0.53273168448E+02  0.10474725096E+03  0.70969605837E+02  0.13728329109E+03  0.00000000000E+00 0. -1.
         -2    1    5    5    0  503 -0.15766818241E+03  0.12712327786E+03  0.54831666683E+02  0.20982396238E+03  0.00000000000E+00 0.  1.
         -1    1    6    6    0  502  0.14642842325E+03 -0.60603307409E+02  0.42080152762E+03  0.44965316596E+03  0.00000000000E+00 0.  1.
<mgrwt>
<rscale>  0 0.12376942E+04</rscale>
<asrwt>0</asrwt>
<pdfrwt beam="1">  1        1 0.21566999E+00 0.12376942E+04</pdfrwt>
<pdfrwt beam="2">  1       -1 0.42029118E-01 0.12376942E+04</pdfrwt>
<totfact> 0.42028374E+01</totfact>
</mgrwt>
</event>
<event>
12    1  0.2406360E-008  0.2837400E+04  0.7818608E-02  0.8291750E-01
          2   -1    0    0  501    0  0.00000000000E+00  0.00000000000E+00  0.31294911843E+04  0.31294911843E+04  0.00000000000E+00 0.  1.
         -2   -1    0    0    0  501 -0.00000000000E+00 -0.00000000000E+00 -0.64314261949E+03  0.64314261949E+03  0.00000000000E+00 0. -1.
         23    2    1    2    0    0 -0.12440163055E+04 -0.19578071259E+03  0.12693476870E+04  0.17903833432E+04  0.91226692239E+02 0.  0.
        254    2    1    2    0    0  0.12440163055E+04  0.19578071259E+03  0.12170008778E+04  0.19822504606E+04  0.92861138062E+03 0.  0.
        -24    2    4    4    0    0  0.18969024818E+03  0.42942314975E+03  0.30524863266E+03  0.56541633853E+03  0.78308852235E+02 0.  0.
         24    2    4    4    0    0  0.10543260573E+04 -0.23364243716E+03  0.91175224515E+03  0.14168341221E+04  0.99672209697E+02 0.  0.
         11    1    3    3    0    0 -0.13639172627E+03 -0.32274598346E+02  0.10556140746E+03  0.17546385223E+03  0.00000000000E+00 0. -1.
        -11    1    3    3    0    0 -0.11076245792E+04 -0.16350611424E+03  0.11637862795E+04  0.16149194909E+04  0.00000000000E+00 0.  1.
          2    1    6    6  502    0  0.28617938191E+03 -0.82513648148E+02  0.19981549802E+03  0.35865495119E+03  0.00000000000E+00 0. -1.
          3    1    5    5  503    0  0.21901886522E+02  0.23793663696E+02  0.43960044888E+02  0.54573955435E+02  0.00000000000E+00 0. -1.
         -4    1    5    5    0  503  0.16778836166E+03  0.40562948605E+03  0.26128858777E+03  0.51084238309E+03  0.00000000000E+00 0.  1.
         -1    1    6    6    0  502  0.76814667537E+03 -0.15112878901E+03  0.71193674713E+03  0.10581791709E+04  0.00000000000E+00 0.  1.
<mgrwt>
<rscale>  0 0.28373996E+04</rscale>
<asrwt>0</asrwt>
<pdfrwt beam="1">  1        2 0.48146017E+00 0.28373996E+04</pdfrwt>
<pdfrwt beam="2">  1       -2 0.98945020E-01 0.28373996E+04</pdfrwt>
<totfact> 0.10580970E+00</totfact>
</mgrwt>
</event>
<event>
12    1  0.2406360E-008  0.1704365E+04  0.7818608E-02  0.8758879E-01
         -2   -1    0    0    0  501 -0.00000000000E+00  0.00000000000E+00  0.16509127179E+04  0.16509127179E+04  0.00000000000E+00 0. -1.
          2   -1    0    0  501    0  0.00000000000E+00 -0.00000000000E+00 -0.43988681622E+03  0.43988681622E+03  0.00000000000E+00 0.  1.
         23    2    1    2    0    0 -0.19024525158E+03  0.11730062007E+03 -0.25621684253E+03  0.35207134454E+03  0.91402790078E+02 0.  0.
        254    2    1    2    0    0  0.19024525158E+03 -0.11730062007E+03  0.14672427442E+04  0.17387281896E+04  0.90577135946E+03 0.  0.
        -24    2    4    4    0    0  0.33897916716E+03  0.30901671861E+03  0.87352335295E+03  0.98985630801E+03  0.79838926604E+02 0.  0.
         24    2    4    4    0    0 -0.14873391557E+03 -0.42631733868E+03  0.59371939126E+03  0.74887188159E+03  0.66619280763E+02 0.  0.
         11    1    3    3    0    0 -0.19101593750E+03  0.11775169141E+03 -0.21475484107E+03  0.31059972790E+03  0.00000000000E+00 0.  1.
        -11    1    3    3    0    0  0.77068591663E+00 -0.45107134095E+00 -0.41462001451E+02  0.41471616637E+02  0.00000000000E+00 0. -1.
          4    1    6    6  502    0 -0.77134264409E+02 -0.19075058992E+03  0.21889437431E+03  0.30041675953E+03  0.00000000000E+00 0. -1.
          1    1    5    5  503    0  0.34187762774E+03  0.29848595287E+03  0.86058764394E+03  0.97292613764E+03  0.00000000000E+00 0. -1.
         -2    1    5    5    0  503 -0.28984605861E+01  0.10530765739E+02  0.12935709018E+02  0.16930170366E+02  0.00000000000E+00 0.  1.
         -3    1    6    6    0  502 -0.71599651165E+02 -0.23556674876E+03  0.37482501695E+03  0.44845512206E+03  0.00000000000E+00 0.  1.
<mgrwt>
<rscale>  0 0.17043647E+04</rscale>
<asrwt>0</asrwt>
<pdfrwt beam="1">  1        2 0.67674896E-01 0.17043647E+04</pdfrwt>
<pdfrwt beam="2">  1       -2 0.25398657E+00 0.17043647E+04</pdfrwt>
<totfact> 0.41247106E+00</totfact>
</mgrwt>
</event>
<event>
12    1  0.2406360E-008  0.2119836E+04  0.7818608E-02  0.8552556E-01
          2   -1    0    0  501    0  0.00000000000E+00  0.00000000000E+00  0.27286705798E+04  0.27286705798E+04  0.00000000000E+00 0. -1.
         -2   -1    0    0    0  501 -0.00000000000E+00 -0.00000000000E+00 -0.41171172513E+03  0.41171172513E+03  0.00000000000E+00 0.  1.
         23    2    1    2    0    0 -0.48146378228E+03 -0.53439783752E+03  0.22367374277E+03  0.75841438724E+03  0.88170387235E+02 0.  0.
        254    2    1    2    0    0  0.48146378228E+03  0.53439783752E+03  0.20932851119E+04  0.23819679177E+04  0.88007964343E+03 0.  0.
        -24    2    4    4    0    0  0.27645095250E+02  0.57636556807E+03  0.16215923095E+04  0.17230028060E+04  0.78838644922E+02 0.  0.
         24    2    4    4    0    0  0.45381868703E+03 -0.41967730554E+02  0.47169280239E+03  0.65896511166E+03  0.63468318550E+02 0.  0.
         11    1    3    3    0    0 -0.29584599147E+03 -0.30478920636E+03  0.17397466611E+03  0.45900816488E+03  0.00000000000E+00 0. -1.
        -11    1    3    3    0    0 -0.18561779081E+03 -0.22960863116E+03  0.49699076658E+02  0.29940622236E+03  0.00000000000E+00 0.  1.
          4    1    6    6  502    0  0.13794996488E+03 -0.22979041844E+02  0.10675426278E+03  0.17593948334E+03  0.00000000000E+00 0. -1.
          1    1    5    5  503    0 -0.15339742518E+01  0.48403758565E+03  0.13019983641E+04  0.13890624455E+04  0.00000000000E+00 0. -1.
         -2    1    5    5    0  503  0.29179069501E+02  0.92327982419E+02  0.31959394542E+03  0.33394036052E+03  0.00000000000E+00 0.  1.
         -3    1    6    6    0  502  0.31586872215E+03 -0.18988688710E+02  0.36493853960E+03  0.48302562832E+03  0.00000000000E+00 0.  1.
<mgrwt>
<rscale>  0 0.21198355E+04</rscale>
<asrwt>0</asrwt>
<pdfrwt beam="1">  1        2 0.41979546E+00 0.21198355E+04</pdfrwt>
<pdfrwt beam="2">  1       -2 0.63340267E-01 0.21198355E+04</pdfrwt>
<totfact> 0.54245676E+00</totfact>
</mgrwt>
</event>
<event>
11    1  0.2406360E-008  0.1546370E+04  0.7818608E-02  0.8854190E-01
          2   -1    0    0  501    0  0.00000000000E+00  0.00000000000E+00  0.28719404920E+03  0.28719404920E+03  0.00000000000E+00 0. -1.
         -2   -1    0    0    0  501 -0.00000000000E+00 -0.00000000000E+00 -0.20815723160E+04  0.20815723160E+04  0.00000000000E+00 0.  1.
         23    2    1    2    0    0  0.20667791663E+03 -0.30056946869E+03 -0.17388172423E+02  0.37789568660E+03  0.97185568282E+02 0.  0.
        254    2    1    2    0    0 -0.20667791663E+03  0.30056946869E+03 -0.17769900944E+04  0.19908706786E+04  0.82025270293E+03 0.  0.
        -24    2    4    4    0    0 -0.91796556377E+02 -0.64808969972E+02 -0.12233994436E+04  0.12312845949E+04  0.82028926213E+02 0.  0.
         11    1    3    3    0    0  0.29609426984E+02 -0.93706282011E+01 -0.20250597068E+02  0.37075780784E+02  0.00000000000E+00 0.  1.
        -11    1    3    3    0    0  0.17706848965E+03 -0.29119884049E+03  0.28624246443E+01  0.34081990582E+03  0.00000000000E+00 0. -1.
          2    1    4    4  502    0 -0.92669399493E+02 -0.39237658859E+02 -0.19068978946E+03  0.21561495143E+03  0.00000000000E+00 0. -1.
          1    1    5    5  503    0  0.96859455605E+01 -0.32978004963E+01 -0.31508016595E+03  0.31524625930E+03  0.00000000000E+00 0. -1.
         -4    1    5    5    0  503 -0.10148250194E+03 -0.61511169476E+02 -0.90831927766E+03  0.91603833563E+03  0.00000000000E+00 0.  1.
         -1    1    4    4    0  502 -0.22211960763E+02  0.40461609752E+03 -0.36290086129E+03  0.54397113223E+03  0.00000000000E+00 0.  1.
<mgrwt>
<rscale>  0 0.15463702E+04</rscale>
<asrwt>0</asrwt>
<pdfrwt beam="1">  1        2 0.44183699E-01 0.15463702E+04</pdfrwt>
<pdfrwt beam="2">  1       -2 0.32024190E+00 0.15463702E+04</pdfrwt>
<totfact> 0.26605570E+00</totfact>
</mgrwt>
</event>
<event>
12    1  0.2406360E-008  0.2105564E+04  0.7818608E-02  0.8558796E-01
         -2   -1    0    0    0  501 -0.00000000000E+00  0.00000000000E+00  0.83916070386E+03  0.83916070386E+03  0.00000000000E+00 0.  1.
          2   -1    0    0  501    0  0.00000000000E+00 -0.00000000000E+00 -0.13207844427E+04  0.13207844427E+04  0.00000000000E+00 0. -1.
         23    2    1    2    0    0  0.13095004516E+03  0.68384188036E+03 -0.71321902540E+03  0.10005765255E+04  0.87660558102E+02 0.  0.
        254    2    1    2    0    0 -0.13095004516E+03 -0.68384188036E+03  0.23159528660E+03  0.11593686211E+04  0.89761438883E+03 0.  0.
        -24    2    4    4    0    0  0.23496656530E+03 -0.48048335381E+03 -0.17778528669E+03  0.57005729769E+03  0.85347374832E+02 0.  0.
         24    2    4    4    0    0 -0.36591661046E+03 -0.20335852655E+03  0.40938057329E+03  0.58931132336E+03  0.66676277070E+02 0.  0.
         11    1    3    3    0    0  0.74870393036E+02  0.26132195567E+03 -0.22850404453E+03  0.35511806295E+03  0.00000000000E+00 0. -1.
        -11    1    3    3    0    0  0.56079652128E+02  0.42251992469E+03 -0.48471498087E+03  0.64545846251E+03  0.00000000000E+00 0.  1.
          4    1    6    6  502    0 -0.40543787381E+02 -0.48133644169E+02  0.51298811854E+02  0.81192453429E+02  0.00000000000E+00 0. -1.
          1    1    5    5  503    0  0.16787801352E+02 -0.97292368648E+02 -0.14224772472E+02  0.99749583574E+02  0.00000000000E+00 0. -1.
         -2    1    5    5    0  503  0.21817876394E+03 -0.38319098516E+03 -0.16356051422E+03  0.47030771412E+03  0.00000000000E+00 0.  1.
         -3    1    6    6    0  502 -0.32537282308E+03 -0.15522488238E+03  0.35808176144E+03  0.50811886993E+03  0.00000000000E+00 0.  1.
<mgrwt>
<rscale>  0 0.21055644E+04</rscale>
<asrwt>0</asrwt>
<pdfrwt beam="1">  1        2 0.20319761E+00 0.21055644E+04</pdfrwt>
<pdfrwt beam="2">  1       -2 0.12910165E+00 0.21055644E+04</pdfrwt>
<totfact> 0.65466002E+00</totfact>
</mgrwt>
</event>
<event>
11    1  0.2406360E-008  0.2656873E+04  0.7818608E-02  0.8349135E-01
         -2   -1    0    0    0  501 -0.00000000000E+00  0.00000000000E+00  0.45610586307E+03  0.45610586307E+03  0.00000000000E+00 0.  1.
          2   -1    0    0  501    0  0.00000000000E+00 -0.00000000000E+00 -0.38691544272E+04  0.38691544272E+04  0.00000000000E+00 0. -1.
         23    2    1    2    0    0 -0.56401110400E+03 -0.59522550207E+02 -0.31840699930E+04  0.32354692637E+04  0.91149199747E+02 0.  0.
        254    2    1    2    0    0  0.56401110400E+03  0.59522550207E+02 -0.22897857117E+03  0.10897910266E+04  0.90197662730E+03 0.  0.
        -24    2    4    4    0    0  0.41527011829E+03 -0.18117147108E+03 -0.33201482848E+03  0.56752110186E+03  0.81080094042E+02 0.  0.
         13    1    3    3    0    0 -0.44697740113E+03 -0.32051228299E+02 -0.22984676874E+04  0.23417450306E+04  0.00000000000E+00 0.  1.
        -13    1    3    3    0    0 -0.11703370288E+03 -0.27471321908E+02 -0.88560230556E+03  0.89372423306E+03  0.00000000000E+00 0. -1.
          4    1    4    4  502    0 -0.25716985569E+01  0.32351073469E+03  0.12811117277E+03  0.34796304643E+03  0.00000000000E+00 0. -1.
          3    1    5    5  503    0  0.32138059609E+03 -0.16283013456E+03 -0.29231081720E+03  0.46394477485E+03  0.00000000000E+00 0. -1.
         -4    1    5    5    0  503  0.93889522200E+02 -0.18341336520E+02 -0.39704011279E+02  0.10357632701E+03  0.00000000000E+00 0.  1.
         -3    1    4    4    0  502  0.15131268427E+03 -0.82816713408E+02 -0.25074915465E+02  0.17430687831E+03  0.00000000000E+00 0.  1.
<mgrwt>
<rscale>  0 0.26568734E+04</rscale>
<asrwt>0</asrwt>
<pdfrwt beam="1">  1        2 0.59525457E+00 0.26568734E+04</pdfrwt>
<pdfrwt beam="2">  1       -2 0.70170128E-01 0.26568734E+04</pdfrwt>
<totfact> 0.70835946E-01</totfact>
</mgrwt>
</event>
<event>
12    1  0.2406360E-008  0.3130479E+04  0.7818608E-02  0.8207423E-01
          2   -1    0    0  501    0  0.00000000000E+00  0.00000000000E+00  0.25421596734E+04  0.25421596734E+04  0.00000000000E+00 0. -1.
         -2   -1    0    0    0  501 -0.00000000000E+00 -0.00000000000E+00 -0.96373761046E+03  0.96373761046E+03  0.00000000000E+00 0.  1.
         23    2    1    2    0    0  0.56513836816E+02 -0.13428467132E+04  0.12864326344E+04  0.18626642363E+04  0.90432435377E+02 0.  0.
        254    2    1    2    0    0 -0.56513836816E+02  0.13428467132E+04  0.29198942853E+03  0.16432330476E+04  0.89918068997E+03 0.  0.
        -24    2    4    4    0    0 -0.34678825256E+02  0.63128654472E+03  0.58698308321E+03  0.86605442527E+03  0.75998717711E+02 0.  0.
         24    2    4    4    0    0 -0.21835011560E+02  0.71156016851E+03 -0.29499365468E+03  0.77717862229E+03  0.10094906387E+03 0.  0.
         11    1    3    3    0    0  0.24848354850E+02 -0.83342867281E+03  0.85633287548E+03  0.11952099343E+04  0.00000000000E+00 0.  1.
        -11    1    3    3    0    0  0.31665481966E+02 -0.50941804042E+03  0.43009975897E+03  0.66745430204E+03  0.00000000000E+00 0. -1.
          2    1    6    6  502    0  0.39385291266E+02  0.36201102292E+03 -0.14941545123E+03  0.39360914490E+03  0.00000000000E+00 0. -1.
          1    1    5    5  503    0 -0.39290833725E+02  0.14876634259E+03  0.15490943943E+03  0.21833948045E+03  0.00000000000E+00 0. -1.
         -2    1    5    5    0  503  0.46120084695E+01  0.48252020213E+03  0.43207364378E+03  0.64771494481E+03  0.00000000000E+00 0.  1.
         -1    1    6    6    0  502 -0.61220302826E+02  0.34954914560E+03 -0.14557820345E+03  0.38356947739E+03  0.00000000000E+00 0.  1.
<mgrwt>
<rscale>  0 0.31304791E+04</rscale>
<asrwt>0</asrwt>
<pdfrwt beam="1">  1        2 0.39110149E+00 0.31304791E+04</pdfrwt>
<pdfrwt beam="2">  1       -2 0.14826733E+00 0.31304791E+04</pdfrwt>
<totfact> 0.86071078E-01</totfact>
</mgrwt>
</event>
<event>
11    1  0.2406360E-008  0.1407918E+04  0.7818608E-02  0.8948107E-01
         -2   -1    0    0    0  501 -0.00000000000E+00  0.00000000000E+00  0.28490791212E+03  0.28490791212E+03  0.00000000000E+00 0.  1.
          2   -1    0    0  501    0  0.00000000000E+00 -0.00000000000E+00 -0.17393633901E+04  0.17393633901E+04  0.00000000000E+00 0. -1.
         23    2    1    2    0    0  0.34718183099E+03 -0.20528554573E+03 -0.33045025794E+03  0.52960510405E+03  0.92772917431E+02 0.  0.
        254    2    1    2    0    0 -0.34718183099E+03  0.20528554573E+03 -0.11240052200E+04  0.14946661981E+04  0.89886702586E+03 0.  0.
        -24    2    4    4    0    0  0.99569565697E+02 -0.25824558025E+02 -0.90338379970E+03  0.91318165736E+03  0.84955538835E+02 0.  0.
         11    1    3    3    0    0  0.17351600847E+03 -0.80346692484E+02 -0.10238188483E+03  0.21689962316E+03  0.00000000000E+00 0. -1.
        -11    1    3    3    0    0  0.17366582253E+03 -0.12493885325E+03 -0.22806837312E+03  0.31270548089E+03  0.00000000000E+00 0.  1.
          4    1    4    4  502    0 -0.84388169085E+02  0.47557895465E+01  0.25662836216E+02  0.88332110686E+02  0.00000000000E+00 0. -1.
          1    1    5    5  503    0  0.37036689867E+02  0.26355598672E+02 -0.20013117908E+03  0.20522870856E+03  0.00000000000E+00 0. -1.
         -4    1    5    5    0  503  0.62532875829E+02 -0.52180156697E+02 -0.70325262062E+03  0.70795294880E+03  0.00000000000E+00 0.  1.
         -3    1    4    4    0  502 -0.36236322760E+03  0.22635431421E+03 -0.24628425652E+03  0.49315243008E+03  0.00000000000E+00 0.  1.
<mgrwt>
<rscale>  0 0.14079182E+04</rscale>
<asrwt>0</asrwt>
<pdfrwt beam="1">  1        2 0.26759436E+00 0.14079182E+04</pdfrwt>
<pdfrwt beam="2">  1       -2 0.43831987E-01 0.14079182E+04</pdfrwt>
<totfact> 0.44767862E+01</totfact>
</mgrwt>
</event>
<event>
11    1  0.2406360E-008  0.2305179E+04  0.7818608E-02  0.8475882E-01
          1   -1    0    0  501    0  0.00000000000E+00  0.00000000000E+00  0.11053005853E+04  0.11053005853E+04  0.00000000000E+00 0. -1.
         -1   -1    0    0    0  501 -0.00000000000E+00 -0.00000000000E+00 -0.12019019508E+04  0.12019019508E+04  0.00000000000E+00 0.  1.
         23    2    1    2    0    0 -0.67079720440E+03  0.48811338730E+03  0.47065906185E+03  0.95824459981E+03  0.92136812744E+02 0.  0.
        254    2    1    2    0    0  0.67079720440E+03 -0.48811338730E+03 -0.56726042728E+03  0.13489579363E+04  0.89982195637E+03 0.  0.
        -24    2    4    4    0    0 -0.74240187901E+02  0.10280320546E+03  0.99992437857E+02  0.17944292117E+03  0.78237904992E+02 0.  0.
         13    1    3    3    0    0 -0.43714905716E+03  0.34166026144E+03  0.35840156683E+03  0.66051700624E+03  0.00000000000E+00 0. -1.
        -13    1    3    3    0    0 -0.23364814725E+03  0.14645312586E+03  0.11225749502E+03  0.29772759357E+03  0.00000000000E+00 0.  1.
          2    1    4    4  502    0  0.72415873307E+03 -0.59637318811E+03 -0.64463308449E+03  0.11382524605E+04  0.00000000000E+00 0. -1.
          1    1    5    5  503    0 -0.77566551233E+02  0.97044928340E+02  0.11098907868E+03  0.16659190729E+03  0.00000000000E+00 0. -1.
         -2    1    5    5    0  503  0.33263633323E+01  0.57582771240E+01 -0.10996640826E+02  0.12851013886E+02  0.00000000000E+00 0.  1.
         -1    1    4    4    0  502  0.20878659240E+02  0.54565953483E+01 -0.22619780647E+02  0.31262554613E+02  0.00000000000E+00 0.  1.
<mgrwt>
<rscale>  0 0.23051793E+04</rscale>
<asrwt>0</asrwt>
<pdfrwt beam="1">  1        1 0.17004624E+00 0.23051793E+04</pdfrwt>
<pdfrwt beam="2">  1       -1 0.18490799E+00 0.23051793E+04</pdfrwt>
<totfact> 0.21788450E+00</totfact>
</mgrwt>
</event>
<event>
11    1  0.2406360E-008  0.2241062E+04  0.7818608E-02  0.8501529E-01
          2   -1    0    0  501    0  0.00000000000E+00  0.00000000000E+00  0.86350904555E+03  0.86350904555E+03  0.00000000000E+00 0. -1.
         -2   -1    0    0    0  501 -0.00000000000E+00 -0.00000000000E+00 -0.14540549164E+04  0.14540549164E+04  0.00000000000E+00 0.  1.
         23    2    1    2    0    0 -0.71858099923E+03 -0.42212320380E+03 -0.66336949222E+03  0.10695639173E+04  0.96753492928E+02 0.  0.
        254    2    1    2    0    0  0.71858099923E+03  0.42212320380E+03  0.72823621374E+02  0.12480000446E+04  0.92609620446E+03 0.  0.
        -24    2    4    4    0    0 -0.13772336314E+03  0.14466356071E+03  0.23929444125E+03  0.32172097824E+03  0.79669866799E+02 0.  0.
         13    1    3    3    0    0 -0.45324112243E+03 -0.25108719056E+03 -0.46870956067E+03  0.69868515412E+03  0.00000000000E+00 0. -1.
        -13    1    3    3    0    0 -0.26533987681E+03 -0.17103601323E+03 -0.19465993155E+03  0.37087876321E+03  0.00000000000E+00 0.  1.
          2    1    4    4  502    0  0.75448173238E+03  0.26234147509E+03 -0.10314646294E+03  0.80542220411E+03  0.00000000000E+00 0. -1.
          3    1    5    5  503    0 -0.10168177401E+03  0.96559418870E+02  0.10691480140E+03  0.17633399926E+03  0.00000000000E+00 0. -1.
         -4    1    5    5    0  503 -0.36041589128E+02  0.48104141837E+02  0.13237963985E+03  0.14538697897E+03  0.00000000000E+00 0.  1.
         -1    1    4    4    0  502  0.10182262998E+03  0.15118167994E+02 -0.63324356929E+02  0.12085686228E+03  0.00000000000E+00 0.  1.
<mgrwt>
<rscale>  0 0.22410619E+04</rscale>
<asrwt>0</asrwt>
<pdfrwt beam="1">  1        2 0.13284755E+00 0.22410619E+04</pdfrwt>
<pdfrwt beam="2">  1       -2 0.22370075E+00 0.22410619E+04</pdfrwt>
<totfact> 0.26489445E+00</totfact>
</mgrwt>
</event>
<event>
12    1  0.2406360E-008  0.1239744E+04  0.7818608E-02  0.9078763E-01
          2   -1    0    0  501    0  0.00000000000E+00  0.00000000000E+00  0.94780120326E+03  0.94780120326E+03  0.00000000000E+00 0. -1.
         -2   -1    0    0    0  501 -0.00000000000E+00 -0.00000000000E+00 -0.40540289317E+03  0.40540289317E+03  0.00000000000E+00 0.  1.
         23    2    1    2    0    0  0.95732693801E+02  0.25664607035E+03  0.20001096706E+03  0.34974352804E+03  0.85347491867E+02 0.  0.
        254    2    1    2    0    0 -0.95732693801E+02 -0.25664607035E+03  0.34238734302E+03  0.10034605684E+04  0.90259185991E+03 0.  0.
        -24    2    4    4    0    0  0.22784588853E+03 -0.45742426706E+03  0.31667912383E+03  0.60690035138E+03  0.83016022654E+02 0.  0.
         24    2    4    4    0    0 -0.32357858234E+03  0.20077819671E+03  0.25708219191E+02  0.39656021702E+03  0.10762950323E+03 0.  0.
         11    1    3    3    0    0  0.11085121965E+03  0.22840039059E+03  0.16785413000E+03  0.30435134348E+03  0.00000000000E+00 0.  1.
        -11    1    3    3    0    0 -0.15118525847E+02  0.28245679764E+02  0.32156837064E+02  0.45392184560E+02  0.00000000000E+00 0. -1.
          2    1    6    6  502    0 -0.27003373001E+02  0.53795283045E+02 -0.17664779850E+02  0.62730846307E+02  0.00000000000E+00 0. -1.
          3    1    5    5  503    0 -0.31812817369E+01 -0.42171334662E+02  0.31111899307E+02  0.52502307560E+02  0.00000000000E+00 0. -1.
         -4    1    5    5    0  503  0.23102717027E+03 -0.41525293240E+03  0.28556722452E+03  0.55439804382E+03  0.00000000000E+00 0.  1.
         -1    1    6    6    0  502 -0.29657520934E+03  0.14698291366E+03  0.43372999040E+02  0.33382937071E+03  0.00000000000E+00 0.  1.
<mgrwt>
<rscale>  0 0.12397441E+04</rscale>
<asrwt>0</asrwt>
<pdfrwt beam="1">  1        2 0.14581557E+00 0.12397441E+04</pdfrwt>
<pdfrwt beam="2">  1       -2 0.62369676E-01 0.12397441E+04</pdfrwt>
<totfact> 0.63961045E+01</totfact>
</mgrwt>
</event>
<event>
11    1  0.2406360E-008  0.1385897E+04  0.7818608E-02  0.8964090E-01
          1   -1    0    0  501    0  0.00000000000E+00  0.00000000000E+00  0.24564388990E+03  0.24564388990E+03  0.00000000000E+00 0. -1.
         -1   -1    0    0    0  501 -0.00000000000E+00 -0.00000000000E+00 -0.19547724499E+04  0.19547724499E+04  0.00000000000E+00 0.  1.
         23    2    1    2    0    0  0.31917513894E+03 -0.18884004171E+02 -0.95189414061E+03  0.10079569191E+04  0.87437525350E+02 0.  0.
        254    2    1    2    0    0 -0.31917513894E+03  0.18884004171E+02 -0.75723441937E+03  0.11924594207E+04  0.86390168958E+03 0.  0.
        -24    2    4    4    0    0 -0.16781037801E+03 -0.23250339247E+03 -0.82911966243E+02  0.30841431757E+03  0.77632767924E+02 0.  0.
         11    1    3    3    0    0  0.12269366518E+03 -0.43787581471E+02 -0.31173115797E+03  0.33785707424E+03  0.00000000000E+00 0. -1.
        -11    1    3    3    0    0  0.19648147376E+03  0.24903577300E+02 -0.64016298264E+03  0.67009984483E+03  0.00000000000E+00 0.  1.
          2    1    4    4  502    0  0.11380547331E+03 -0.74056481294E+02 -0.83950112788E+02  0.15963605362E+03  0.00000000000E+00 0. -1.
          3    1    5    5  503    0 -0.34165813890E+02 -0.99119671650E+01  0.91685080437E+00  0.35586381486E+02  0.00000000000E+00 0. -1.
         -4    1    5    5    0  503 -0.13364456412E+03 -0.22259142531E+03 -0.83828817047E+02  0.27282793608E+03  0.00000000000E+00 0.  1.
         -1    1    4    4    0  502 -0.26517023424E+03  0.32544387794E+03 -0.59037234034E+03  0.72440904954E+03  0.00000000000E+00 0.  1.
<mgrwt>
<rscale>  0 0.13858974E+04</rscale>
<asrwt>0</asrwt>
<pdfrwt beam="1">  1        1 0.37791369E-01 0.13858974E+04</pdfrwt>
<pdfrwt beam="2">  1       -1 0.30073421E+00 0.13858974E+04</pdfrwt>
<totfact> 0.36415304E+00</totfact>
</mgrwt>
</event>
<event>
12    1  0.2406360E-008  0.1422386E+04  0.7818608E-02  0.8937772E-01
         -2   -1    0    0    0  501 -0.00000000000E+00  0.00000000000E+00  0.58978414563E+03  0.58978414563E+03  0.00000000000E+00 0.  1.
          2   -1    0    0  501    0  0.00000000000E+00 -0.00000000000E+00 -0.85759393324E+03  0.85759393324E+03  0.00000000000E+00 0. -1.
         23    2    1    2    0    0 -0.14242064653E+03 -0.13494711207E+03 -0.46068676444E+03  0.50890437217E+03  0.90868044294E+02 0.  0.
        254    2    1    2    0    0  0.14242064653E+03  0.13494711207E+03  0.19287697683E+03  0.93847370669E+03  0.89723854483E+03 0.  0.
        -24    2    4    4    0    0  0.43046288338E+03 -0.12579982711E+03  0.27317308267E+03  0.53092198955E+03  0.78299012891E+02 0.  0.
         24    2    4    4    0    0 -0.28804223685E+03  0.26074693918E+03 -0.80296105845E+02  0.40755171714E+03  0.93239696616E+02 0.  0.
         13    1    3    3    0    0 -0.10975184957E+03 -0.65129338286E+02 -0.20165142164E+03  0.23864323799E+03  0.00000000000E+00 0. -1.
        -13    1    3    3    0    0 -0.32668796966E+02 -0.69817773785E+02 -0.25903534280E+03  0.27026113419E+03  0.00000000000E+00 0.  1.
          2    1    6    6  502    0  0.32436864099E+01  0.23139911939E+02 -0.84186178927E+01  0.24836468213E+02  0.00000000000E+00 0. -1.
          3    1    5    5  503    0  0.40758684421E+02 -0.30362944494E+02  0.52282184081E+02  0.72915056925E+02  0.00000000000E+00 0. -1.
         -4    1    5    5    0  503  0.38970419896E+03 -0.95436882615E+02  0.22089089859E+03  0.45800693263E+03  0.00000000000E+00 0.  1.
         -1    1    6    6    0  502 -0.29128592326E+03  0.23760702724E+03 -0.71877487952E+02  0.38271524892E+03  0.00000000000E+00 0.  1.
<mgrwt>
<rscale>  0 0.14223857E+04</rscale>
<asrwt>0</asrwt>
<pdfrwt beam="1">  1        2 0.13193753E+00 0.14223857E+04</pdfrwt>
<pdfrwt beam="2">  1       -2 0.90736022E-01 0.14223857E+04</pdfrwt>
<totfact> 0.31607667E+01</totfact>
</mgrwt>
</event>
<event>
12    1  0.2406360E-008  0.2408111E+04  0.7818608E-02  0.8436473E-01
         -1   -1    0    0    0  501 -0.00000000000E+00  0.00000000000E+00  0.19018246260E+04  0.19018246260E+04  0.00000000000E+00 0.  1.
          1   -1    0    0  501    0  0.00000000000E+00 -0.00000000000E+00 -0.76229425748E+03  0.76229425748E+03  0.00000000000E+00 0. -1.
         23    2    1    2    0    0  0.12287974641E+03 -0.10203811972E+04  0.39307848294E+03  0.11049166954E+04  0.10026460136E+03 0.  0.
        254    2    1    2    0    0 -0.12287974641E+03  0.10203811972E+04  0.74645188558E+03  0.15592021881E+04  0.90423659859E+03 0.  0.
        -24    2    4    4    0    0  0.27073003832E+03  0.90219120817E+03  0.59277975337E+03  0.11158501019E+04  0.80559816845E+02 0.  0.
         24    2    4    4    0    0 -0.39360978473E+03  0.11818998903E+03  0.15367213221E+03  0.44335208624E+03  0.63627132632E+02 0.  0.
         11    1    3    3    0    0  0.57714596904E+02 -0.37536835767E+03  0.95597468974E+02  0.39162642239E+03  0.00000000000E+00 0.  1.
        -11    1    3    3    0    0  0.65165149505E+02 -0.64501283953E+03  0.29748101396E+03  0.71329027298E+03  0.00000000000E+00 0. -1.
          4    1    6    6  502    0 -0.36911847467E+03  0.12600331406E+03  0.14677875469E+03  0.41673647108E+03  0.00000000000E+00 0. -1.
          3    1    5    5  503    0  0.23384948634E+03  0.84727103225E+03  0.54433089646E+03  0.10338519764E+04  0.00000000000E+00 0. -1.
         -4    1    5    5    0  503  0.36880551989E+02  0.54920175914E+02  0.48448856909E+02  0.81998125425E+02  0.00000000000E+00 0.  1.
         -3    1    6    6    0  502 -0.24491310060E+02 -0.78133250305E+01  0.68933775149E+01  0.26615615154E+02  0.00000000000E+00 0.  1.
<mgrwt>
<rscale>  0 0.24081113E+04</rscale>
<asrwt>0</asrwt>
<pdfrwt beam="1">  1        1 0.11727604E+00 0.24081113E+04</pdfrwt>
<pdfrwt beam="2">  1       -1 0.29258840E+00 0.24081113E+04</pdfrwt>
<totfact> 0.78877908E-01</totfact>
</mgrwt>
</event>
<event>
11    1  0.2406360E-008  0.1514773E+04  0.7818608E-02  0.8874688E-01
         -2   -1    0    0    0  501 -0.00000000000E+00  0.00000000000E+00  0.47801772598E+03  0.47801772598E+03  0.00000000000E+00 0.  1.
          2   -1    0    0  501    0  0.00000000000E+00 -0.00000000000E+00 -0.12000275430E+04  0.12000275430E+04  0.00000000000E+00 0. -1.
         23    2    1    2    0    0  0.21478938009E+03  0.41984204919E+03 -0.37450899075E+03  0.60959257418E+03  0.94574300235E+02 0.  0.
        254    2    1    2    0    0 -0.21478938009E+03 -0.41984204919E+03 -0.34750082629E+03  0.10684526948E+04  0.89355050934E+03 0.  0.
        -24    2    4    4    0    0  0.16304174962E+03 -0.54133832472E+03 -0.25610759070E+03  0.62577810674E+03  0.79858292768E+02 0.  0.
         11    1    3    3    0    0  0.57351894820E+02  0.16463308812E+03 -0.18831841885E+03  0.25662642191E+03  0.00000000000E+00 0. -1.
        -11    1    3    3    0    0  0.15743748527E+03  0.25520896107E+03 -0.18619057190E+03  0.35296615227E+03  0.00000000000E+00 0.  1.
          4    1    4    4  502    0 -0.16416763386E+03  0.13641488053E+03 -0.10441069681E+02  0.21370317633E+03  0.00000000000E+00 0. -1.
          3    1    5    5  503    0  0.22133057166E+02 -0.58140422193E+02 -0.57411309053E+02  0.84653643273E+02  0.00000000000E+00 0. -1.
         -4    1    5    5    0  503  0.14090869246E+03 -0.48319790253E+03 -0.19869628165E+03  0.54112446347E+03  0.00000000000E+00 0.  1.
         -3    1    4    4    0  502 -0.21366349586E+03 -0.14918605004E+02 -0.80952165905E+02  0.22897141176E+03  0.00000000000E+00 0.  1.
<mgrwt>
<rscale>  0 0.15147732E+04</rscale>
<asrwt>0</asrwt>
<pdfrwt beam="1">  1        2 0.18461962E+00 0.15147732E+04</pdfrwt>
<pdfrwt beam="2">  1       -2 0.73541189E-01 0.15147732E+04</pdfrwt>
<totfact> 0.30490043E+01</totfact>
</mgrwt>
</event>
<event>
12    1  0.2406360E-008  0.1631368E+04  0.7818608E-02  0.8801506E-01
         -2   -1    0    0    0  501 -0.00000000000E+00  0.00000000000E+00  0.60987545919E+03  0.60987545919E+03  0.00000000000E+00 0.  1.
          2   -1    0    0  501    0  0.00000000000E+00 -0.00000000000E+00 -0.10909444909E+04  0.10909444909E+04  0.00000000000E+00 0. -1.
         23    2    1    2    0    0 -0.19420137486E+03 -0.43448048995E+03 -0.43874832035E+03  0.65343813139E+03  0.89408236687E+02 0.  0.
        254    2    1    2    0    0  0.19420137486E+03  0.43448048995E+03 -0.42320711369E+02  0.10473818187E+04  0.93205695181E+03 0.  0.
        -24    2    4    4    0    0 -0.28775587792E+03  0.32034363624E+03 -0.25230204995E+03  0.50514621632E+03  0.78056933648E+02 0.  0.
         24    2    4    4    0    0  0.48195725278E+03  0.11413685371E+03  0.20998133858E+03  0.54223560240E+03  0.67950504564E+02 0.  0.
         13    1    3    3    0    0 -0.40771371073E+02 -0.83768504720E+02 -0.42230002501E+02  0.10228802566E+03  0.00000000000E+00 0. -1.
        -13    1    3    3    0    0 -0.15343000379E+03 -0.35071198523E+03 -0.39651831785E+03  0.55115010573E+03  0.00000000000E+00 0.  1.
          2    1    6    6  502    0  0.96925529241E+02  0.19716852890E+02  0.13664067474E+02  0.99849983707E+02  0.00000000000E+00 0. -1.
          3    1    5    5  503    0 -0.18587443680E+03  0.23451219189E+03 -0.13763853485E+03  0.32937765661E+03  0.00000000000E+00 0. -1.
         -4    1    5    5    0  503 -0.10188144112E+03  0.85831444354E+02 -0.11466351511E+03  0.17576855971E+03  0.00000000000E+00 0.  1.
         -1    1    6    6    0  502  0.38503172354E+03  0.94420000825E+02  0.19631727111E+03  0.44238561869E+03  0.00000000000E+00 0.  1.
<mgrwt>
<rscale>  0 0.16313679E+04</rscale>
<asrwt>0</asrwt>
<pdfrwt beam="1">  1        2 0.16783761E+00 0.16313679E+04</pdfrwt>
<pdfrwt beam="2">  1       -2 0.93826995E-01 0.16313679E+04</pdfrwt>
<totfact> 0.20259884E+01</totfact>
</mgrwt>
</event>
<event>
11    1  0.2406360E-008  0.1442137E+04  0.7818608E-02  0.8923870E-01
         -1   -1    0    0    0  501 -0.00000000000E+00  0.00000000000E+00  0.64973690865E+03  0.64973690865E+03  0.00000000000E+00 0.  1.
          1   -1    0    0  501    0  0.00000000000E+00 -0.00000000000E+00 -0.80023092258E+03  0.80023092258E+03  0.00000000000E+00 0. -1.
         23    2    1    2    0    0  0.32105216600E+03  0.90902887989E+02 -0.31602679460E+03  0.47230370276E+03  0.10890373911E+03 0.  0.
        254    2    1    2    0    0 -0.32105216600E+03 -0.90902887989E+02  0.16553278068E+03  0.97766412847E+03  0.90392932151E+03 0.  0.
        -24    2    4    4    0    0 -0.11007600262E+03 -0.69640706274E+02  0.50069673830E+03  0.52372083901E+03  0.81361779426E+02 0.  0.
         13    1    3    3    0    0  0.16459738044E+03  0.45669490249E+02 -0.88174941611E+02  0.19223116375E+03  0.00000000000E+00 0.  1.
        -13    1    3    3    0    0  0.15645478556E+03  0.45233397740E+02 -0.22785185299E+03  0.28007253901E+03  0.00000000000E+00 0. -1.
          2    1    4    4  502    0 -0.61461382240E+02  0.32512116305E+02  0.13456626278E+02  0.70821042101E+02  0.00000000000E+00 0. -1.
          1    1    5    5  503    0 -0.88525581875E+02 -0.87322280205E+01  0.29359012157E+03  0.30677058193E+03  0.00000000000E+00 0. -1.
         -2    1    5    5    0  503 -0.21550420750E+02 -0.60908478253E+02  0.20710661673E+03  0.21695025709E+03  0.00000000000E+00 0.  1.
         -3    1    4    4    0  502 -0.14951478113E+03 -0.53774298020E+02 -0.34862058390E+03  0.38312224736E+03  0.00000000000E+00 0.  1.
<mgrwt>
<rscale>  0 0.14421367E+04</rscale>
<asrwt>0</asrwt>
<pdfrwt beam="1">  1        1 0.12311245E+00 0.14421367E+04</pdfrwt>
<pdfrwt beam="2">  1       -1 0.99959524E-01 0.14421367E+04</pdfrwt>
<totfact> 0.20497207E+01</totfact>
</mgrwt>
</event>
<event>
12    1  0.2406360E-008  0.3617350E+04  0.7818608E-02  0.8086529E-01
          2   -1    0    0  501    0  0.00000000000E+00  0.00000000000E+00  0.12008131868E+04  0.12008131868E+04  0.00000000000E+00 0. -1.
         -2   -1    0    0    0  501 -0.00000000000E+00 -0.00000000000E+00 -0.27242411144E+04  0.27242411144E+04  0.00000000000E+00 0.  1.
         23    2    1    2    0    0  0.11448536467E+04 -0.83937431713E+03 -0.17164829645E+04  0.22292530946E+04  0.89534772498E+02 0.  0.
        254    2    1    2    0    0 -0.11448536467E+04  0.83937431713E+03  0.19305503692E+03  0.16958012066E+04  0.90732153520E+03 0.  0.
        -24    2    4    4    0    0 -0.92077131428E+03  0.37894692385E+03 -0.22956313110E+03  0.10246179652E+04  0.75644954792E+02 0.  0.
         24    2    4    4    0    0 -0.22408233245E+03  0.46042739328E+03  0.42261816802E+03  0.67118324136E+03  0.98359297143E+02 0.  0.
         13    1    3    3    0    0  0.61551767833E+03 -0.50141068234E+03 -0.98728604189E+03  0.12668892664E+04  0.00000000000E+00 0.  1.
        -13    1    3    3    0    0  0.52933596841E+03 -0.33796363478E+03 -0.72919692262E+03  0.96236382821E+03  0.00000000000E+00 0. -1.
          4    1    6    6  502    0 -0.56772797020E+02  0.19873530372E+03  0.12821078519E+03  0.24322186757E+03  0.00000000000E+00 0. -1.
          1    1    5    5  503    0 -0.19019592577E+03  0.95301713583E+02 -0.76713412842E+02  0.22614564887E+03  0.00000000000E+00 0. -1.
         -4    1    5    5    0  503 -0.73057538851E+03  0.28364521026E+03 -0.15284971826E+03  0.79847231635E+03  0.00000000000E+00 0.  1.
         -3    1    6    6    0  502 -0.16730953543E+03  0.26169208956E+03  0.29440738283E+03  0.42796137379E+03  0.00000000000E+00 0.  1.
<mgrwt>
<rscale>  0 0.36173497E+04</rscale>
<asrwt>0</asrwt>
<pdfrwt beam="1">  1        2 0.18474049E+00 0.36173497E+04</pdfrwt>
<pdfrwt beam="2">  1       -2 0.41911402E+00 0.36173497E+04</pdfrwt>
<totfact> 0.85497947E-02</totfact>
</mgrwt>
</event>
<event>
11    1  0.2406360E-008  0.1878576E+04  0.7818608E-02  0.8665594E-01
          1   -1    0    0  501    0  0.00000000000E+00  0.00000000000E+00  0.17594505136E+04  0.17594505136E+04  0.00000000000E+00 0. -1.
         -1   -1    0    0    0  501 -0.00000000000E+00 -0.00000000000E+00 -0.50144195556E+03  0.50144195556E+03  0.00000000000E+00 0.  1.
         23    2    1    2    0    0  0.13667363564E+03 -0.63898358684E+03  0.12993856755E+03  0.67242451726E+03  0.91054890858E+02 0.  0.
        254    2    1    2    0    0 -0.13667363564E+03  0.63898358684E+03  0.11280699905E+04  0.15884679519E+04  0.90758405883E+03 0.  0.
        -24    2    4    4    0    0 -0.21705981285E+03  0.21045250916E+03  0.86453516305E+03  0.91946429071E+03  0.81168422275E+02 0.  0.
         13    1    3    3    0    0  0.91380277318E+01 -0.20476306103E+03  0.15118835626E+02  0.20552370643E+03  0.00000000000E+00 0. -1.
        -13    1    3    3    0    0  0.12753560791E+03 -0.43422052581E+03  0.11481973192E+03  0.46690081083E+03  0.00000000000E+00 0.  1.
          2    1    4    4  502    0 -0.17801852276E+03  0.14434842554E+03  0.12216352494E+03  0.25971328273E+03  0.00000000000E+00 0. -1.
          3    1    5    5  503    0 -0.14090007838E+02  0.60624113455E+01  0.12291829132E+03  0.12387165734E+03  0.00000000000E+00 0. -1.
         -4    1    5    5    0  503 -0.20296980501E+03  0.20439009782E+03  0.74161687173E+03  0.79559263337E+03  0.00000000000E+00 0.  1.
         -1    1    4    4    0  502  0.25840469996E+03  0.28418265213E+03  0.14137130251E+03  0.40929037847E+03  0.00000000000E+00 0.  1.
<mgrwt>
<rscale>  0 0.18785764E+04</rscale>
<asrwt>0</asrwt>
<pdfrwt beam="1">  1        1 0.27068469E+00 0.18785764E+04</pdfrwt>
<pdfrwt beam="2">  1       -1 0.77144917E-01 0.18785764E+04</pdfrwt>
<totfact> 0.68557930E+00</totfact>
</mgrwt>
</event>
<event>
11    1  0.2406360E-008  0.2537471E+04  0.7818608E-02  0.8389757E-01
         -1   -1    0    0    0  501 -0.00000000000E+00  0.00000000000E+00  0.14339446651E+04  0.14339446651E+04  0.00000000000E+00 0.  1.
          1   -1    0    0  501    0  0.00000000000E+00 -0.00000000000E+00 -0.11225602781E+04  0.11225602781E+04  0.00000000000E+00 0. -1.
         23    2    1    2    0    0  0.62564239324E+03  0.54213494281E+03  0.88385305659E+03  0.12142501935E+04  0.88705164614E+02 0.  0.
        254    2    1    2    0    0 -0.62564239324E+03 -0.54213494281E+03 -0.57246866955E+03  0.13422547498E+04  0.88802518845E+03 0.  0.
        -24    2    4    4    0    0 -0.73909929394E+03 -0.18743299190E+03 -0.55881626144E+03  0.94942239391E+03  0.87911178265E+02 0.  0.
         11    1    3    3    0    0  0.57560919791E+03  0.46187111009E+03  0.78476104188E+03  0.10772654101E+04  0.00000000000E+00 0.  1.
        -11    1    3    3    0    0  0.50033195331E+02  0.80263832723E+02  0.99092014709E+02  0.13698478331E+03  0.00000000000E+00 0. -1.
          4    1    4    4  502    0  0.25381134678E+02 -0.26424002959E+03  0.30651594663E+01  0.26547389784E+03  0.00000000000E+00 0. -1.
          3    1    5    5  503    0 -0.39681389697E+03 -0.65632987673E+02 -0.32799303915E+03  0.51898785306E+03  0.00000000000E+00 0. -1.
         -4    1    5    5    0  503 -0.34228539697E+03 -0.12180000422E+03 -0.23082322229E+03  0.43043454085E+03  0.00000000000E+00 0.  1.
         -3    1    4    4    0  502  0.88075766021E+02 -0.90461921332E+02 -0.16717567582E+02  0.12735845805E+03  0.00000000000E+00 0.  1.
<mgrwt>
<rscale>  0 0.25374706E+04</rscale>
<asrwt>0</asrwt>
<pdfrwt beam="1">  1        1 0.17270158E+00 0.25374706E+04</pdfrwt>
<pdfrwt beam="2">  1       -1 0.22060687E+00 0.25374706E+04</pdfrwt>
<totfact> 0.11771825E+00</totfact>
</mgrwt>
</event>
<event>
11    1  0.2406360E-008  0.2895162E+04  0.7818608E-02  0.8274319E-01
          1   -1    0    0  501    0  0.00000000000E+00  0.00000000000E+00  0.26798197309E+04  0.26798197309E+04  0.00000000000E+00 0. -1.
         -1   -1    0    0    0  501 -0.00000000000E+00 -0.00000000000E+00 -0.78195187580E+03  0.78195187580E+03  0.00000000000E+00 0.  1.
         23    2    1    2    0    0  0.88779206744E+03 -0.74146290817E+03  0.12973044907E+03  0.11674822896E+04  0.90790461917E+02 0.  0.
        254    2    1    2    0    0 -0.88779206744E+03  0.74146290817E+03  0.17681374060E+04  0.22942893170E+04  0.89415411680E+03 0.  0.
        -24    2    4    4    0    0  0.24413085534E+02  0.45503512138E+03  0.81905282462E+03  0.94039000380E+03  0.76373223580E+02 0.  0.
         11    1    3    3    0    0  0.63844052696E+03 -0.51005872526E+03  0.53865199202E+02  0.81894301961E+03  0.00000000000E+00 0.  1.
        -11    1    3    3    0    0  0.24935154048E+03 -0.23140418291E+03  0.75865249868E+02  0.34853927002E+03  0.00000000000E+00 0. -1.
          2    1    4    4  502    0 -0.17126363272E+03  0.77513272065E+02  0.12265459962E+03  0.22446311511E+03  0.00000000000E+00 0. -1.
          1    1    5    5  503    0  0.30690000044E+02  0.24712972693E+03  0.51432555838E+03  0.57144182384E+03  0.00000000000E+00 0. -1.
         -4    1    5    5    0  503 -0.62769145099E+01  0.20790539445E+03  0.30472726624E+03  0.36894817995E+03  0.00000000000E+00 0.  1.
         -1    1    4    4    0  502 -0.74094152026E+03  0.20891451472E+03  0.82642998175E+03  0.11294361981E+04  0.00000000000E+00 0.  1.
<mgrwt>
<rscale>  0 0.28951615E+04</rscale>
<asrwt>0</asrwt>
<pdfrwt beam="1">  1        1 0.41227995E+00 0.28951615E+04</pdfrwt>
<pdfrwt beam="2">  1       -1 0.12030029E+00 0.28951615E+04</pdfrwt>
<totfact> 0.53552378E-01</totfact>
</mgrwt>
</event>
<event>
11    1  0.2406360E-008  0.1278173E+04  0.7818608E-02  0.9047056E-01
         -1   -1    0    0    0  501 -0.00000000000E+00  0.00000000000E+00  0.12712519382E+03  0.12712519382E+03  0.00000000000E+00 0.  1.
          1   -1    0    0  501    0  0.00000000000E+00 -0.00000000000E+00 -0.32128292836E+04  0.32128292836E+04  0.00000000000E+00 0. -1.
         23    2    1    2    0    0 -0.11502188859E+03  0.10455598238E+03 -0.15323999646E+04  0.15429315368E+04  0.90697779349E+02 0.  0.
        254    2    1    2    0    0  0.11502188859E+03 -0.10455598238E+03 -0.15533041251E+04  0.17970229407E+04  0.89015490550E+03 0.  0.
        -24    2    4    4    0    0 -0.11867152998E+03 -0.26502606857E+03 -0.13384304270E+04  0.13719078569E+04  0.80083774879E+02 0.  0.
         11    1    3    3    0    0 -0.76899590006E+02  0.16087102539E+02 -0.51174971117E+03  0.51774521601E+03  0.00000000000E+00 0. -1.
        -11    1    3    3    0    0 -0.38122298588E+02  0.88468879844E+02 -0.10206502535E+04  0.10251863208E+04  0.00000000000E+00 0.  1.
          4    1    4    4  502    0  0.47587623065E+02 -0.32530054948E+02 -0.13272095456E+03  0.14469843857E+03  0.00000000000E+00 0. -1.
          1    1    5    5  503    0 -0.70068282976E+02 -0.66250120901E+02 -0.44991896483E+03  0.46013662940E+03  0.00000000000E+00 0. -1.
         -2    1    5    5    0  503 -0.48603246999E+02 -0.19877594767E+03 -0.88851146215E+03  0.91177122754E+03  0.00000000000E+00 0.  1.
         -3    1    4    4    0  502  0.18610579550E+03  0.19300014114E+03 -0.82152743580E+02  0.28041664515E+03  0.00000000000E+00 0.  1.
<mgrwt>
<rscale>  0 0.12781730E+04</rscale>
<asrwt>0</asrwt>
<pdfrwt beam="1">  1        1 0.49428140E+00 0.12781730E+04</pdfrwt>
<pdfrwt beam="2">  1       -1 0.19557723E-01 0.12781730E+04</pdfrwt>
<totfact> 0.88089389E+00</totfact>
</mgrwt>
</event>
<event>
11    1  0.2406360E-008  0.2864306E+04  0.7818608E-02  0.8283577E-01
         -2   -1    0    0    0  501 -0.00000000000E+00  0.00000000000E+00  0.24986979156E+04  0.24986979156E+04  0.00000000000E+00 0.  1.
          2   -1    0    0  501    0  0.00000000000E+00 -0.00000000000E+00 -0.82085257456E+03  0.82085257456E+03  0.00000000000E+00 0. -1.
         23    2    1    2    0    0 -0.28469449008E+03  0.27164019192E+03  0.21827910751E+04  0.22200816569E+04  0.96676467916E+02 0.  0.
        254    2    1    2    0    0  0.28469449008E+03 -0.27164019192E+03 -0.50494573403E+03  0.10994688332E+04  0.89388040274E+03 0.  0.
        -24    2    4    4    0    0  0.30411219588E+03  0.35901230207E+02  0.12778866222E+03  0.34074668660E+03  0.77493459253E+02 0.  0.
         11    1    3    3    0    0 -0.31474410180E+01  0.36287356694E+02  0.26578542008E+03  0.26826958114E+03  0.00000000000E+00 0. -1.
        -11    1    3    3    0    0 -0.28154704907E+03  0.23535283523E+03  0.19170056550E+04  0.19518120758E+04  0.00000000000E+00 0.  1.
          4    1    4    4  502    0  0.28034215226E+02  0.20783985153E+02  0.92407287409E+01  0.36101001785E+02  0.00000000000E+00 0. -1.
          1    1    5    5  503    0  0.20386831384E+03  0.54478738558E+02  0.64120524830E+02  0.22054855259E+03  0.00000000000E+00 0. -1.
         -2    1    5    5    0  503  0.10024388204E+03 -0.18577508351E+02  0.63668137393E+02  0.12019813402E+03  0.00000000000E+00 0.  1.
         -3    1    4    4    0  502 -0.47451921021E+02 -0.32832540728E+03 -0.64197512499E+03  0.72262114485E+03  0.00000000000E+00 0.  1.
<mgrwt>
<rscale>  0 0.28643063E+04</rscale>
<asrwt>0</asrwt>
<pdfrwt beam="1">  1        2 0.12628501E+00 0.28643063E+04</pdfrwt>
<pdfrwt beam="2">  1       -2 0.38441506E+00 0.28643063E+04</pdfrwt>
<totfact> 0.26996458E-01</totfact>
</mgrwt>
</event>
<event>
11    1  0.2406360E-008  0.1303862E+04  0.7818608E-02  0.9026508E-01
          1   -1    0    0  501    0  0.00000000000E+00  0.00000000000E+00  0.89842849308E+03  0.89842849308E+03  0.00000000000E+00 0. -1.
         -1   -1    0    0    0  501 -0.00000000000E+00 -0.00000000000E+00 -0.47306376633E+03  0.47306376633E+03  0.00000000000E+00 0.  1.
         23    2    1    2    0    0  0.23062705065E+03 -0.55449341895E+01 -0.14022560426E+03  0.28516916241E+03  0.91862115768E+02 0.  0.
        254    2    1    2    0    0 -0.23062705065E+03  0.55449341895E+01  0.56559033101E+03  0.10863230970E+04  0.89832392029E+03 0.  0.
        -24    2    4    4    0    0  0.13418269976E+03 -0.24243072909E+03  0.50638428795E+03  0.58230339012E+03  0.76645520008E+02 0.  0.
         11    1    3    3    0    0  0.13861719697E+03  0.20872741007E+02 -0.38255125082E+02  0.14530606734E+03  0.00000000000E+00 0. -1.
        -11    1    3    3    0    0  0.92009853679E+02 -0.26417675196E+02 -0.10197047918E+03  0.13986309506E+03  0.00000000000E+00 0.  1.
          2    1    4    4  502    0 -0.24417247978E+03  0.25698288998E+03 -0.26940044068E+02  0.35550832845E+03  0.00000000000E+00 0. -1.
          3    1    5    5  503    0  0.12202375091E+03 -0.23511246925E+03  0.50173927937E+03  0.56737110734E+03  0.00000000000E+00 0. -1.
         -4    1    5    5    0  503  0.12158948852E+02 -0.73182598312E+01  0.46450085833E+01  0.14932282776E+02  0.00000000000E+00 0.  1.
         -1    1    4    4    0  502 -0.12063727063E+03 -0.90072267005E+01  0.86146087130E+02  0.14851137844E+03  0.00000000000E+00 0.  1.
<mgrwt>
<rscale>  0 0.13038619E+04</rscale>
<asrwt>0</asrwt>
<pdfrwt beam="1">  1        1 0.13821977E+00 0.13038619E+04</pdfrwt>
<pdfrwt beam="2">  1       -1 0.72779041E-01 0.13038619E+04</pdfrwt>
<totfact> 0.34135305E+01</totfact>
</mgrwt>
</event>
<event>
11    1  0.2406360E-008  0.2330940E+04  0.7818608E-02  0.8465821E-01
          1   -1    0    0  501    0  0.00000000000E+00  0.00000000000E+00  0.22348600182E+04  0.22348600182E+04  0.00000000000E+00 0. -1.
         -1   -1    0    0    0  501 -0.00000000000E+00 -0.00000000000E+00 -0.60778758508E+03  0.60778758508E+03  0.00000000000E+00 0.  1.
         23    2    1    2    0    0  0.19167589815E+03  0.97089998351E+03  0.67588531490E+03  0.12020084377E+04  0.92827245626E+02 0.  0.
        254    2    1    2    0    0 -0.19167589815E+03 -0.97089998351E+03  0.95118711819E+03  0.16406391655E+04  0.89863981091E+03 0.  0.
        -24    2    4    4    0    0 -0.45558905668E+03 -0.94091330045E+03  0.73382706863E+03  0.12796842396E+04  0.78805831216E+02 0.  0.
         13    1    3    3    0    0  0.71933601786E+02  0.39729075119E+03  0.33088849313E+03  0.52201683779E+03  0.00000000000E+00 0. -1.
        -13    1    3    3    0    0  0.11974229637E+03  0.57360923232E+03  0.34499682177E+03  0.67999159993E+03  0.00000000000E+00 0.  1.
          4    1    4    4  502    0  0.85681205517E+02 -0.56884588150E+02  0.11248960968E+03  0.15241731409E+03  0.00000000000E+00 0. -1.
          3    1    5    5  503    0 -0.41523915931E+02 -0.72786227441E+02  0.85776238895E+02  0.11991511022E+03  0.00000000000E+00 0. -1.
         -4    1    5    5    0  503 -0.41406514075E+03 -0.86812707300E+03  0.64805082973E+03  0.11597691294E+04  0.00000000000E+00 0.  1.
         -1    1    4    4    0  502  0.17823195301E+03  0.26897905086E+02  0.10487043989E+03  0.20853761180E+03  0.00000000000E+00 0.  1.
<mgrwt>
<rscale>  0 0.23309399E+04</rscale>
<asrwt>0</asrwt>
<pdfrwt beam="1">  1        1 0.34382461E+00 0.23309399E+04</pdfrwt>
<pdfrwt beam="2">  1       -1 0.93505783E-01 0.23309399E+04</pdfrwt>
<totfact> 0.20623385E+00</totfact>
</mgrwt>
</event>
<event>
12    1  0.2406360E-008  0.1670669E+04  0.7818608E-02  0.8778272E-01
         -2   -1    0    0    0  501 -0.00000000000E+00  0.00000000000E+00  0.25163935510E+03  0.25163935510E+03  0.00000000000E+00 0. -1.
          2   -1    0    0  501    0  0.00000000000E+00 -0.00000000000E+00 -0.27729519938E+04  0.27729519938E+04  0.00000000000E+00 0.  1.
         23    2    1    2    0    0 -0.15260842873E+03 -0.23511885214E+03  0.51494982911E+01  0.29590236246E+03  0.94665113032E+02 0.  0.
        254    2    1    2    0    0  0.15260842873E+03  0.23511885214E+03 -0.25264621370E+04  0.27286889865E+04  0.99204961969E+03 0.  0.
        -24    2    4    4    0    0 -0.29725796185E+03 -0.21471879083E+03 -0.70480318321E+03  0.79846771844E+03  0.79603488011E+02 0.  0.
         24    2    4    4    0    0  0.44986639057E+03  0.44983764296E+03 -0.18216589538E+04  0.19302212680E+04  0.50785088094E+02 0.  0.
         13    1    3    3    0    0 -0.28082376352E+02  0.14873217090E+01 -0.38037779832E+01  0.28377820818E+02  0.00000000000E+00 0.  1.
        -13    1    3    3    0    0 -0.12452605237E+03 -0.23660617385E+03  0.89532762743E+01  0.26752454164E+03  0.00000000000E+00 0. -1.
          4    1    6    6  502    0  0.85017513495E+02  0.59101419280E+02 -0.30668815045E+03  0.32369519148E+03  0.00000000000E+00 0. -1.
          1    1    5    5  503    0 -0.14998654402E+03 -0.74697519308E+02 -0.38046580196E+03  0.41572816748E+03  0.00000000000E+00 0. -1.
         -2    1    5    5    0  503 -0.14727141783E+03 -0.14002127152E+03 -0.32433738125E+03  0.38273955095E+03  0.00000000000E+00 0.  1.
         -3    1    6    6    0  502  0.36484887708E+03  0.39073622368E+03 -0.15149708033E+04  0.16065260765E+04  0.00000000000E+00 0.  1.
<mgrwt>
<rscale>  0 0.16706691E+04</rscale>
<asrwt>0</asrwt>
<pdfrwt beam="1">  1        2 0.42660801E+00 0.16706691E+04</pdfrwt>
<pdfrwt beam="2">  1       -2 0.38713746E-01 0.16706691E+04</pdfrwt>
<totfact> 0.14486383E+01</totfact>
</mgrwt>
</event>
<event>
11    1  0.2406360E-008  0.1030515E+04  0.7818608E-02  0.9275695E-01
         -2   -1    0    0    0  501 -0.00000000000E+00  0.00000000000E+00  0.41930489584E+03  0.41930489584E+03  0.00000000000E+00 0.  1.
          2   -1    0    0  501    0  0.00000000000E+00 -0.00000000000E+00 -0.63316772990E+03  0.63316772990E+03  0.00000000000E+00 0. -1.
         23    2    1    2    0    0 -0.87405258414E+02  0.22685047842E+01  0.36534443486E+02  0.13181164947E+03  0.91622704946E+02 0.  0.
        254    2    1    2    0    0  0.87405258414E+02 -0.22685047842E+01 -0.25039727755E+03  0.92066097627E+03  0.88163088156E+03 0.  0.
        -24    2    4    4    0    0  0.35445913796E+03 -0.57764082763E+02  0.16201199315E+03  0.40005987823E+03  0.69440985775E+02 0.  0.
         11    1    3    3    0    0  0.92320224594E+01 -0.11818166585E+02 -0.15152110351E+02  0.21318671352E+02  0.00000000000E+00 0. -1.
        -11    1    3    3    0    0 -0.96637280874E+02  0.14086671370E+02  0.51686553837E+02  0.11049297811E+03  0.00000000000E+00 0.  1.
          4    1    4    4  502    0 -0.30997845912E+02  0.40824876659E+02 -0.76780058321E+01  0.51831349384E+02  0.00000000000E+00 0. -1.
          1    1    5    5  503    0  0.44743441619E+02 -0.17604458735E+01 -0.26384538269E+01  0.44855726236E+02  0.00000000000E+00 0. -1.
         -2    1    5    5    0  503  0.30971569634E+03 -0.56003636890E+02  0.16465044698E+03  0.35520415200E+03  0.00000000000E+00 0.  1.
         -3    1    4    4    0  502 -0.23605603363E+03  0.14670701320E+02 -0.40473126487E+03  0.46876974866E+03  0.00000000000E+00 0.  1.
<mgrwt>
<rscale>  0 0.10305151E+04</rscale>
<asrwt>0</asrwt>
<pdfrwt beam="1">  1        2 0.97410420E-01 0.10305151E+04</pdfrwt>
<pdfrwt beam="2">  1       -2 0.64508446E-01 0.10305151E+04</pdfrwt>
<totfact> 0.10279552E+02</totfact>
</mgrwt>
</event>
<event>
11    1  0.2406360E-008  0.1203514E+04  0.7818608E-02  0.9109787E-01
          2   -1    0    0  501    0  0.00000000000E+00  0.00000000000E+00  0.39438907060E+03  0.39438907060E+03  0.00000000000E+00 0. -1.
         -2   -1    0    0    0  501 -0.00000000000E+00 -0.00000000000E+00 -0.91815735554E+03  0.91815735554E+03  0.00000000000E+00 0.  1.
         23    2    1    2    0    0  0.88698150547E+02  0.13688598584E+03 -0.31586411426E+03  0.36667265145E+03  0.89852988879E+02 0.  0.
        254    2    1    2    0    0 -0.88698150547E+02 -0.13688598584E+03 -0.20790417068E+03  0.94587377469E+03  0.90821138422E+03 0.  0.
        -24    2    4    4    0    0 -0.17939179357E+02 -0.50661643504E+03 -0.20654172491E+03  0.55316693508E+03  0.79700360930E+02 0.  0.
         11    1    3    3    0    0  0.69316024338E+02  0.14795414856E+03 -0.26833405659E+03  0.31416286737E+03  0.00000000000E+00 0.  1.
        -11    1    3    3    0    0  0.19382126209E+02 -0.11068162711E+02 -0.47530057670E+02  0.52509784082E+02  0.00000000000E+00 0. -1.
          4    1    4    4  502    0  0.13038562850E+01  0.20800051870E+03  0.37693249193E+02  0.21139228192E+03  0.00000000000E+00 0. -1.
          3    1    5    5  503    0  0.29036703181E+02 -0.11102206228E+03 -0.48724464263E+02  0.12467197705E+03  0.00000000000E+00 0. -1.
         -4    1    5    5    0  503 -0.46975882539E+02 -0.39559437276E+03 -0.15781726064E+03  0.42849495803E+03  0.00000000000E+00 0.  1.
         -3    1    4    4    0  502 -0.72062827475E+02  0.16172993050E+03 -0.39055694971E+02  0.18131455769E+03  0.00000000000E+00 0.  1.
<mgrwt>
<rscale>  0 0.12035136E+04</rscale>
<asrwt>0</asrwt>
<pdfrwt beam="1">  1        2 0.60675242E-01 0.12035136E+04</pdfrwt>
<pdfrwt beam="2">  1       -2 0.14125498E+00 0.12035136E+04</pdfrwt>
<totfact> 0.27945109E+01</totfact>
</mgrwt>
</event>
<event>
12    1  0.2406360E-008  0.2659009E+04  0.7818608E-02  0.8348429E-01
         -2   -1    0    0    0  501 -0.00000000000E+00  0.00000000000E+00  0.19717748490E+04  0.19717748490E+04  0.00000000000E+00 0.  1.
          2   -1    0    0  501    0  0.00000000000E+00 -0.00000000000E+00 -0.89644215099E+03  0.89644215099E+03  0.00000000000E+00 0. -1.
         23    2    1    2    0    0 -0.68660528479E+03  0.15835430233E+03 -0.53723063338E+03  0.89110480044E+03  0.94594448878E+02 0.  0.
        254    2    1    2    0    0  0.68660528479E+03 -0.15835430233E+03  0.16125633314E+04  0.19771121996E+04  0.90117104354E+03 0.  0.
        -24    2    4    4    0    0 -0.57054134573E+02  0.24856870014E+03  0.23480747513E+03  0.35664943539E+03  0.83801529967E+02 0.  0.
         24    2    4    4    0    0  0.74365941936E+03 -0.40692300247E+03  0.13777558563E+04  0.16204627642E+04  0.95250767154E+02 0.  0.
         13    1    3    3    0    0 -0.12125665357E+03  0.65877671669E+02 -0.98658883861E+02  0.16963672664E+03  0.00000000000E+00 0.  1.
        -13    1    3    3    0    0 -0.56534863122E+03  0.92476630657E+02 -0.43857174952E+03  0.72146807381E+03  0.00000000000E+00 0. -1.
          4    1    6    6  502    0  0.25086954857E+03 -0.18199146189E+03  0.45706153354E+03  0.55223334564E+03  0.00000000000E+00 0. -1.
          1    1    5    5  503    0 -0.44068940368E+02  0.23779696471E+03  0.23818524556E+03  0.33944318984E+03  0.00000000000E+00 0. -1.
         -2    1    5    5    0  503 -0.12985194205E+02  0.10771735437E+02 -0.33777704261E+01  0.17206245550E+02  0.00000000000E+00 0.  1.
         -3    1    6    6    0  502  0.49278987080E+03 -0.22493154058E+03  0.92069432276E+03  0.10682294186E+04  0.00000000000E+00 0.  1.
<mgrwt>
<rscale>  0 0.26590089E+04</rscale>
<asrwt>0</asrwt>
<pdfrwt beam="1">  1        2 0.13791418E+00 0.26590089E+04</pdfrwt>
<pdfrwt beam="2">  1       -2 0.30334998E+00 0.26590089E+04</pdfrwt>
<totfact> 0.78689325E-01</totfact>
</mgrwt>
</event>
<event>
11    1  0.2406360E-008  0.3589117E+04  0.7818608E-02  0.8092989E-01
          1   -1    0    0  501    0  0.00000000000E+00  0.00000000000E+00  0.19266689723E+04  0.19266689723E+04  0.00000000000E+00 0. -1.
         -1   -1    0    0    0  501 -0.00000000000E+00 -0.00000000000E+00 -0.16715070489E+04  0.16715070489E+04  0.00000000000E+00 0.  1.
         23    2    1    2    0    0  0.92188960365E+03 -0.99540913511E+03 -0.86710580555E+03  0.16126227746E+04  0.89218538342E+02 0.  0.
        254    2    1    2    0    0 -0.92188960365E+03  0.99540913511E+03  0.11222677290E+04  0.19855532465E+04  0.91772384290E+03 0.  0.
        -24    2    4    4    0    0 -0.15713173263E+03  0.25932122118E+03  0.81612760916E+03  0.87406936396E+03  0.77428040290E+02 0.  0.
         13    1    3    3    0    0  0.11057407991E+03 -0.87484521408E+02 -0.10997009460E+03  0.17881160572E+03  0.00000000000E+00 0. -1.
        -13    1    3    3    0    0  0.81131552374E+03 -0.90792461370E+03 -0.75713571094E+03  0.14338111689E+04  0.00000000000E+00 0.  1.
          4    1    4    4  502    0 -0.74546173939E+03  0.71846556570E+03  0.31760243735E+03  0.10829484208E+04  0.00000000000E+00 0. -1.
          3    1    5    5  503    0 -0.73768099892E+02  0.10431833549E+03  0.45082959029E+03  0.46858442907E+03  0.00000000000E+00 0. -1.
         -4    1    5    5    0  503 -0.83363632739E+02  0.15500288568E+03  0.36529801887E+03  0.40548493489E+03  0.00000000000E+00 0.  1.
         -3    1    4    4    0  502 -0.19296131629E+02  0.17622348229E+02 -0.11462317560E+02  0.28535461742E+02  0.00000000000E+00 0.  1.
<mgrwt>
<rscale>  0 0.35891173E+04</rscale>
<asrwt>0</asrwt>
<pdfrwt beam="1">  1        1 0.29641061E+00 0.35891173E+04</pdfrwt>
<pdfrwt beam="2">  1       -1 0.25715493E+00 0.35891173E+04</pdfrwt>
<totfact> 0.16945682E-01</totfact>
</mgrwt>
</event>
<event>
11    1  0.2406360E-008  0.1120590E+04  0.7818608E-02  0.9185353E-01
         -1   -1    0    0    0  501 -0.00000000000E+00  0.00000000000E+00  0.21654761925E+03  0.21654761925E+03  0.00000000000E+00 0.  1.
          1   -1    0    0  501    0  0.00000000000E+00 -0.00000000000E+00 -0.14497062610E+04  0.14497062610E+04  0.00000000000E+00 0. -1.
         23    2    1    2    0    0 -0.61680196681E+02  0.11102014432E+03 -0.43450152897E+03  0.46190568582E+03  0.91844242104E+02 0.  0.
        254    2    1    2    0    0  0.61680196681E+02 -0.11102014432E+03 -0.79865711278E+03  0.12043481944E+04  0.89245250322E+03 0.  0.
        -24    2    4    4    0    0 -0.14587786791E+03 -0.73752973716E+02 -0.31344312376E+03  0.36248230506E+03  0.80168423763E+02 0.  0.
         13    1    3    3    0    0 -0.10937800237E+02  0.89435573614E+02 -0.34676372515E+03  0.35827843695E+03  0.00000000000E+00 0. -1.
        -13    1    3    3    0    0 -0.50742396444E+02  0.21584570706E+02 -0.87737803815E+02  0.10362724887E+03  0.00000000000E+00 0.  1.
          4    1    4    4  502    0 -0.14173805165E+03  0.13851706569E+03  0.24220245941E+02  0.19965789011E+03  0.00000000000E+00 0. -1.
          3    1    5    5  503    0 -0.53836180506E+02 -0.58777285093E+02 -0.20208359533E+03  0.21723462679E+03  0.00000000000E+00 0. -1.
         -4    1    5    5    0  503 -0.92041687408E+02 -0.14975688623E+02 -0.11135952843E+03  0.14524767827E+03  0.00000000000E+00 0.  1.
         -3    1    4    4    0  502  0.34929611624E+03 -0.17578423629E+03 -0.50943423497E+03  0.64220799926E+03  0.00000000000E+00 0.  1.
<mgrwt>
<rscale>  0 0.11205899E+04</rscale>
<asrwt>0</asrwt>
<pdfrwt beam="1">  1        1 0.22303173E+00 0.11205899E+04</pdfrwt>
<pdfrwt beam="2">  1       -1 0.33315019E-01 0.11205899E+04</pdfrwt>
<totfact> 0.59785387E+01</totfact>
</mgrwt>
</event>
<event>
11    1  0.2406360E-008  0.1070768E+04  0.7818608E-02  0.9234161E-01
         -2   -1    0    0    0  501 -0.00000000000E+00  0.00000000000E+00  0.17105828897E+03  0.17105828897E+03  0.00000000000E+00 0.  1.
          2   -1    0    0  501    0  0.00000000000E+00 -0.00000000000E+00 -0.16756622387E+04  0.16756622387E+04  0.00000000000E+00 0. -1.
         23    2    1    2    0    0  0.19444292691E+02  0.27660487994E+02 -0.10231724015E+02  0.10096581716E+03  0.94584485743E+02 0.  0.
        254    2    1    2    0    0 -0.19444292691E+02 -0.27660487994E+02 -0.14943722258E+04  0.17457547106E+04  0.90186915747E+03 0.  0.
        -24    2    4    4    0    0  0.88010852570E+02 -0.84040938762E+02  0.66277680885E+02  0.15497793235E+03  0.69402009878E+02 0.  0.
         11    1    3    3    0    0 -0.29405802732E+02 -0.92650106352E+01  0.15542381943E+02  0.34526906795E+02  0.00000000000E+00 0. -1.
        -11    1    3    3    0    0  0.48850095423E+02  0.36925498629E+02 -0.25774105958E+02  0.66438910360E+02  0.00000000000E+00 0.  1.
          2    1    4    4  502    0  0.52742291858E+02 -0.79987904806E+02 -0.57466315092E+03  0.58259552975E+03  0.00000000000E+00 0. -1.
          1    1    5    5  503    0 -0.78510960695E+01 -0.27409271673E+02  0.17227521487E+02  0.33312090594E+02  0.00000000000E+00 0. -1.
         -2    1    5    5    0  503  0.95861948639E+02 -0.56631667089E+02  0.49050159397E+02  0.12166584176E+03  0.00000000000E+00 0.  1.
         -1    1    4    4    0  502 -0.16019743712E+03  0.13636835557E+03 -0.98598675573E+03  0.10081812485E+04  0.00000000000E+00 0.  1.
<mgrwt>
<rscale>  0 0.10707678E+04</rscale>
<asrwt>0</asrwt>
<pdfrwt beam="1">  1        2 0.25779420E+00 0.10707678E+04</pdfrwt>
<pdfrwt beam="2">  1       -2 0.26316659E-01 0.10707678E+04</pdfrwt>
<totfact> 0.13145587E+02</totfact>
</mgrwt>
</event>
<event>
12    1  0.2406360E-008  0.1494410E+04  0.7818608E-02  0.8888179E-01
         -2   -1    0    0    0  501 -0.00000000000E+00  0.00000000000E+00  0.17413181739E+03  0.17413181739E+03  0.00000000000E+00 0.  1.
          2   -1    0    0  501    0  0.00000000000E+00 -0.00000000000E+00 -0.32062796643E+04  0.32062796643E+04  0.00000000000E+00 0. -1.
         23    2    1    2    0    0  0.45396314137E+03 -0.35632738715E+02 -0.13189448236E+04  0.13982521414E+04  0.90229582279E+02 0.  0.
        254    2    1    2    0    0 -0.45396314137E+03  0.35632738715E+02 -0.17132030233E+04  0.19821593403E+04  0.88687024155E+03 0.  0.
        -24    2    4    4    0    0 -0.65679050004E+03 -0.18113213495E+03 -0.11923086332E+04  0.13755061279E+04  0.78959608869E+02 0.  0.
         24    2    4    4    0    0  0.20282735867E+03  0.21676487367E+03 -0.52089439008E+03  0.60665321234E+03  0.92580810897E+02 0.  0.
         13    1    3    3    0    0  0.37837798279E+03 -0.45554887892E+02 -0.11765379477E+04  0.12367241762E+04  0.00000000000E+00 0. -1.
        -13    1    3    3    0    0  0.75585158579E+02  0.99221491772E+01 -0.14240687595E+03  0.16152796526E+03  0.00000000000E+00 0.  1.
          4    1    6    6  502    0  0.18738557881E+03  0.21079268997E+03 -0.51805631941E+03  0.58985529020E+03  0.00000000000E+00 0. -1.
          1    1    5    5  503    0 -0.48682574460E+03 -0.10822813081E+03 -0.91714504521E+03  0.10439672734E+04  0.00000000000E+00 0. -1.
         -2    1    5    5    0  503 -0.16996475544E+03 -0.72904004147E+02 -0.27516358803E+03  0.33153885457E+03  0.00000000000E+00 0.  1.
         -3    1    6    6    0  502  0.15441779855E+02  0.59721837004E+01 -0.28380706683E+01  0.16797922144E+02  0.00000000000E+00 0.  1.
<mgrwt>
<rscale>  0 0.14944100E+04</rscale>
<asrwt>0</asrwt>
<pdfrwt beam="1">  1        2 0.49327378E+00 0.14944100E+04</pdfrwt>
<pdfrwt beam="2">  1       -2 0.26789511E-01 0.14944100E+04</pdfrwt>
<totfact> 0.15859057E+01</totfact>
</mgrwt>
</event>
<event>
11    1  0.2406360E-008  0.1632103E+04  0.7818608E-02  0.8801065E-01
          2   -1    0    0  501    0  0.00000000000E+00  0.00000000000E+00  0.22705940187E+04  0.22705940187E+04  0.00000000000E+00 0.  1.
         -2   -1    0    0    0  501 -0.00000000000E+00 -0.00000000000E+00 -0.29328892838E+03  0.29328892838E+03  0.00000000000E+00 0. -1.
         23    2    1    2    0    0  0.20401158584E+03  0.15026538598E+03 -0.85967683640E+02  0.28607399901E+03  0.10122982217E+03 0.  0.
        254    2    1    2    0    0 -0.20401158584E+03 -0.15026538598E+03  0.20632727740E+04  0.22778089481E+04  0.93119205903E+03 0.  0.
        -24    2    4    4    0    0 -0.43798773634E+03  0.18559144643E+02  0.16561896937E+04  0.17152744217E+04  0.83811343782E+02 0.  0.
         11    1    3    3    0    0  0.95568148658E+02  0.55493441647E+02  0.13079126006E+02  0.11128277783E+03  0.00000000000E+00 0.  1.
        -11    1    3    3    0    0  0.10844343718E+03  0.94771944333E+02 -0.99046809646E+02  0.17479122118E+03  0.00000000000E+00 0. -1.
          2    1    4    4  502    0  0.20702812070E+02 -0.26324911639E+02  0.26929453823E+03  0.27136903973E+03  0.00000000000E+00 0. -1.
          1    1    5    5  503    0 -0.10855794596E+03  0.59621008399E+01  0.56526415461E+03  0.57562482466E+03  0.00000000000E+00 0. -1.
         -2    1    5    5    0  503 -0.32942979038E+03  0.12597043803E+02  0.10909255391E+04  0.11396495971E+04  0.00000000000E+00 0.  1.
         -1    1    4    4    0  502  0.21327333843E+03 -0.14249961898E+03  0.13778854211E+03  0.29116548668E+03  0.00000000000E+00 0.  1.
<mgrwt>
<rscale>  0 0.16321030E+04</rscale>
<asrwt>0</asrwt>
<pdfrwt beam="1">  1        2 0.34932215E+00 0.16321030E+04</pdfrwt>
<pdfrwt beam="2">  1       -2 0.45121375E-01 0.16321030E+04</pdfrwt>
<totfact> 0.21010529E+01</totfact>
</mgrwt>
</event>
<event>
11    1  0.2406360E-008  0.1722973E+04  0.7818608E-02  0.8748369E-01
          2   -1    0    0  501    0  0.00000000000E+00  0.00000000000E+00  0.14097722054E+04  0.14097722054E+04  0.00000000000E+00 0. -1.
         -2   -1    0    0    0  501 -0.00000000000E+00 -0.00000000000E+00 -0.52643918496E+03  0.52643918496E+03  0.00000000000E+00 0.  1.
         23    2    1    2    0    0  0.26679011417E+03 -0.45373972396E+03 -0.45427209395E+02  0.53597806936E+03  0.90289298144E+02 0.  0.
        254    2    1    2    0    0 -0.26679011417E+03  0.45373972396E+03  0.92876022984E+03  0.14002333210E+04  0.90609110283E+03 0.  0.
        -24    2    4    4    0    0 -0.49373035376E+03  0.19638502686E+03  0.87520292670E+03  0.10270735012E+04  0.81012794939E+02 0.  0.
         13    1    3    3    0    0  0.65928232765E+01 -0.70369937584E+02 -0.37633320297E+01  0.70778217711E+02  0.00000000000E+00 0. -1.
        -13    1    3    3    0    0  0.26019729089E+03 -0.38336978638E+03 -0.41663877365E+02  0.46519985165E+03  0.00000000000E+00 0.  1.
          4    1    4    4  502    0  0.11067856191E+03  0.91430868009E+02 -0.41398911179E+02  0.14940956307E+03  0.00000000000E+00 0. -1.
          3    1    5    5  503    0 -0.16811733825E+03  0.10741949677E+03  0.34539718599E+03  0.39887542391E+03  0.00000000000E+00 0. -1.
         -4    1    5    5    0  503 -0.32561301550E+03  0.88965530086E+02  0.52980574071E+03  0.62819807728E+03  0.00000000000E+00 0.  1.
         -3    1    4    4    0  502  0.11626167769E+03  0.16592382909E+03  0.94956214321E+02  0.22375025675E+03  0.00000000000E+00 0.  1.
<mgrwt>
<rscale>  0 0.17229734E+04</rscale>
<asrwt>0</asrwt>
<pdfrwt beam="1">  1        2 0.21688803E+00 0.17229734E+04</pdfrwt>
<pdfrwt beam="2">  1       -2 0.80990644E-01 0.17229734E+04</pdfrwt>
<totfact> 0.18243527E+01</totfact>
</mgrwt>
</event>
<event>
11    1  0.2406360E-008  0.2242516E+04  0.7818608E-02  0.8500938E-01
         -1   -1    0    0    0  501 -0.00000000000E+00  0.00000000000E+00  0.19560773932E+04  0.19560773932E+04  0.00000000000E+00 0.  1.
          1   -1    0    0  501    0  0.00000000000E+00 -0.00000000000E+00 -0.64272465417E+03  0.64272465417E+03  0.00000000000E+00 0. -1.
         23    2    1    2    0    0  0.25134147087E+03  0.51935048375E+03  0.13883759820E+04  0.15061641510E+04  0.89694606550E+02 0.  0.
        254    2    1    2    0    0 -0.25134147087E+03 -0.51935048375E+03 -0.75023242951E+02  0.10926378964E+04  0.92484140569E+03 0.  0.
        -24    2    4    4    0    0 -0.12844524305E+03  0.50622010199E+01  0.35609176330E+03  0.38703802555E+03  0.80456715006E+02 0.  0.
         13    1    3    3    0    0  0.15782435472E+03  0.36111497346E+03  0.10421009060E+04  0.11141305351E+04  0.00000000000E+00 0.  1.
        -13    1    3    3    0    0  0.93517116154E+02  0.15823551029E+03  0.34627507600E+03  0.39203361589E+03  0.00000000000E+00 0. -1.
          4    1    4    4  502    0  0.32085275294E+02 -0.89527312825E+02 -0.53195402341E+02  0.10896951621E+03  0.00000000000E+00 0. -1.
          1    1    5    5  503    0 -0.92503931642E+02 -0.64085266703E+01  0.14163662051E+03  0.16928963008E+03  0.00000000000E+00 0. -1.
         -2    1    5    5    0  503 -0.35941311405E+02  0.11470727690E+02  0.21445514280E+03  0.21774839547E+03  0.00000000000E+00 0.  1.
         -3    1    4    4    0  502 -0.15498150312E+03 -0.43488537194E+03 -0.37791960391E+03  0.59663035463E+03  0.00000000000E+00 0.  1.
<mgrwt>
<rscale>  0 0.22425157E+04</rscale>
<asrwt>0</asrwt>
<pdfrwt beam="1">  1        1 0.98880717E-01 0.22425157E+04</pdfrwt>
<pdfrwt beam="2">  1       -1 0.30093498E+00 0.22425157E+04</pdfrwt>
<totfact> 0.91644828E-01</totfact>
</mgrwt>
</event>
<event>
12    1  0.2406360E-008  0.1587617E+04  0.7818608E-02  0.8828191E-01
         -2   -1    0    0    0  501 -0.00000000000E+00  0.00000000000E+00  0.27936562895E+03  0.27936562895E+03  0.00000000000E+00 0.  1.
          2   -1    0    0  501    0  0.00000000000E+00 -0.00000000000E+00 -0.22555822912E+04  0.22555822912E+04  0.00000000000E+00 0. -1.
         23    2    1    2    0    0  0.33887755613E+03 -0.48151513004E+03 -0.94068021129E+03  0.11134599767E+04  0.90658928153E+02 0.  0.
        254    2    1    2    0    0 -0.33887755613E+03  0.48151513004E+03 -0.10355364510E+04  0.14214879435E+04  0.77562710992E+03 0.  0.
        -24    2    4    4    0    0 -0.30013478307E+03  0.13993138637E+02 -0.85528951282E+03  0.91019738462E+03  0.81623723824E+02 0.  0.
         24    2    4    4    0    0 -0.38742773054E+02  0.46752199140E+03 -0.18024693816E+03  0.51129055886E+03  0.94081145585E+02 0.  0.
         11    1    3    3    0    0  0.19487291796E+03 -0.34382419172E+03 -0.59003301691E+03  0.71016159430E+03  0.00000000000E+00 0.  1.
        -11    1    3    3    0    0  0.14400463817E+03 -0.13769093832E+03 -0.35064719438E+03  0.40329838238E+03  0.00000000000E+00 0. -1.
          2    1    6    6  502    0 -0.19174258509E+02  0.32571237311E+03 -0.16964794132E+03  0.36774532788E+03  0.00000000000E+00 0. -1.
          1    1    5    5  503    0 -0.21491318380E+03  0.16795304690E+02 -0.49406389493E+03  0.53904442405E+03  0.00000000000E+00 0. -1.
         -2    1    5    5    0  503 -0.85221599275E+02 -0.28021660523E+01 -0.36122561789E+03  0.37115296057E+03  0.00000000000E+00 0.  1.
         -1    1    6    6    0  502 -0.19568514546E+02  0.14180961830E+03 -0.10598996838E+02  0.14354523098E+03  0.00000000000E+00 0.  1.
<mgrwt>
<rscale>  0 0.15876173E+04</rscale>
<asrwt>0</asrwt>
<pdfrwt beam="1">  1        2 0.34701266E+00 0.15876173E+04</pdfrwt>
<pdfrwt beam="2">  1       -2 0.42979327E-01 0.15876173E+04</pdfrwt>
<totfact> 0.23691119E+01</totfact>
</mgrwt>
</event>
<event>
11    1  0.2406360E-008  0.1579295E+04  0.7818608E-02  0.8833370E-01
          1   -1    0    0  501    0  0.00000000000E+00  0.00000000000E+00  0.35972934358E+03  0.35972934358E+03  0.00000000000E+00 0. -1.
         -1   -1    0    0    0  501 -0.00000000000E+00 -0.00000000000E+00 -0.17333676755E+04  0.17333676755E+04  0.00000000000E+00 0.  1.
         23    2    1    2    0    0 -0.42209979088E+03 -0.27130112565E+03 -0.69713545584E+03  0.86388314590E+03  0.92323949996E+02 0.  0.
        254    2    1    2    0    0  0.42209979088E+03  0.27130112565E+03 -0.67650287608E+03  0.12292138732E+04  0.89528658564E+03 0.  0.
        -24    2    4    4    0    0 -0.20807600507E+03 -0.10927599483E+03 -0.21943520624E+03  0.33149971669E+03  0.80643570737E+02 0.  0.
         13    1    3    3    0    0 -0.18912833327E+02 -0.41784654853E+02 -0.53480420458E+02  0.70454297371E+02  0.00000000000E+00 0. -1.
        -13    1    3    3    0    0 -0.40318695755E+03 -0.22951647080E+03 -0.64365503538E+03  0.79342884853E+03  0.00000000000E+00 0.  1.
          2    1    4    4  502    0  0.24210578564E+03  0.28231263932E+03 -0.23490443671E+03  0.43988149785E+03  0.00000000000E+00 0. -1.
          3    1    5    5  503    0 -0.86618943225E+01 -0.48960329019E+01 -0.46777834651E+02  0.47824317727E+02  0.00000000000E+00 0. -1.
         -4    1    5    5    0  503 -0.19941411075E+03 -0.10437996192E+03 -0.17265737159E+03  0.28367539897E+03  0.00000000000E+00 0.  1.
         -1    1    4    4    0  502  0.38807001031E+03  0.98264481157E+02 -0.22216323313E+03  0.45783265864E+03  0.00000000000E+00 0.  1.
<mgrwt>
<rscale>  0 0.15792951E+04</rscale>
<asrwt>0</asrwt>
<pdfrwt beam="1">  1        1 0.55342975E-01 0.15792951E+04</pdfrwt>
<pdfrwt beam="2">  1       -1 0.26667195E+00 0.15792951E+04</pdfrwt>
<totfact> 0.36084543E+00</totfact>
</mgrwt>
</event>
<event>
12    1  0.2406360E-008  0.1371835E+04  0.7818608E-02  0.8974462E-01
          2   -1    0    0  501    0  0.00000000000E+00  0.00000000000E+00  0.86043829646E+03  0.86043829646E+03  0.00000000000E+00 0. -1.
         -2   -1    0    0    0  501 -0.00000000000E+00 -0.00000000000E+00 -0.54679406681E+03  0.54679406681E+03  0.00000000000E+00 0.  1.
         23    2    1    2    0    0  0.12413923597E+03 -0.20007987698E+03 -0.22411345528E+03  0.33812711039E+03  0.93062317098E+02 0.  0.
        254    2    1    2    0    0 -0.12413923597E+03  0.20007987698E+03  0.53775768493E+03  0.10691052529E+04  0.89351004862E+03 0.  0.
        -24    2    4    4    0    0  0.72851610121E+01 -0.27166569871E+03 -0.61087847240E+02  0.28993063300E+03  0.80453225176E+02 0.  0.
         24    2    4    4    0    0 -0.13142439698E+03  0.47174557569E+03  0.59884553217E+03  0.77917461989E+03  0.93171114559E+02 0.  0.
         11    1    3    3    0    0  0.28429962303E+01  0.20575216628E+01 -0.36972457958E+02  0.37138641203E+02  0.00000000000E+00 0. -1.
        -11    1    3    3    0    0  0.12129623974E+03 -0.20213739864E+03 -0.18714099732E+03  0.30098846918E+03  0.00000000000E+00 0.  1.
          2    1    6    6  502    0  0.96134433393E+01  0.28620876010E+02  0.61751356966E+02  0.68737201889E+02  0.00000000000E+00 0. -1.
          3    1    5    5  503    0  0.11926933197E+02 -0.63105579698E+02 -0.49341227160E+02  0.80988410419E+02  0.00000000000E+00 0. -1.
         -2    1    5    5    0  503 -0.46417721847E+01 -0.20856011901E+03 -0.11746620081E+02  0.20894222258E+03  0.00000000000E+00 0.  1.
         -1    1    6    6    0  502 -0.14103784032E+03  0.44312469968E+03  0.53709417520E+03  0.71043741800E+03  0.00000000000E+00 0.  1.
<mgrwt>
<rscale>  0 0.13718346E+04</rscale>
<asrwt>0</asrwt>
<pdfrwt beam="1">  1        2 0.13237512E+00 0.13718346E+04</pdfrwt>
<pdfrwt beam="2">  1       -2 0.84122164E-01 0.13718346E+04</pdfrwt>
<totfact> 0.37567519E+01</totfact>
</mgrwt>
</event>
<event>
11    1  0.2406360E-008  0.2934351E+04  0.7818608E-02  0.8262730E-01
          2   -1    0    0  501    0  0.00000000000E+00  0.00000000000E+00  0.17984718961E+04  0.17984718961E+04  0.00000000000E+00 0.  1.
         -2   -1    0    0    0  501 -0.00000000000E+00 -0.00000000000E+00 -0.11969074380E+04  0.11969074380E+04  0.00000000000E+00 0. -1.
         23    2    1    2    0    0  0.15054006495E+02  0.24917969610E+03  0.15799588711E+04  0.16021032425E+04  0.90264173909E+02 0.  0.
        254    2    1    2    0    0 -0.15054006495E+02 -0.24917969610E+03 -0.97839441302E+03  0.13932760917E+04  0.96002369561E+03 0.  0.
        -24    2    4    4    0    0 -0.24493912718E+03 -0.46476233331E+03 -0.61960002947E+03  0.81624999483E+03  0.79753715084E+02 0.  0.
         13    1    3    3    0    0 -0.36345110114E+00 -0.13217002587E+01 -0.77150720199E+00  0.15729626949E+01  0.00000000000E+00 0. -1.
        -13    1    3    3    0    0  0.15417457596E+02  0.25050139636E+03  0.15807303783E+04  0.16005302798E+04  0.00000000000E+00 0.  1.
          4    1    4    4  502    0  0.14001411844E+03  0.18185596503E+03 -0.26371806690E+02  0.23102168203E+03  0.00000000000E+00 0. -1.
          1    1    5    5  503    0 -0.16366786046E+03 -0.30367287676E+03 -0.34661570511E+03  0.48902641202E+03  0.00000000000E+00 0. -1.
         -2    1    5    5    0  503 -0.81271266723E+02 -0.16108945655E+03 -0.27298432435E+03  0.32722358281E+03  0.00000000000E+00 0.  1.
         -3    1    4    4    0  502  0.89871002245E+02  0.33726672176E+02 -0.33242257686E+03  0.34600441481E+03  0.00000000000E+00 0.  1.
<mgrwt>
<rscale>  0 0.29343513E+04</rscale>
<asrwt>0</asrwt>
<pdfrwt beam="1">  1        2 0.27668798E+00 0.29343513E+04</pdfrwt>
<pdfrwt beam="2">  1       -2 0.18413961E+00 0.29343513E+04</pdfrwt>
<totfact> 0.12638416E+00</totfact>
</mgrwt>
</event>
<event>
11    1  0.2406360E-008  0.2186457E+04  0.7818608E-02  0.8524086E-01
          2   -1    0    0  501    0  0.00000000000E+00  0.00000000000E+00  0.18687580375E+04  0.18687580375E+04  0.00000000000E+00 0.  1.
         -2   -1    0    0    0  501 -0.00000000000E+00 -0.00000000000E+00 -0.63954166792E+03  0.63954166792E+03  0.00000000000E+00 0. -1.
         23    2    1    2    0    0  0.24356216897E+03  0.27082612744E+03  0.14898304412E+04  0.15364131676E+04  0.91111780726E+02 0.  0.
        254    2    1    2    0    0 -0.24356216897E+03 -0.27082612744E+03 -0.26061407162E+03  0.97188653782E+03  0.86253952176E+03 0.  0.
        -24    2    4    4    0    0  0.92965694411E+02  0.23816703251E+03  0.58947456957E+02  0.27393306498E+03  0.78729700236E+02 0.  0.
         11    1    3    3    0    0  0.10885749924E+02 -0.54265459286E+01  0.26351897115E+02  0.29023601322E+02  0.00000000000E+00 0. -1.
        -11    1    3    3    0    0  0.23267641905E+03  0.27625267337E+03  0.14634785441E+04  0.15073895663E+04  0.00000000000E+00 0.  1.
          2    1    4    4  502    0 -0.23388690158E+03 -0.43357906423E+03 -0.26499989968E+03  0.55939148590E+03  0.00000000000E+00 0. -1.
          3    1    5    5  503    0  0.10487965074E+03  0.19568414020E+03  0.38612714789E+02  0.22535076128E+03  0.00000000000E+00 0. -1.
         -4    1    5    5    0  503 -0.11913956331E+02  0.42482892304E+02  0.20334742168E+02  0.48582303702E+02  0.00000000000E+00 0.  1.
         -1    1    4    4    0  502 -0.10264096181E+03 -0.75414095720E+02 -0.54561628906E+02  0.13856198693E+03  0.00000000000E+00 0.  1.
<mgrwt>
<rscale>  0 0.21864571E+04</rscale>
<asrwt>0</asrwt>
<pdfrwt beam="1">  1        2 0.28750123E+00 0.21864571E+04</pdfrwt>
<pdfrwt beam="2">  1       -2 0.98391027E-01 0.21864571E+04</pdfrwt>
<totfact> 0.62066921E+00</totfact>
</mgrwt>
</event>
<event>
12    1  0.2406360E-008  0.2182161E+04  0.7818608E-02  0.8525890E-01
          1   -1    0    0  501    0  0.00000000000E+00  0.00000000000E+00  0.17440668962E+04  0.17440668962E+04  0.00000000000E+00 0.  1.
         -1   -1    0    0    0  501 -0.00000000000E+00 -0.00000000000E+00 -0.68257493998E+03  0.68257493998E+03  0.00000000000E+00 0. -1.
         23    2    1    2    0    0  0.14403170227E+03 -0.87173645973E+03  0.65411000656E+03  0.11027658698E+04  0.86965949653E+02 0.  0.
        254    2    1    2    0    0 -0.14403170227E+03  0.87173645973E+03  0.40738194971E+03  0.13238759664E+04  0.89778501607E+03 0.  0.
        -24    2    4    4    0    0 -0.23769946742E+03  0.54400561279E+03  0.65592941007E+03  0.88832319558E+03  0.80197040240E+02 0.  0.
         24    2    4    4    0    0  0.93667765149E+02  0.32773084694E+03 -0.24854746035E+03  0.43555277086E+03  0.10839380927E+03 0.  0.
         13    1    3    3    0    0  0.17045184998E+02 -0.65141301660E+02  0.24386070734E+02  0.71614299964E+02  0.00000000000E+00 0. -1.
        -13    1    3    3    0    0  0.12698651727E+03 -0.80659515807E+03  0.62972393582E+03  0.10311515698E+04  0.00000000000E+00 0.  1.
          4    1    6    6  502    0  0.50347040323E+02  0.61489104656E+02 -0.19860024344E+02  0.81915535936E+02  0.00000000000E+00 0. -1.
          3    1    5    5  503    0 -0.18778098165E+03  0.49288158279E+03  0.58434634745E+03  0.78718143112E+03  0.00000000000E+00 0. -1.
         -4    1    5    5    0  503 -0.49918485772E+02  0.51124029999E+02  0.71583062613E+02  0.10114176446E+03  0.00000000000E+00 0.  1.
         -3    1    6    6    0  502  0.43320724826E+02  0.26624174229E+03 -0.22868743601E+03  0.35363723492E+03  0.00000000000E+00 0.  1.
<mgrwt>
<rscale>  0 0.21821607E+04</rscale>
<asrwt>0</asrwt>
<pdfrwt beam="1">  1        1 0.26831798E+00 0.21821607E+04</pdfrwt>
<pdfrwt beam="2">  1       -1 0.10501153E+00 0.21821607E+04</pdfrwt>
<totfact> 0.34561011E+00</totfact>
</mgrwt>
</event>
<event>
11    1  0.2406360E-008  0.1716930E+04  0.7818608E-02  0.8751767E-01
          2   -1    0    0  501    0  0.00000000000E+00  0.00000000000E+00  0.15282128598E+04  0.15282128598E+04  0.00000000000E+00 0.  1.
         -2   -1    0    0    0  501 -0.00000000000E+00 -0.00000000000E+00 -0.48223764783E+03  0.48223764783E+03  0.00000000000E+00 0. -1.
         23    2    1    2    0    0 -0.58342002516E+02  0.31467495322E+03  0.10169194341E+04  0.10699548436E+04  0.90852168540E+02 0.  0.
        254    2    1    2    0    0  0.58342002516E+02 -0.31467495322E+03  0.29055777846E+02  0.94049566397E+03  0.88389124913E+03 0.  0.
        -24    2    4    4    0    0  0.19601381004E+03 -0.23886913939E+03 -0.37373165311E+03  0.49145594926E+03  0.79835593890E+02 0.  0.
         13    1    3    3    0    0 -0.70585576761E+02  0.17428445458E+03  0.65867940790E+03  0.68499339935E+03  0.00000000000E+00 0. -1.
        -13    1    3    3    0    0  0.12243574245E+02  0.14039049864E+03  0.35824002618E+03  0.38496144427E+03  0.00000000000E+00 0.  1.
          4    1    4    4  502    0 -0.10192537199E+03 -0.10494871149E+03  0.34750556827E+03  0.37704526714E+03  0.00000000000E+00 0. -1.
          1    1    5    5  503    0  0.99406577361E+00  0.50927389205E+01 -0.12141212524E+01  0.53290005527E+01  0.00000000000E+00 0. -1.
         -2    1    5    5    0  503  0.19501974427E+03 -0.24396187831E+03 -0.37251753186E+03  0.48612694871E+03  0.00000000000E+00 0.  1.
         -3    1    4    4    0  502 -0.35746435540E+02  0.29142897659E+02  0.55281862692E+02  0.71994447567E+02  0.00000000000E+00 0.  1.
<mgrwt>
<rscale>  0 0.17169296E+04</rscale>
<asrwt>0</asrwt>
<pdfrwt beam="1">  1        2 0.23510967E+00 0.17169296E+04</pdfrwt>
<pdfrwt beam="2">  1       -2 0.74190408E-01 0.17169296E+04</pdfrwt>
<totfact> 0.19019744E+01</totfact>
</mgrwt>
</event>
<event>
12    1  0.2406360E-008  0.2784382E+04  0.7818608E-02  0.8308134E-01
         -1   -1    0    0    0  501 -0.00000000000E+00  0.00000000000E+00  0.12116812209E+04  0.12116812209E+04  0.00000000000E+00 0.  1.
          1   -1    0    0  501    0  0.00000000000E+00 -0.00000000000E+00 -0.15995919277E+04  0.15995919277E+04  0.00000000000E+00 0. -1.
         23    2    1    2    0    0  0.42743907542E+03 -0.11078400013E+04 -0.54469263970E+03  0.13105349041E+04  0.10391357672E+03 0.  0.
        254    2    1    2    0    0 -0.42743907542E+03  0.11078400013E+04  0.15678193295E+03  0.15007382445E+04  0.90422401666E+03 0.  0.
        -24    2    4    4    0    0  0.23169807516E+03  0.62405561008E+02  0.46927223513E+02  0.25660072427E+03  0.77867292935E+02 0.  0.
         24    2    4    4    0    0 -0.65913715058E+03  0.10454344403E+04  0.10985470944E+03  0.12441375202E+04  0.91734180190E+02 0.  0.
         13    1    3    3    0    0  0.23394996918E+03 -0.56581962928E+03 -0.33551272918E+03  0.69817851041E+03  0.00000000000E+00 0.  1.
        -13    1    3    3    0    0  0.19348910624E+03 -0.54202037202E+03 -0.20917991052E+03  0.61235639368E+03  0.00000000000E+00 0. -1.
          2    1    6    6  502    0 -0.85069535471E+02  0.85149476847E+02  0.15821303617E+02  0.12139840576E+03  0.00000000000E+00 0. -1.
          1    1    5    5  503    0  0.86902263138E+02  0.40780446187E+02 -0.15872179396E+02  0.97298377214E+02  0.00000000000E+00 0. -1.
         -2    1    5    5    0  503  0.14479581202E+03  0.21625114821E+02  0.62799402909E+02  0.15930234705E+03  0.00000000000E+00 0.  1.
         -1    1    6    6    0  502 -0.57406761511E+03  0.96028496345E+03  0.94033405818E+02  0.11227391145E+04  0.00000000000E+00 0.  1.
<mgrwt>
<rscale>  0 0.27843818E+04</rscale>
<asrwt>0</asrwt>
<pdfrwt beam="1">  1        1 0.24609107E+00 0.27843818E+04</pdfrwt>
<pdfrwt beam="2">  1       -1 0.18641250E+00 0.27843818E+04</pdfrwt>
<totfact> 0.90666197E-01</totfact>
</mgrwt>
</event>
<event>
11    1  0.2406360E-008  0.1356622E+04  0.7818608E-02  0.8985830E-01
         -2   -1    0    0    0  501 -0.00000000000E+00  0.00000000000E+00  0.11793530135E+04  0.11793530135E+04  0.00000000000E+00 0.  1.
          2   -1    0    0  501    0  0.00000000000E+00 -0.00000000000E+00 -0.39013411694E+03  0.39013411694E+03  0.00000000000E+00 0. -1.
         23    2    1    2    0    0  0.28732566232E+02  0.21268303268E+03  0.55906306541E+03  0.60537738237E+03  0.88716578016E+02 0.  0.
        254    2    1    2    0    0 -0.28732566232E+02 -0.21268303268E+03  0.23015583112E+03  0.96410974806E+03  0.91130470587E+03 0.  0.
        -24    2    4    4    0    0 -0.41893883780E+03 -0.89568567448E+02 -0.74149106443E+02  0.44218578215E+03  0.80609539530E+02 0.  0.
         13    1    3    3    0    0  0.89000073194E+01  0.21102742195E+03  0.49193690435E+03  0.53536314854E+03  0.00000000000E+00 0.  1.
        -13    1    3    3    0    0  0.19832558913E+02  0.16556107333E+01  0.67126161060E+02  0.70014233828E+02  0.00000000000E+00 0. -1.
          4    1    4    4  502    0  0.27131323002E+03 -0.81677777492E+02  0.14324853037E+03  0.31749373155E+03  0.00000000000E+00 0. -1.
          1    1    5    5  503    0 -0.20901251029E+03 -0.18736636051E+02 -0.43459070776E+01  0.20989563573E+03  0.00000000000E+00 0. -1.
         -2    1    5    5    0  503 -0.20992632751E+03 -0.70831931398E+02 -0.69803199366E+02  0.23229014643E+03  0.00000000000E+00 0.  1.
         -1    1    4    4    0  502  0.11889304154E+03 -0.41436687744E+02  0.16105640719E+03  0.20443023435E+03  0.00000000000E+00 0.  1.
<mgrwt>
<rscale>  0 0.13566220E+04</rscale>
<asrwt>0</asrwt>
<pdfrwt beam="1">  1        2 0.60020634E-01 0.13566220E+04</pdfrwt>
<pdfrwt beam="2">  1       -2 0.18143892E+00 0.13566220E+04</pdfrwt>
<totfact> 0.14136246E+01</totfact>
</mgrwt>
</event>
<event>
11    1  0.2406360E-008  0.1723922E+04  0.7818608E-02  0.8747837E-01
          1   -1    0    0  501    0  0.00000000000E+00  0.00000000000E+00  0.11179720736E+04  0.11179720736E+04  0.00000000000E+00 0. -1.
         -1   -1    0    0    0  501 -0.00000000000E+00 -0.00000000000E+00 -0.66457519013E+03  0.66457519013E+03  0.00000000000E+00 0.  1.
         23    2    1    2    0    0  0.15139990345E+03  0.53527157722E+03 -0.12755459194E+03  0.57777635046E+03  0.90098529886E+02 0.  0.
        254    2    1    2    0    0 -0.15139990345E+03 -0.53527157722E+03  0.58095147544E+03  0.12047709133E+04  0.89695637830E+03 0.  0.
        -24    2    4    4    0    0  0.32935931683E+02 -0.50476602778E+03  0.74475139595E+03  0.90416928395E+03  0.83629742709E+02 0.  0.
         11    1    3    3    0    0  0.12598507494E+03  0.48557045476E+03 -0.13951472216E+03  0.52068729900E+03  0.00000000000E+00 0.  1.
        -11    1    3    3    0    0  0.25414828512E+02  0.49701122455E+02  0.11960130219E+02  0.57089051459E+02  0.00000000000E+00 0. -1.
          4    1    4    4  502    0 -0.11241036817E+03  0.59831502938E+02 -0.12588989875E+03  0.17906469843E+03  0.00000000000E+00 0. -1.
          1    1    5    5  503    0 -0.40725658272E+01 -0.21568285624E+03  0.25240845836E+03  0.33203269435E+03  0.00000000000E+00 0. -1.
         -2    1    5    5    0  503  0.37008497510E+02 -0.28908317154E+03  0.49234293759E+03  0.57213658960E+03  0.00000000000E+00 0.  1.
         -3    1    4    4    0  502 -0.71925466961E+02 -0.90337052373E+02 -0.37910021759E+02  0.12153693093E+03  0.00000000000E+00 0.  1.
<mgrwt>
<rscale>  0 0.17239217E+04</rscale>
<asrwt>0</asrwt>
<pdfrwt beam="1">  1        1 0.17199570E+00 0.17239217E+04</pdfrwt>
<pdfrwt beam="2">  1       -1 0.10224234E+00 0.17239217E+04</pdfrwt>
<totfact> 0.10572532E+01</totfact>
</mgrwt>
</event>
<event>
11    1  0.2406360E-008  0.1175941E+04  0.7818608E-02  0.9134180E-01
         -1   -1    0    0    0  501 -0.00000000000E+00  0.00000000000E+00  0.46709745365E+03  0.46709745365E+03  0.00000000000E+00 0.  1.
          1   -1    0    0  501    0  0.00000000000E+00 -0.00000000000E+00 -0.74012216315E+03  0.74012216315E+03  0.00000000000E+00 0. -1.
         23    2    1    2    0    0  0.40910754864E+02  0.19701932343E+03 -0.12094345008E+03  0.25128583231E+03  0.89593234884E+02 0.  0.
        254    2    1    2    0    0 -0.40910754864E+02 -0.19701932343E+03 -0.15208125942E+03  0.95593378449E+03  0.92205769190E+03 0.  0.
        -24    2    4    4    0    0 -0.32779264379E+03  0.21552816586E+03 -0.12843864930E+03  0.42054458781E+03  0.80379450741E+02 0.  0.
         13    1    3    3    0    0  0.31608354184E+02  0.19534727787E+03 -0.13112877658E+03  0.23739082348E+03  0.00000000000E+00 0. -1.
        -13    1    3    3    0    0  0.93024006797E+01  0.16720455609E+01  0.10185326497E+02  0.13895008838E+02  0.00000000000E+00 0.  1.
          4    1    4    4  502    0  0.14639636376E+03 -0.68897285431E+02  0.13048173771E+02  0.16232370776E+03  0.00000000000E+00 0. -1.
          3    1    5    5  503    0 -0.17441219924E+03  0.11526508338E+03 -0.11039038137E+03  0.23641423601E+03  0.00000000000E+00 0. -1.
         -4    1    5    5    0  503 -0.15338044455E+03  0.10026308249E+03 -0.18048267935E+02  0.18413035181E+03  0.00000000000E+00 0.  1.
         -3    1    4    4    0  502  0.14048552516E+03 -0.34365020386E+03 -0.36690783890E+02  0.37306548891E+03  0.00000000000E+00 0.  1.
<mgrwt>
<rscale>  0 0.11759408E+04</rscale>
<asrwt>0</asrwt>
<pdfrwt beam="1">  1        1 0.11386495E+00 0.11759408E+04</pdfrwt>
<pdfrwt beam="2">  1       -1 0.71861147E-01 0.11759408E+04</pdfrwt>
<totfact> 0.48467015E+01</totfact>
</mgrwt>
</event>
<event>
12    1  0.2406360E-008  0.1391362E+04  0.7818608E-02  0.8960095E-01
         -2   -1    0    0    0  501 -0.00000000000E+00  0.00000000000E+00  0.32291520704E+03  0.32291520704E+03  0.00000000000E+00 0.  1.
          2   -1    0    0  501    0  0.00000000000E+00 -0.00000000000E+00 -0.14987599965E+04  0.14987599965E+04  0.00000000000E+00 0. -1.
         23    2    1    2    0    0 -0.21111089287E+02  0.33484896666E+03 -0.70287395615E+03  0.78443904488E+03  0.93505659355E+02 0.  0.
        254    2    1    2    0    0  0.21111089287E+02 -0.33484896666E+03 -0.47297083327E+03  0.10372361586E+04  0.85999298315E+03 0.  0.
        -24    2    4    4    0    0  0.98278227848E+02 -0.18031190731E+03 -0.70141335919E+03  0.73526133472E+03  0.80358794758E+02 0.  0.
         24    2    4    4    0    0 -0.77167138561E+02 -0.15453705935E+03  0.22844252591E+03  0.30197482391E+03  0.95740987269E+02 0.  0.
         11    1    3    3    0    0 -0.48738705031E+02  0.99455913561E+02 -0.20399237314E+03  0.23212028866E+03  0.00000000000E+00 0.  1.
        -11    1    3    3    0    0  0.27627615744E+02  0.23539305310E+03 -0.49888158301E+03  0.55231875622E+03  0.00000000000E+00 0. -1.
          4    1    6    6  502    0 -0.75003934302E+02 -0.78051848848E+02  0.18402420109E+03  0.21350079123E+03  0.00000000000E+00 0. -1.
          1    1    5    5  503    0  0.93020722931E+02 -0.11923866670E+03 -0.57808229357E+03  0.59753648648E+03  0.00000000000E+00 0. -1.
         -2    1    5    5    0  503  0.52575049164E+01 -0.61073240607E+02 -0.12333106562E+03  0.13772484824E+03  0.00000000000E+00 0.  1.
         -3    1    6    6    0  502 -0.21632042588E+01 -0.76485210505E+02  0.44418324824E+02  0.88474032681E+02  0.00000000000E+00 0.  1.
<mgrwt>
<rscale>  0 0.13913625E+04</rscale>
<asrwt>0</asrwt>
<pdfrwt beam="1">  1        2 0.23057846E+00 0.13913625E+04</pdfrwt>
<pdfrwt beam="2">  1       -2 0.49679263E-01 0.13913625E+04</pdfrwt>
<totfact> 0.47467551E+01</totfact>
</mgrwt>
</event>
<event>
12    1  0.2406360E-008  0.2017973E+04  0.7818608E-02  0.8598263E-01
         -1   -1    0    0    0  501 -0.00000000000E+00  0.00000000000E+00  0.12615176860E+04  0.12615176860E+04  0.00000000000E+00 0.  1.
          1   -1    0    0  501    0  0.00000000000E+00 -0.00000000000E+00 -0.80700728718E+03  0.80700728718E+03  0.00000000000E+00 0. -1.
         23    2    1    2    0    0 -0.20462537929E+03 -0.42580050605E+03  0.85438776675E+03  0.97950262721E+03  0.79179062411E+02 0.  0.
        254    2    1    2    0    0  0.20462537929E+03  0.42580050605E+03 -0.39987736795E+03  0.10890223460E+04  0.89604137394E+03 0.  0.
        -24    2    4    4    0    0  0.26430923922E+03  0.57671239395E+01  0.20422297902E+03  0.34378144664E+03  0.81154323596E+02 0.  0.
         24    2    4    4    0    0 -0.59683859929E+02  0.42003338211E+03 -0.60410034697E+03  0.74524089933E+03  0.10225734008E+03 0.  0.
         11    1    3    3    0    0 -0.19900280813E+03 -0.39777854998E+03  0.75689109403E+03  0.87790319552E+03  0.00000000000E+00 0.  1.
        -11    1    3    3    0    0 -0.56225711627E+01 -0.28021956063E+02  0.97496672721E+02  0.10159943169E+03  0.00000000000E+00 0. -1.
          4    1    6    6  502    0 -0.55071097460E+02  0.99162969087E+02 -0.12724219860E+03  0.17046025143E+03  0.00000000000E+00 0. -1.
          1    1    5    5  503    0  0.24380027015E+03 -0.95587950052E+01  0.15721224554E+03  0.29025098179E+03  0.00000000000E+00 0. -1.
         -2    1    5    5    0  503  0.20508969071E+02  0.15325918945E+02  0.47010733482E+02  0.53530464844E+02  0.00000000000E+00 0.  1.
         -3    1    6    6    0  502 -0.46127624689E+01  0.32087041302E+03 -0.47685814836E+03  0.57478064789E+03  0.00000000000E+00 0.  1.
<mgrwt>
<rscale>  0 0.20179732E+04</rscale>
<asrwt>0</asrwt>
<pdfrwt beam="1">  1        1 0.12415497E+00 0.20179732E+04</pdfrwt>
<pdfrwt beam="2">  1       -1 0.19407965E+00 0.20179732E+04</pdfrwt>
<totfact> 0.33404202E+00</totfact>
</mgrwt>
</event>
<event>
11    1  0.2406360E-008  0.2056127E+04  0.7818608E-02  0.8580820E-01
         -2   -1    0    0    0  501 -0.00000000000E+00  0.00000000000E+00  0.16376259209E+04  0.16376259209E+04  0.00000000000E+00 0. -1.
          2   -1    0    0  501    0  0.00000000000E+00 -0.00000000000E+00 -0.64539408437E+03  0.64539408437E+03  0.00000000000E+00 0.  1.
         23    2    1    2    0    0  0.41088147870E+03  0.71928269676E+03  0.43889870380E+03  0.94204294403E+03  0.92852834017E+02 0.  0.
        254    2    1    2    0    0 -0.41088147870E+03 -0.71928269676E+03  0.55333313275E+03  0.13409770613E+04  0.89769189349E+03 0.  0.
        -24    2    4    4    0    0 -0.24590763849E+03 -0.13676120980E+03  0.61517643879E+03  0.68121600288E+03  0.80243358344E+02 0.  0.
         13    1    3    3    0    0  0.28126862768E+03  0.45217979141E+03  0.23618107156E+03  0.58254622412E+03  0.00000000000E+00 0. -1.
        -13    1    3    3    0    0  0.12961285102E+03  0.26710290536E+03  0.20271763225E+03  0.35949671991E+03  0.00000000000E+00 0.  1.
          4    1    4    4  502    0 -0.20803963410E+03 -0.52346664250E+03 -0.10767397288E+03  0.57349062730E+03  0.00000000000E+00 0. -1.
          3    1    5    5  503    0 -0.23192972691E+03 -0.13611026461E+03  0.60936266851E+03  0.66606325835E+03  0.00000000000E+00 0. -1.
         -4    1    5    5    0  503 -0.13977911579E+02 -0.65094519629E+00  0.58137702853E+01  0.15152744527E+02  0.00000000000E+00 0.  1.
         -3    1    4    4    0  502  0.43065793886E+02 -0.59054844462E+02  0.45830666839E+02  0.86270431090E+02  0.00000000000E+00 0.  1.
<mgrwt>
<rscale>  0 0.20561265E+04</rscale>
<asrwt>0</asrwt>
<pdfrwt beam="1">  1        2 0.99291398E-01 0.20561265E+04</pdfrwt>
<pdfrwt beam="2">  1       -2 0.25194245E+00 0.20561265E+04</pdfrwt>
<totfact> 0.26222434E+00</totfact>
</mgrwt>
</event>
<event>
11    1  0.2406360E-008  0.1718081E+04  0.7818608E-02  0.8751119E-01
         -1   -1    0    0    0  501 -0.00000000000E+00  0.00000000000E+00  0.27230613893E+03  0.27230613893E+03  0.00000000000E+00 0.  1.
          1   -1    0    0  501    0  0.00000000000E+00 -0.00000000000E+00 -0.27100045393E+04  0.27100045393E+04  0.00000000000E+00 0. -1.
         23    2    1    2    0    0 -0.37673671941E+03 -0.46608376447E+03 -0.59597604242E+03  0.85087329958E+03  0.98149363475E+02 0.  0.
        254    2    1    2    0    0  0.37673671941E+03  0.46608376447E+03 -0.18417223580E+04  0.21314373787E+04  0.88989854710E+03 0.  0.
        -24    2    4    4    0    0 -0.18253603761E+03  0.40737596096E+03 -0.80793794804E+03  0.92658184919E+03  0.80719370496E+02 0.  0.
         11    1    3    3    0    0 -0.10540454162E+03 -0.16867473821E+03 -0.25427741603E+03  0.32282857526E+03  0.00000000000E+00 0. -1.
        -11    1    3    3    0    0 -0.27133217779E+03 -0.29740902625E+03 -0.34169862639E+03  0.52804472432E+03  0.00000000000E+00 0.  1.
          4    1    4    4  502    0  0.13503889160E+03  0.42615470038E+02 -0.51704923244E+03  0.53608906843E+03  0.00000000000E+00 0. -1.
          1    1    5    5  503    0 -0.82919000054E+02  0.20978550735E+03 -0.32793489242E+03  0.39802865893E+03  0.00000000000E+00 0. -1.
         -2    1    5    5    0  503 -0.99617037560E+02  0.19759045361E+03 -0.48000305562E+03  0.52855319026E+03  0.00000000000E+00 0.  1.
         -3    1    4    4    0  502  0.42423386543E+03  0.16092333471E+02 -0.51673517751E+03  0.66876646107E+03  0.00000000000E+00 0.  1.
<mgrwt>
<rscale>  0 0.17180813E+04</rscale>
<asrwt>0</asrwt>
<pdfrwt beam="1">  1        1 0.41692378E+00 0.17180813E+04</pdfrwt>
<pdfrwt beam="2">  1       -1 0.41893252E-01 0.17180813E+04</pdfrwt>
<totfact> 0.51438203E+00</totfact>
</mgrwt>
</event>
<event>
11    1  0.2406360E-008  0.1599631E+04  0.7818608E-02  0.8820775E-01
          2   -1    0    0  501    0  0.00000000000E+00  0.00000000000E+00  0.33056066939E+04  0.33056066939E+04  0.00000000000E+00 0. -1.
         -2   -1    0    0    0  501 -0.00000000000E+00 -0.00000000000E+00 -0.19352106557E+03  0.19352106557E+03  0.00000000000E+00 0.  1.
         23    2    1    2    0    0 -0.15607414819E+03 -0.22812274275E+03  0.21398939184E+04  0.21596314841E+04  0.91994779538E+02 0.  0.
        254    2    1    2    0    0  0.15607414819E+03  0.22812274275E+03  0.97219170988E+03  0.13394962754E+04  0.87903038937E+03 0.  0.
        -24    2    4    4    0    0  0.19994130326E+03 -0.16083689488E+03  0.79179557271E+03  0.83631936736E+03  0.81515788336E+02 0.  0.
         11    1    3    3    0    0  0.10614874612E+02 -0.32235210465E+01  0.10170638496E+03  0.10230960557E+03  0.00000000000E+00 0.  1.
        -11    1    3    3    0    0 -0.16668902280E+03 -0.22489922171E+03  0.20381875335E+04  0.20573218785E+04  0.00000000000E+00 0. -1.
          4    1    4    4  502    0 -0.89727163626E+02  0.13092230433E+03 -0.36643580159E+02  0.16289372496E+03  0.00000000000E+00 0. -1.
          3    1    5    5  503    0  0.82941649901E+02 -0.11356961893E+03  0.36108277157E+03  0.38750244329E+03  0.00000000000E+00 0. -1.
         -4    1    5    5    0  503  0.11699965336E+03 -0.47267275957E+02  0.43071280115E+03  0.44881692407E+03  0.00000000000E+00 0.  1.
         -3    1    4    4    0  502  0.45860008559E+02  0.25803733330E+03  0.21703971732E+03  0.34028318304E+03  0.00000000000E+00 0.  1.
<mgrwt>
<rscale>  0 0.15996306E+04</rscale>
<asrwt>0</asrwt>
<pdfrwt beam="1">  1        2 0.50855483E+00 0.15996306E+04</pdfrwt>
<pdfrwt beam="2">  1       -2 0.29772474E-01 0.15996306E+04</pdfrwt>
<totfact> 0.11117821E+01</totfact>
</mgrwt>
</event>
<event>
11    1  0.2406360E-008  0.1286826E+04  0.7818608E-02  0.9040078E-01
         -1   -1    0    0    0  501 -0.00000000000E+00  0.00000000000E+00  0.16797033361E+03  0.16797033361E+03  0.00000000000E+00 0.  1.
          1   -1    0    0  501    0  0.00000000000E+00 -0.00000000000E+00 -0.24646018303E+04  0.24646018303E+04  0.00000000000E+00 0. -1.
         23    2    1    2    0    0 -0.49970070020E+02 -0.18377850316E+03 -0.10837650185E+04  0.11045814425E+04  0.96343145656E+02 0.  0.
        254    2    1    2    0    0  0.49970070020E+02  0.18377850316E+03 -0.12128664782E+04  0.15279907214E+04  0.90963674323E+03 0.  0.
        -24    2    4    4    0    0 -0.32326546386E+03 -0.10974374197E+03 -0.78750582748E+03  0.86208834457E+03  0.80539657994E+02 0.  0.
         13    1    3    3    0    0 -0.43134008480E+02 -0.19417167094E+03 -0.97316971643E+03  0.99328871808E+03  0.00000000000E+00 0. -1.
        -13    1    3    3    0    0 -0.68360615399E+01  0.10393167783E+02 -0.11059530205E+03  0.11129272443E+03  0.00000000000E+00 0.  1.
          2    1    4    4  502    0  0.33083303768E+02  0.23685597887E+02 -0.14132517199E+03  0.14706568863E+03  0.00000000000E+00 0. -1.
          3    1    5    5  503    0 -0.67154970499E+02 -0.59390872290E+02 -0.21016536803E+03  0.22848752196E+03  0.00000000000E+00 0. -1.
         -4    1    5    5    0  503 -0.25611049336E+03 -0.50352869681E+02 -0.57734045945E+03  0.63360082261E+03  0.00000000000E+00 0.  1.
         -1    1    4    4    0  502  0.34015223011E+03  0.26983664724E+03 -0.28403547873E+03  0.51883668820E+03  0.00000000000E+00 0.  1.
<mgrwt>
<rscale>  0 0.12868255E+04</rscale>
<asrwt>0</asrwt>
<pdfrwt beam="1">  1        1 0.37916947E+00 0.12868255E+04</pdfrwt>
<pdfrwt beam="2">  1       -1 0.25841593E-01 0.12868255E+04</pdfrwt>
<totfact> 0.18738377E+01</totfact>
</mgrwt>
</event>
<event>
12    1  0.2406360E-008  0.1277830E+04  0.7818608E-02  0.9047333E-01
          2   -1    0    0  501    0  0.00000000000E+00  0.00000000000E+00  0.89235051213E+03  0.89235051213E+03  0.00000000000E+00 0. -1.
         -2   -1    0    0    0  501 -0.00000000000E+00 -0.00000000000E+00 -0.45745729837E+03  0.45745729837E+03  0.00000000000E+00 0.  1.
         23    2    1    2    0    0 -0.21320746820E+03  0.18302700212E+02 -0.12595282792E+03  0.26439559460E+03  0.90821265419E+02 0.  0.
        254    2    1    2    0    0  0.21320746820E+03 -0.18302700212E+02  0.56084604168E+03  0.10854122159E+04  0.90431133058E+03 0.  0.
        -24    2    4    4    0    0 -0.12798070762E+03  0.11328744156E+03 -0.17533266178E+03  0.25836287016E+03  0.82442249219E+02 0.  0.
         24    2    4    4    0    0  0.34118817582E+03 -0.13159014177E+03  0.73617870346E+03  0.82704934574E+03  0.91248014418E+02 0.  0.
         11    1    3    3    0    0 -0.16257188957E+03  0.43864352869E+02 -0.63324697434E+02  0.17989918854E+03  0.00000000000E+00 0.  1.
        -11    1    3    3    0    0 -0.50635578628E+02 -0.25561652656E+02 -0.62628130485E+02  0.84496406063E+02  0.00000000000E+00 0. -1.
          4    1    6    6  502    0  0.21696848959E+03 -0.94258493513E+02  0.56301954972E+03  0.61069714462E+03  0.00000000000E+00 0. -1.
          1    1    5    5  503    0 -0.53585830359E+02  0.78740469176E+02 -0.13935697627E+03  0.16879534808E+03  0.00000000000E+00 0. -1.
         -2    1    5    5    0  503 -0.74394877259E+02  0.34546972379E+02 -0.35975685510E+02  0.89567522076E+02  0.00000000000E+00 0.  1.
         -3    1    6    6    0  502  0.12421968623E+03 -0.37331648254E+02  0.17315915373E+03  0.21635220112E+03  0.00000000000E+00 0.  1.
<mgrwt>
<rscale>  0 0.12778298E+04</rscale>
<asrwt>0</asrwt>
<pdfrwt beam="1">  1        2 0.13728469E+00 0.12778298E+04</pdfrwt>
<pdfrwt beam="2">  1       -2 0.70378046E-01 0.12778298E+04</pdfrwt>
<totfact> 0.53534685E+01</totfact>
</mgrwt>
</event>
<event>
11    1  0.2406360E-008  0.1404268E+04  0.7818608E-02  0.8950735E-01
         -2   -1    0    0    0  501 -0.00000000000E+00  0.00000000000E+00  0.49159422004E+03  0.49159422004E+03  0.00000000000E+00 0. -1.
          2   -1    0    0  501    0  0.00000000000E+00 -0.00000000000E+00 -0.10028435619E+04  0.10028435619E+04  0.00000000000E+00 0.  1.
         23    2    1    2    0    0 -0.39839512576E+02  0.40071501221E+03 -0.10027476450E+03  0.42481319564E+03  0.90837850196E+02 0.  0.
        254    2    1    2    0    0  0.39839512576E+02 -0.40071501221E+03 -0.41097457736E+03  0.10696245863E+04  0.90168561294E+03 0.  0.
        -24    2    4    4    0    0  0.48913358109E+02 -0.37076818441E+03  0.20739865859E+03  0.43501082433E+03  0.79741147045E+02 0.  0.
         13    1    3    3    0    0 -0.40937028348E+02  0.76742255592E+02 -0.50090749198E+01  0.87122355999E+02  0.00000000000E+00 0.  1.
        -13    1    3    3    0    0  0.10975157717E+01  0.32397275661E+03 -0.95265689578E+02  0.33769083964E+03  0.00000000000E+00 0. -1.
          2    1    4    4  502    0 -0.66251613596E+02 -0.41270862249E+01 -0.45118752545E+03  0.45604439725E+03  0.00000000000E+00 0. -1.
          1    1    5    5  503    0  0.25627301282E+02 -0.27746945359E+03  0.11434821432E+03  0.30120021641E+03  0.00000000000E+00 0. -1.
         -4    1    5    5    0  503  0.23286056827E+02 -0.93298730823E+02  0.93050444268E+02  0.13381060793E+03  0.00000000000E+00 0.  1.
         -1    1    4    4    0  502  0.57177768063E+02 -0.25819741571E+02 -0.16718571050E+03  0.17856936470E+03  0.00000000000E+00 0.  1.
<mgrwt>
<rscale>  0 0.14042679E+04</rscale>
<asrwt>0</asrwt>
<pdfrwt beam="1">  1        2 0.15428362E+00 0.14042679E+04</pdfrwt>
<pdfrwt beam="2">  1       -2 0.75629880E-01 0.14042679E+04</pdfrwt>
<totfact> 0.38263331E+01</totfact>
</mgrwt>
</event>
<event>
11    1  0.2406360E-008  0.1952343E+04  0.7818608E-02  0.8629232E-01
         -1   -1    0    0    0  501 -0.00000000000E+00  0.00000000000E+00  0.91141359645E+03  0.91141359645E+03  0.00000000000E+00 0.  1.
          1   -1    0    0  501    0  0.00000000000E+00 -0.00000000000E+00 -0.10455306610E+04  0.10455306610E+04  0.00000000000E+00 0. -1.
         23    2    1    2    0    0  0.75399300997E+03 -0.95072585556E+01  0.90444607953E+02  0.76506297506E+03  0.92440692605E+02 0.  0.
        254    2    1    2    0    0 -0.75399300997E+03  0.95072585556E+01 -0.22456167254E+03  0.11918812824E+04  0.89529726883E+03 0.  0.
        -24    2    4    4    0    0 -0.38051568959E+03  0.43059331576E+03 -0.20880294795E+03  0.61664841619E+03  0.80335574361E+02 0.  0.
         11    1    3    3    0    0  0.61587535785E+03 -0.10224330206E+02  0.37355699696E+02  0.61709192316E+03  0.00000000000E+00 0.  1.
        -11    1    3    3    0    0  0.13811765213E+03  0.71707165025E+00  0.53088908257E+02  0.14797105190E+03  0.00000000000E+00 0. -1.
          2    1    4    4  502    0 -0.12158397782E+03 -0.21269667042E+03 -0.36295342238E+02  0.24766891032E+03  0.00000000000E+00 0. -1.
          1    1    5    5  503    0 -0.15653326693E+03  0.19786785092E+03 -0.52008832601E+02  0.25760292846E+03  0.00000000000E+00 0. -1.
         -2    1    5    5    0  503 -0.22398242266E+03  0.23272546485E+03 -0.15679411535E+03  0.35904548773E+03  0.00000000000E+00 0.  1.
         -1    1    4    4    0  502 -0.25189334257E+03 -0.20838938679E+03  0.20536617653E+02  0.32756395593E+03  0.00000000000E+00 0.  1.
<mgrwt>
<rscale>  0 0.19523431E+04</rscale>
<asrwt>0</asrwt>
<pdfrwt beam="1">  1        1 0.16085087E+00 0.19523431E+04</pdfrwt>
<pdfrwt beam="2">  1       -1 0.14021748E+00 0.19523431E+04</pdfrwt>
<totfact> 0.54245455E+00</totfact>
</mgrwt>
</event>
<event>
12    1  0.2406360E-008  0.2302892E+04  0.7818608E-02  0.8476782E-01
         -3   -1    0    0    0  501 -0.00000000000E+00  0.00000000000E+00  0.71683777585E+03  0.71683777585E+03  0.00000000000E+00 0.  1.
          3   -1    0    0  501    0  0.00000000000E+00 -0.00000000000E+00 -0.18495512397E+04  0.18495512397E+04  0.00000000000E+00 0. -1.
         23    2    1    2    0    0 -0.54569291340E+02 -0.96677949453E+03 -0.50912079944E+03  0.10979031364E+04  0.92449499664E+02 0.  0.
        254    2    1    2    0    0  0.54569291340E+02  0.96677949453E+03 -0.62359266446E+03  0.14684858792E+04  0.91101183719E+03 0.  0.
        -24    2    4    4    0    0 -0.12949581625E+03  0.87740264990E+03 -0.10021066745E+03  0.89602577637E+03  0.78838046475E+02 0.  0.
         24    2    4    4    0    0  0.18406510759E+03  0.89376844629E+02 -0.52338199701E+03  0.57246010278E+03  0.10914976085E+03 0.  0.
         13    1    3    3    0    0 -0.81959693546E+01 -0.27480272718E+03 -0.19185938264E+03  0.33525174942E+03  0.00000000000E+00 0.  1.
        -13    1    3    3    0    0 -0.46373321985E+02 -0.69197676735E+03 -0.31726141680E+03  0.76265138703E+03  0.00000000000E+00 0. -1.
          4    1    6    6  502    0  0.12890276450E+03  0.50406820369E+01 -0.33169798276E+03  0.35590010247E+03  0.00000000000E+00 0. -1.
          1    1    5    5  503    0 -0.71696624995E+02  0.55904617472E+03 -0.26915690815E+02  0.56426721145E+03  0.00000000000E+00 0. -1.
         -2    1    5    5    0  503 -0.57799191257E+02  0.31835647518E+03 -0.73294976635E+02  0.33175856493E+03  0.00000000000E+00 0.  1.
         -3    1    6    6    0  502  0.55162343095E+02  0.84336162592E+02 -0.19168401425E+03  0.21656000031E+03  0.00000000000E+00 0.  1.
<mgrwt>
<rscale>  0 0.23028923E+04</rscale>
<asrwt>0</asrwt>
<pdfrwt beam="1">  1        3 0.28454635E+00 0.23028923E+04</pdfrwt>
<pdfrwt beam="2">  1       -3 0.11028273E+00 0.23028923E+04</pdfrwt>
<totfact> 0.77218861E-02</totfact>
</mgrwt>
</event>
<event>
12    1  0.2406360E-008  0.1695693E+04  0.7818608E-02  0.8763825E-01
          2   -1    0    0  501    0  0.00000000000E+00  0.00000000000E+00  0.10444438823E+04  0.10444438823E+04  0.00000000000E+00 0. -1.
         -2   -1    0    0    0  501 -0.00000000000E+00 -0.00000000000E+00 -0.68825482777E+03  0.68825482777E+03  0.00000000000E+00 0.  1.
         23    2    1    2    0    0  0.58309538170E+03  0.14345036653E+02 -0.52805308805E+02  0.59251542182E+03  0.89889488927E+02 0.  0.
        254    2    1    2    0    0 -0.58309538170E+03 -0.14345036653E+02  0.40899436328E+03  0.11401832882E+04  0.89024465022E+03 0.  0.
        -24    2    4    4    0    0 -0.36236761196E+03  0.41714129929E+03  0.29867169461E+03  0.63377426187E+03  0.84545159976E+02 0.  0.
         24    2    4    4    0    0 -0.22072776975E+03 -0.43148633595E+03  0.11032266867E+03  0.50640902633E+03  0.96839063819E+02 0.  0.
         11    1    3    3    0    0  0.28751502339E+02  0.95004563153E+01  0.15397921372E+02  0.33970627600E+02  0.00000000000E+00 0. -1.
        -11    1    3    3    0    0  0.55434387936E+03  0.48445803381E+01 -0.68203230177E+02  0.55854479422E+03  0.00000000000E+00 0.  1.
          2    1    6    6  502    0 -0.12413880753E+03 -0.16128894110E+03  0.76702049803E+02  0.21750349538E+03  0.00000000000E+00 0. -1.
          3    1    5    5  503    0 -0.15334383522E+03  0.14252379234E+03  0.15236614726E+03  0.25892625594E+03  0.00000000000E+00 0. -1.
         -4    1    5    5    0  503 -0.20902377674E+03  0.27461750695E+03  0.14630554736E+03  0.37484800593E+03  0.00000000000E+00 0.  1.
         -1    1    6    6    0  502 -0.96588962210E+02 -0.27019739485E+03  0.33620618870E+02  0.28890553095E+03  0.00000000000E+00 0.  1.
<mgrwt>
<rscale>  0 0.16956928E+04</rscale>
<asrwt>0</asrwt>
<pdfrwt beam="1">  1        2 0.16068368E+00 0.16956928E+04</pdfrwt>
<pdfrwt beam="2">  1       -2 0.10588536E+00 0.16956928E+04</pdfrwt>
<totfact> 0.16184227E+01</totfact>
</mgrwt>
</event>
<event>
11    1  0.2406360E-008  0.1894022E+04  0.7818608E-02  0.8657838E-01
         -1   -1    0    0    0  501 -0.00000000000E+00  0.00000000000E+00  0.65762901390E+03  0.65762901390E+03  0.00000000000E+00 0.  1.
          1   -1    0    0  501    0  0.00000000000E+00 -0.00000000000E+00 -0.13637327651E+04  0.13637327651E+04  0.00000000000E+00 0. -1.
         23    2    1    2    0    0 -0.37755264696E+03 -0.62322681658E+03 -0.24144334438E+03  0.77250634657E+03  0.86680452243E+02 0.  0.
        254    2    1    2    0    0  0.37755264696E+03  0.62322681658E+03 -0.46466040680E+03  0.12488554324E+04  0.90153920119E+03 0.  0.
        -24    2    4    4    0    0  0.49291817038E+03  0.53451653607E+03 -0.60445683427E+03  0.94875316389E+03  0.78027248271E+02 0.  0.
         13    1    3    3    0    0 -0.46680463884E+02 -0.81824253376E+02 -0.63214066511E+02  0.11344731092E+03  0.00000000000E+00 0. -1.
        -13    1    3    3    0    0 -0.33087218308E+03 -0.54140256321E+03 -0.17822927787E+03  0.65905903565E+03  0.00000000000E+00 0.  1.
          4    1    4    4  502    0 -0.72906179733E+02 -0.55804657832E+02 -0.39467309376E+01  0.91896939906E+02  0.00000000000E+00 0. -1.
          3    1    5    5  503    0  0.35678003728E+02  0.19300152016E+02 -0.19332116283E+02  0.44934914464E+02  0.00000000000E+00 0. -1.
         -4    1    5    5    0  503  0.45724016666E+03  0.51521638405E+03 -0.58512471799E+03  0.90381824943E+03  0.00000000000E+00 0.  1.
         -1    1    4    4    0  502 -0.42459343689E+02  0.14451493835E+03  0.14374315842E+03  0.20820532862E+03  0.00000000000E+00 0.  1.
<mgrwt>
<rscale>  0 0.18940224E+04</rscale>
<asrwt>0</asrwt>
<pdfrwt beam="1">  1        1 0.20980504E+00 0.18940224E+04</pdfrwt>
<pdfrwt beam="2">  1       -1 0.10117370E+00 0.18940224E+04</pdfrwt>
<totfact> 0.70782236E+00</totfact>
</mgrwt>
</event>
<event>
12    1  0.2406360E-008  0.4352808E+04  0.7818608E-02  0.7936925E-01
          2   -1    0    0  501    0  0.00000000000E+00  0.00000000000E+00  0.22121091463E+04  0.22121091463E+04  0.00000000000E+00 0. -1.
         -2   -1    0    0    0  501 -0.00000000000E+00 -0.00000000000E+00 -0.21412753588E+04  0.21412753588E+04  0.00000000000E+00 0.  1.
         23    2    1    2    0    0  0.17994451250E+04 -0.93329925533E+03 -0.41478834665E+03  0.20710393277E+04  0.90023700731E+02 0.  0.
        254    2    1    2    0    0 -0.17994451250E+04  0.93329925533E+03  0.48562213417E+03  0.22823451773E+04  0.92963454824E+03 0.  0.
        -24    2    4    4    0    0 -0.17042686783E+04  0.90627012051E+03  0.67482376460E+03  0.20464047269E+04  0.80795630825E+02 0.  0.
         24    2    4    4    0    0 -0.95176446707E+02  0.27029134821E+02 -0.18920163043E+03  0.23594045038E+03  0.10040671806E+03 0.  0.
         13    1    3    3    0    0  0.10200968871E+04 -0.48193815807E+03 -0.24676216155E+03  0.11548825099E+04  0.00000000000E+00 0.  1.
        -13    1    3    3    0    0  0.77934823789E+03 -0.45136109725E+03 -0.16802618510E+03  0.91615681785E+03  0.00000000000E+00 0. -1.
          4    1    6    6  502    0 -0.14928012471E+02  0.43853850247E+02 -0.25565352137E+02  0.52911179987E+02  0.00000000000E+00 0. -1.
          1    1    5    5  503    0 -0.24053589832E+03  0.14056619207E+03  0.70073690295E+02  0.28727459826E+03  0.00000000000E+00 0. -1.
         -2    1    5    5    0  503 -0.14637327800E+04  0.76570392844E+03  0.60475007431E+03  0.17591301287E+04  0.00000000000E+00 0.  1.
         -3    1    6    6    0  502 -0.80248434236E+02 -0.16824715425E+02 -0.16363627830E+03  0.18302927039E+03  0.00000000000E+00 0.  1.
<mgrwt>
<rscale>  0 0.43528082E+04</rscale>
<asrwt>0</asrwt>
<pdfrwt beam="1">  1        2 0.34032448E+00 0.43528082E+04</pdfrwt>
<pdfrwt beam="2">  1       -2 0.32942698E+00 0.43528082E+04</pdfrwt>
<totfact> 0.81575959E-02</totfact>
</mgrwt>
</event>
<event>
11    1  0.2406360E-008  0.1873725E+04  0.7818608E-02  0.8668047E-01
         -2   -1    0    0    0  501 -0.00000000000E+00  0.00000000000E+00  0.35921932654E+03  0.35921932654E+03  0.00000000000E+00 0.  1.
          2   -1    0    0  501    0  0.00000000000E+00 -0.00000000000E+00 -0.24433850454E+04  0.24433850454E+04  0.00000000000E+00 0. -1.
         23    2    1    2    0    0 -0.49008416066E+03  0.37208135593E+03 -0.25901620926E+03  0.67326890431E+03  0.87032183101E+02 0.  0.
        254    2    1    2    0    0  0.49008416066E+03 -0.37208135593E+03 -0.18251495096E+04  0.21293354677E+04  0.90789414657E+03 0.  0.
        -24    2    4    4    0    0  0.61382427077E+03 -0.39730577289E+03 -0.17969745954E+04  0.19417332017E+04  0.81104979702E+02 0.  0.
         11    1    3    3    0    0 -0.41664336631E+02  0.17440384545E+02  0.10705955661E+01  0.45179974932E+02  0.00000000000E+00 0. -1.
        -11    1    3    3    0    0 -0.44841982403E+03  0.35464097139E+03 -0.26008680482E+03  0.62808892938E+03  0.00000000000E+00 0.  1.
          4    1    4    4  502    0 -0.69536169689E+02  0.68185047896E+02 -0.56807587262E+02  0.11274565013E+03  0.00000000000E+00 0. -1.
          1    1    5    5  503    0  0.11384331203E+03 -0.11144728023E+03 -0.36274022096E+03  0.39618337152E+03  0.00000000000E+00 0. -1.
         -2    1    5    5    0  503  0.49998095874E+03 -0.28585849267E+03 -0.14342343744E+04  0.15455498302E+04  0.00000000000E+00 0.  1.
         -3    1    4    4    0  502 -0.54203940417E+02 -0.42960630933E+02  0.28632673002E+02  0.74856615807E+02  0.00000000000E+00 0.  1.
<mgrwt>
<rscale>  0 0.18737248E+04</rscale>
<asrwt>0</asrwt>
<pdfrwt beam="1">  1        2 0.37590539E+00 0.18737248E+04</pdfrwt>
<pdfrwt beam="2">  1       -2 0.55264512E-01 0.18737248E+04</pdfrwt>
<totfact> 0.10851642E+01</totfact>
</mgrwt>
</event>
<event>
12    1  0.2406360E-008  0.1310478E+04  0.7818608E-02  0.9021297E-01
          2   -1    0    0  501    0  0.00000000000E+00  0.00000000000E+00  0.19933878086E+04  0.19933878086E+04  0.00000000000E+00 0. -1.
         -2   -1    0    0    0  501 -0.00000000000E+00 -0.00000000000E+00 -0.21538121100E+03  0.21538121100E+03  0.00000000000E+00 0.  1.
         23    2    1    2    0    0 -0.12295344109E+03  0.37385154717E+02  0.73259421064E+03  0.74979161457E+03  0.94752252410E+02 0.  0.
        254    2    1    2    0    0  0.12295344109E+03 -0.37385154717E+02  0.10454123870E+04  0.14589774051E+04  0.10095607021E+04 0.  0.
        -24    2    4    4    0    0  0.59981313078E+01 -0.13475784458E+03 -0.17072651823E+03  0.22992820212E+03  0.74322135658E+02 0.  0.
         24    2    4    4    0    0  0.11695530978E+03  0.97372689867E+02  0.12161389052E+04  0.12290492030E+04  0.91695808292E+02 0.  0.
         11    1    3    3    0    0 -0.79448339037E+02  0.42601768703E+02  0.65067424487E+03  0.65688958144E+03  0.00000000000E+00 0. -1.
        -11    1    3    3    0    0 -0.43505102051E+02 -0.52166139855E+01  0.81919965775E+02  0.92902033124E+02  0.00000000000E+00 0.  1.
          2    1    6    6  502    0 -0.28325053881E+01  0.46980935825E+02  0.37196724650E+03  0.37493314588E+03  0.00000000000E+00 0. -1.
          1    1    5    5  503    0  0.33909871865E+02 -0.58941098262E+02 -0.10808906042E+03  0.12769955934E+03  0.00000000000E+00 0. -1.
         -2    1    5    5    0  503 -0.27911740557E+02 -0.75816746322E+02 -0.62637457811E+02  0.10222864278E+03  0.00000000000E+00 0.  1.
         -1    1    6    6    0  502  0.11978781517E+03  0.50391754041E+02  0.84417165874E+03  0.85411605707E+03  0.00000000000E+00 0.  1.
<mgrwt>
<rscale>  0 0.13104782E+04</rscale>
<asrwt>0</asrwt>
<pdfrwt beam="1">  1        2 0.30667504E+00 0.13104782E+04</pdfrwt>
<pdfrwt beam="2">  1       -2 0.33135572E-01 0.13104782E+04</pdfrwt>
<totfact> 0.56168972E+01</totfact>
</mgrwt>
</event>
<event>
12    1  0.2406360E-008  0.2049018E+04  0.7818608E-02  0.8584040E-01
         -2   -1    0    0    0  501 -0.00000000000E+00  0.00000000000E+00  0.35707638027E+03  0.35707638027E+03  0.00000000000E+00 0.  1.
          2   -1    0    0  501    0  0.00000000000E+00 -0.00000000000E+00 -0.29394784808E+04  0.29394784808E+04  0.00000000000E+00 0. -1.
         23    2    1    2    0    0 -0.74124105065E+03  0.15704880041E+02 -0.15401838075E+04  0.17117158701E+04  0.90111713009E+02 0.  0.
        254    2    1    2    0    0  0.74124105065E+03 -0.15704880041E+02 -0.10422182930E+04  0.15848389909E+04  0.93584759355E+03 0.  0.
        -24    2    4    4    0    0  0.32622854445E+03  0.20562645582E+02  0.11144347068E+03  0.35449511923E+03  0.79995354820E+02 0.  0.
         24    2    4    4    0    0  0.41501250620E+03 -0.36267525623E+02 -0.11536617637E+04  0.12303438717E+04  0.96228186162E+02 0.  0.
         11    1    3    3    0    0 -0.53008326310E+03  0.61286040732E+01 -0.11890348537E+04  0.13018562551E+04  0.00000000000E+00 0. -1.
        -11    1    3    3    0    0 -0.21115778755E+03  0.95762759676E+01 -0.35114895382E+03  0.40985961508E+03  0.00000000000E+00 0.  1.
          4    1    6    6  502    0  0.16696918328E+03  0.18539590619E+02 -0.36556276942E+03  0.40231649602E+03  0.00000000000E+00 0. -1.
          1    1    5    5  503    0  0.21313082702E+02 -0.15463823413E+02 -0.36748431538E+01  0.26587248843E+02  0.00000000000E+00 0. -1.
         -2    1    5    5    0  503  0.30491546175E+03  0.36026468995E+02  0.11511831384E+03  0.32790787039E+03  0.00000000000E+00 0.  1.
         -3    1    6    6    0  502  0.24804332292E+03 -0.54807116242E+02 -0.78809899427E+03  0.82802737564E+03  0.00000000000E+00 0.  1.
<mgrwt>
<rscale>  0 0.20490177E+04</rscale>
<asrwt>0</asrwt>
<pdfrwt beam="1">  1        2 0.45222745E+00 0.20490177E+04</pdfrwt>
<pdfrwt beam="2">  1       -2 0.54934829E-01 0.20490177E+04</pdfrwt>
<totfact> 0.54877092E+00</totfact>
</mgrwt>
</event>
<event>
12    1  0.2406360E-008  0.1897086E+04  0.7818608E-02  0.8656308E-01
         -1   -1    0    0    0  501 -0.00000000000E+00  0.00000000000E+00  0.11533220676E+04  0.11533220676E+04  0.00000000000E+00 0.  1.
          1   -1    0    0  501    0  0.00000000000E+00 -0.00000000000E+00 -0.78012330232E+03  0.78012330232E+03  0.00000000000E+00 0. -1.
         23    2    1    2    0    0  0.68913252898E+03 -0.30247776150E+01  0.40168507420E+03  0.80285477532E+03  0.91170717030E+02 0.  0.
        254    2    1    2    0    0 -0.68913252898E+03  0.30247776150E+01 -0.28486308942E+02  0.11305905946E+04  0.89582968859E+03 0.  0.
        -24    2    4    4    0    0 -0.63333064914E+03 -0.17133439079E+03  0.31404487703E+03  0.73166098578E+03  0.78996384168E+02 0.  0.
         24    2    4    4    0    0 -0.55801879836E+02  0.17435916840E+03 -0.34253118598E+03  0.39892960879E+03  0.91116683464E+02 0.  0.
         13    1    3    3    0    0  0.21752487143E+02  0.16139077271E+02  0.21182372364E+02  0.34385075411E+02  0.00000000000E+00 0. -1.
        -13    1    3    3    0    0  0.66738004184E+03 -0.19163854886E+02  0.38050270184E+03  0.76846969991E+03  0.00000000000E+00 0.  1.
          2    1    6    6  502    0  0.16317350143E+02  0.79201420502E+02 -0.17929019257E+03  0.19668272440E+03  0.00000000000E+00 0. -1.
          3    1    5    5  503    0 -0.52286858762E+03 -0.16387592992E+03  0.23834027893E+03  0.59753909403E+03  0.00000000000E+00 0. -1.
         -4    1    5    5    0  503 -0.11046206152E+03 -0.74584608709E+01  0.75704598102E+02  0.13412189175E+03  0.00000000000E+00 0.  1.
         -1    1    6    6    0  502 -0.72119229979E+02  0.95157747903E+02 -0.16324099340E+03  0.20224688439E+03  0.00000000000E+00 0.  1.
<mgrwt>
<rscale>  0 0.18970856E+04</rscale>
<asrwt>0</asrwt>
<pdfrwt beam="1">  1        1 0.12001897E+00 0.18970856E+04</pdfrwt>
<pdfrwt beam="2">  1       -1 0.17743417E+00 0.18970856E+04</pdfrwt>
<totfact> 0.46778308E+00</totfact>
</mgrwt>
</event>
<event>
12    1  0.2406360E-008  0.1451234E+04  0.7818608E-02  0.8917545E-01
          1   -1    0    0  501    0  0.00000000000E+00  0.00000000000E+00  0.72698516328E+03  0.72698516328E+03  0.00000000000E+00 0. -1.
         -1   -1    0    0    0  501 -0.00000000000E+00 -0.00000000000E+00 -0.72425140478E+03  0.72425140478E+03  0.00000000000E+00 0.  1.
         23    2    1    2    0    0  0.33477102221E+03 -0.20131272755E+03  0.19799078118E+03  0.44842859389E+03  0.96381548026E+02 0.  0.
        254    2    1    2    0    0 -0.33477102221E+03  0.20131272755E+03 -0.19525702268E+03  0.10028079742E+04  0.90271816009E+03 0.  0.
        -24    2    4    4    0    0 -0.16574052060E+03  0.46994143381E+03 -0.37234900931E+03  0.62713816217E+03  0.79646835037E+02 0.  0.
         24    2    4    4    0    0 -0.16903050161E+03 -0.26862870626E+03  0.17709198663E+03  0.37566981200E+03  0.95044955758E+02 0.  0.
         13    1    3    3    0    0  0.29752877448E+03 -0.18276686668E+03  0.20690784045E+03  0.40587923529E+03  0.00000000000E+00 0. -1.
        -13    1    3    3    0    0  0.37242247735E+02 -0.18545860868E+02 -0.89170592657E+01  0.42549358604E+02  0.00000000000E+00 0.  1.
          2    1    6    6  502    0 -0.17516084685E+03 -0.23579852823E+03  0.17563058407E+03  0.34224022301E+03  0.00000000000E+00 0. -1.
          1    1    5    5  503    0 -0.10448889711E+03  0.31755925402E+03 -0.29391591154E+03  0.44513859919E+03  0.00000000000E+00 0. -1.
         -2    1    5    5    0  503 -0.61251623491E+02  0.15238217979E+03 -0.78433097772E+02  0.18199956298E+03  0.00000000000E+00 0.  1.
         -1    1    6    6    0  502  0.61303452461E+01 -0.32830178031E+02  0.14614025658E+01  0.33429588987E+02  0.00000000000E+00 0.  1.
<mgrwt>
<rscale>  0 0.14512340E+04</rscale>
<asrwt>0</asrwt>
<pdfrwt beam="1">  1        1 0.11184387E+00 0.14512340E+04</pdfrwt>
<pdfrwt beam="2">  1       -1 0.11142329E+00 0.14512340E+04</pdfrwt>
<totfact> 0.18488298E+01</totfact>
</mgrwt>
</event>
<event>
12    1  0.2406360E-008  0.1420875E+04  0.7818608E-02  0.8938845E-01
         -2   -1    0    0    0  501 -0.00000000000E+00  0.00000000000E+00  0.62579803858E+03  0.62579803858E+03  0.00000000000E+00 0.  1.
          2   -1    0    0  501    0  0.00000000000E+00 -0.00000000000E+00 -0.80652459979E+03  0.80652459979E+03  0.00000000000E+00 0. -1.
         23    2    1    2    0    0  0.33213492243E+03 -0.13642479798E+03 -0.27124660411E+03  0.45923904081E+03  0.91653936943E+02 0.  0.
        254    2    1    2    0    0 -0.33213492243E+03  0.13642479798E+03  0.90520042904E+02  0.97308359756E+03  0.89987358972E+03 0.  0.
        -24    2    4    4    0    0 -0.10816653250E+02 -0.78859395949E+02 -0.35709308785E+03  0.37455682436E+03  0.80259186188E+02 0.  0.
         24    2    4    4    0    0 -0.32131826918E+03  0.21528419393E+03  0.44761313075E+03  0.59852677320E+03  0.91016861942E+02 0.  0.
         13    1    3    3    0    0  0.18164825878E+03 -0.65440677850E+02 -0.89438450119E+02  0.21278582800E+03  0.00000000000E+00 0.  1.
        -13    1    3    3    0    0  0.15048666365E+03 -0.70984120130E+02 -0.18180815399E+03  0.24645321281E+03  0.00000000000E+00 0. -1.
          4    1    6    6  502    0 -0.19335019713E+03  0.90611504869E+02  0.19535815440E+03  0.28941242550E+03  0.00000000000E+00 0. -1.
          3    1    5    5  503    0  0.15739493406E+01 -0.53136534276E+02 -0.80342580328E+02  0.96337421624E+02  0.00000000000E+00 0. -1.
         -4    1    5    5    0  503 -0.12390602590E+02 -0.25722861672E+02 -0.27675050752E+03  0.27821940273E+03  0.00000000000E+00 0.  1.
         -3    1    6    6    0  502 -0.12796807205E+03  0.12467268906E+03  0.25225497635E+03  0.30911434770E+03  0.00000000000E+00 0.  1.
<mgrwt>
<rscale>  0 0.14208751E+04</rscale>
<asrwt>0</asrwt>
<pdfrwt beam="1">  1        2 0.12408071E+00 0.14208751E+04</pdfrwt>
<pdfrwt beam="2">  1       -2 0.96276621E-01 0.14208751E+04</pdfrwt>
<totfact> 0.29921100E+01</totfact>
</mgrwt>
</event>
<event>
12    1  0.2406360E-008  0.1227518E+04  0.7818608E-02  0.9089105E-01
          2   -1    0    0  501    0  0.00000000000E+00  0.00000000000E+00  0.17033569507E+03  0.17033569507E+03  0.00000000000E+00 0. -1.
         -2   -1    0    0    0  501 -0.00000000000E+00 -0.00000000000E+00 -0.22115159687E+04  0.22115159687E+04  0.00000000000E+00 0.  1.
         23    2    1    2    0    0  0.93568304001E+02  0.23937241934E+03 -0.16126959729E+03  0.31791622058E+03  0.94913948618E+02 0.  0.
        254    2    1    2    0    0 -0.93568304001E+02 -0.23937241934E+03 -0.18799106763E+04  0.20639354432E+04  0.81222606460E+03 0.  0.
        -24    2    4    4    0    0 -0.13893153222E+03  0.25092210895E+03 -0.38122401912E+03  0.48362320066E+03  0.79345901301E+02 0.  0.
         24    2    4    4    0    0  0.45363228217E+02 -0.49029452829E+03 -0.14986866572E+04  0.15803122425E+04  0.94226007332E+02 0.  0.
         13    1    3    3    0    0  0.10606422727E+03  0.17205019388E+03 -0.97727073839E+02  0.22450271820E+03  0.00000000000E+00 0. -1.
        -13    1    3    3    0    0 -0.12495923266E+02  0.67322225464E+02 -0.63542523455E+02  0.93413502379E+02  0.00000000000E+00 0.  1.
          2    1    6    6  502    0  0.68900991103E+02 -0.23372522479E+03 -0.72424507590E+03  0.76413726335E+03  0.00000000000E+00 0. -1.
          3    1    5    5  503    0 -0.10330381296E+03  0.10704996371E+03 -0.17554203281E+03  0.23010079918E+03  0.00000000000E+00 0. -1.
         -4    1    5    5    0  503 -0.35627719263E+02  0.14387214524E+03 -0.20568198631E+03  0.25352240148E+03  0.00000000000E+00 0.  1.
         -1    1    6    6    0  502 -0.23537762886E+02 -0.25656930351E+03 -0.77444158129E+03  0.81617497916E+03  0.00000000000E+00 0.  1.
<mgrwt>
<rscale>  0 0.12275180E+04</rscale>
<asrwt>0</asrwt>
<pdfrwt beam="1">  1        2 0.26205495E-01 0.12275180E+04</pdfrwt>
<pdfrwt beam="2">  1       -2 0.34023318E+00 0.12275180E+04</pdfrwt>
<totfact> 0.37140351E+00</totfact>
</mgrwt>
</event>
<event>
12    1  0.2406360E-008  0.1163085E+04  0.7818608E-02  0.9145796E-01
         -2   -1    0    0    0  501 -0.00000000000E+00  0.00000000000E+00  0.18484142344E+03  0.18484142344E+03  0.00000000000E+00 0.  1.
          2   -1    0    0  501    0  0.00000000000E+00 -0.00000000000E+00 -0.18296325747E+04  0.18296325747E+04  0.00000000000E+00 0. -1.
         23    2    1    2    0    0  0.20792129759E+03  0.18428951144E+02 -0.51723500794E+03  0.56613446390E+03  0.96980851435E+02 0.  0.
        254    2    1    2    0    0 -0.20792129759E+03 -0.18428951144E+02 -0.11275561434E+04  0.14483395343E+04  0.88472236204E+03 0.  0.
        -24    2    4    4    0    0  0.15629656707E+03 -0.27650490886E+03 -0.13320705929E+03  0.35418263532E+03  0.82568983380E+02 0.  0.
         24    2    4    4    0    0 -0.36421786466E+03  0.25807595772E+03 -0.99434908407E+03  0.10941568990E+04  0.95871610242E+02 0.  0.
         11    1    3    3    0    0 -0.72797190366E+01  0.71404800912E+00 -0.21556206306E+01  0.76256720435E+01  0.00000000000E+00 0.  1.
        -11    1    3    3    0    0  0.21520101662E+03  0.17714903135E+02 -0.51507938731E+03  0.55850879185E+03  0.00000000000E+00 0. -1.
          2    1    6    6  502    0 -0.16436802286E+03  0.93606376134E+02 -0.52708439778E+03  0.55999728836E+03  0.00000000000E+00 0. -1.
          1    1    5    5  503    0  0.51159581012E+02 -0.15474479892E+03 -0.38368569265E+02  0.16743775748E+03  0.00000000000E+00 0. -1.
         -4    1    5    5    0  503  0.10513698606E+03 -0.12176010994E+03 -0.94838490021E+02  0.18674487784E+03  0.00000000000E+00 0.  1.
         -1    1    6    6    0  502 -0.19984984180E+03  0.16446958158E+03 -0.46726468630E+03  0.53415961060E+03  0.00000000000E+00 0.  1.
<mgrwt>
<rscale>  0 0.11630854E+04</rscale>
<asrwt>0</asrwt>
<pdfrwt beam="1">  1        2 0.28148194E+00 0.11630854E+04</pdfrwt>
<pdfrwt beam="2">  1       -2 0.28437142E-01 0.11630854E+04</pdfrwt>
<totfact> 0.93126392E+01</totfact>
</mgrwt>
</event>
<event>
11    1  0.2406360E-008  0.2764860E+04  0.7818608E-02  0.8314262E-01
         -2   -1    0    0    0  501 -0.00000000000E+00  0.00000000000E+00  0.10965720073E+04  0.10965720073E+04  0.00000000000E+00 0.  1.
          2   -1    0    0  501    0  0.00000000000E+00 -0.00000000000E+00 -0.17428060765E+04  0.17428060765E+04  0.00000000000E+00 0. -1.
         23    2    1    2    0    0  0.54623859016E+03 -0.91502272687E+03  0.34395694056E+03  0.11233052054E+04  0.88684945273E+02 0.  0.
        254    2    1    2    0    0 -0.54623859016E+03  0.91502272687E+03 -0.99019100976E+03  0.17160728783E+04  0.91037613089E+03 0.  0.
        -24    2    4    4    0    0 -0.68332946877E+03  0.30175611222E+03 -0.42952954838E+03  0.86554489616E+03  0.81709364226E+02 0.  0.
         13    1    3    3    0    0  0.87392174840E+02 -0.13594748165E+03  0.19918063098E+02  0.16283684849E+03  0.00000000000E+00 0. -1.
        -13    1    3    3    0    0  0.45884641532E+03 -0.77907524522E+03  0.32403887746E+03  0.96046835693E+03  0.00000000000E+00 0.  1.
          4    1    4    4  502    0  0.57944575595E+02  0.12058199046E+03 -0.17269567919E+03  0.21845225537E+03  0.00000000000E+00 0. -1.
          3    1    5    5  503    0 -0.37546468005E+03  0.12125176833E+03 -0.22779734635E+03  0.45559559731E+03  0.00000000000E+00 0. -1.
         -4    1    5    5    0  503 -0.30786478872E+03  0.18050434388E+03 -0.20173220202E+03  0.40994929885E+03  0.00000000000E+00 0.  1.
         -3    1    4    4    0  502  0.79146303009E+02  0.49268462419E+03 -0.38796578219E+03  0.63207572675E+03  0.00000000000E+00 0.  1.
<mgrwt>
<rscale>  0 0.27648597E+04</rscale>
<asrwt>0</asrwt>
<pdfrwt beam="1">  1        2 0.26812401E+00 0.27648597E+04</pdfrwt>
<pdfrwt beam="2">  1       -2 0.16870339E+00 0.27648597E+04</pdfrwt>
<totfact> 0.17641621E+00</totfact>
</mgrwt>
</event>
<event>
12    1  0.2406360E-008  0.1189570E+04  0.7818608E-02  0.9122035E-01
          1   -1    0    0  501    0  0.00000000000E+00  0.00000000000E+00  0.79725491540E+03  0.79725491540E+03  0.00000000000E+00 0. -1.
         -1   -1    0    0    0  501 -0.00000000000E+00 -0.00000000000E+00 -0.44373384028E+03  0.44373384028E+03  0.00000000000E+00 0.  1.
         23    2    1    2    0    0 -0.48187617953E+02 -0.20754705034E+03 -0.52737098849E+02  0.23750061914E+03  0.90705666134E+02 0.  0.
        254    2    1    2    0    0  0.48187617953E+02  0.20754705034E+03  0.40625817397E+03  0.10034881365E+04  0.89249364795E+03 0.  0.
        -24    2    4    4    0    0 -0.30234557694E+03  0.38808774461E+03  0.13558337944E+03  0.51665792660E+03  0.80793656443E+02 0.  0.
         24    2    4    4    0    0  0.35053319489E+03 -0.18054069428E+03  0.27067479453E+03  0.48683020994E+03  0.90941442196E+02 0.  0.
         11    1    3    3    0    0 -0.35405021102E+01 -0.14675599590E+02  0.21326005685E+02  0.26128660451E+02  0.00000000000E+00 0. -1.
        -11    1    3    3    0    0 -0.44647115843E+02 -0.19287145075E+03 -0.74063104533E+02  0.21137195869E+03  0.00000000000E+00 0.  1.
          4    1    6    6  502    0  0.92848461296E+02 -0.50624926767E+02  0.27037038971E+02  0.10915457595E+03  0.00000000000E+00 0. -1.
          3    1    5    5  503    0 -0.15689190407E+03  0.13965149053E+03  0.69985392812E+02  0.22139458796E+03  0.00000000000E+00 0. -1.
         -2    1    5    5    0  503 -0.14545367287E+03  0.24843625409E+03  0.65597986633E+02  0.29526333864E+03  0.00000000000E+00 0.  1.
         -3    1    6    6    0  502  0.25768473360E+03 -0.12991576751E+03  0.24363775556E+03  0.37767563399E+03  0.00000000000E+00 0.  1.
<mgrwt>
<rscale>  0 0.11895696E+04</rscale>
<asrwt>0</asrwt>
<pdfrwt beam="1">  1        1 0.12265460E+00 0.11895696E+04</pdfrwt>
<pdfrwt beam="2">  1       -1 0.68266745E-01 0.11895696E+04</pdfrwt>
<totfact> 0.47842253E+01</totfact>
</mgrwt>
</event>
<event>
12    1  0.2406360E-008  0.2959495E+04  0.7818608E-02  0.8255393E-01
          2   -1    0    0  501    0  0.00000000000E+00  0.00000000000E+00  0.26905158001E+04  0.26905158001E+04  0.00000000000E+00 0. -1.
         -2   -1    0    0    0  501 -0.00000000000E+00 -0.00000000000E+00 -0.81384136741E+03  0.81384136741E+03  0.00000000000E+00 0.  1.
         23    2    1    2    0    0 -0.31353921787E+03 -0.16387047849E+03 -0.67206204128E+03  0.76506775321E+03  0.92200351490E+02 0.  0.
        254    2    1    2    0    0  0.31353921787E+03  0.16387047849E+03  0.25487364740E+04  0.27392894143E+04  0.93940859411E+03 0.  0.
        -24    2    4    4    0    0  0.13496597660E+02 -0.35925809737E+03  0.68410723192E+03  0.77702031315E+03  0.80680379267E+02 0.  0.
         24    2    4    4    0    0  0.30004262020E+03  0.52312857586E+03  0.18646292421E+04  0.19622691012E+04  0.99843548727E+02 0.  0.
         11    1    3    3    0    0 -0.79037140339E+02 -0.33113860141E+02 -0.91138394907E+02  0.12509837854E+03  0.00000000000E+00 0. -1.
        -11    1    3    3    0    0 -0.23450207753E+03 -0.13075661835E+03 -0.58092364637E+03  0.63996937467E+03  0.00000000000E+00 0.  1.
          4    1    6    6  502    0  0.15954744871E+03  0.36685238559E+03  0.12769739635E+04  0.13381698564E+04  0.00000000000E+00 0. -1.
          3    1    5    5  503    0  0.37587961074E+02 -0.30361990952E+03  0.53932983090E+03  0.62006013481E+03  0.00000000000E+00 0. -1.
         -4    1    5    5    0  503 -0.24091363413E+02 -0.55638187851E+02  0.14477740102E+03  0.15696017834E+03  0.00000000000E+00 0.  1.
         -3    1    6    6    0  502  0.14049517150E+03  0.15627619027E+03  0.58765527858E+03  0.62409924475E+03  0.00000000000E+00 0.  1.
<mgrwt>
<rscale>  0 0.29594953E+04</rscale>
<asrwt>0</asrwt>
<pdfrwt beam="1">  1        2 0.41392550E+00 0.29594953E+04</pdfrwt>
<pdfrwt beam="2">  1       -2 0.12520637E+00 0.29594953E+04</pdfrwt>
<totfact> 0.11029080E+00</totfact>
</mgrwt>
</event>
<event>
11    1  0.2406360E-008  0.1588931E+04  0.7818608E-02  0.8827377E-01
          2   -1    0    0  501    0  0.00000000000E+00  0.00000000000E+00  0.13685249189E+04  0.13685249189E+04  0.00000000000E+00 0. -1.
         -2   -1    0    0    0  501 -0.00000000000E+00 -0.00000000000E+00 -0.46120877624E+03  0.46120877624E+03  0.00000000000E+00 0.  1.
         23    2    1    2    0    0 -0.32641375835E+03  0.37382565950E+03  0.85577498710E+02  0.51546052007E+03  0.10992940519E+03 0.  0.
        254    2    1    2    0    0  0.32641375835E+03 -0.37382565950E+03  0.82173864393E+03  0.13142731750E+04  0.89764581788E+03 0.  0.
        -24    2    4    4    0    0  0.16052933938E+02  0.20041199037E+03 -0.46115996173E+02  0.22063837587E+03  0.78306738105E+02 0.  0.
         13    1    3    3    0    0 -0.52916145906E+02  0.10941724987E+03  0.56232168124E+02  0.13391904195E+03  0.00000000000E+00 0. -1.
        -13    1    3    3    0    0 -0.27349761244E+03  0.26440840963E+03  0.29345330585E+02  0.38154147812E+03  0.00000000000E+00 0.  1.
          4    1    4    4  502    0  0.11308895446E+03 -0.19507870476E+03  0.40560732371E+03  0.46407123776E+03  0.00000000000E+00 0. -1.
          3    1    5    5  503    0 -0.10614633488E+02 -0.24731194790E+01 -0.10633519875E+00  0.10899452795E+02  0.00000000000E+00 0. -1.
         -2    1    5    5    0  503  0.26667567427E+02  0.20288510985E+03 -0.46009660974E+02  0.20973892308E+03  0.00000000000E+00 0.  1.
         -3    1    4    4    0  502  0.19727186995E+03 -0.37915894511E+03  0.46224731639E+03  0.62956356140E+03  0.00000000000E+00 0.  1.
<mgrwt>
<rscale>  0 0.15889313E+04</rscale>
<asrwt>0</asrwt>
<pdfrwt beam="1">  1        2 0.21054229E+00 0.15889313E+04</pdfrwt>
<pdfrwt beam="2">  1       -2 0.70955197E-01 0.15889313E+04</pdfrwt>
<totfact> 0.26127281E+01</totfact>
</mgrwt>
</event>
<event>
11    1  0.2406360E-008  0.1890098E+04  0.7818608E-02  0.8659801E-01
         -2   -1    0    0    0  501 -0.00000000000E+00  0.00000000000E+00  0.35226948249E+03  0.35226948249E+03  0.00000000000E+00 0.  1.
          2   -1    0    0  501    0  0.00000000000E+00 -0.00000000000E+00 -0.25353244573E+04  0.25353244573E+04  0.00000000000E+00 0. -1.
         23    2    1    2    0    0 -0.31617481677E+03  0.16046023421E+02  0.15604973288E+03  0.36365620703E+03  0.87580409651E+02 0.  0.
        254    2    1    2    0    0  0.31617481677E+03 -0.16046023421E+02 -0.23391047077E+04  0.25239377328E+04  0.89365925034E+03 0.  0.
        -24    2    4    4    0    0  0.38580255630E+03  0.26747059775E+03 -0.77352947574E+03  0.90834386753E+03  0.79728280580E+02 0.  0.
         11    1    3    3    0    0 -0.28000167629E+03  0.38791957761E+02  0.15141680127E+03  0.32067554072E+03  0.00000000000E+00 0.  1.
        -11    1    3    3    0    0 -0.36173140483E+02 -0.22745934339E+02  0.46329316137E+01  0.42980666313E+02  0.00000000000E+00 0. -1.
          4    1    4    4  502    0  0.53120224252E+02  0.30360426114E+02 -0.27662904248E+03  0.28331456165E+03  0.00000000000E+00 0. -1.
          3    1    5    5  503    0  0.30378578283E+02  0.23318496176E+01 -0.30846247870E+02  0.43356505265E+02  0.00000000000E+00 0. -1.
         -4    1    5    5    0  503  0.35542397802E+03  0.26513874814E+03 -0.74268322787E+03  0.86498736226E+03  0.00000000000E+00 0.  1.
         -3    1    4    4    0  502 -0.12274796378E+03 -0.31387704729E+03 -0.12889461895E+04  0.13322793036E+04  0.00000000000E+00 0.  1.
<mgrwt>
<rscale>  0 0.18900978E+04</rscale>
<asrwt>0</asrwt>
<pdfrwt beam="1">  1        2 0.39004992E+00 0.18900978E+04</pdfrwt>
<pdfrwt beam="2">  1       -2 0.54195305E-01 0.18900978E+04</pdfrwt>
<totfact> 0.99863837E+00</totfact>
</mgrwt>
</event>
<event>
12    1  0.2406360E-008  0.2608504E+04  0.7818608E-02  0.8365318E-01
         -1   -1    0    0    0  501 -0.00000000000E+00  0.00000000000E+00  0.15977318028E+04  0.15977318028E+04  0.00000000000E+00 0.  1.
          1   -1    0    0  501    0  0.00000000000E+00 -0.00000000000E+00 -0.10646799606E+04  0.10646799606E+04  0.00000000000E+00 0. -1.
         23    2    1    2    0    0 -0.95562058371E+02 -0.86486205942E+03 -0.52831379530E+03  0.10221081107E+04  0.92038225074E+02 0.  0.
        254    2    1    2    0    0  0.95562058371E+02  0.86486205942E+03  0.10613656376E+04  0.16403036527E+04  0.89832097135E+03 0.  0.
        -24    2    4    4    0    0 -0.23835465923E+03  0.32687067095E+03  0.14855940678E+02  0.41271148067E+03  0.80328626240E+02 0.  0.
         24    2    4    4    0    0  0.33391671760E+03  0.53799138846E+03  0.10465096969E+04  0.12275921720E+04  0.10423476750E+03 0.  0.
         11    1    3    3    0    0 -0.90720073721E+02 -0.82408530829E+03 -0.52409820865E+03  0.98082906739E+03  0.00000000000E+00 0. -1.
        -11    1    3    3    0    0 -0.48419846501E+01 -0.40776751125E+02 -0.42155866478E+01  0.41279043332E+02  0.00000000000E+00 0.  1.
          4    1    6    6  502    0  0.77754888747E+02  0.70151066064E+02  0.22410489025E+03  0.24736611859E+03  0.00000000000E+00 0. -1.
          1    1    5    5  503    0 -0.97457674851E+02  0.12174852397E+03  0.44308286510E+02  0.16212318073E+03  0.00000000000E+00 0. -1.
         -2    1    5    5    0  503 -0.14089698438E+03  0.20512214698E+03 -0.29452345832E+02  0.25058829994E+03  0.00000000000E+00 0.  1.
         -3    1    6    6    0  502  0.25616182886E+03  0.46784032240E+03  0.82240480663E+03  0.98022605342E+03  0.00000000000E+00 0.  1.
<mgrwt>
<rscale>  0 0.26085038E+04</rscale>
<asrwt>0</asrwt>
<pdfrwt beam="1">  1        1 0.16379692E+00 0.26085038E+04</pdfrwt>
<pdfrwt beam="2">  1       -1 0.24580489E+00 0.26085038E+04</pdfrwt>
<totfact> 0.88142227E-01</totfact>
</mgrwt>
</event>
<event>
12    1  0.2406360E-008  0.1867830E+04  0.7818608E-02  0.8671037E-01
          1   -1    0    0  501    0  0.00000000000E+00  0.00000000000E+00  0.14677329274E+04  0.14677329274E+04  0.00000000000E+00 0. -1.
         -1   -1    0    0    0  501 -0.00000000000E+00 -0.00000000000E+00 -0.59424789074E+03  0.59424789074E+03  0.00000000000E+00 0.  1.
         23    2    1    2    0    0 -0.33047160830E+03 -0.62900858299E+03  0.39641827978E+03  0.81878931749E+03  0.91679946158E+02 0.  0.
        254    2    1    2    0    0  0.33047160830E+03  0.62900858299E+03  0.47706675691E+03  0.12431915007E+04  0.90170346315E+03 0.  0.
        -24    2    4    4    0    0 -0.12959752097E+03 -0.70919388555E+02 -0.12287001503E+03  0.20699075176E+03  0.76961377377E+02 0.  0.
         24    2    4    4    0    0  0.46006912926E+03  0.69992797154E+03  0.59993677193E+03  0.10362007489E+04  0.11056714115E+03 0.  0.
         13    1    3    3    0    0 -0.53770611487E+02 -0.16129055897E+03  0.63528134111E+02  0.18149861403E+03  0.00000000000E+00 0.  1.
        -13    1    3    3    0    0 -0.27670099681E+03 -0.46771802402E+03  0.33289014567E+03  0.63729070345E+03  0.00000000000E+00 0. -1.
          2    1    6    6  502    0  0.15821972466E+03  0.18186530886E+03  0.12648904298E+03  0.27222775361E+03  0.00000000000E+00 0. -1.
          3    1    5    5  503    0 -0.54604165702E+02 -0.61871578196E+02 -0.31233004267E+02  0.88233823764E+02  0.00000000000E+00 0. -1.
         -4    1    5    5    0  503 -0.74993355264E+02 -0.90478103594E+01 -0.91637010759E+02  0.11875692800E+03  0.00000000000E+00 0.  1.
         -1    1    6    6    0  502  0.30184940460E+03  0.51806266268E+03  0.47344772895E+03  0.76397299532E+03  0.00000000000E+00 0.  1.
<mgrwt>
<rscale>  0 0.18678300E+04</rscale>
<asrwt>0</asrwt>
<pdfrwt beam="1">  1        1 0.22580506E+00 0.18678300E+04</pdfrwt>
<pdfrwt beam="2">  1       -1 0.91422753E-01 0.18678300E+04</pdfrwt>
<totfact> 0.75395607E+00</totfact>
</mgrwt>
</event>
<event>
12    1  0.2406360E-008  0.1722819E+04  0.7818608E-02  0.8748456E-01
          2   -1    0    0  501    0  0.00000000000E+00  0.00000000000E+00  0.14847453428E+04  0.14847453428E+04  0.00000000000E+00 0. -1.
         -2   -1    0    0    0  501 -0.00000000000E+00 -0.00000000000E+00 -0.49976678962E+03  0.49976678962E+03  0.00000000000E+00 0.  1.
         23    2    1    2    0    0 -0.59071704821E+03  0.18585778197E+03  0.24770643572E+03  0.67302468507E+03  0.90077756705E+02 0.  0.
        254    2    1    2    0    0  0.59071704821E+03 -0.18585778197E+03  0.73727211745E+03  0.13114874473E+04  0.89047144996E+03 0.  0.
        -24    2    4    4    0    0  0.12867036379E+03 -0.15815083985E+03 -0.17836339610E+03  0.28143269848E+03  0.76309318184E+02 0.  0.
         24    2    4    4    0    0  0.46204668441E+03 -0.27706942120E+02  0.91563551355E+03  0.10300547489E+04  0.91485401875E+02 0.  0.
         13    1    3    3    0    0 -0.59152883130E+03  0.18272111412E+03  0.25131850121E+03  0.66817239756E+03  0.00000000000E+00 0. -1.
        -13    1    3    3    0    0  0.81178309322E+00  0.31366678496E+01 -0.36120654912E+01  0.48522875123E+01  0.00000000000E+00 0.  1.
          2    1    6    6  502    0  0.46469800349E+03 -0.32372944097E+02  0.90984616933E+03  0.10221606008E+04  0.00000000000E+00 0. -1.
          1    1    5    5  503    0  0.10272483665E+03 -0.83641724608E+02 -0.14313387771E+03  0.19502727273E+03  0.00000000000E+00 0. -1.
         -2    1    5    5    0  503  0.25945527145E+02 -0.74509115245E+02 -0.35229518386E+02  0.86405425751E+02  0.00000000000E+00 0.  1.
         -1    1    6    6    0  502 -0.26513190765E+01  0.46660019771E+01  0.57893442183E+01  0.78941480715E+01  0.00000000000E+00 0.  1.
<mgrwt>
<rscale>  0 0.17228191E+04</rscale>
<asrwt>0</asrwt>
<pdfrwt beam="1">  1        2 0.22842236E+00 0.17228191E+04</pdfrwt>
<pdfrwt beam="2">  1       -2 0.76887199E-01 0.17228191E+04</pdfrwt>
<totfact> 0.18582381E+01</totfact>
</mgrwt>
</event>
<event>
11    1  0.2406360E-008  0.1847478E+04  0.7818608E-02  0.8681451E-01
         -2   -1    0    0    0  501 -0.00000000000E+00  0.00000000000E+00  0.14879734419E+04  0.14879734419E+04  0.00000000000E+00 0.  1.
          2   -1    0    0  501    0  0.00000000000E+00 -0.00000000000E+00 -0.57346061525E+03  0.57346061525E+03  0.00000000000E+00 0. -1.
         23    2    1    2    0    0  0.48544809558E+03  0.18761373898E+03  0.86723114142E+03  0.10155118332E+04  0.91190252423E+02 0.  0.
        254    2    1    2    0    0 -0.48544809558E+03 -0.18761373898E+03  0.47281685243E+02  0.10459222240E+04  0.90601267777E+03 0.  0.
        -24    2    4    4    0    0 -0.53519743198E+03 -0.19475578778E+03  0.30274405885E+03  0.65000998701E+03  0.80578594989E+02 0.  0.
         11    1    3    3    0    0  0.28949383870E+02 -0.90075357504E+01  0.36619809856E+02  0.47541697495E+02  0.00000000000E+00 0. -1.
        -11    1    3    3    0    0  0.45649871171E+03  0.19662127473E+03  0.83061133156E+03  0.96797013569E+03  0.00000000000E+00 0.  1.
          2    1    4    4  502    0 -0.92842517281E+02 -0.61355240235E+02 -0.19889630906E+03  0.22791213280E+03  0.00000000000E+00 0. -1.
          1    1    5    5  503    0 -0.32753641260E+03 -0.12955284068E+03  0.22933227209E+03  0.42030623494E+03  0.00000000000E+00 0. -1.
         -2    1    5    5    0  503 -0.20766101937E+03 -0.65202947103E+02  0.73411786768E+02  0.22970375207E+03  0.00000000000E+00 0.  1.
         -1    1    4    4    0  502  0.14259185368E+03  0.68497289035E+02 -0.56566064554E+02  0.16800010417E+03  0.00000000000E+00 0.  1.
<mgrwt>
<rscale>  0 0.18474785E+04</rscale>
<asrwt>0</asrwt>
<pdfrwt beam="1">  1        2 0.88224711E-01 0.18474785E+04</pdfrwt>
<pdfrwt beam="2">  1       -2 0.22891899E+00 0.18474785E+04</pdfrwt>
<totfact> 0.42755044E+00</totfact>
</mgrwt>
</event>
<event>
12    1  0.2406360E-008  0.2394196E+04  0.7818608E-02  0.8441680E-01
          2   -1    0    0  501    0  0.00000000000E+00  0.00000000000E+00  0.20000269121E+04  0.20000269121E+04  0.00000000000E+00 0. -1.
         -2   -1    0    0    0  501 -0.00000000000E+00 -0.00000000000E+00 -0.71651236842E+03  0.71651236842E+03  0.00000000000E+00 0.  1.
         23    2    1    2    0    0  0.86589695121E+03 -0.24134704484E+03 -0.18202571379E+02  0.90406266169E+03  0.94720834508E+02 0.  0.
        254    2    1    2    0    0 -0.86589695121E+03  0.24134704484E+03  0.13017171151E+04  0.18124766188E+04  0.88463445558E+03 0.  0.
        -24    2    4    4    0    0 -0.37916767569E+03  0.54832739519E+03  0.60383910549E+03  0.90303724456E+03  0.80146997065E+02 0.  0.
         24    2    4    4    0    0 -0.48672927552E+03 -0.30698035035E+03  0.69787800958E+03  0.90943937428E+03  0.94360670227E+02 0.  0.
         11    1    3    3    0    0  0.73894712795E+03 -0.17483950422E+03 -0.32432491960E+02  0.76004182561E+03  0.00000000000E+00 0. -1.
        -11    1    3    3    0    0  0.12694982326E+03 -0.66507540627E+02  0.14229920581E+02  0.14402083608E+03  0.00000000000E+00 0.  1.
          2    1    6    6  502    0 -0.46354529337E+03 -0.30766218061E+03  0.64561663038E+03  0.85226233626E+03  0.00000000000E+00 0. -1.
          3    1    5    5  503    0 -0.19551084712E+03  0.27190717905E+03  0.35652605361E+03  0.48915113437E+03  0.00000000000E+00 0. -1.
         -4    1    5    5    0  503 -0.18365682857E+03  0.27642021614E+03  0.24731305189E+03  0.41388611019E+03  0.00000000000E+00 0.  1.
         -1    1    6    6    0  502 -0.23183982148E+02  0.68183026253E+00  0.52261379196E+02  0.57177038015E+02  0.00000000000E+00 0.  1.
<mgrwt>
<rscale>  0 0.23941963E+04</rscale>
<asrwt>0</asrwt>
<pdfrwt beam="1">  1        2 0.30769645E+00 0.23941963E+04</pdfrwt>
<pdfrwt beam="2">  1       -2 0.11023267E+00 0.23941963E+04</pdfrwt>
<totfact> 0.39287684E+00</totfact>
</mgrwt>
</event>
<event>
12    1  0.2406360E-008  0.1673801E+04  0.7818608E-02  0.8776449E-01
         -1   -1    0    0    0  501 -0.00000000000E+00  0.00000000000E+00  0.16226077570E+04  0.16226077570E+04  0.00000000000E+00 0.  1.
          1   -1    0    0  501    0  0.00000000000E+00 -0.00000000000E+00 -0.43165218985E+03  0.43165218985E+03  0.00000000000E+00 0. -1.
         23    2    1    2    0    0  0.84545565900E+02 -0.23840455963E+03 -0.23050076084E+03  0.35607265604E+03  0.98348608857E+02 0.  0.
        254    2    1    2    0    0 -0.84545565900E+02  0.23840455963E+03  0.14214563280E+04  0.16981872908E+04  0.89404546615E+03 0.  0.
        -24    2    4    4    0    0  0.12209794581E+03  0.53333241407E+03  0.91848151794E+03  0.10719758243E+04  0.78565238723E+02 0.  0.
         24    2    4    4    0    0 -0.20664351171E+03 -0.29492785444E+03  0.50297481009E+03  0.62621146659E+03  0.97330165144E+02 0.  0.
         13    1    3    3    0    0  0.22952805065E+02 -0.97786132359E+02 -0.15573793070E+03  0.18531935140E+03  0.00000000000E+00 0. -1.
        -13    1    3    3    0    0  0.61592760835E+02 -0.14061842727E+03 -0.74762830132E+02  0.17075330464E+03  0.00000000000E+00 0.  1.
          2    1    6    6  502    0 -0.40413682387E+02 -0.31388058328E+02  0.28494489821E+02  0.58569718113E+02  0.00000000000E+00 0. -1.
          3    1    5    5  503    0  0.11402001402E+03  0.47156606952E+03  0.85487010914E+03  0.98294355128E+03  0.00000000000E+00 0. -1.
         -4    1    5    5    0  503  0.80779317975E+01  0.61766344554E+02  0.63611408801E+02  0.89032272976E+02  0.00000000000E+00 0.  1.
         -1    1    6    6    0  502 -0.16622982933E+03 -0.26353979611E+03  0.47448032026E+03  0.56764174847E+03  0.00000000000E+00 0.  1.
<mgrwt>
<rscale>  0 0.16738007E+04</rscale>
<asrwt>0</asrwt>
<pdfrwt beam="1">  1        1 0.66408030E-01 0.16738007E+04</pdfrwt>
<pdfrwt beam="2">  1       -1 0.24963196E+00 0.16738007E+04</pdfrwt>
<totfact> 0.36227703E+00</totfact>
</mgrwt>
</event>
<event>
12    1  0.2406360E-008  0.2480226E+04  0.7818608E-02  0.8410064E-01
          1   -1    0    0  501    0  0.00000000000E+00  0.00000000000E+00  0.14729376988E+04  0.14729376988E+04  0.00000000000E+00 0. -1.
         -1   -1    0    0    0  501 -0.00000000000E+00 -0.00000000000E+00 -0.10440901377E+04  0.10440901377E+04  0.00000000000E+00 0.  1.
         23    2    1    2    0    0  0.10477137298E+04  0.49755958622E+02 -0.22813051963E+02  0.10542426735E+04  0.10357347247E+03 0.  0.
        254    2    1    2    0    0 -0.10477137298E+04 -0.49755958622E+02  0.45166061307E+03  0.14627851631E+04  0.91409157584E+03 0.  0.
        -24    2    4    4    0    0 -0.11622157430E+04 -0.10144866815E+03  0.53218995186E+03  0.12846715193E+04  0.78214463253E+02 0.  0.
         24    2    4    4    0    0  0.11450201316E+03  0.51692709526E+02 -0.80529338788E+02  0.17811364379E+03  0.97245300466E+02 0.  0.
         13    1    3    3    0    0  0.80732640440E+03  0.97583169791E+01  0.15631331161E+02  0.80753667812E+03  0.00000000000E+00 0. -1.
        -13    1    3    3    0    0  0.24038732539E+03  0.39997641643E+02 -0.38444383124E+02  0.24670599534E+03  0.00000000000E+00 0.  1.
          2    1    6    6  502    0  0.10433186356E+03  0.22186045957E+02 -0.17924184581E+02  0.10816022735E+03  0.00000000000E+00 0. -1.
          3    1    5    5  503    0 -0.10693183759E+04 -0.71744565092E+02  0.48817842782E+03  0.11776702633E+04  0.00000000000E+00 0. -1.
         -4    1    5    5    0  503 -0.92897367083E+02 -0.29704103056E+02  0.44011524039E+02  0.10700125606E+03  0.00000000000E+00 0.  1.
         -1    1    6    6    0  502  0.10170149605E+02  0.29506663569E+02 -0.62605154207E+02  0.69953416437E+02  0.00000000000E+00 0.  1.
<mgrwt>
<rscale>  0 0.24802256E+04</rscale>
<asrwt>0</asrwt>
<pdfrwt beam="1">  1        1 0.22660580E+00 0.24802256E+04</pdfrwt>
<pdfrwt beam="2">  1       -1 0.16062925E+00 0.24802256E+04</pdfrwt>
<totfact> 0.17573035E+00</totfact>
</mgrwt>
</event>
<event>
11    1  0.2406360E-008  0.2244584E+04  0.7818608E-02  0.8500097E-01
          2   -1    0    0  501    0  0.00000000000E+00  0.00000000000E+00  0.40469573820E+03  0.40469573820E+03  0.00000000000E+00 0. -1.
         -2   -1    0    0    0  501 -0.00000000000E+00 -0.00000000000E+00 -0.31123122363E+04  0.31123122363E+04  0.00000000000E+00 0.  1.
         23    2    1    2    0    0 -0.64345930279E+03  0.17723368684E+02 -0.22015351412E+04  0.22955675311E+04  0.92300160614E+02 0.  0.
        254    2    1    2    0    0  0.64345930279E+03 -0.17723368684E+02 -0.50608135690E+03  0.12214404434E+04  0.90633571311E+03 0.  0.
        -24    2    4    4    0    0  0.78443831754E+03 -0.48607332985E+02 -0.14903028403E+03  0.80389831759E+03  0.79601084346E+02 0.  0.
         11    1    3    3    0    0 -0.21230059041E+02 -0.38386440731E+01 -0.15287128192E+03  0.15438613743E+03  0.00000000000E+00 0. -1.
        -11    1    3    3    0    0 -0.62222924375E+03  0.21562012757E+02 -0.20486638593E+04  0.21411813936E+04  0.00000000000E+00 0.  1.
          4    1    4    4  502    0  0.12922886192E+02 -0.33840639832E+02 -0.13470290472E+03  0.13948857455E+03  0.00000000000E+00 0. -1.
          1    1    5    5  503    0  0.68170114878E+03 -0.68631354391E+02 -0.13450106805E+03  0.69822435962E+03  0.00000000000E+00 0. -1.
         -2    1    5    5    0  503  0.10273716876E+03  0.20024021406E+02 -0.14529215977E+02  0.10567395798E+03  0.00000000000E+00 0.  1.
         -3    1    4    4    0  502 -0.15390190094E+03  0.64724604133E+02 -0.22234816816E+03  0.27805355127E+03  0.00000000000E+00 0.  1.
<mgrwt>
<rscale>  0 0.22445841E+04</rscale>
<asrwt>0</asrwt>
<pdfrwt beam="1">  1        2 0.62260884E-01 0.22445841E+04</pdfrwt>
<pdfrwt beam="2">  1       -2 0.47881726E+00 0.22445841E+04</pdfrwt>
<totfact> 0.16031684E-01</totfact>
</mgrwt>
</event>
<event>
11    1  0.2406360E-008  0.2198155E+04  0.7818608E-02  0.8519196E-01
         -1   -1    0    0    0  501 -0.00000000000E+00  0.00000000000E+00  0.15431808045E+04  0.15431808045E+04  0.00000000000E+00 0.  1.
          1   -1    0    0  501    0  0.00000000000E+00 -0.00000000000E+00 -0.78278046558E+03  0.78278046558E+03  0.00000000000E+00 0. -1.
         23    2    1    2    0    0 -0.22422192912E+02 -0.33600157771E+02 -0.64802262091E+03  0.65561162378E+03  0.90893116814E+02 0.  0.
        254    2    1    2    0    0  0.22422192912E+02  0.33600157771E+02  0.14084229598E+04  0.16703496463E+04  0.89709585987E+03 0.  0.
        -24    2    4    4    0    0  0.10792750942E+03  0.28732401958E+03  0.17109591386E+03  0.36004566251E+03  0.78457809248E+02 0.  0.
         11    1    3    3    0    0  0.24733433927E+01 -0.55032786199E+02 -0.53735284350E+03  0.54016923589E+03  0.00000000000E+00 0. -1.
        -11    1    3    3    0    0 -0.24895536305E+02  0.21432628428E+02 -0.11066977741E+03  0.11544238788E+03  0.00000000000E+00 0.  1.
          4    1    4    4  502    0 -0.17969400665E+03 -0.22058844814E+02  0.53033763259E+03  0.56038784177E+03  0.00000000000E+00 0. -1.
          3    1    5    5  503    0  0.58680928541E+02  0.24475002080E+03  0.13711557482E+03  0.28661246468E+03  0.00000000000E+00 0. -1.
         -4    1    5    5    0  503  0.49246580883E+02  0.42573998784E+02  0.33980339040E+02  0.73433197822E+02  0.00000000000E+00 0.  1.
         -1    1    4    4    0  502  0.94188690141E+02 -0.23166501700E+03  0.70698941333E+03  0.74991614199E+03  0.00000000000E+00 0.  1.
<mgrwt>
<rscale>  0 0.21981554E+04</rscale>
<asrwt>0</asrwt>
<pdfrwt beam="1">  1        1 0.12042776E+00 0.21981554E+04</pdfrwt>
<pdfrwt beam="2">  1       -1 0.23741243E+00 0.21981554E+04</pdfrwt>
<totfact> 0.17600381E+00</totfact>
</mgrwt>
</event>
<event>
12    1  0.2406360E-008  0.4428894E+04  0.7818608E-02  0.7923205E-01
         -1   -1    0    0    0  501 -0.00000000000E+00  0.00000000000E+00  0.22158458952E+04  0.22158458952E+04  0.00000000000E+00 0.  1.
          1   -1    0    0  501    0  0.00000000000E+00 -0.00000000000E+00 -0.22130489082E+04  0.22130489082E+04  0.00000000000E+00 0. -1.
         23    2    1    2    0    0 -0.80477802355E+03  0.68030003381E+02  0.19643600822E+04  0.21259535995E+04  0.93125861839E+02 0.  0.
        254    2    1    2    0    0  0.80477802355E+03 -0.68030003381E+02 -0.19615630952E+04  0.23029412038E+04  0.89638867885E+03 0.  0.
        -24    2    4    4    0    0  0.29089548805E+03 -0.40152996022E+03 -0.46231890672E+03  0.68246075487E+03  0.78532900830E+02 0.  0.
         24    2    4    4    0    0  0.51388253550E+03  0.33349995683E+03 -0.14992441884E+04  0.16204804490E+04  0.54094985499E+02 0.  0.
         11    1    3    3    0    0 -0.43136144507E+03  0.81633033988E+02  0.10907064331E+04  0.11757453686E+04  0.00000000000E+00 0.  1.
        -11    1    3    3    0    0 -0.37341657847E+03 -0.13603030606E+02  0.87365364906E+03  0.95020823088E+03  0.00000000000E+00 0. -1.
          2    1    6    6  502    0  0.32397760903E+03  0.20381105056E+03 -0.86761967819E+03  0.94829549270E+03  0.00000000000E+00 0. -1.
          1    1    5    5  503    0  0.24497756941E+03 -0.31937882636E+03 -0.41097110223E+03  0.57525132864E+03  0.00000000000E+00 0. -1.
         -2    1    5    5    0  503  0.45917918642E+02 -0.82151133857E+02 -0.51347804491E+02  0.10720942623E+03  0.00000000000E+00 0.  1.
         -1    1    6    6    0  502  0.18990492647E+03  0.12968890627E+03 -0.63162451024E+03  0.67218495628E+03  0.00000000000E+00 0.  1.
<mgrwt>
<rscale>  0 0.44288939E+04</rscale>
<asrwt>0</asrwt>
<pdfrwt beam="1">  1        1 0.34046906E+00 0.44288939E+04</pdfrwt>
<pdfrwt beam="2">  1       -1 0.34089937E+00 0.44288939E+04</pdfrwt>
<totfact> 0.28788968E-02</totfact>
</mgrwt>
</event>
<event>
11    1  0.2406360E-008  0.1875319E+04  0.7818608E-02  0.8667240E-01
          1   -1    0    0  501    0  0.00000000000E+00  0.00000000000E+00  0.10029693474E+04  0.10029693474E+04  0.00000000000E+00 0. -1.
         -1   -1    0    0    0  501 -0.00000000000E+00 -0.00000000000E+00 -0.87660220338E+03  0.87660220338E+03  0.00000000000E+00 0.  1.
         23    2    1    2    0    0  0.61003306632E+03  0.29879750880E+03  0.25815979054E+03  0.73247197878E+03  0.91915335912E+02 0.  0.
        254    2    1    2    0    0 -0.61003306632E+03 -0.29879750880E+03 -0.13179264648E+03  0.11470995720E+04  0.91490318244E+03 0.  0.
        -24    2    4    4    0    0 -0.70194993516E+03 -0.32657126987E+03 -0.15189843671E+03  0.79311096417E+03  0.81051592508E+02 0.  0.
         11    1    3    3    0    0  0.45820444111E+03  0.19697682056E+03  0.15356785671E+03  0.52185655529E+03  0.00000000000E+00 0. -1.
        -11    1    3    3    0    0  0.15182862521E+03  0.10182068824E+03  0.10459193383E+03  0.21061542349E+03  0.00000000000E+00 0.  1.
          4    1    4    4  502    0  0.37943817414E+00  0.74069473981E+02 -0.14315160884E+03  0.16117944678E+03  0.00000000000E+00 0. -1.
          1    1    5    5  503    0 -0.26267865456E+03 -0.14871637505E+03 -0.27257919370E+02  0.30308353624E+03  0.00000000000E+00 0. -1.
         -4    1    5    5    0  503 -0.43927128060E+03 -0.17785489482E+03 -0.12464051734E+03  0.49002742794E+03  0.00000000000E+00 0.  1.
         -3    1    4    4    0  502  0.91537430664E+02 -0.46295712910E+02  0.16325739908E+03  0.19280916109E+03  0.00000000000E+00 0.  1.
<mgrwt>
<rscale>  0 0.18753188E+04</rscale>
<asrwt>0</asrwt>
<pdfrwt beam="1">  1        1 0.15430298E+00 0.18753188E+04</pdfrwt>
<pdfrwt beam="2">  1       -1 0.13486188E+00 0.18753188E+04</pdfrwt>
<totfact> 0.65179937E+00</totfact>
</mgrwt>
</event>
<event>
12    1  0.2406360E-008  0.2691714E+04  0.7818608E-02  0.8337698E-01
         -2   -1    0    0    0  501 -0.00000000000E+00  0.00000000000E+00  0.14895117508E+04  0.14895117508E+04  0.00000000000E+00 0.  1.
          2   -1    0    0  501    0  0.00000000000E+00 -0.00000000000E+00 -0.12160570553E+04  0.12160570553E+04  0.00000000000E+00 0. -1.
         23    2    1    2    0    0 -0.71586549593E+03 -0.91787331412E+03 -0.17069165441E+03  0.11799618880E+04  0.90661939244E+02 0.  0.
        254    2    1    2    0    0  0.71586549593E+03  0.91787331412E+03  0.44414634998E+03  0.15256069181E+04  0.88048603588E+03 0.  0.
        -24    2    4    4    0    0  0.29001139698E+03  0.66964214262E+03  0.65676786112E+03  0.98500071075E+03  0.79719302819E+02 0.  0.
         24    2    4    4    0    0  0.42585409895E+03  0.24823117151E+03 -0.21262151114E+03  0.54060620737E+03  0.63849325352E+02 0.  0.
         13    1    3    3    0    0 -0.63515333342E+01 -0.31248058879E+02 -0.71393788800E+01  0.32676503641E+02  0.00000000000E+00 0.  1.
        -13    1    3    3    0    0 -0.70951396259E+03 -0.88662525524E+03 -0.16355227553E+03  0.11472853844E+04  0.00000000000E+00 0. -1.
          4    1    6    6  502    0  0.43698131367E+02  0.50035399148E+02 -0.24521108087E+02  0.70812093562E+02  0.00000000000E+00 0. -1.
          1    1    5    5  503    0  0.86384217325E+01  0.36761081156E+01  0.19927938919E+01  0.95972562955E+01  0.00000000000E+00 0. -1.
         -2    1    5    5    0  503  0.28137297525E+03  0.66596603450E+03  0.65477506722E+03  0.97540345446E+03  0.00000000000E+00 0.  1.
         -3    1    6    6    0  502  0.38215596758E+03  0.19819577236E+03 -0.18810040305E+03  0.46979411381E+03  0.00000000000E+00 0.  1.
<mgrwt>
<rscale>  0 0.26917142E+04</rscale>
<asrwt>0</asrwt>
<pdfrwt beam="1">  1        2 0.18708570E+00 0.26917142E+04</pdfrwt>
<pdfrwt beam="2">  1       -2 0.22915566E+00 0.26917142E+04</pdfrwt>
<totfact> 0.14076470E+00</totfact>
</mgrwt>
</event>
<event>
12    1  0.2406360E-008  0.1685039E+04  0.7818608E-02  0.8769943E-01
          2   -1    0    0  501    0  0.00000000000E+00  0.00000000000E+00  0.60453607395E+03  0.60453607395E+03  0.00000000000E+00 0. -1.
         -2   -1    0    0    0  501 -0.00000000000E+00 -0.00000000000E+00 -0.11741885768E+04  0.11741885768E+04  0.00000000000E+00 0.  1.
         23    2    1    2    0    0  0.36334232306E+03 -0.46857504165E+03 -0.15931425091E+03  0.62218946994E+03  0.10078934753E+03 0.  0.
        254    2    1    2    0    0 -0.36334232306E+03  0.46857504165E+03 -0.41033825192E+03  0.11565351808E+04  0.90422117319E+03 0.  0.
        -24    2    4    4    0    0 -0.39798277437E+03  0.69762117686E+03 -0.21214949630E+03  0.83458175039E+03  0.80334887811E+02 0.  0.
         24    2    4    4    0    0  0.34640451305E+02 -0.22904613521E+03 -0.19818875561E+03  0.32195343041E+03  0.10350427807E+03 0.  0.
         11    1    3    3    0    0 -0.17938238382E+01 -0.26559105879E+02  0.17270457825E+01  0.26675580522E+02  0.00000000000E+00 0. -1.
        -11    1    3    3    0    0  0.36513614690E+03 -0.44201593577E+03 -0.16104129669E+03  0.59551388942E+03  0.00000000000E+00 0.  1.
          4    1    6    6  502    0 -0.15914086679E+02 -0.20487619167E+02  0.50040476569E+01  0.26420469089E+02  0.00000000000E+00 0. -1.
          1    1    5    5  503    0 -0.32668919912E+03  0.52629834717E+03 -0.13724802418E+03  0.63447049041E+03  0.00000000000E+00 0. -1.
         -2    1    5    5    0  503 -0.71293575248E+02  0.17132282969E+03 -0.74901472123E+02  0.20011125998E+03  0.00000000000E+00 0.  1.
         -3    1    6    6    0  502  0.50554537984E+02 -0.20855851604E+03 -0.20319280327E+03  0.29553296132E+03  0.00000000000E+00 0.  1.
<mgrwt>
<rscale>  0 0.16850393E+04</rscale>
<asrwt>0</asrwt>
<pdfrwt beam="1">  1        2 0.93005551E-01 0.16850393E+04</pdfrwt>
<pdfrwt beam="2">  1       -2 0.18064439E+00 0.16850393E+04</pdfrwt>
<totfact> 0.83953121E+00</totfact>
</mgrwt>
</event>
<event>
12    1  0.2406360E-008  0.1263052E+04  0.7818608E-02  0.9059389E-01
         -3   -1    0    0    0  501 -0.00000000000E+00  0.00000000000E+00  0.41025853974E+03  0.41025853974E+03  0.00000000000E+00 0.  1.
          3   -1    0    0  501    0  0.00000000000E+00 -0.00000000000E+00 -0.97213166969E+03  0.97213166969E+03  0.00000000000E+00 0. -1.
         23    2    1    2    0    0 -0.16479645132E+03  0.19625411066E+03 -0.30444026106E+03  0.40818046660E+03  0.90850836221E+02 0.  0.
        254    2    1    2    0    0  0.16479645132E+03 -0.19625411066E+03 -0.25743286889E+03  0.97420974283E+03  0.90395762883E+03 0.  0.
        -24    2    4    4    0    0  0.49726482409E+03  0.56526060068E+02 -0.69622415019E+02  0.51134877327E+03  0.78503417181E+02 0.  0.
         24    2    4    4    0    0 -0.33246837277E+03 -0.25278017073E+03 -0.18781045387E+03  0.46286096956E+03  0.67338525017E+02 0.  0.
         11    1    3    3    0    0 -0.22157109891E+02  0.17176622763E+02 -0.90838629937E+02  0.95066453479E+02  0.00000000000E+00 0.  1.
        -11    1    3    3    0    0 -0.14263934143E+03  0.17907748790E+03 -0.21360163112E+03  0.31311401312E+03  0.00000000000E+00 0. -1.
          2    1    6    6  502    0 -0.11670558756E+03 -0.10152913344E+03 -0.36224276313E+02  0.15887277079E+03  0.00000000000E+00 0. -1.
          1    1    5    5  503    0  0.50017755353E+03  0.55636589313E+02 -0.67824474724E+02  0.50781214489E+03  0.00000000000E+00 0. -1.
         -2    1    5    5    0  503 -0.29127294396E+01  0.88947075406E+00 -0.17979402949E+01  0.35366283823E+01  0.00000000000E+00 0.  1.
         -1    1    6    6    0  502 -0.21576278521E+03 -0.15125103729E+03 -0.15158617755E+03  0.30398819876E+03  0.00000000000E+00 0.  1.
<mgrwt>
<rscale>  0 0.12630524E+04</rscale>
<asrwt>0</asrwt>
<pdfrwt beam="1">  1        3 0.14955872E+00 0.12630524E+04</pdfrwt>
<pdfrwt beam="2">  1       -3 0.63116699E-01 0.12630524E+04</pdfrwt>
<totfact> 0.20477392E+00</totfact>
</mgrwt>
</event>
<event>
12    1  0.2406360E-008  0.1585741E+04  0.7818608E-02  0.8829356E-01
          1   -1    0    0  501    0  0.00000000000E+00  0.00000000000E+00  0.46620153683E+03  0.46620153683E+03  0.00000000000E+00 0. -1.
         -1   -1    0    0    0  501 -0.00000000000E+00 -0.00000000000E+00 -0.13484368075E+04  0.13484368075E+04  0.00000000000E+00 0.  1.
         23    2    1    2    0    0  0.65409052137E+02  0.29293093265E+03  0.20673555590E+03  0.37513582516E+03  0.88884317212E+02 0.  0.
        254    2    1    2    0    0 -0.65409052137E+02 -0.29293093265E+03 -0.10889708265E+04  0.14395025191E+04  0.89231337890E+03 0.  0.
        -24    2    4    4    0    0  0.17856237928E+03  0.19278552636E+03 -0.74683840452E+02  0.28404515791E+03  0.77802270134E+02 0.  0.
         24    2    4    4    0    0 -0.24397143142E+03 -0.48571645901E+03 -0.10142869861E+04  0.11554573612E+04  0.10421653222E+03 0.  0.
         11    1    3    3    0    0  0.60811352077E+02  0.86096192007E+02  0.82102601630E+02  0.13360917638E+03  0.00000000000E+00 0.  1.
        -11    1    3    3    0    0  0.45977000600E+01  0.20683474064E+03  0.12463295427E+03  0.24152664878E+03  0.00000000000E+00 0. -1.
          2    1    6    6  502    0 -0.83353666232E+02 -0.22032614222E+03 -0.53467306669E+03  0.58426597613E+03  0.00000000000E+00 0. -1.
          3    1    5    5  503    0  0.13208270364E+03  0.18373407462E+03 -0.55767235090E+02  0.23305371760E+03  0.00000000000E+00 0. -1.
         -4    1    5    5    0  503  0.46479675643E+02  0.90514517410E+01 -0.18916605362E+02  0.50991440310E+02  0.00000000000E+00 0.  1.
         -1    1    6    6    0  502 -0.16061776518E+03 -0.26539031679E+03 -0.47961391938E+03  0.57119138510E+03  0.00000000000E+00 0.  1.
<mgrwt>
<rscale>  0 0.15857406E+04</rscale>
<asrwt>0</asrwt>
<pdfrwt beam="1">  1        1 0.71723314E-01 0.15857406E+04</pdfrwt>
<pdfrwt beam="2">  1       -1 0.20745181E+00 0.15857406E+04</pdfrwt>
<totfact> 0.62708579E+00</totfact>
</mgrwt>
</event>
<event>
12    1  0.2406360E-008  0.1190893E+04  0.7818608E-02  0.9120866E-01
         -1   -1    0    0    0  501 -0.00000000000E+00  0.00000000000E+00  0.64443616503E+03  0.64443616503E+03  0.00000000000E+00 0.  1.
          1   -1    0    0  501    0  0.00000000000E+00 -0.00000000000E+00 -0.55018074637E+03  0.55018074637E+03  0.00000000000E+00 0. -1.
         23    2    1    2    0    0  0.15390588552E+03 -0.18460533793E+03 -0.17520652889E+02  0.25763962277E+03  0.91132044582E+02 0.  0.
        254    2    1    2    0    0 -0.15390588552E+03  0.18460533793E+03  0.11177607155E+03  0.93697728864E+03  0.89870261871E+03 0.  0.
        -24    2    4    4    0    0  0.23727049422E+03  0.37434598179E+03 -0.72685810025E+02  0.45602785901E+03  0.79031510855E+02 0.  0.
         24    2    4    4    0    0 -0.39117637974E+03 -0.18974064385E+03  0.18446188157E+03  0.48094942963E+03  0.90915873804E+02 0.  0.
         13    1    3    3    0    0 -0.36068667263E+01 -0.34507192367E+02  0.14716830112E+02  0.37687410380E+02  0.00000000000E+00 0.  1.
        -13    1    3    3    0    0  0.15751275225E+03 -0.15009814557E+03 -0.32237483001E+02  0.21995221238E+03  0.00000000000E+00 0. -1.
          2    1    6    6  502    0  0.34582072848E+01  0.17812524030E+01 -0.19239390331E+01  0.43397694813E+01  0.00000000000E+00 0. -1.
          3    1    5    5  503    0  0.56854370933E+02  0.94052571435E+02  0.16084202436E+02  0.11107208135E+03  0.00000000000E+00 0. -1.
         -4    1    5    5    0  503  0.18041612329E+03  0.28029341035E+03 -0.88770012461E+02  0.34495577766E+03  0.00000000000E+00 0.  1.
         -1    1    6    6    0  502 -0.39463458703E+03 -0.19152189626E+03  0.18638582061E+03  0.47660966015E+03  0.00000000000E+00 0.  1.
<mgrwt>
<rscale>  0 0.11908927E+04</rscale>
<asrwt>0</asrwt>
<pdfrwt beam="1">  1        1 0.84643191E-01 0.11908927E+04</pdfrwt>
<pdfrwt beam="2">  1       -1 0.99144026E-01 0.11908927E+04</pdfrwt>
<totfact> 0.37346163E+01</totfact>
</mgrwt>
</event>
<event>
11    1  0.2406360E-008  0.2087034E+04  0.7818608E-02  0.8566977E-01
          2   -1    0    0  501    0  0.00000000000E+00  0.00000000000E+00  0.38687270251E+04  0.38687270251E+04  0.00000000000E+00 0. -1.
         -2   -1    0    0    0  501 -0.00000000000E+00 -0.00000000000E+00 -0.28146913317E+03  0.28146913317E+03  0.00000000000E+00 0.  1.
         23    2    1    2    0    0 -0.54026978149E+03 -0.28771079077E+03  0.30505520925E+03  0.68957411642E+03  0.88231771071E+02 0.  0.
        254    2    1    2    0    0  0.54026978149E+03  0.28771079077E+03  0.32822026827E+04  0.34606220419E+04  0.91015467393E+03 0.  0.
        -24    2    4    4    0    0  0.16398245997E+03  0.49236388465E+03  0.17377635846E+04  0.18155216450E+04  0.83571081321E+02 0.  0.
         13    1    3    3    0    0 -0.51198502498E+01 -0.12300928345E+02  0.18966522285E+02  0.23178754762E+02  0.00000000000E+00 0. -1.
        -13    1    3    3    0    0 -0.53514993124E+03 -0.27540986242E+03  0.28608868697E+03  0.66639536166E+03  0.00000000000E+00 0.  1.
          4    1    4    4  502    0  0.27453963087E+03  0.44020782726E+02  0.56851719127E+03  0.63286778635E+03  0.00000000000E+00 0. -1.
          1    1    5    5  503    0 -0.23062648055E+01  0.69554510405E+01  0.64062248551E+01  0.97332868767E+01  0.00000000000E+00 0. -1.
         -2    1    5    5    0  503  0.16628872478E+03  0.48540843361E+03  0.17313573597E+04  0.18057883582E+04  0.00000000000E+00 0.  1.
         -3    1    4    4    0  502  0.10174769064E+03 -0.24867387661E+03  0.97592190684E+03  0.10122326105E+04  0.00000000000E+00 0.  1.
<mgrwt>
<rscale>  0 0.20870335E+04</rscale>
<asrwt>0</asrwt>
<pdfrwt beam="1">  1        2 0.59518874E+00 0.20870335E+04</pdfrwt>
<pdfrwt beam="2">  1       -2 0.43302946E-01 0.20870335E+04</pdfrwt>
<totfact> 0.20442529E+00</totfact>
</mgrwt>
</event>
<event>
12    1  0.2406360E-008  0.1259880E+04  0.7818608E-02  0.9062000E-01
         -2   -1    0    0    0  501 -0.00000000000E+00  0.00000000000E+00  0.73723938852E+03  0.73723938852E+03  0.00000000000E+00 0. -1.
          2   -1    0    0  501    0  0.00000000000E+00 -0.00000000000E+00 -0.53825696318E+03  0.53825696318E+03  0.00000000000E+00 0.  1.
         23    2    1    2    0    0 -0.24868863422E+03 -0.11600395314E+03 -0.83418202500E+02  0.30114035019E+03  0.91782133730E+02 0.  0.
        254    2    1    2    0    0  0.24868863422E+03  0.11600395314E+03  0.28240062783E+03  0.97435600151E+03  0.89124438239E+03 0.  0.
        -24    2    4    4    0    0  0.45538190329E+03 -0.86438409241E+02  0.42511279705E+03  0.63388299320E+03  0.79009381800E+02 0.  0.
         24    2    4    4    0    0 -0.20669326907E+03  0.20244236238E+03 -0.14271216921E+03  0.34047300831E+03  0.10885811215E+03 0.  0.
         11    1    3    3    0    0 -0.22365880328E+03 -0.12984585480E+03 -0.63540768289E+02  0.26630928547E+03  0.00000000000E+00 0.  1.
        -11    1    3    3    0    0 -0.25029830942E+02  0.13841901668E+02 -0.19877434211E+02  0.34831064720E+02  0.00000000000E+00 0. -1.
          4    1    6    6  502    0 -0.17665108895E+01 -0.82284247679E+01  0.67159970472E+01  0.10767179353E+02  0.00000000000E+00 0. -1.
          1    1    5    5  503    0  0.12894182643E+03 -0.24961339141E+02  0.17120452950E+03  0.21577778842E+03  0.00000000000E+00 0. -1.
         -2    1    5    5    0  503  0.32644007687E+03 -0.61477070100E+02  0.25390826754E+03  0.41810520477E+03  0.00000000000E+00 0.  1.
         -1    1    6    6    0  502 -0.20492675818E+03  0.21067078714E+03 -0.14942816626E+03  0.32970582896E+03  0.00000000000E+00 0.  1.
<mgrwt>
<rscale>  0 0.12598797E+04</rscale>
<asrwt>0</asrwt>
<pdfrwt beam="1">  1        2 0.82808764E-01 0.12598797E+04</pdfrwt>
<pdfrwt beam="2">  1       -2 0.11342144E+00 0.12598797E+04</pdfrwt>
<totfact> 0.33850449E+01</totfact>
</mgrwt>
</event>
<event>
11    1  0.2406360E-008  0.1510558E+04  0.7818608E-02  0.8877462E-01
         -2   -1    0    0    0  501 -0.00000000000E+00  0.00000000000E+00  0.87586976057E+03  0.87586976057E+03  0.00000000000E+00 0. -1.
          2   -1    0    0  501    0  0.00000000000E+00 -0.00000000000E+00 -0.65129148973E+03  0.65129148973E+03  0.00000000000E+00 0.  1.
         23    2    1    2    0    0  0.20092475761E+03 -0.20566310404E+03  0.46680533045E+03  0.55590904271E+03  0.91975956904E+02 0.  0.
        254    2    1    2    0    0 -0.20092475761E+03  0.20566310404E+03 -0.24222705961E+03  0.97125220759E+03  0.89553829162E+03 0.  0.
        -24    2    4    4    0    0 -0.14616551253E+03 -0.15587720130E+03 -0.15091296340E+03  0.27301276072E+03  0.78097285827E+02 0.  0.
         13    1    3    3    0    0  0.87570963363E+02 -0.14975531780E+03  0.23800037337E+03  0.29451571530E+03  0.00000000000E+00 0.  1.
        -13    1    3    3    0    0  0.11335379425E+03 -0.55907786245E+02  0.22880495708E+03  0.26139332741E+03  0.00000000000E+00 0. -1.
          4    1    4    4  502    0  0.14002859610E+03 -0.88640754121E+02  0.72781726450E+02  0.18100378648E+03  0.00000000000E+00 0. -1.
          1    1    5    5  503    0  0.17927441852E+01 -0.37565981978E+02 -0.31645817333E+02  0.49151548179E+02  0.00000000000E+00 0. -1.
         -2    1    5    5    0  503 -0.14795825672E+03 -0.11831121932E+03 -0.11926714606E+03  0.22386121254E+03  0.00000000000E+00 0.  1.
         -3    1    4    4    0  502 -0.19478784118E+03  0.45018105946E+03 -0.16409582266E+03  0.51723566039E+03  0.00000000000E+00 0.  1.
<mgrwt>
<rscale>  0 0.15105582E+04</rscale>
<asrwt>0</asrwt>
<pdfrwt beam="1">  1        2 0.10019869E+00 0.15105582E+04</pdfrwt>
<pdfrwt beam="2">  1       -2 0.13474919E+00 0.15105582E+04</pdfrwt>
<totfact> 0.17157047E+01</totfact>
</mgrwt>
</event>
<event>
11    1  0.2406360E-008  0.2281683E+04  0.7818608E-02  0.8485179E-01
         -1   -1    0    0    0  501 -0.00000000000E+00  0.00000000000E+00  0.34463540695E+03  0.34463540695E+03  0.00000000000E+00 0.  1.
          1   -1    0    0  501    0  0.00000000000E+00 -0.00000000000E+00 -0.37765091342E+04  0.37765091342E+04  0.00000000000E+00 0. -1.
         23    2    1    2    0    0  0.86116450307E+03  0.35094922437E+03 -0.18757879991E+04  0.20956366781E+04  0.91338981043E+02 0.  0.
        254    2    1    2    0    0 -0.86116450307E+03 -0.35094922437E+03 -0.15560857281E+04  0.20255078631E+04  0.90360923558E+03 0.  0.
        -24    2    4    4    0    0 -0.58616190094E+03  0.19783905517E+03 -0.96690493690E+03  0.11510102904E+04  0.84814301280E+02 0.  0.
         13    1    3    3    0    0  0.66329318952E+03  0.28118527495E+03 -0.13654005508E+04  0.15438075263E+04  0.00000000000E+00 0. -1.
        -13    1    3    3    0    0  0.19787131355E+03  0.69763949423E+02 -0.51038744834E+03  0.55182915181E+03  0.00000000000E+00 0.  1.
          4    1    4    4  502    0 -0.21453076938E+03 -0.20807832832E+03 -0.30109125222E+03  0.42423576451E+03  0.00000000000E+00 0. -1.
          1    1    5    5  503    0 -0.38557826399E+03  0.16225804174E+03 -0.69623778418E+03  0.81224708180E+03  0.00000000000E+00 0. -1.
         -2    1    5    5    0  503 -0.20058363695E+03  0.35581013431E+02 -0.27066715271E+03  0.33876320858E+03  0.00000000000E+00 0.  1.
         -3    1    4    4    0  502 -0.60471832746E+02 -0.34070995122E+03 -0.28808953902E+03  0.45026180818E+03  0.00000000000E+00 0.  1.
<mgrwt>
<rscale>  0 0.22816825E+04</rscale>
<asrwt>0</asrwt>
<pdfrwt beam="1">  1        1 0.58100142E+00 0.22816825E+04</pdfrwt>
<pdfrwt beam="2">  1       -1 0.53020830E-01 0.22816825E+04</pdfrwt>
<totfact> 0.48588976E-01</totfact>
</mgrwt>
</event>
<event>
12    1  0.2406360E-008  0.2445559E+04  0.7818608E-02  0.8422641E-01
          2   -1    0    0  501    0  0.00000000000E+00  0.00000000000E+00  0.37334994632E+04  0.37334994632E+04  0.00000000000E+00 0. -1.
         -2   -1    0    0    0  501 -0.00000000000E+00 -0.00000000000E+00 -0.40047946546E+03  0.40047946546E+03  0.00000000000E+00 0.  1.
         23    2    1    2    0    0 -0.87677718580E+03  0.55493743741E+03  0.10858282591E+04  0.15045526813E+04  0.89229869867E+02 0.  0.
        254    2    1    2    0    0  0.87677718580E+03 -0.55493743741E+03  0.22471917387E+04  0.26294262474E+04  0.88730935248E+03 0.  0.
        -24    2    4    4    0    0  0.29085831144E+03 -0.21573830323E+03  0.11064867986E+03  0.38721304537E+03  0.80927370752E+02 0.  0.
         24    2    4    4    0    0  0.58591887435E+03 -0.33919913418E+03  0.21365430588E+04  0.22422132020E+04  0.65930426033E+02 0.  0.
         13    1    3    3    0    0 -0.42297507647E+03  0.26799256417E+03  0.58853391515E+03  0.77272252397E+03  0.00000000000E+00 0. -1.
        -13    1    3    3    0    0 -0.45380210933E+03  0.28694487324E+03  0.49729434397E+03  0.73183015738E+03  0.00000000000E+00 0.  1.
          4    1    6    6  502    0 -0.15610846845E+01 -0.14188163926E+01  0.12803617051E+02  0.12976233465E+02  0.00000000000E+00 0. -1.
          3    1    5    5  503    0  0.28532680943E+02  0.29516472420E+01  0.15857511065E+02  0.32776314015E+02  0.00000000000E+00 0. -1.
         -4    1    5    5    0  503  0.26232563050E+03 -0.21868995047E+03  0.94791168794E+02  0.35443673136E+03  0.00000000000E+00 0.  1.
         -3    1    6    6    0  502  0.58747995904E+03 -0.33778031779E+03  0.21237394417E+04  0.22292369685E+04  0.00000000000E+00 0.  1.
<mgrwt>
<rscale>  0 0.24455591E+04</rscale>
<asrwt>0</asrwt>
<pdfrwt beam="1">  1        2 0.57438451E+00 0.24455591E+04</pdfrwt>
<pdfrwt beam="2">  1       -2 0.61612228E-01 0.24455591E+04</pdfrwt>
<totfact> 0.12121218E+00</totfact>
</mgrwt>
</event>
<event>
11    1  0.2406360E-008  0.1465656E+04  0.7818608E-02  0.8907618E-01
         -1   -1    0    0    0  501 -0.00000000000E+00  0.00000000000E+00  0.38859428985E+03  0.38859428985E+03  0.00000000000E+00 0.  1.
          1   -1    0    0  501    0  0.00000000000E+00 -0.00000000000E+00 -0.13819989454E+04  0.13819989454E+04  0.00000000000E+00 0. -1.
         23    2    1    2    0    0  0.86890386506E+02 -0.27973352529E+03  0.10061875074E+03  0.32267698257E+03  0.90529098310E+02 0.  0.
        254    2    1    2    0    0 -0.86890386506E+02  0.27973352529E+03 -0.10940234063E+04  0.14479162527E+04  0.90209394012E+03 0.  0.
        -24    2    4    4    0    0  0.12716623668E+03  0.20281576955E+03  0.38745980296E+02  0.25522469447E+03  0.79579554863E+02 0.  0.
         11    1    3    3    0    0  0.34608478566E+02 -0.76009812614E+02 -0.11546294040E+02  0.84312248863E+02  0.00000000000E+00 0. -1.
        -11    1    3    3    0    0  0.52281907940E+02 -0.20372371268E+03  0.11216504478E+03  0.23836473370E+03  0.00000000000E+00 0.  1.
          2    1    4    4  502    0 -0.58048745575E+02 -0.11251636035E+03 -0.43350226652E+03  0.45161244811E+03  0.00000000000E+00 0. -1.
          1    1    5    5  503    0  0.92535464231E+02  0.18267516524E+03  0.83654439367E+01  0.20494635588E+03  0.00000000000E+00 0. -1.
         -2    1    5    5    0  503  0.34630772446E+02  0.20140604303E+02  0.30380536359E+02  0.50278338590E+02  0.00000000000E+00 0.  1.
         -1    1    4    4    0  502 -0.15600787761E+03  0.18943411609E+03 -0.69926712004E+03  0.74107911008E+03  0.00000000000E+00 0.  1.
<mgrwt>
<rscale>  0 0.14656560E+04</rscale>
<asrwt>0</asrwt>
<pdfrwt beam="1">  1        1 0.21261522E+00 0.14656560E+04</pdfrwt>
<pdfrwt beam="2">  1       -1 0.59783737E-01 0.14656560E+04</pdfrwt>
<totfact> 0.21765839E+01</totfact>
</mgrwt>
</event>
<event>
12    1  0.2406360E-008  0.2027733E+04  0.7818608E-02  0.8593763E-01
         -1   -1    0    0    0  501 -0.00000000000E+00  0.00000000000E+00  0.44285843482E+03  0.44285843482E+03  0.00000000000E+00 0.  1.
          1   -1    0    0  501    0  0.00000000000E+00 -0.00000000000E+00 -0.23211159183E+04  0.23211159183E+04  0.00000000000E+00 0. -1.
         23    2    1    2    0    0 -0.17888152414E+03  0.65067751218E+02 -0.18207845645E+04  0.18325149580E+04  0.81377079843E+02 0.  0.
        254    2    1    2    0    0  0.17888152414E+03 -0.65067751218E+02 -0.57472918968E+02  0.93145939509E+03  0.90998959135E+03 0.  0.
        -24    2    4    4    0    0 -0.32865291557E+02 -0.42621512237E+03 -0.20077575033E+03  0.47835904807E+03  0.76006703806E+02 0.  0.
         24    2    4    4    0    0  0.21174681570E+03  0.36114737115E+03  0.14330283136E+03  0.45310034703E+03  0.97468381292E+02 0.  0.
         11    1    3    3    0    0 -0.41216396132E+02  0.54433821768E+02 -0.53555302507E+03  0.53988783551E+03  0.00000000000E+00 0.  1.
        -11    1    3    3    0    0 -0.13766512801E+03  0.10633929449E+02 -0.12852315394E+04  0.12926271225E+04  0.00000000000E+00 0. -1.
          2    1    6    6  502    0  0.19192454099E+03  0.35348761062E+03  0.15220027463E+03  0.43006213958E+03  0.00000000000E+00 0. -1.
          1    1    5    5  503    0 -0.42207372063E+02 -0.35007242282E+03 -0.13589740472E+03  0.37788922727E+03  0.00000000000E+00 0. -1.
         -2    1    5    5    0  503  0.93420805069E+01 -0.76142699551E+02 -0.64878345606E+02  0.10046982080E+03  0.00000000000E+00 0.  1.
         -1    1    6    6    0  502  0.19822274701E+02  0.76597605317E+01 -0.88974432729E+01  0.23038207450E+02  0.00000000000E+00 0.  1.
<mgrwt>
<rscale>  0 0.20277335E+04</rscale>
<asrwt>0</asrwt>
<pdfrwt beam="1">  1        1 0.35709476E+00 0.20277335E+04</pdfrwt>
<pdfrwt beam="2">  1       -1 0.68132067E-01 0.20277335E+04</pdfrwt>
<totfact> 0.36336748E+00</totfact>
</mgrwt>
</event>
<event>
12    1  0.2406360E-008  0.2944447E+04  0.7818608E-02  0.8259775E-01
          2   -1    0    0  501    0  0.00000000000E+00  0.00000000000E+00  0.14865190876E+04  0.14865190876E+04  0.00000000000E+00 0.  1.
         -2   -1    0    0    0  501 -0.00000000000E+00 -0.00000000000E+00 -0.14580649823E+04  0.14580649823E+04  0.00000000000E+00 0. -1.
         23    2    1    2    0    0  0.65947209639E+03 -0.80561505772E+03 -0.80707040905E+03  0.13205239801E+04  0.92205584553E+02 0.  0.
        254    2    1    2    0    0 -0.65947209639E+03  0.80561505772E+03  0.83552451439E+03  0.16240600898E+04  0.92495994179E+03 0.  0.
        -24    2    4    4    0    0 -0.45972662242E+03  0.31328273056E+03  0.92401684560E+03  0.10814861916E+04  0.79439379642E+02 0.  0.
         24    2    4    4    0    0 -0.19974547397E+03  0.49233232716E+03 -0.88492331206E+02  0.54257389818E+03  0.65315905926E+02 0.  0.
         11    1    3    3    0    0  0.63743834189E+03 -0.74433094319E+03 -0.76084059651E+03  0.12406589402E+04  0.00000000000E+00 0. -1.
        -11    1    3    3    0    0  0.22033754503E+02 -0.61284114526E+02 -0.46229812540E+02  0.79865039900E+02  0.00000000000E+00 0.  1.
          4    1    6    6  502    0 -0.16094438241E+03  0.36722714844E+03 -0.40146199730E+02  0.40295234227E+03  0.00000000000E+00 0. -1.
          3    1    5    5  503    0 -0.44023318136E+03  0.27566965097E+03  0.86130682025E+03  0.10058073618E+04  0.00000000000E+00 0. -1.
         -4    1    5    5    0  503 -0.19493441059E+02  0.37613079595E+02  0.62710025352E+02  0.75678829804E+02  0.00000000000E+00 0.  1.
         -3    1    6    6    0  502 -0.38801091556E+02  0.12510517871E+03 -0.48346131476E+02  0.13962155591E+03  0.00000000000E+00 0.  1.
<mgrwt>
<rscale>  0 0.29444466E+04</rscale>
<asrwt>0</asrwt>
<pdfrwt beam="1">  1        2 0.22869524E+00 0.29444466E+04</pdfrwt>
<pdfrwt beam="2">  1       -2 0.22431769E+00 0.29444466E+04</pdfrwt>
<totfact> 0.10311833E+00</totfact>
</mgrwt>
</event>
<event>
11    1  0.2406360E-008  0.1521039E+04  0.7818608E-02  0.8870581E-01
          2   -1    0    0  501    0  0.00000000000E+00  0.00000000000E+00  0.14110247154E+04  0.14110247154E+04  0.00000000000E+00 0. -1.
         -2   -1    0    0    0  501 -0.00000000000E+00 -0.00000000000E+00 -0.40990795688E+03  0.40990795688E+03  0.00000000000E+00 0.  1.
         23    2    1    2    0    0 -0.33450147121E+03 -0.69038050109E+00 -0.87188686151E+02  0.35754693704E+03  0.91357727252E+02 0.  0.
        254    2    1    2    0    0  0.33450147121E+03  0.69038050109E+00  0.10883054447E+04  0.14633857352E+04  0.91934615805E+03 0.  0.
        -24    2    4    4    0    0 -0.12207297314E+01 -0.25561087308E+03  0.34196048930E+03  0.43464193609E+03  0.81475319876E+02 0.  0.
         13    1    3    3    0    0 -0.19284751145E+03 -0.13993641471E+02 -0.53859108144E+01  0.19342955490E+03  0.00000000000E+00 0.  1.
        -13    1    3    3    0    0 -0.14165395976E+03  0.13303260970E+02 -0.81802775337E+02  0.16411738214E+03  0.00000000000E+00 0. -1.
          2    1    4    4  502    0  0.39314634356E+03  0.39358698791E+03  0.54905630192E+03  0.78162496582E+03  0.00000000000E+00 0. -1.
          1    1    5    5  503    0  0.34448731729E+02 -0.19098078718E+03  0.25812888497E+03  0.32294101233E+03  0.00000000000E+00 0. -1.
         -2    1    5    5    0  503 -0.35669461460E+02 -0.64630085892E+02  0.83831604338E+02  0.11170092376E+03  0.00000000000E+00 0.  1.
         -1    1    4    4    0  502 -0.57424142616E+02 -0.13728573433E+03  0.19728865345E+03  0.24711883333E+03  0.00000000000E+00 0.  1.
<mgrwt>
<rscale>  0 0.15210395E+04</rscale>
<asrwt>0</asrwt>
<pdfrwt beam="1">  1        2 0.21708072E+00 0.15210395E+04</pdfrwt>
<pdfrwt beam="2">  1       -2 0.63062763E-01 0.15210395E+04</pdfrwt>
<totfact> 0.32047613E+01</totfact>
</mgrwt>
</event>
<event>
11    1  0.2406360E-008  0.2488336E+04  0.7818608E-02  0.8407153E-01
         -2   -1    0    0    0  501 -0.00000000000E+00  0.00000000000E+00  0.79200785032E+03  0.79200785032E+03  0.00000000000E+00 0.  1.
          2   -1    0    0  501    0  0.00000000000E+00 -0.00000000000E+00 -0.19544687638E+04  0.19544687638E+04  0.00000000000E+00 0. -1.
         23    2    1    2    0    0 -0.77573238266E+03 -0.65297663819E+03 -0.99336627094E+02  0.10253083407E+04  0.11510955044E+03 0.  0.
        254    2    1    2    0    0  0.77573238266E+03  0.65297663819E+03 -0.10631242864E+04  0.17211682734E+04  0.89668710119E+03 0.  0.
        -24    2    4    4    0    0  0.60373967716E+03 -0.48669438812E+02 -0.39041996229E+03  0.72478941376E+03  0.77599196427E+02 0.  0.
         11    1    3    3    0    0 -0.19497328753E+03 -0.12495574325E+03 -0.60916694594E+02  0.23945639332E+03  0.00000000000E+00 0. -1.
        -11    1    3    3    0    0 -0.58075909513E+03 -0.52802089494E+03 -0.38419932501E+02  0.78585194743E+03  0.00000000000E+00 0.  1.
          4    1    4    4  502    0  0.11767860663E+03  0.23851770390E+03 -0.20367050188E+03  0.33499346690E+03  0.00000000000E+00 0. -1.
          3    1    5    5  503    0  0.16172521666E+03 -0.72487239348E+01 -0.65487351817E+02  0.17463156345E+03  0.00000000000E+00 0. -1.
         -4    1    5    5    0  503  0.44201446050E+03 -0.41420714877E+02 -0.32493261047E+03  0.55015785031E+03  0.00000000000E+00 0.  1.
         -1    1    4    4    0  502  0.54314098862E+02  0.46312837310E+03 -0.46903382221E+03  0.66138539271E+03  0.00000000000E+00 0.  1.
<mgrwt>
<rscale>  0 0.24883365E+04</rscale>
<asrwt>0</asrwt>
<pdfrwt beam="1">  1        2 0.30068750E+00 0.24883365E+04</pdfrwt>
<pdfrwt beam="2">  1       -2 0.12184736E+00 0.24883365E+04</pdfrwt>
<totfact> 0.32320110E+00</totfact>
</mgrwt>
</event>
<event>
12    1  0.2406360E-008  0.2035031E+04  0.7818608E-02  0.8590416E-01
         -1   -1    0    0    0  501 -0.00000000000E+00  0.00000000000E+00  0.73493177736E+03  0.73493177736E+03  0.00000000000E+00 0.  1.
          1   -1    0    0  501    0  0.00000000000E+00 -0.00000000000E+00 -0.14087533311E+04  0.14087533311E+04  0.00000000000E+00 0. -1.
         23    2    1    2    0    0 -0.49491102084E+03  0.15178381915E+03  0.39256541590E+03  0.65636616149E+03  0.93454191378E+02 0.  0.
        254    2    1    2    0    0  0.49491102084E+03 -0.15178381915E+03 -0.10663869696E+04  0.14873189470E+04  0.89831021075E+03 0.  0.
        -24    2    4    4    0    0  0.74213361332E+03 -0.18949187642E+03 -0.79770042515E+03  0.11086766651E+04  0.78539851351E+02 0.  0.
         24    2    4    4    0    0 -0.24722259248E+03  0.37708057264E+02 -0.26868654449E+03  0.37864228187E+03  0.92933366519E+02 0.  0.
         11    1    3    3    0    0 -0.48636282042E+03  0.14643511730E+03  0.36078175942E+03  0.62302127941E+03  0.00000000000E+00 0.  1.
        -11    1    3    3    0    0 -0.85482004163E+01  0.53487018521E+01  0.31783656476E+02  0.33344882078E+02  0.00000000000E+00 0. -1.
          4    1    6    6  502    0 -0.16489722068E+03  0.67382473359E+01 -0.22868259106E+03  0.28201458263E+03  0.00000000000E+00 0. -1.
          1    1    5    5  503    0  0.60591473953E+03 -0.16458847245E+03 -0.69257899120E+03  0.93481960608E+03  0.00000000000E+00 0. -1.
         -2    1    5    5    0  503  0.13621887378E+03 -0.24903403968E+02 -0.10512143395E+03  0.17385705904E+03  0.00000000000E+00 0.  1.
         -3    1    6    6    0  502 -0.82325371800E+02  0.30969809928E+02 -0.40003953434E+02  0.96627699235E+02  0.00000000000E+00 0.  1.
<mgrwt>
<rscale>  0 0.20350308E+04</rscale>
<asrwt>0</asrwt>
<pdfrwt beam="1">  1        1 0.21673128E+00 0.20350308E+04</pdfrwt>
<pdfrwt beam="2">  1       -1 0.11306643E+00 0.20350308E+04</pdfrwt>
<totfact> 0.50081384E+00</totfact>
</mgrwt>
</event>
<event>
12    1  0.2406360E-008  0.1454849E+04  0.7818608E-02  0.8915045E-01
         -1   -1    0    0    0  501 -0.00000000000E+00  0.00000000000E+00  0.78282721970E+03  0.78282721970E+03  0.00000000000E+00 0.  1.
          1   -1    0    0  501    0  0.00000000000E+00 -0.00000000000E+00 -0.67594315417E+03  0.67594315417E+03  0.00000000000E+00 0. -1.
         23    2    1    2    0    0 -0.28174166861E+03 -0.20830356242E+03  0.29712851801E+03  0.46821328459E+03  0.90385738388E+02 0.  0.
        254    2    1    2    0    0  0.28174166861E+03  0.20830356242E+03 -0.19024445248E+03  0.99055708928E+03  0.90677541512E+03 0.  0.
        -24    2    4    4    0    0  0.51205929137E+03 -0.98493627225E+02 -0.27018816407E+03  0.59280332388E+03  0.80674805982E+02 0.  0.
         24    2    4    4    0    0 -0.23031762276E+03  0.30679718965E+03  0.79943711590E+02  0.39775376540E+03  0.68164051619E+02 0.  0.
         11    1    3    3    0    0 -0.44358244585E+02 -0.31125867770E+02  0.89073001880E+01  0.54916422896E+02  0.00000000000E+00 0.  1.
        -11    1    3    3    0    0 -0.23738342402E+03 -0.17717769465E+03  0.28822121782E+03  0.41329686169E+03  0.00000000000E+00 0. -1.
          4    1    6    6  502    0 -0.70088703458E+02  0.46956537773E+02  0.16840232151E+02  0.86028694114E+02  0.00000000000E+00 0. -1.
          1    1    5    5  503    0  0.10392734734E+02 -0.27842397267E+00 -0.22460628056E+02  0.24750076117E+02  0.00000000000E+00 0. -1.
         -2    1    5    5    0  503  0.50166655663E+03 -0.98215203252E+02 -0.24772753601E+03  0.56805324776E+03  0.00000000000E+00 0.  1.
         -3    1    6    6    0  502 -0.16022891930E+03  0.25984065188E+03  0.63103479438E+02  0.31172507128E+03  0.00000000000E+00 0.  1.
<mgrwt>
<rscale>  0 0.14548494E+04</rscale>
<asrwt>0</asrwt>
<pdfrwt beam="1">  1        1 0.10399125E+00 0.14548494E+04</pdfrwt>
<pdfrwt beam="2">  1       -1 0.12043496E+00 0.14548494E+04</pdfrwt>
<totfact> 0.17118184E+01</totfact>
</mgrwt>
</event>
<event>
12    1  0.2406360E-008  0.2071275E+04  0.7818608E-02  0.8574003E-01
          2   -1    0    0  501    0  0.00000000000E+00  0.00000000000E+00  0.22297458056E+04  0.22297458056E+04  0.00000000000E+00 0. -1.
         -2   -1    0    0    0  501 -0.00000000000E+00 -0.00000000000E+00 -0.48101683429E+03  0.48101683429E+03  0.00000000000E+00 0.  1.
         23    2    1    2    0    0  0.11239664654E+03 -0.80468424261E+03  0.97675983991E+03  0.12737755589E+04  0.91074986108E+02 0.  0.
        254    2    1    2    0    0 -0.11239664654E+03  0.80468424261E+03  0.77196913145E+03  0.14369870811E+04  0.89935854627E+03 0.  0.
        -24    2    4    4    0    0 -0.28250973640E+03  0.87758843068E+03  0.80248614375E+03  0.12248044688E+04  0.78668742372E+02 0.  0.
         24    2    4    4    0    0  0.17011308986E+03 -0.72904188069E+02 -0.30517012298E+02  0.21218261227E+03  0.99180083336E+02 0.  0.
         13    1    3    3    0    0  0.58879387269E+02 -0.16130144156E+03  0.19210965527E+03  0.25766462105E+03  0.00000000000E+00 0.  1.
        -13    1    3    3    0    0  0.53517259273E+02 -0.64338280105E+03  0.78465018464E+03  0.10161109378E+04  0.00000000000E+00 0. -1.
          2    1    6    6  502    0  0.53112258245E+02 -0.46794419880E+02 -0.55230124184E+02  0.89783051436E+02  0.00000000000E+00 0. -1.
          1    1    5    5  503    0 -0.71406626317E+02  0.18270864205E+03  0.13249212849E+03  0.23671822548E+03  0.00000000000E+00 0. -1.
         -2    1    5    5    0  503 -0.21110311008E+03  0.69487978863E+03  0.66999401526E+03  0.98808624331E+03  0.00000000000E+00 0.  1.
         -1    1    6    6    0  502  0.11700083161E+03 -0.26109768189E+02  0.24713111886E+02  0.12239956083E+03  0.00000000000E+00 0.  1.
<mgrwt>
<rscale>  0 0.20712752E+04</rscale>
<asrwt>0</asrwt>
<pdfrwt beam="1">  1        2 0.34303781E+00 0.20712752E+04</pdfrwt>
<pdfrwt beam="2">  1       -2 0.74002591E-01 0.20712752E+04</pdfrwt>
<totfact> 0.75487177E+00</totfact>
</mgrwt>
</event>
<event>
11    1  0.2406360E-008  0.1702495E+04  0.7818608E-02  0.8759943E-01
         -2   -1    0    0    0  501 -0.00000000000E+00  0.00000000000E+00  0.22156877774E+03  0.22156877774E+03  0.00000000000E+00 0.  1.
          2   -1    0    0  501    0  0.00000000000E+00 -0.00000000000E+00 -0.32704158048E+04  0.32704158048E+04  0.00000000000E+00 0. -1.
         23    2    1    2    0    0  0.60356582733E+02  0.60291158615E+03 -0.10005326470E+04  0.11741046517E+04  0.10154239309E+03 0.  0.
        254    2    1    2    0    0 -0.60356582733E+02 -0.60291158615E+03 -0.20483143801E+04  0.23178799309E+04  0.89990570426E+03 0.  0.
        -24    2    4    4    0    0 -0.25415084578E+02  0.11164682964E+03 -0.11199595317E+04  0.11287072208E+04  0.80991953189E+02 0.  0.
         11    1    3    3    0    0  0.71662091079E+02  0.29673855963E+03 -0.44414633455E+03  0.53893895254E+03  0.00000000000E+00 0.  1.
        -11    1    3    3    0    0 -0.11305508346E+02  0.30617302652E+03 -0.55638631242E+03  0.63516569912E+03  0.00000000000E+00 0. -1.
          2    1    4    4  502    0 -0.87978853789E+02 -0.59747080386E+03 -0.67951210880E+03  0.90909204495E+03  0.00000000000E+00 0. -1.
          1    1    5    5  503    0 -0.19085964349E+02  0.19549514712E+02 -0.59963068148E+03  0.60025278986E+03  0.00000000000E+00 0. -1.
         -2    1    5    5    0  503 -0.63291202281E+01  0.92097314925E+02 -0.52032885023E+03  0.52845443092E+03  0.00000000000E+00 0.  1.
         -1    1    4    4    0  502  0.53037355633E+02 -0.11708761192E+03 -0.24884273959E+03  0.28008066517E+03  0.00000000000E+00 0.  1.
<mgrwt>
<rscale>  0 0.17024947E+04</rscale>
<asrwt>0</asrwt>
<pdfrwt beam="1">  1        2 0.50314091E+00 0.17024947E+04</pdfrwt>
<pdfrwt beam="2">  1       -2 0.34087503E-01 0.17024947E+04</pdfrwt>
<totfact> 0.90001034E+00</totfact>
</mgrwt>
</event>
<event>
11    1  0.2406360E-008  0.1824234E+04  0.7818608E-02  0.8693517E-01
          2   -1    0    0  501    0  0.00000000000E+00  0.00000000000E+00  0.11863794711E+04  0.11863794711E+04  0.00000000000E+00 0. -1.
         -2   -1    0    0    0  501 -0.00000000000E+00 -0.00000000000E+00 -0.70125774716E+03  0.70125774716E+03  0.00000000000E+00 0.  1.
         23    2    1    2    0    0 -0.51412079993E+03  0.22854930954E+03 -0.21643959559E+03  0.60960733963E+03  0.90664360025E+02 0.  0.
        254    2    1    2    0    0  0.51412079993E+03 -0.22854930954E+03  0.70156131951E+03  0.12780298786E+04  0.90808430324E+03 0.  0.
        -24    2    4    4    0    0  0.15904268032E+02 -0.48749226755E+03  0.30602924804E+03  0.58153442255E+03  0.81404713001E+02 0.  0.
         11    1    3    3    0    0 -0.21300619017E+03  0.14078116956E+03 -0.79941372645E+02  0.26754737490E+03  0.00000000000E+00 0.  1.
        -11    1    3    3    0    0 -0.30111460976E+03  0.87768139983E+02 -0.13649822294E+03  0.34205996473E+03  0.00000000000E+00 0. -1.
          4    1    4    4  502    0  0.32544063145E+02 -0.53179947184E+01  0.40712577061E+01  0.33226077907E+02  0.00000000000E+00 0. -1.
          3    1    5    5  503    0 -0.48400302046E+01 -0.59462687455E+00  0.10531965432E+02  0.11606109140E+02  0.00000000000E+00 0. -1.
         -4    1    5    5    0  503  0.20744298236E+02 -0.48689764067E+03  0.29549728261E+03  0.56992831341E+03  0.00000000000E+00 0.  1.
         -3    1    4    4    0  502  0.46567246876E+03  0.26426095272E+03  0.39146081375E+03  0.66326937815E+03  0.00000000000E+00 0.  1.
<mgrwt>
<rscale>  0 0.18242344E+04</rscale>
<asrwt>0</asrwt>
<pdfrwt beam="1">  1        2 0.18251992E+00 0.18242344E+04</pdfrwt>
<pdfrwt beam="2">  1       -2 0.10788581E+00 0.18242344E+04</pdfrwt>
<totfact> 0.12525021E+01</totfact>
</mgrwt>
</event>
<event>
11    1  0.2406360E-008  0.2522155E+04  0.7818608E-02  0.8395135E-01
          1   -1    0    0  501    0  0.00000000000E+00  0.00000000000E+00  0.10796391606E+04  0.10796391606E+04  0.00000000000E+00 0. -1.
         -1   -1    0    0    0  501 -0.00000000000E+00 -0.00000000000E+00 -0.14730072777E+04  0.14730072777E+04  0.00000000000E+00 0.  1.
         23    2    1    2    0    0  0.87649354323E+03  0.56702211230E+03 -0.51500196615E+03  0.11675896250E+04  0.91013735665E+02 0.  0.
        254    2    1    2    0    0 -0.87649354323E+03 -0.56702211230E+03  0.12163384909E+03  0.13850568133E+04  0.90212669600E+03 0.  0.
        -24    2    4    4    0    0  0.40502442021E+02 -0.37958588947E+03  0.14306172527E+03  0.41451176276E+03  0.75016324440E+02 0.  0.
         13    1    3    3    0    0  0.81373618015E+03  0.50625592054E+03 -0.45030210726E+03  0.10588831927E+04  0.00000000000E+00 0.  1.
        -13    1    3    3    0    0  0.62757363078E+02  0.60766191759E+02 -0.64699858886E+02  0.10870643229E+03  0.00000000000E+00 0. -1.
          2    1    4    4  502    0 -0.80686962884E+03 -0.24863192301E+03 -0.20347434045E+02  0.84455340219E+03  0.00000000000E+00 0. -1.
          3    1    5    5  503    0  0.48230958786E+02 -0.29603680985E+03  0.13879736595E+03  0.33049769586E+03  0.00000000000E+00 0. -1.
         -4    1    5    5    0  503 -0.77285167650E+01 -0.83549079622E+02  0.42643593194E+01  0.84014066902E+02  0.00000000000E+00 0.  1.
         -1    1    4    4    0  502 -0.11012635641E+03  0.61195700176E+02 -0.10804421378E+01  0.12599164834E+03  0.00000000000E+00 0.  1.
<mgrwt>
<rscale>  0 0.25221549E+04</rscale>
<asrwt>0</asrwt>
<pdfrwt beam="1">  1        1 0.16609833E+00 0.25221549E+04</pdfrwt>
<pdfrwt beam="2">  1       -1 0.22661650E+00 0.25221549E+04</pdfrwt>
<totfact> 0.11578740E+00</totfact>
</mgrwt>
</event>
<event>
12    1  0.2406360E-008  0.1587148E+04  0.7818608E-02  0.8828483E-01
          1   -1    0    0  501    0  0.00000000000E+00  0.00000000000E+00  0.25979291283E+04  0.25979291283E+04  0.00000000000E+00 0. -1.
         -1   -1    0    0    0  501 -0.00000000000E+00 -0.00000000000E+00 -0.24240832784E+03  0.24240832784E+03  0.00000000000E+00 0.  1.
         23    2    1    2    0    0 -0.48792535240E+03  0.24758956379E+03  0.10091030127E+04  0.11513401545E+04  0.89014154093E+02 0.  0.
        254    2    1    2    0    0  0.48792535240E+03 -0.24758956379E+03  0.13464177878E+04  0.16889973016E+04  0.86052268068E+03 0.  0.
        -24    2    4    4    0    0  0.40727602555E+03 -0.48165114607E+03  0.12737508203E+04  0.14232651610E+04  0.73355154229E+02 0.  0.
         24    2    4    4    0    0  0.80649326847E+02  0.23406158228E+03  0.72666967464E+02  0.26573214064E+03  0.63592013564E+02 0.  0.
         13    1    3    3    0    0 -0.26774642497E+03  0.12544080071E+03  0.45389377190E+03  0.54170388474E+03  0.00000000000E+00 0.  1.
        -13    1    3    3    0    0 -0.22017892743E+03  0.12214876307E+03  0.55520924078E+03  0.60963626979E+03  0.00000000000E+00 0. -1.
          2    1    6    6  502    0  0.28684638430E+02  0.11180366554E+03  0.65457405793E+02  0.13269340633E+03  0.00000000000E+00 0. -1.
          1    1    5    5  503    0  0.78333027427E+02 -0.13811591931E+03  0.29249443924E+03  0.33281386290E+03  0.00000000000E+00 0. -1.
         -4    1    5    5    0  503  0.32894299813E+03 -0.34353522676E+03  0.98125638107E+03  0.10904512981E+04  0.00000000000E+00 0.  1.
         -1    1    6    6    0  502  0.51964688417E+02  0.12225791674E+03  0.72095616707E+01  0.13303873432E+03  0.00000000000E+00 0.  1.
<mgrwt>
<rscale>  0 0.15871480E+04</rscale>
<asrwt>0</asrwt>
<pdfrwt beam="1">  1        1 0.39968139E+00 0.15871480E+04</pdfrwt>
<pdfrwt beam="2">  1       -1 0.37293591E-01 0.15871480E+04</pdfrwt>
<totfact> 0.77154248E+00</totfact>
</mgrwt>
</event>
<event>
11    1  0.2406360E-008  0.1886934E+04  0.7818608E-02  0.8661388E-01
         -1   -1    0    0    0  501 -0.00000000000E+00  0.00000000000E+00  0.30119233317E+03  0.30119233317E+03  0.00000000000E+00 0.  1.
          1   -1    0    0  501    0  0.00000000000E+00 -0.00000000000E+00 -0.29553526638E+04  0.29553526638E+04  0.00000000000E+00 0. -1.
         23    2    1    2    0    0 -0.58613800103E+03 -0.40371179811E+03 -0.12585243357E+04  0.14495516224E+04  0.10380477009E+03 0.  0.
        254    2    1    2    0    0  0.58613800103E+03  0.40371179811E+03 -0.13956359950E+04  0.18069933746E+04  0.90049111779E+03 0.  0.
        -24    2    4    4    0    0  0.96614316037E+02 -0.17754251848E+03 -0.88083650058E+01  0.22075298169E+03  0.88309793900E+02 0.  0.
         11    1    3    3    0    0 -0.42171132075E+03 -0.28273569277E+03 -0.98608935045E+03  0.11091222282E+04  0.00000000000E+00 0. -1.
        -11    1    3    3    0    0 -0.16442668028E+03 -0.12097610534E+03 -0.27243498521E+03  0.34042939417E+03  0.00000000000E+00 0.  1.
          2    1    4    4  502    0  0.44680791278E+03  0.46670710063E+03 -0.11264910308E+04  0.12986280727E+04  0.00000000000E+00 0. -1.
          1    1    5    5  503    0  0.99844630612E+02 -0.17020925253E+03  0.12759478749E+02  0.19774464394E+03  0.00000000000E+00 0. -1.
         -2    1    5    5    0  503 -0.32303145751E+01 -0.73332659515E+01 -0.21567843755E+02  0.23008337750E+02  0.00000000000E+00 0.  1.
         -1    1    4    4    0  502  0.42715772208E+02  0.11454721596E+03 -0.26033659916E+03  0.28761232022E+03  0.00000000000E+00 0.  1.
<mgrwt>
<rscale>  0 0.18869336E+04</rscale>
<asrwt>0</asrwt>
<pdfrwt beam="1">  1        1 0.45466962E+00 0.18869336E+04</pdfrwt>
<pdfrwt beam="2">  1       -1 0.46337284E-01 0.18869336E+04</pdfrwt>
<totfact> 0.28038091E+00</totfact>
</mgrwt>
</event>
<event>
12    1  0.2406360E-008  0.1939305E+04  0.7818608E-02  0.8635536E-01
          2   -1    0    0  501    0  0.00000000000E+00  0.00000000000E+00  0.64149428526E+03  0.64149428526E+03  0.00000000000E+00 0. -1.
         -2   -1    0    0    0  501 -0.00000000000E+00 -0.00000000000E+00 -0.14656805683E+04  0.14656805683E+04  0.00000000000E+00 0.  1.
         23    2    1    2    0    0  0.73981098423E+03 -0.25121793623E+01 -0.14438212438E+03  0.75933472318E+03  0.91741051628E+02 0.  0.
        254    2    1    2    0    0 -0.73981098423E+03  0.25121793623E+01 -0.67980415870E+03  0.13478401304E+04  0.89845017644E+03 0.  0.
        -24    2    4    4    0    0 -0.44390677385E+03  0.38455179350E+03 -0.12511129194E+03  0.60561382908E+03  0.78625497444E+02 0.  0.
         24    2    4    4    0    0 -0.29590421038E+03 -0.38203961414E+03 -0.55469286676E+03  0.74222630134E+03  0.98499428797E+02 0.  0.
         13    1    3    3    0    0  0.69099560675E+03 -0.25001641782E+02 -0.13937881985E+03  0.70535556003E+03  0.00000000000E+00 0. -1.
        -13    1    3    3    0    0  0.48815377481E+02  0.22489462420E+02 -0.50033045367E+01  0.53979163155E+02  0.00000000000E+00 0.  1.
          2    1    6    6  502    0 -0.17954588558E+02 -0.51174012111E+02 -0.10727774256E+03  0.12020674197E+03  0.00000000000E+00 0. -1.
          3    1    5    5  503    0 -0.32521934835E+03  0.26053386358E+03 -0.55545906740E+02  0.42039370401E+03  0.00000000000E+00 0. -1.
         -4    1    5    5    0  503 -0.11868742549E+03  0.12401792992E+03 -0.69565385205E+02  0.18522012507E+03  0.00000000000E+00 0.  1.
         -1    1    6    6    0  502 -0.27794962183E+03 -0.33086560203E+03 -0.44741512419E+03  0.62201955937E+03  0.00000000000E+00 0.  1.
<mgrwt>
<rscale>  0 0.19393047E+04</rscale>
<asrwt>0</asrwt>
<pdfrwt beam="1">  1        2 0.98691429E-01 0.19393047E+04</pdfrwt>
<pdfrwt beam="2">  1       -2 0.22548932E+00 0.19393047E+04</pdfrwt>
<totfact> 0.38914965E+00</totfact>
</mgrwt>
</event>
<event>
12    1  0.2406360E-008  0.1248385E+04  0.7818608E-02  0.9071529E-01
          2   -1    0    0  501    0  0.00000000000E+00  0.00000000000E+00  0.80202955358E+03  0.80202955358E+03  0.00000000000E+00 0. -1.
         -2   -1    0    0    0  501 -0.00000000000E+00 -0.00000000000E+00 -0.48578788000E+03  0.48578788000E+03  0.00000000000E+00 0.  1.
         23    2    1    2    0    0  0.47753182926E+02 -0.28599105594E+03  0.65757825058E+02  0.31088178488E+03  0.90841301496E+02 0.  0.
        254    2    1    2    0    0 -0.47753182926E+02  0.28599105594E+03  0.25048384852E+03  0.97693564869E+03  0.89866003180E+03 0.  0.
        -24    2    4    4    0    0 -0.98215520489E+02 -0.86014283181E+02  0.49418038286E+03  0.51762218756E+03  0.81692918168E+02 0.  0.
         24    2    4    4    0    0  0.50462337562E+02  0.37200533912E+03 -0.24369653434E+03  0.45931346113E+03  0.10318156270E+03 0.  0.
         11    1    3    3    0    0  0.58439590804E+02 -0.11022710418E+03  0.48850376920E+02  0.13398343029E+03  0.00000000000E+00 0. -1.
        -11    1    3    3    0    0 -0.10686407877E+02 -0.17576395176E+03  0.16907448138E+02  0.17689835459E+03  0.00000000000E+00 0.  1.
          2    1    6    6  502    0  0.45355078146E+02  0.82923271400E+02 -0.27949090835E+02  0.98562182057E+02  0.00000000000E+00 0. -1.
          1    1    5    5  503    0  0.53011211533E+01 -0.16778503974E+02  0.16046143814E+03  0.16142333539E+03  0.00000000000E+00 0. -1.
         -2    1    5    5    0  503 -0.10351664164E+03 -0.69235779207E+02  0.33371894472E+03  0.35619885217E+03  0.00000000000E+00 0.  1.
         -1    1    6    6    0  502  0.51072594164E+01  0.28908206772E+03 -0.21574744350E+03  0.36075127907E+03  0.00000000000E+00 0.  1.
<mgrwt>
<rscale>  0 0.12483849E+04</rscale>
<asrwt>0</asrwt>
<pdfrwt beam="1">  1        2 0.12338916E+00 0.12483849E+04</pdfrwt>
<pdfrwt beam="2">  1       -2 0.74736597E-01 0.12483849E+04</pdfrwt>
<totfact> 0.54366229E+01</totfact>
</mgrwt>
</event>
<event>
11    1  0.2406360E-008  0.1662303E+04  0.7818608E-02  0.8783161E-01
          1   -1    0    0  501    0  0.00000000000E+00  0.00000000000E+00  0.20894544979E+04  0.20894544979E+04  0.00000000000E+00 0. -1.
         -1   -1    0    0    0  501 -0.00000000000E+00 -0.00000000000E+00 -0.33061865975E+03  0.33061865975E+03  0.00000000000E+00 0.  1.
         23    2    1    2    0    0  0.21728647020E+03 -0.51484830017E+03  0.87048837111E+03  0.10385099792E+04  0.92036896119E+02 0.  0.
        254    2    1    2    0    0 -0.21728647020E+03  0.51484830017E+03  0.88834746704E+03  0.13815631785E+04  0.89848395179E+03 0.  0.
        -24    2    4    4    0    0  0.20189034766E+03  0.49023312249E+03  0.72776111018E+03  0.90388694215E+03  0.79291511751E+02 0.  0.
         11    1    3    3    0    0  0.83116620504E+02 -0.15319628136E+03  0.34633016679E+03  0.38771388634E+03  0.00000000000E+00 0. -1.
        -11    1    3    3    0    0  0.13416984970E+03 -0.36165201881E+03  0.52415820432E+03  0.65079609282E+03  0.00000000000E+00 0.  1.
          4    1    4    4  502    0 -0.90540984668E+02 -0.55734258344E+02  0.70504574193E+02  0.12757300827E+03  0.00000000000E+00 0. -1.
          1    1    5    5  503    0  0.31683515456E+02  0.17437360439E+03  0.23512370471E+03  0.29443701462E+03  0.00000000000E+00 0. -1.
         -2    1    5    5    0  503  0.17020683220E+03  0.31585951809E+03  0.49263740547E+03  0.60944992753E+03  0.00000000000E+00 0.  1.
         -3    1    4    4    0  502 -0.32863583319E+03  0.80349436030E+02  0.90081782664E+02  0.35010322806E+03  0.00000000000E+00 0.  1.
<mgrwt>
<rscale>  0 0.16623028E+04</rscale>
<asrwt>0</asrwt>
<pdfrwt beam="1">  1        1 0.32145453E+00 0.16623028E+04</pdfrwt>
<pdfrwt beam="2">  1       -1 0.50864411E-01 0.16623028E+04</pdfrwt>
<totfact> 0.96124497E+00</totfact>
</mgrwt>
</event>
<event>
12    1  0.2406360E-008  0.1665491E+04  0.7818608E-02  0.8781294E-01
         -2   -1    0    0    0  501 -0.00000000000E+00  0.00000000000E+00  0.22674597974E+03  0.22674597974E+03  0.00000000000E+00 0.  1.
          2   -1    0    0  501    0  0.00000000000E+00 -0.00000000000E+00 -0.30583359594E+04  0.30583359594E+04  0.00000000000E+00 0. -1.
         23    2    1    2    0    0  0.41185680527E+02  0.18515772330E+03  0.84259535058E+02  0.22661793304E+03  0.90974587385E+02 0.  0.
        254    2    1    2    0    0 -0.41185680527E+02 -0.18515772330E+03 -0.29158495147E+04  0.30584640061E+04  0.90335156022E+03 0.  0.
        -24    2    4    4    0    0 -0.88455679387E+02 -0.24656214253E+03 -0.29182263417E+04  0.29312859233E+04  0.88175310367E+02 0.  0.
         24    2    4    4    0    0  0.47269998860E+02  0.61404419225E+02  0.23768269875E+01  0.12717808280E+03  0.10081497878E+03 0.  0.
         13    1    3    3    0    0  0.49098415980E+02  0.18865816806E+03  0.91488359238E+02  0.21534316498E+03  0.00000000000E+00 0.  1.
        -13    1    3    3    0    0 -0.79127354529E+01 -0.35004447592E+01 -0.72288241791E+01  0.11274768063E+02  0.00000000000E+00 0. -1.
          2    1    6    6  502    0  0.18798939255E+02  0.40726060550E+02  0.50511467233E+02  0.67553093542E+02  0.00000000000E+00 0. -1.
          3    1    5    5  503    0 -0.21928737328E+02 -0.11733091116E+03 -0.17474017875E+04  0.17514737849E+04  0.00000000000E+00 0. -1.
         -2    1    5    5    0  503 -0.66526942059E+02 -0.12923123137E+03 -0.11708245542E+04  0.11798121384E+04  0.00000000000E+00 0.  1.
         -1    1    6    6    0  502  0.28471059605E+02  0.20678358675E+02 -0.48134640246E+02  0.59624989259E+02  0.00000000000E+00 0.  1.
<mgrwt>
<rscale>  0 0.16654914E+04</rscale>
<asrwt>0</asrwt>
<pdfrwt beam="1">  1        2 0.47051319E+00 0.16654914E+04</pdfrwt>
<pdfrwt beam="2">  1       -2 0.34884000E-01 0.16654914E+04</pdfrwt>
<totfact> 0.11834847E+01</totfact>
</mgrwt>
</event>
<event>
12    1  0.2406360E-008  0.1175092E+04  0.7818608E-02  0.9134942E-01
         -2   -1    0    0    0  501 -0.00000000000E+00  0.00000000000E+00  0.11710369680E+04  0.11710369680E+04  0.00000000000E+00 0.  1.
          2   -1    0    0  501    0  0.00000000000E+00 -0.00000000000E+00 -0.29479026951E+03  0.29479026951E+03  0.00000000000E+00 0. -1.
         23    2    1    2    0    0  0.79781072143E+01 -0.16488752901E+03 -0.87888023785E+01  0.18915536114E+03  0.91929104113E+02 0.  0.
        254    2    1    2    0    0 -0.79781072143E+01  0.16488752901E+03  0.88503550090E+03  0.12766718764E+04  0.90518047633E+03 0.  0.
        -24    2    4    4    0    0  0.89496982541E+02 -0.34609096872E+03  0.22624899781E+03  0.43041417329E+03  0.79240665366E+02 0.  0.
         24    2    4    4    0    0 -0.97475089755E+02  0.51097849773E+03  0.65878650309E+03  0.84625770311E+03  0.10748034776E+03 0.  0.
         13    1    3    3    0    0  0.40116153267E+02 -0.12350540350E+03  0.16632649934E+02  0.13091804876E+03  0.00000000000E+00 0. -1.
        -13    1    3    3    0    0 -0.32138046053E+02 -0.41382125509E+02 -0.25421452313E+02  0.58237312381E+02  0.00000000000E+00 0.  1.
          4    1    6    6  502    0 -0.70841677427E+02  0.24145137851E+03  0.24140983480E+03  0.34870620841E+03  0.00000000000E+00 0. -1.
          1    1    5    5  503    0  0.75715433803E+02 -0.14188080280E+03  0.86794303831E+02  0.18274638244E+03  0.00000000000E+00 0. -1.
         -2    1    5    5    0  503  0.13781548737E+02 -0.20421016592E+03  0.13945469397E+03  0.24766779085E+03  0.00000000000E+00 0.  1.
         -3    1    6    6    0  502 -0.26633412328E+02  0.26952711923E+03  0.41737666829E+03  0.49755149471E+03  0.00000000000E+00 0.  1.
<mgrwt>
<rscale>  0 0.11750920E+04</rscale>
<asrwt>0</asrwt>
<pdfrwt beam="1">  1        2 0.45352350E-01 0.11750920E+04</pdfrwt>
<pdfrwt beam="2">  1       -2 0.18015953E+00 0.11750920E+04</pdfrwt>
<totfact> 0.19992116E+01</totfact>
</mgrwt>
</event>
<event>
11    1  0.2406360E-008  0.3207127E+04  0.7818608E-02  0.8186937E-01
         -2   -1    0    0    0  501 -0.00000000000E+00  0.00000000000E+00  0.11187498284E+04  0.11187498284E+04  0.00000000000E+00 0.  1.
          2   -1    0    0  501    0  0.00000000000E+00 -0.00000000000E+00 -0.22984728466E+04  0.22984728466E+04  0.00000000000E+00 0. -1.
         23    2    1    2    0    0  0.58452247533E+02 -0.73145114920E+03  0.82205093887E+03  0.11056315047E+04  0.90641211089E+02 0.  0.
        254    2    1    2    0    0 -0.58452247533E+02  0.73145114920E+03 -0.20017739571E+04  0.23115911703E+04  0.89326217566E+03 0.  0.
        -24    2    4    4    0    0 -0.40908238043E+02  0.82730989369E+03 -0.15260663977E+04  0.17381880947E+04  0.79398099990E+02 0.  0.
         11    1    3    3    0    0  0.50369871909E+02 -0.52022191301E+03  0.52276843070E+03  0.73922580779E+03  0.00000000000E+00 0.  1.
        -11    1    3    3    0    0  0.80823756243E+01 -0.21122923619E+03  0.29928250818E+03  0.36640569689E+03  0.00000000000E+00 0. -1.
          4    1    4    4  502    0  0.19733438381E+02  0.26167115908E+02 -0.43957187082E+03  0.44079196472E+03  0.00000000000E+00 0. -1.
          1    1    5    5  503    0  0.87023014433E+01  0.31127254294E+02 -0.38885339297E+02  0.50563876657E+02  0.00000000000E+00 0. -1.
         -2    1    5    5    0  503 -0.49610539486E+02  0.79618263940E+03 -0.14871810584E+04  0.16876242181E+04  0.00000000000E+00 0.  1.
         -3    1    4    4    0  502 -0.37277447872E+02 -0.12202586040E+03 -0.36135688494E+02  0.13261111081E+03  0.00000000000E+00 0.  1.
<mgrwt>
<rscale>  0 0.32071271E+04</rscale>
<asrwt>0</asrwt>
<pdfrwt beam="1">  1        2 0.35361121E+00 0.32071271E+04</pdfrwt>
<pdfrwt beam="2">  1       -2 0.17211536E+00 0.32071271E+04</pdfrwt>
<totfact> 0.78708743E-01</totfact>
</mgrwt>
</event>
<event>
12    1  0.2406360E-008  0.2213623E+04  0.7818608E-02  0.8512779E-01
          2   -1    0    0  501    0  0.00000000000E+00  0.00000000000E+00  0.17982196296E+04  0.17982196296E+04  0.00000000000E+00 0.  1.
         -2   -1    0    0    0  501 -0.00000000000E+00 -0.00000000000E+00 -0.68124680617E+03  0.68124680617E+03  0.00000000000E+00 0. -1.
         23    2    1    2    0    0 -0.70361225005E+03  0.37537508219E+03  0.96805293557E+03  0.12573947054E+04  0.89097184699E+02 0.  0.
        254    2    1    2    0    0  0.70361225005E+03 -0.37537508219E+03  0.14891988784E+03  0.12220717304E+04  0.91395050764E+03 0.  0.
        -24    2    4    4    0    0  0.11083315656E+02 -0.44885674035E+03 -0.11934040089E+03  0.47269232395E+03  0.87181928152E+02 0.  0.
         24    2    4    4    0    0  0.69252893439E+03  0.73481658156E+02  0.26826028873E+03  0.74937940641E+03  0.67897225228E+02 0.  0.
         13    1    3    3    0    0 -0.93103469660E+02  0.31506602971E+02  0.16077797846E+03  0.18844224699E+03  0.00000000000E+00 0. -1.
        -13    1    3    3    0    0 -0.61050878039E+03  0.34386847922E+03  0.80727495711E+03  0.10689524584E+04  0.00000000000E+00 0.  1.
          4    1    6    6  502    0  0.48894617465E+03  0.75966183861E+02  0.16902534110E+03  0.52288506263E+03  0.00000000000E+00 0. -1.
          1    1    5    5  503    0  0.58888603275E+01 -0.27616229889E+03 -0.29047078029E+02  0.27774813545E+03  0.00000000000E+00 0. -1.
         -2    1    5    5    0  503  0.51944553290E+01 -0.17269444146E+03 -0.90293322866E+02  0.19494418850E+03  0.00000000000E+00 0.  1.
         -3    1    6    6    0  502  0.20358275974E+03 -0.24845257041E+01  0.99234947631E+02  0.22649434378E+03  0.00000000000E+00 0.  1.
<mgrwt>
<rscale>  0 0.22136227E+04</rscale>
<asrwt>0</asrwt>
<pdfrwt beam="1">  1        2 0.27664917E+00 0.22136227E+04</pdfrwt>
<pdfrwt beam="2">  1       -2 0.10480720E+00 0.22136227E+04</pdfrwt>
<totfact> 0.58301865E+00</totfact>
</mgrwt>
</event>
<event>
12    1  0.2406360E-008  0.1941334E+04  0.7818608E-02  0.8634551E-01
         -1   -1    0    0    0  501 -0.00000000000E+00  0.00000000000E+00  0.41908685085E+03  0.41908685085E+03  0.00000000000E+00 0.  1.
          1   -1    0    0  501    0  0.00000000000E+00 -0.00000000000E+00 -0.22482086928E+04  0.22482086928E+04  0.00000000000E+00 0. -1.
         23    2    1    2    0    0 -0.36568093779E+03  0.63169251206E+03 -0.43427924794E+03  0.85417163011E+03  0.90844540005E+02 0.  0.
        254    2    1    2    0    0  0.36568093779E+03 -0.63169251206E+03 -0.13948425940E+04  0.18131239135E+04  0.89948567844E+03 0.  0.
        -24    2    4    4    0    0  0.44319452670E+03 -0.45314580932E+02 -0.10028713595E+04  0.11002229315E+04  0.79150082281E+02 0.  0.
         24    2    4    4    0    0 -0.77513588915E+02 -0.58637793112E+03 -0.39197123454E+03  0.71290098207E+03  0.68839864635E+02 0.  0.
         13    1    3    3    0    0 -0.37783956367E+02  0.39449902408E+02 -0.57981336866E+02  0.79660263516E+02  0.00000000000E+00 0. -1.
        -13    1    3    3    0    0 -0.32789698142E+03  0.59224260965E+03 -0.37629791107E+03  0.77451136659E+03  0.00000000000E+00 0.  1.
          2    1    6    6  502    0 -0.12719341346E+02 -0.15406965957E+03 -0.68462202201E+02  0.16907487919E+03  0.00000000000E+00 0. -1.
          3    1    5    5  503    0  0.57877399885E+02  0.23260483854E+01 -0.20302078403E+03  0.21112234052E+03  0.00000000000E+00 0. -1.
         -4    1    5    5    0  503  0.38531712682E+03 -0.47640629317E+02 -0.79985057542E+03  0.88910059093E+03  0.00000000000E+00 0.  1.
         -1    1    6    6    0  502 -0.64794247569E+02 -0.43230827156E+03 -0.32350903234E+03  0.54382610288E+03  0.00000000000E+00 0.  1.
<mgrwt>
<rscale>  0 0.19413343E+04</rscale>
<asrwt>0</asrwt>
<pdfrwt beam="1">  1        1 0.34587826E+00 0.19413343E+04</pdfrwt>
<pdfrwt beam="2">  1       -1 0.64474899E-01 0.19413343E+04</pdfrwt>
<totfact> 0.45936483E+00</totfact>
</mgrwt>
</event>
<event>
11    1  0.2406360E-008  0.3176876E+04  0.7818608E-02  0.8194951E-01
          2   -1    0    0  501    0  0.00000000000E+00  0.00000000000E+00  0.16062692733E+04  0.16062692733E+04  0.00000000000E+00 0. -1.
         -2   -1    0    0    0  501 -0.00000000000E+00 -0.00000000000E+00 -0.15708045984E+04  0.15708045984E+04  0.00000000000E+00 0.  1.
         23    2    1    2    0    0 -0.10131648953E+03 -0.93263424872E+03 -0.10962915290E+04  0.14449982289E+04  0.78058261262E+02 0.  0.
        254    2    1    2    0    0  0.10131648953E+03  0.93263424872E+03  0.11317562039E+04  0.17320756428E+04  0.91604708082E+03 0.  0.
        -24    2    4    4    0    0 -0.14487700245E+03  0.17482775963E+03  0.85376575870E+03  0.88714377919E+03  0.80956919692E+02 0.  0.
         13    1    3    3    0    0  0.11787919092E+02 -0.10135517386E+03 -0.13211617995E+03  0.16693265501E+03  0.00000000000E+00 0. -1.
        -13    1    3    3    0    0 -0.11310440862E+03 -0.83127907485E+03 -0.96417534903E+03  0.12780655739E+04  0.00000000000E+00 0.  1.
          2    1    4    4  502    0  0.15479927036E+02  0.51383278891E+02  0.30126158048E+02  0.61542301625E+02  0.00000000000E+00 0. -1.
          1    1    5    5  503    0 -0.64670243105E+01  0.61447748706E+02  0.24061383853E+03  0.24842034441E+03  0.00000000000E+00 0. -1.
         -2    1    5    5    0  503 -0.13840997814E+03  0.11338001093E+03  0.61315192017E+03  0.63872343478E+03  0.00000000000E+00 0.  1.
         -1    1    4    4    0  502  0.23071356495E+03  0.70642321019E+03  0.24786428718E+03  0.78338956198E+03  0.00000000000E+00 0.  1.
<mgrwt>
<rscale>  0 0.31768759E+04</rscale>
<asrwt>0</asrwt>
<pdfrwt beam="1">  1        2 0.24711835E+00 0.31768759E+04</pdfrwt>
<pdfrwt beam="2">  1       -2 0.24166224E+00 0.31768759E+04</pdfrwt>
<totfact> 0.67517127E-01</totfact>
</mgrwt>
</event>
<event>
12    1  0.2406360E-008  0.1791180E+04  0.7818608E-02  0.8711004E-01
         -1   -1    0    0    0  501 -0.00000000000E+00  0.00000000000E+00  0.78982030599E+03  0.78982030599E+03  0.00000000000E+00 0.  1.
          1   -1    0    0  501    0  0.00000000000E+00 -0.00000000000E+00 -0.10155242362E+04  0.10155242362E+04  0.00000000000E+00 0. -1.
         23    2    1    2    0    0  0.39384207113E+03  0.49185946723E+03 -0.30712258583E+03  0.70692839693E+03  0.91575996705E+02 0.  0.
        254    2    1    2    0    0 -0.39384207113E+03 -0.49185946723E+03  0.81418655590E+02  0.10984161453E+04  0.89601993183E+03 0.  0.
        -24    2    4    4    0    0 -0.48285065980E+03 -0.26307071652E+03  0.40528300819E+03  0.68789915566E+03  0.81240199827E+02 0.  0.
         24    2    4    4    0    0  0.89008588673E+02 -0.22878875071E+03 -0.32386435260E+03  0.41051698962E+03  0.58045314861E+02 0.  0.
         11    1    3    3    0    0  0.22199721757E+03  0.31241322546E+03 -0.22908530601E+03  0.44650292886E+03  0.00000000000E+00 0. -1.
        -11    1    3    3    0    0  0.17184485356E+03  0.17944624176E+03 -0.78037279816E+02  0.26042546807E+03  0.00000000000E+00 0.  1.
          4    1    6    6  502    0  0.30792191719E+02 -0.93104620671E+02 -0.85362406232E+02  0.13001296035E+03  0.00000000000E+00 0. -1.
          1    1    5    5  503    0 -0.58700937889E+02 -0.14765578179E+02  0.21189084601E+02  0.64131113465E+02  0.00000000000E+00 0. -1.
         -2    1    5    5    0  503 -0.42414972191E+03 -0.24830513834E+03  0.38409392359E+03  0.62376804219E+03  0.00000000000E+00 0.  1.
         -3    1    6    6    0  502  0.58216396954E+02 -0.13568413003E+03 -0.23850194636E+03  0.28050402927E+03  0.00000000000E+00 0.  1.
<mgrwt>
<rscale>  0 0.17911802E+04</rscale>
<asrwt>0</asrwt>
<pdfrwt beam="1">  1        1 0.15623450E+00 0.17911802E+04</pdfrwt>
<pdfrwt beam="2">  1       -1 0.12151082E+00 0.17911802E+04</pdfrwt>
<totfact> 0.83430427E+00</totfact>
</mgrwt>
</event>
<event>
12    1  0.2406360E-008  0.1512489E+04  0.7818608E-02  0.8876190E-01
         -2   -1    0    0    0  501 -0.00000000000E+00  0.00000000000E+00  0.39342610541E+03  0.39342610541E+03  0.00000000000E+00 0.  1.
          2   -1    0    0  501    0  0.00000000000E+00 -0.00000000000E+00 -0.14536550211E+04  0.14536550211E+04  0.00000000000E+00 0. -1.
         23    2    1    2    0    0  0.37130219839E+03 -0.33556882041E+03 -0.41309053306E+03  0.65547917294E+03  0.92398062130E+02 0.  0.
        254    2    1    2    0    0 -0.37130219839E+03  0.33556882041E+03 -0.64713838267E+03  0.11916019536E+04  0.86640370138E+03 0.  0.
        -24    2    4    4    0    0 -0.49808193597E+03 -0.73796455909E+02 -0.14914984020E+03  0.53110592582E+03  0.79349214050E+02 0.  0.
         24    2    4    4    0    0  0.12677973758E+03  0.40936527632E+03 -0.49798854247E+03  0.66049602779E+03  0.67892436791E+02 0.  0.
         11    1    3    3    0    0  0.16033254655E+03 -0.14790215929E+03 -0.12195417324E+03  0.24990877251E+03  0.00000000000E+00 0.  1.
        -11    1    3    3    0    0  0.21096965185E+03 -0.18766666112E+03 -0.29113635982E+03  0.40557040043E+03  0.00000000000E+00 0. -1.
          2    1    6    6  502    0  0.11689223311E+03  0.37582954054E+03 -0.42318451127E+03  0.57792453511E+03  0.00000000000E+00 0. -1.
          1    1    5    5  503    0 -0.45094210018E+03 -0.50339725161E+02 -0.15159096443E+03  0.47839595121E+03  0.00000000000E+00 0. -1.
         -2    1    5    5    0  503 -0.47139835794E+02 -0.23456730748E+02  0.24411242304E+01  0.52709974612E+02  0.00000000000E+00 0.  1.
         -1    1    6    6    0  502  0.98875044692E+01  0.33535735781E+02 -0.74804031204E+02  0.82571492680E+02  0.00000000000E+00 0.  1.
<mgrwt>
<rscale>  0 0.15124891E+04</rscale>
<asrwt>0</asrwt>
<pdfrwt beam="1">  1        2 0.22363923E+00 0.15124891E+04</pdfrwt>
<pdfrwt beam="2">  1       -2 0.60527093E-01 0.15124891E+04</pdfrwt>
<totfact> 0.33091078E+01</totfact>
</mgrwt>
</event>
<event>
12    1  0.2406360E-008  0.2328597E+04  0.7818608E-02  0.8466731E-01
          1   -1    0    0  501    0  0.00000000000E+00  0.00000000000E+00  0.14319837131E+04  0.14319837131E+04  0.00000000000E+00 0. -1.
         -1   -1    0    0    0  501 -0.00000000000E+00 -0.00000000000E+00 -0.94665214197E+03  0.94665214197E+03  0.00000000000E+00 0.  1.
         23    2    1    2    0    0  0.96698055368E+03  0.19776469015E+03  0.19804051545E+03  0.10108527448E+04  0.91874708356E+02 0.  0.
        254    2    1    2    0    0 -0.96698055368E+03 -0.19776469015E+03  0.28729105569E+03  0.13677831103E+04  0.90229275859E+03 0.  0.
        -24    2    4    4    0    0 -0.17366133973E+03  0.32402905978E+03  0.14134938872E+03  0.40249652395E+03  0.82889743604E+02 0.  0.
         24    2    4    4    0    0 -0.79331921395E+03 -0.52179374993E+03  0.14594166697E+03  0.96528658633E+03  0.94101705091E+02 0.  0.
         13    1    3    3    0    0  0.82415484623E+03  0.19466239515E+03  0.14919940741E+03  0.85987506175E+03  0.00000000000E+00 0.  1.
        -13    1    3    3    0    0  0.14282570745E+03  0.31022949985E+01  0.48841108038E+02  0.15097768305E+03  0.00000000000E+00 0. -1.
          4    1    6    6  502    0 -0.53797214916E+03 -0.33729884506E+03  0.13993440470E+03  0.65020472297E+03  0.00000000000E+00 0. -1.
          1    1    5    5  503    0 -0.10180022581E+03  0.26385612680E+03  0.98933413030E+02  0.29961836032E+03  0.00000000000E+00 0. -1.
         -2    1    5    5    0  503 -0.71861113919E+02  0.60172932980E+02  0.42415975692E+02  0.10287816363E+03  0.00000000000E+00 0.  1.
         -3    1    6    6    0  502 -0.25534706479E+03 -0.18449490487E+03  0.60072622733E+01  0.31508186336E+03  0.00000000000E+00 0.  1.
<mgrwt>
<rscale>  0 0.23285965E+04</rscale>
<asrwt>0</asrwt>
<pdfrwt beam="1">  1        1 0.22030519E+00 0.23285965E+04</pdfrwt>
<pdfrwt beam="2">  1       -1 0.14563879E+00 0.23285965E+04</pdfrwt>
<totfact> 0.24844015E+00</totfact>
</mgrwt>
</event>
<event>
12    1  0.2406360E-008  0.1733309E+04  0.7818608E-02  0.8742592E-01
         -1   -1    0    0    0  501 -0.00000000000E+00  0.00000000000E+00  0.10384121076E+04  0.10384121076E+04  0.00000000000E+00 0.  1.
          1   -1    0    0  501    0  0.00000000000E+00 -0.00000000000E+00 -0.72330596203E+03  0.72330596203E+03  0.00000000000E+00 0. -1.
         23    2    1    2    0    0 -0.60860666181E+03 -0.57089931634E+02  0.57816880229E+02  0.62096376908E+03  0.92692404130E+02 0.  0.
        254    2    1    2    0    0  0.60860666181E+03  0.57089931634E+02  0.25728926534E+03  0.11407543005E+04  0.92814938403E+03 0.  0.
        -24    2    4    4    0    0  0.15769953411E+03  0.31179438925E+03 -0.22852068561E+03  0.42494530166E+03  0.79195463400E+02 0.  0.
         24    2    4    4    0    0  0.45090712770E+03 -0.25470445762E+03  0.48580995095E+03  0.71580899889E+03  0.90441229043E+02 0.  0.
         11    1    3    3    0    0 -0.59118255254E+03 -0.59905433922E+02  0.39491580116E+02  0.59552082780E+03  0.00000000000E+00 0.  1.
        -11    1    3    3    0    0 -0.17424109264E+02  0.28155022880E+01  0.18325300114E+02  0.25442941281E+02  0.00000000000E+00 0. -1.
          4    1    6    6  502    0  0.27680579677E+03 -0.11436260884E+03  0.24269682223E+03  0.38548930328E+03  0.00000000000E+00 0. -1.
          1    1    5    5  503    0 -0.57198960038E+01  0.35640428582E+02 -0.34683284690E+02  0.50058841344E+02  0.00000000000E+00 0. -1.
         -2    1    5    5    0  503  0.16341943012E+03  0.27615396067E+03 -0.19383740092E+03  0.37488646032E+03  0.00000000000E+00 0.  1.
         -3    1    6    6    0  502  0.17410133093E+03 -0.14034184878E+03  0.24311312872E+03  0.33031969561E+03  0.00000000000E+00 0.  1.
<mgrwt>
<rscale>  0 0.17333086E+04</rscale>
<asrwt>0</asrwt>
<pdfrwt beam="1">  1        1 0.11127784E+00 0.17333086E+04</pdfrwt>
<pdfrwt beam="2">  1       -1 0.15975571E+00 0.17333086E+04</pdfrwt>
<totfact> 0.72163434E+00</totfact>
</mgrwt>
</event>
<event>
11    1  0.2406360E-008  0.2046279E+04  0.7818608E-02  0.8585284E-01
         -1   -1    0    0    0  501 -0.00000000000E+00  0.00000000000E+00  0.77043923014E+03  0.77043923014E+03  0.00000000000E+00 0.  1.
          1   -1    0    0  501    0  0.00000000000E+00 -0.00000000000E+00 -0.13587236411E+04  0.13587236411E+04  0.00000000000E+00 0. -1.
         23    2    1    2    0    0 -0.18226200005E+03 -0.52702806086E+03 -0.86536763586E+03  0.10337052748E+04  0.93313645149E+02 0.  0.
        254    2    1    2    0    0  0.18226200005E+03  0.52702806086E+03  0.27708322488E+03  0.10954575965E+04  0.90126256914E+03 0.  0.
        -24    2    4    4    0    0 -0.16320464318E+03  0.11819194685E+03  0.45831189959E+03  0.50698699663E+03  0.79880695966E+02 0.  0.
         11    1    3    3    0    0 -0.15499474908E+01 -0.12961372561E+02 -0.26628837019E+01  0.13322554766E+02  0.00000000000E+00 0.  1.
        -11    1    3    3    0    0 -0.18071205256E+03 -0.51406668830E+03 -0.86270475216E+03  0.10203827200E+04  0.00000000000E+00 0. -1.
          2    1    4    4  502    0 -0.89265028231E+01  0.15653511421E+02  0.15498828302E+02  0.23768225663E+02  0.00000000000E+00 0. -1.
          3    1    5    5  503    0 -0.58350047771E+02  0.14269755969E+02  0.74104839258E+02  0.95393297520E+02  0.00000000000E+00 0. -1.
         -4    1    5    5    0  503 -0.10485459541E+03  0.10392219088E+03  0.38420706033E+03  0.41159369911E+03  0.00000000000E+00 0.  1.
         -1    1    4    4    0  502  0.35439314606E+03  0.39318260259E+03 -0.19672750301E+03  0.56470237417E+03  0.00000000000E+00 0.  1.
<mgrwt>
<rscale>  0 0.20462786E+04</rscale>
<asrwt>0</asrwt>
<pdfrwt beam="1">  1        1 0.20903440E+00 0.20462786E+04</pdfrwt>
<pdfrwt beam="2">  1       -1 0.11852911E+00 0.20462786E+04</pdfrwt>
<totfact> 0.48437115E+00</totfact>
</mgrwt>
</event>
<event>
11    1  0.2406360E-008  0.1461434E+04  0.7818608E-02  0.8910512E-01
          1   -1    0    0  501    0  0.00000000000E+00  0.00000000000E+00  0.12328600272E+04  0.12328600272E+04  0.00000000000E+00 0. -1.
         -1   -1    0    0    0  501 -0.00000000000E+00 -0.00000000000E+00 -0.43309652468E+03  0.43309652468E+03  0.00000000000E+00 0.  1.
         23    2    1    2    0    0  0.44610394826E+03  0.30060825882E+02  0.21135239552E+03  0.50316200007E+03  0.92681051566E+02 0.  0.
        254    2    1    2    0    0 -0.44610394826E+03 -0.30060825882E+02  0.58841110699E+03  0.11627945518E+04  0.89774782258E+03 0.  0.
        -24    2    4    4    0    0 -0.10063095033E+03 -0.38111692751E+03  0.49556303941E+03  0.63808130019E+03  0.78665869547E+02 0.  0.
         11    1    3    3    0    0  0.28595114824E+03 -0.13331439488E+02  0.16698420248E+03  0.33140535653E+03  0.00000000000E+00 0.  1.
        -11    1    3    3    0    0  0.16015280001E+03  0.43392265370E+02  0.44368193046E+02  0.17175664354E+03  0.00000000000E+00 0. -1.
          2    1    4    4  502    0 -0.52983315343E+02  0.18634452013E+01 -0.17865773145E+02  0.55945419677E+02  0.00000000000E+00 0. -1.
          1    1    5    5  503    0 -0.81241881320E+02 -0.28596036898E+03  0.42226730273E+03  0.51641383682E+03  0.00000000000E+00 0. -1.
         -2    1    5    5    0  503 -0.19389069011E+02 -0.95156558528E+02  0.73295736682E+02  0.12166746337E+03  0.00000000000E+00 0.  1.
         -1    1    4    4    0  502 -0.29248968258E+03  0.34919265643E+03  0.11071384072E+03  0.46876783192E+03  0.00000000000E+00 0.  1.
<mgrwt>
<rscale>  0 0.14614341E+04</rscale>
<asrwt>0</asrwt>
<pdfrwt beam="1">  1        1 0.18967077E+00 0.14614341E+04</pdfrwt>
<pdfrwt beam="2">  1       -1 0.66630235E-01 0.14614341E+04</pdfrwt>
<totfact> 0.22393927E+01</totfact>
</mgrwt>
</event>
<event>
11    1  0.2406360E-008  0.2096779E+04  0.7818608E-02  0.8562663E-01
          1   -1    0    0  501    0  0.00000000000E+00  0.00000000000E+00  0.10410127056E+04  0.10410127056E+04  0.00000000000E+00 0. -1.
         -1   -1    0    0    0  501 -0.00000000000E+00 -0.00000000000E+00 -0.10558188959E+04  0.10558188959E+04  0.00000000000E+00 0.  1.
         23    2    1    2    0    0 -0.56079744294E+03 -0.30384182210E+03  0.65914147408E+03  0.92174190561E+03  0.91252577158E+02 0.  0.
        254    2    1    2    0    0  0.56079744294E+03  0.30384182210E+03 -0.67394766439E+03  0.11750896959E+04  0.72098315805E+03 0.  0.
        -24    2    4    4    0    0 -0.10581981141E+03  0.26725421203E+02  0.23163804748E+02  0.13784453356E+03  0.80947346812E+02 0.  0.
         11    1    3    3    0    0 -0.18100965317E+03 -0.13325966576E+03  0.27589973671E+03  0.35586977643E+03  0.00000000000E+00 0.  1.
        -11    1    3    3    0    0 -0.37978778977E+03 -0.17058215634E+03  0.38324173737E+03  0.56587212917E+03  0.00000000000E+00 0. -1.
          4    1    4    4  502    0  0.15685252820E+03  0.44110549653E+02 -0.29565502552E+02  0.16559763022E+03  0.00000000000E+00 0. -1.
          3    1    5    5  503    0 -0.59343629406E+02  0.45781014834E+00 -0.26441937139E+02  0.64969623524E+02  0.00000000000E+00 0. -1.
         -4    1    5    5    0  503 -0.46476182003E+02  0.26267611054E+02  0.49605741887E+02  0.72874910032E+02  0.00000000000E+00 0.  1.
         -3    1    4    4    0  502  0.50976472614E+03  0.23300585125E+03 -0.66754596659E+03  0.87164753211E+03  0.00000000000E+00 0.  1.
<mgrwt>
<rscale>  0 0.20967793E+04</rscale>
<asrwt>0</asrwt>
<pdfrwt beam="1">  1        1 0.16015580E+00 0.20967793E+04</pdfrwt>
<pdfrwt beam="2">  1       -1 0.16243368E+00 0.20967793E+04</pdfrwt>
<totfact> 0.36237317E+00</totfact>
</mgrwt>
</event>
<event>
11    1  0.2406360E-008  0.1524154E+04  0.7818608E-02  0.8868548E-01
         -1   -1    0    0    0  501 -0.00000000000E+00  0.00000000000E+00  0.33603900057E+03  0.33603900057E+03  0.00000000000E+00 0.  1.
          1   -1    0    0  501    0  0.00000000000E+00 -0.00000000000E+00 -0.17282561430E+04  0.17282561430E+04  0.00000000000E+00 0. -1.
         23    2    1    2    0    0  0.46659243484E+03 -0.18787831860E+03 -0.44975905953E+03  0.68091429198E+03  0.91401851956E+02 0.  0.
        254    2    1    2    0    0 -0.46659243484E+03  0.18787831860E+03 -0.94245808290E+03  0.13833808516E+04  0.87892467235E+03 0.  0.
        -24    2    4    4    0    0  0.11447891541E+03  0.24901497937E+03 -0.59520529937E+03  0.66015576351E+03  0.80139888180E+02 0.  0.
         11    1    3    3    0    0  0.31262867848E+03 -0.15759204402E+03 -0.34956394830E+03  0.49473922110E+03  0.00000000000E+00 0. -1.
        -11    1    3    3    0    0  0.15396375636E+03 -0.30286274575E+02 -0.10019511123E+03  0.18617507087E+03  0.00000000000E+00 0.  1.
          2    1    4    4  502    0 -0.19748661733E+03 -0.10423152208E+03 -0.22820817556E+03  0.31928693304E+03  0.00000000000E+00 0. -1.
          1    1    5    5  503    0  0.25235932279E+02  0.29664068101E+02 -0.16023299180E+03  0.16489821368E+03  0.00000000000E+00 0. -1.
         -2    1    5    5    0  503  0.89242983133E+02  0.21935091127E+03 -0.43497230758E+03  0.49525754984E+03  0.00000000000E+00 0.  1.
         -1    1    4    4    0  502 -0.38358473292E+03  0.43094861306E+02 -0.11904460797E+03  0.40393815503E+03  0.00000000000E+00 0.  1.
<mgrwt>
<rscale>  0 0.15241541E+04</rscale>
<asrwt>0</asrwt>
<pdfrwt beam="1">  1        1 0.26588556E+00 0.15241541E+04</pdfrwt>
<pdfrwt beam="2">  1       -1 0.51698307E-01 0.15241541E+04</pdfrwt>
<totfact> 0.16575002E+01</totfact>
</mgrwt>
</event>
<event>
11    1  0.2406360E-008  0.1246065E+04  0.7818608E-02  0.9073465E-01
         -2   -1    0    0    0  501 -0.00000000000E+00  0.00000000000E+00  0.33355157301E+03  0.33355157301E+03  0.00000000000E+00 0.  1.
          2   -1    0    0  501    0  0.00000000000E+00 -0.00000000000E+00 -0.11637469521E+04  0.11637469521E+04  0.00000000000E+00 0. -1.
         23    2    1    2    0    0  0.25644123339E+02  0.31955356394E+02 -0.52044158137E+03  0.53199193624E+03  0.10235826660E+03 0.  0.
        254    2    1    2    0    0 -0.25644123339E+02 -0.31955356394E+02 -0.30975379773E+03  0.96530658889E+03  0.91334036891E+03 0.  0.
        -24    2    4    4    0    0 -0.43609232090E+03 -0.14798680777E+03 -0.21440041380E+03  0.51429046255E+03  0.80315221571E+02 0.  0.
         13    1    3    3    0    0  0.54649524037E+02 -0.80917250826E+00 -0.16384702413E+03  0.17272253054E+03  0.00000000000E+00 0.  1.
        -13    1    3    3    0    0 -0.29005400698E+02  0.32764528902E+02 -0.35659455724E+03  0.35926940570E+03  0.00000000000E+00 0. -1.
          2    1    4    4  502    0  0.32391086614E+03  0.44152505750E+02 -0.54993750027E+02  0.33149963123E+03  0.00000000000E+00 0. -1.
          3    1    5    5  503    0 -0.17082772941E+03 -0.46277024761E+02 -0.12421323992E+03  0.21622350734E+03  0.00000000000E+00 0. -1.
         -4    1    5    5    0  503 -0.26526459149E+03 -0.10170978300E+03 -0.90187173881E+02  0.29806695521E+03  0.00000000000E+00 0.  1.
         -1    1    4    4    0  502  0.86537331420E+02  0.71878945622E+02 -0.40359633906E+02  0.11951649510E+03  0.00000000000E+00 0.  1.
<mgrwt>
<rscale>  0 0.12460652E+04</rscale>
<asrwt>0</asrwt>
<pdfrwt beam="1">  1        2 0.17903799E+00 0.12460652E+04</pdfrwt>
<pdfrwt beam="2">  1       -2 0.51315627E-01 0.12460652E+04</pdfrwt>
<totfact> 0.70288955E+01</totfact>
</mgrwt>
</event>
<event>
12    1  0.2406360E-008  0.2331428E+04  0.7818608E-02  0.8465632E-01
          2   -1    0    0  501    0  0.00000000000E+00  0.00000000000E+00  0.23736849533E+04  0.23736849533E+04  0.00000000000E+00 0. -1.
         -2   -1    0    0    0  501 -0.00000000000E+00 -0.00000000000E+00 -0.57248085915E+03  0.57248085915E+03  0.00000000000E+00 0.  1.
         23    2    1    2    0    0  0.11747202970E+02 -0.91786064361E+03  0.12271963113E+04  0.15357502743E+04  0.99558831358E+02 0.  0.
        254    2    1    2    0    0 -0.11747202970E+02  0.91786064361E+03  0.57400778291E+03  0.14104155381E+04  0.90398058468E+03 0.  0.
        -24    2    4    4    0    0 -0.66927946008E+02  0.35481263312E+03 -0.21989709150E+03  0.43048355199E+03  0.81178834089E+02 0.  0.
         24    2    4    4    0    0  0.55180743038E+02  0.56304801049E+03  0.79390487441E+03  0.97993198614E+03  0.99567923139E+02 0.  0.
         11    1    3    3    0    0  0.21939720172E+02 -0.18541069125E+03  0.19422178232E+03  0.26940782558E+03  0.00000000000E+00 0.  1.
        -11    1    3    3    0    0 -0.10192517203E+02 -0.73244995236E+03  0.10329745289E+04  0.12663424488E+04  0.00000000000E+00 0. -1.
          4    1    6    6  502    0  0.63416042990E+02  0.55044011097E+03  0.74303693882E+03  0.92688176308E+03  0.00000000000E+00 0. -1.
          1    1    5    5  503    0 -0.64714930176E+02  0.24900341085E+03 -0.19204299494E+03  0.32104708799E+03  0.00000000000E+00 0. -1.
         -2    1    5    5    0  503 -0.22130158316E+01  0.10580922227E+03 -0.27854096556E+02  0.10943646400E+03  0.00000000000E+00 0.  1.
         -3    1    6    6    0  502 -0.82352999514E+01  0.12607899528E+02  0.50867935590E+02  0.53050223063E+02  0.00000000000E+00 0.  1.
<mgrwt>
<rscale>  0 0.23314281E+04</rscale>
<asrwt>0</asrwt>
<pdfrwt beam="1">  1        2 0.36518230E+00 0.23314281E+04</pdfrwt>
<pdfrwt beam="2">  1       -2 0.88073979E-01 0.23314281E+04</pdfrwt>
<totfact> 0.41338867E+00</totfact>
</mgrwt>
</event>
<event>
12    1  0.2406360E-008  0.1531539E+04  0.7818608E-02  0.8863747E-01
          2   -1    0    0  501    0  0.00000000000E+00  0.00000000000E+00  0.18029409296E+04  0.18029409296E+04  0.00000000000E+00 0. -1.
         -2   -1    0    0    0  501 -0.00000000000E+00 -0.00000000000E+00 -0.32524783452E+03  0.32524783452E+03  0.00000000000E+00 0.  1.
         23    2    1    2    0    0  0.36524378041E+03  0.34359822106E+03  0.42094281298E+03  0.66121661896E+03  0.92475990110E+02 0.  0.
        254    2    1    2    0    0 -0.36524378041E+03 -0.34359822106E+03  0.10567502821E+04  0.14669721451E+04  0.88533799155E+03 0.  0.
        -24    2    4    4    0    0 -0.42449558710E+03  0.18415430305E+03  0.56944798588E+03  0.73824043943E+03  0.81354944422E+02 0.  0.
         24    2    4    4    0    0  0.59251806689E+02 -0.52775252411E+03  0.48730229619E+03  0.72873170570E+03  0.10748426729E+03 0.  0.
         11    1    3    3    0    0  0.24099206867E+03  0.25919711003E+03  0.24806518368E+03  0.43219978525E+03  0.00000000000E+00 0.  1.
        -11    1    3    3    0    0  0.12425171174E+03  0.84401111024E+02  0.17287762930E+03  0.22901683371E+03  0.00000000000E+00 0. -1.
          2    1    6    6  502    0 -0.18813166483E+02 -0.51323093993E+02  0.81070131300E+02  0.97777100587E+02  0.00000000000E+00 0. -1.
          3    1    5    5  503    0 -0.27825790997E+02  0.34210729980E+02  0.73470733050E+02  0.85688956729E+02  0.00000000000E+00 0. -1.
         -4    1    5    5    0  503 -0.39666979611E+03  0.14994357307E+03  0.49597725283E+03  0.65255148270E+03  0.00000000000E+00 0.  1.
         -1    1    6    6    0  502  0.78064973172E+02 -0.47642943012E+03  0.40623216489E+03  0.63095460511E+03  0.00000000000E+00 0.  1.
<mgrwt>
<rscale>  0 0.15315386E+04</rscale>
<asrwt>0</asrwt>
<pdfrwt beam="1">  1        2 0.27737552E+00 0.15315386E+04</pdfrwt>
<pdfrwt beam="2">  1       -2 0.50038129E-01 0.15315386E+04</pdfrwt>
<totfact> 0.31306847E+01</totfact>
</mgrwt>
</event>
<event>
12    1  0.2406360E-008  0.3071439E+04  0.7818608E-02  0.8223620E-01
         -1   -1    0    0    0  501 -0.00000000000E+00  0.00000000000E+00  0.16434633325E+04  0.16434633325E+04  0.00000000000E+00 0.  1.
          1   -1    0    0  501    0  0.00000000000E+00 -0.00000000000E+00 -0.14350393592E+04  0.14350393592E+04  0.00000000000E+00 0. -1.
         23    2    1    2    0    0 -0.24375391694E+03  0.10248378966E+04 -0.83331233116E+03  0.13462058033E+04  0.90288079001E+02 0.  0.
        254    2    1    2    0    0  0.24375391694E+03 -0.10248378966E+04  0.10417363046E+04  0.17322968884E+04  0.89773564861E+03 0.  0.
        -24    2    4    4    0    0  0.25568023168E+03 -0.68398637600E+03  0.11845026163E+03  0.74358007996E+03  0.75306888208E+02 0.  0.
         24    2    4    4    0    0 -0.11926314737E+02 -0.34085152065E+03  0.92328604292E+03  0.98871680841E+03  0.93711333666E+02 0.  0.
         13    1    3    3    0    0 -0.19304584686E+03  0.63324006291E+03 -0.54003029828E+03  0.85433740368E+03  0.00000000000E+00 0. -1.
        -13    1    3    3    0    0 -0.50708070084E+02  0.39159783374E+03 -0.29328203288E+03  0.49186839965E+03  0.00000000000E+00 0.  1.
          2    1    6    6  502    0  0.80326507196E+01 -0.75686596134E+02  0.32837750366E+03  0.33708273349E+03  0.00000000000E+00 0. -1.
          1    1    5    5  503    0  0.16468042561E+03 -0.52547990469E+03  0.10224719824E+03  0.56009219095E+03  0.00000000000E+00 0. -1.
         -2    1    5    5    0  503  0.90999806069E+02 -0.15850647130E+03  0.16203063389E+02  0.18348788901E+03  0.00000000000E+00 0.  1.
         -1    1    6    6    0  502 -0.19958965457E+02 -0.26516492452E+03  0.59490853927E+03  0.65163407492E+03  0.00000000000E+00 0.  1.
<mgrwt>
<rscale>  0 0.30714391E+04</rscale>
<asrwt>0</asrwt>
<pdfrwt beam="1">  1        1 0.22077528E+00 0.30714391E+04</pdfrwt>
<pdfrwt beam="2">  1       -1 0.25284051E+00 0.30714391E+04</pdfrwt>
<totfact> 0.41024927E-01</totfact>
</mgrwt>
</event>
<event>
12    1  0.2406360E-008  0.2407468E+04  0.7818608E-02  0.8436713E-01
         -2   -1    0    0    0  501 -0.00000000000E+00  0.00000000000E+00  0.11026905984E+04  0.11026905984E+04  0.00000000000E+00 0.  1.
          2   -1    0    0  501    0  0.00000000000E+00 -0.00000000000E+00 -0.13140359131E+04  0.13140359131E+04  0.00000000000E+00 0. -1.
         23    2    1    2    0    0  0.37037435755E+03  0.72049620250E+03 -0.73012865678E+03  0.10945399099E+04  0.92939853009E+02 0.  0.
        254    2    1    2    0    0 -0.37037435755E+03 -0.72049620250E+03  0.51878334208E+03  0.13221866016E+04  0.90705529647E+03 0.  0.
        -24    2    4    4    0    0 -0.30623328460E+03 -0.91526239196E+03  0.31545769672E+03  0.10184826258E+04  0.79430661549E+02 0.  0.
         24    2    4    4    0    0 -0.64141072942E+02  0.19476618945E+03  0.20332564536E+03  0.30370397574E+03  0.94057647373E+02 0.  0.
         13    1    3    3    0    0  0.36828233144E+03  0.67404576290E+03 -0.67622066307E+03  0.10233493789E+04  0.00000000000E+00 0. -1.
        -13    1    3    3    0    0  0.20920261082E+01  0.46450439601E+02 -0.53907993712E+02  0.71190530960E+02  0.00000000000E+00 0.  1.
          4    1    6    6  502    0 -0.79318510133E+02  0.96418825569E+02  0.12878752504E+03  0.17937179985E+03  0.00000000000E+00 0. -1.
          3    1    5    5  503    0  0.33996651667E+01 -0.56816852786E+01 -0.13608643017E+01  0.67595282748E+01  0.00000000000E+00 0. -1.
         -4    1    5    5    0  503 -0.30963294977E+03 -0.90958070668E+03  0.31681856102E+03  0.10117230976E+04  0.00000000000E+00 0.  1.
         -3    1    6    6    0  502  0.15177437191E+02  0.98347363886E+02  0.74538120314E+02  0.12433217590E+03  0.00000000000E+00 0.  1.
<mgrwt>
<rscale>  0 0.24074676E+04</rscale>
<asrwt>0</asrwt>
<pdfrwt beam="1">  1        2 0.20215937E+00 0.24074676E+04</pdfrwt>
<pdfrwt beam="2">  1       -2 0.16964471E+00 0.24074676E+04</pdfrwt>
<totfact> 0.31257588E+00</totfact>
</mgrwt>
</event>
<event>
12    1  0.2406360E-008  0.1355863E+04  0.7818608E-02  0.8986402E-01
          1   -1    0    0  501    0  0.00000000000E+00  0.00000000000E+00  0.15010704155E+04  0.15010704155E+04  0.00000000000E+00 0. -1.
         -1   -1    0    0    0  501 -0.00000000000E+00 -0.00000000000E+00 -0.30617549325E+03  0.30617549325E+03  0.00000000000E+00 0.  1.
         23    2    1    2    0    0  0.11860325065E+03  0.11798391387E+02  0.80674395982E+03  0.82079617115E+03  0.93083858753E+02 0.  0.
        254    2    1    2    0    0 -0.11860325065E+03 -0.11798391387E+02  0.38815096247E+03  0.98644973763E+03  0.89900833261E+03 0.  0.
        -24    2    4    4    0    0 -0.16741966213E+03 -0.42166043769E+03  0.98349129364E+02  0.47133285842E+03  0.81579680045E+02 0.  0.
         24    2    4    4    0    0  0.48816411477E+02  0.40986204631E+03  0.28980183310E+03  0.51511687921E+03  0.10483490708E+03 0.  0.
         13    1    3    3    0    0  0.10120583660E+03  0.39689795100E+02  0.71753529493E+03  0.72572363932E+03  0.00000000000E+00 0. -1.
        -13    1    3    3    0    0  0.17397414050E+02 -0.27891403713E+02  0.89208664888E+02  0.95072531826E+02  0.00000000000E+00 0.  1.
          4    1    6    6  502    0 -0.18366464867E+02  0.13427333777E+03  0.13789359889E+03  0.19334244459E+03  0.00000000000E+00 0. -1.
          3    1    5    5  503    0 -0.10678948081E+02 -0.31953631042E+02  0.31265898247E+02  0.45963364347E+02  0.00000000000E+00 0. -1.
         -4    1    5    5    0  503 -0.15674071405E+03 -0.38970680665E+03  0.67083231117E+02  0.42536949407E+03  0.00000000000E+00 0.  1.
         -3    1    6    6    0  502  0.67182876344E+02  0.27558870854E+03  0.15190823421E+03  0.32177443461E+03  0.00000000000E+00 0.  1.
<mgrwt>
<rscale>  0 0.13558628E+04</rscale>
<asrwt>0</asrwt>
<pdfrwt beam="1">  1        1 0.23093390E+00 0.13558628E+04</pdfrwt>
<pdfrwt beam="2">  1       -1 0.47103923E-01 0.13558628E+04</pdfrwt>
<totfact> 0.28715296E+01</totfact>
</mgrwt>
</event>
<event>
12    1  0.2551225E-008  0.1660361E+04  0.7818608E-02  0.8784300E-01
          2   -1    0    0  501    0  0.00000000000E+00  0.00000000000E+00  0.16367418003E+04  0.16367418003E+04  0.00000000000E+00 0. -1.
         -2   -1    0    0    0  501 -0.00000000000E+00 -0.00000000000E+00 -0.42108050189E+03  0.42108050189E+03  0.00000000000E+00 0.  1.
         23    2    1    2    0    0  0.38457882419E+03 -0.12854996147E+03  0.95377647702E+03  0.10400052915E+04  0.86576403900E+02 0.  0.
        254    2    1    2    0    0 -0.38457882419E+03  0.12854996147E+03  0.26188482141E+03  0.10178170107E+04  0.89607022207E+03 0.  0.
        -24    2    4    4    0    0 -0.14068382715E+03 -0.18320626611E+03 -0.25959761882E+03  0.35644704968E+03  0.79417254870E+02 0.  0.
         24    2    4    4    0    0 -0.24389499705E+03  0.31175622757E+03  0.52148244023E+03  0.66136996097E+03  0.93752732220E+02 0.  0.
         13    1    3    3    0    0  0.33843068132E+03 -0.10100414114E+03  0.74584565617E+03  0.82524111956E+03  0.00000000000E+00 0. -1.
        -13    1    3    3    0    0  0.46148142872E+02 -0.27545820329E+02  0.20793082086E+03  0.21476417199E+03  0.00000000000E+00 0.  1.
          2    1    6    6  502    0 -0.25137139704E+03  0.29674176349E+03  0.48880051695E+03  0.62463525263E+03  0.00000000000E+00 0. -1.
          3    1    5    5  503    0 -0.10930329832E+03 -0.16682755072E+03 -0.24992472063E+03  0.31975147957E+03  0.00000000000E+00 0. -1.
         -4    1    5    5    0  503 -0.31380528824E+02 -0.16378715380E+02 -0.96728981936E+01  0.36695570118E+02  0.00000000000E+00 0.  1.
         -1    1    6    6    0  502  0.74763999927E+01  0.15014464079E+02  0.32681923275E+02  0.36734708348E+02  0.00000000000E+00 0.  1.
<mgrwt>
<rscale>  0 0.16603615E+04</rscale>
<asrwt>0</asrwt>
<pdfrwt beam="1">  1        2 0.25180643E+00 0.16603615E+04</pdfrwt>
<pdfrwt beam="2">  1       -2 0.64781616E-01 0.16603615E+04</pdfrwt>
<totfact> 0.22323041E+01</totfact>
</mgrwt>
</event>
<event>
12    1  0.2406360E-008  0.1900326E+04  0.7818608E-02  0.8654694E-01
         -2   -1    0    0    0  501 -0.00000000000E+00  0.00000000000E+00  0.77159460658E+03  0.77159460658E+03  0.00000000000E+00 0. -1.
          2   -1    0    0  501    0  0.00000000000E+00 -0.00000000000E+00 -0.11700567518E+04  0.11700567518E+04  0.00000000000E+00 0.  1.
         23    2    1    2    0    0  0.66355681237E+03  0.13310186196E+02  0.14607402986E+03  0.68653948623E+03  0.97539938788E+02 0.  0.
        254    2    1    2    0    0 -0.66355681237E+03 -0.13310186196E+02 -0.54453617506E+03  0.12551118721E+04  0.91558798666E+03 0.  0.
        -24    2    4    4    0    0 -0.44935789922E+03  0.51223845061E+02 -0.78459944668E+03  0.90919564537E+03  0.80585519383E+02 0.  0.
         24    2    4    4    0    0 -0.21419891315E+03 -0.64534031257E+02  0.24006327162E+03  0.34591622676E+03  0.10946161870E+03 0.  0.
         13    1    3    3    0    0  0.50850117905E+03 -0.36256385772E+01  0.15107624558E+03  0.53048150423E+03  0.00000000000E+00 0.  1.
        -13    1    3    3    0    0  0.15505563332E+03  0.16935824773E+02 -0.50022157220E+01  0.15605798200E+03  0.00000000000E+00 0. -1.
          2    1    6    6  502    0 -0.18203052565E+02  0.22908356809E+02  0.55985013277E+02  0.63170132547E+02  0.00000000000E+00 0. -1.
          3    1    5    5  503    0 -0.36122950047E+03  0.20844392846E+02 -0.56892221785E+03  0.67423566406E+03  0.00000000000E+00 0. -1.
         -4    1    5    5    0  503 -0.88128398756E+02  0.30379452216E+02 -0.21567722883E+03  0.23495998132E+03  0.00000000000E+00 0.  1.
         -1    1    6    6    0  502 -0.19599586058E+03 -0.87442388066E+02  0.18407825834E+03  0.28274609421E+03  0.00000000000E+00 0.  1.
<mgrwt>
<rscale>  0 0.19003257E+04</rscale>
<asrwt>0</asrwt>
<pdfrwt beam="1">  1        2 0.18000873E+00 0.19003257E+04</pdfrwt>
<pdfrwt beam="2">  1       -2 0.11870686E+00 0.19003257E+04</pdfrwt>
<totfact> 0.10087403E+01</totfact>
</mgrwt>
</event>
<event>
12    1  0.2406360E-008  0.1691927E+04  0.7818608E-02  0.8765982E-01
         -3   -1    0    0    0  501 -0.00000000000E+00  0.00000000000E+00  0.43922012374E+03  0.43922012374E+03  0.00000000000E+00 0.  1.
          3   -1    0    0  501    0  0.00000000000E+00 -0.00000000000E+00 -0.16293752779E+04  0.16293752779E+04  0.00000000000E+00 0. -1.
         23    2    1    2    0    0  0.41852654692E+03  0.26701873694E+03 -0.97181957860E+01  0.50519065316E+03  0.93057382071E+02 0.  0.
        254    2    1    2    0    0 -0.41852654692E+03 -0.26701873694E+03 -0.11804369584E+04  0.15634047485E+04  0.89684977478E+03 0.  0.
        -24    2    4    4    0    0 -0.23378348323E+03 -0.59168143668E+03 -0.66443358371E+03  0.92319754139E+03  0.77974827466E+02 0.  0.
         24    2    4    4    0    0 -0.18474306369E+03  0.32466269974E+03 -0.51600337469E+03  0.64020720711E+03  0.63795902397E+02 0.  0.
         13    1    3    3    0    0  0.36832692244E+03  0.21017045283E+03 -0.34326039745E+02  0.42545812724E+03  0.00000000000E+00 0. -1.
        -13    1    3    3    0    0  0.50199624483E+02  0.56848284113E+02  0.24607843959E+02  0.79732525917E+02  0.00000000000E+00 0.  1.
          4    1    6    6  502    0 -0.14745188222E+03  0.20686288921E+03 -0.32111265777E+03  0.40944798385E+03  0.00000000000E+00 0. -1.
          3    1    5    5  503    0 -0.12716608584E+03 -0.30153681581E+03 -0.39664674958E+03  0.51422204214E+03  0.00000000000E+00 0. -1.
         -4    1    5    5    0  503 -0.10661739739E+03 -0.29014462087E+03 -0.26778683413E+03  0.40897549925E+03  0.00000000000E+00 0.  1.
         -3    1    6    6    0  502 -0.37291181464E+02  0.11779981054E+03 -0.19489071692E+03  0.23075922325E+03  0.00000000000E+00 0.  1.
<mgrwt>
<rscale>  0 0.16919272E+04</rscale>
<asrwt>0</asrwt>
<pdfrwt beam="1">  1        3 0.25067312E+00 0.16919272E+04</pdfrwt>
<pdfrwt beam="2">  1       -3 0.67572327E-01 0.16919272E+04</pdfrwt>
<totfact> 0.38480873E-01</totfact>
</mgrwt>
</event>
<event>
11    1  0.2406360E-008  0.1899607E+04  0.7818608E-02  0.8655052E-01
          2   -1    0    0  501    0  0.00000000000E+00  0.00000000000E+00  0.16579585538E+04  0.16579585538E+04  0.00000000000E+00 0. -1.
         -2   -1    0    0    0  501 -0.00000000000E+00 -0.00000000000E+00 -0.54411919428E+03  0.54411919428E+03  0.00000000000E+00 0.  1.
         23    2    1    2    0    0 -0.34902407186E+03  0.39538163101E+03 -0.15239360104E+03  0.55707783608E+03  0.94696720800E+02 0.  0.
        254    2    1    2    0    0  0.34902407186E+03 -0.39538163101E+03  0.12662329606E+04  0.16449999120E+04  0.90803874544E+03 0.  0.
        -24    2    4    4    0    0  0.23501011656E+03  0.22830904246E+03  0.61087875232E+03  0.69780438976E+03  0.80020888447E+02 0.  0.
         13    1    3    3    0    0 -0.59270231887E+02  0.28472155490E+02 -0.13812092011E+01  0.65768775001E+02  0.00000000000E+00 0. -1.
        -13    1    3    3    0    0 -0.28975383998E+03  0.36690947552E+03 -0.15101239183E+03  0.49130906108E+03  0.00000000000E+00 0.  1.
          4    1    4    4  502    0 -0.81463414976E+02 -0.21383574500E+03  0.24367216860E+03  0.33427255282E+03  0.00000000000E+00 0. -1.
          3    1    5    5  503    0  0.10654845797E+02 -0.42299741288E+01  0.42271268708E+02  0.43798157247E+02  0.00000000000E+00 0. -1.
         -4    1    5    5    0  503  0.22435527076E+03  0.23253901659E+03  0.56860748361E+03  0.65400623252E+03  0.00000000000E+00 0.  1.
         -3    1    4    4    0  502  0.19547737028E+03 -0.40985492848E+03  0.41168203966E+03  0.61292296944E+03  0.00000000000E+00 0.  1.
<mgrwt>
<rscale>  0 0.18996074E+04</rscale>
<asrwt>0</asrwt>
<pdfrwt beam="1">  1        2 0.25507055E+00 0.18996074E+04</pdfrwt>
<pdfrwt beam="2">  1       -2 0.83710646E-01 0.18996074E+04</pdfrwt>
<totfact> 0.12093610E+01</totfact>
</mgrwt>
</event>
<event>
12    1  0.2662114E-008  0.1835261E+04  0.7818608E-02  0.8687770E-01
          2   -1    0    0  501    0  0.00000000000E+00  0.00000000000E+00  0.10914739943E+04  0.10914739943E+04  0.00000000000E+00 0. -1.
         -2   -1    0    0    0  501 -0.00000000000E+00 -0.00000000000E+00 -0.77147534720E+03  0.77147534720E+03  0.00000000000E+00 0.  1.
         23    2    1    2    0    0  0.59607256098E+03  0.27144302396E+03 -0.89565359224E+02  0.66729866902E+03  0.91004103723E+02 0.  0.
        254    2    1    2    0    0 -0.59607256098E+03 -0.27144302396E+03  0.40956400637E+03  0.11956506725E+04  0.91260837285E+03 0.  0.
        -24    2    4    4    0    0  0.44123707752E+02 -0.28371798896E+03 -0.15638393932E+03  0.33629882787E+03  0.78728433933E+02 0.  0.
         24    2    4    4    0    0 -0.64019626873E+03  0.12274964997E+02  0.56594794569E+03  0.85935184466E+03  0.90479712801E+02 0.  0.
         11    1    3    3    0    0  0.79349639126E+01  0.15964675275E+02 -0.11780898559E+02  0.21368764115E+02  0.00000000000E+00 0. -1.
        -11    1    3    3    0    0  0.58813759707E+03  0.25547834868E+03 -0.77784460664E+02  0.64592990490E+03  0.00000000000E+00 0.  1.
          4    1    6    6  502    0 -0.35479452018E+02 -0.41152675154E+01  0.63965205160E+02  0.73261684484E+02  0.00000000000E+00 0. -1.
          1    1    5    5  503    0  0.16735923903E+02 -0.10867328745E+03 -0.17850761560E+02  0.11139400452E+03  0.00000000000E+00 0. -1.
         -2    1    5    5    0  503  0.27387783849E+02 -0.17504470150E+03 -0.13853317776E+03  0.22490482335E+03  0.00000000000E+00 0.  1.
         -3    1    6    6    0  502 -0.60471681671E+03  0.16390232512E+02  0.50198274053E+03  0.78609016017E+03  0.00000000000E+00 0.  1.
<mgrwt>
<rscale>  0 0.18352605E+04</rscale>
<asrwt>0</asrwt>
<pdfrwt beam="1">  1        2 0.16791908E+00 0.18352605E+04</pdfrwt>
<pdfrwt beam="2">  1       -2 0.11868851E+00 0.18352605E+04</pdfrwt>
<totfact> 0.11330400E+01</totfact>
</mgrwt>
</event>
<event>
12    1  0.2406360E-008  0.2032453E+04  0.7818608E-02  0.8591596E-01
         -2   -1    0    0    0  501 -0.00000000000E+00  0.00000000000E+00  0.13242241879E+04  0.13242241879E+04  0.00000000000E+00 0. -1.
          2   -1    0    0  501    0  0.00000000000E+00 -0.00000000000E+00 -0.77986544844E+03  0.77986544844E+03  0.00000000000E+00 0.  1.
         23    2    1    2    0    0  0.30067014183E+03  0.52631494736E+02 -0.56341126073E+03  0.64706903429E+03  0.89963759376E+02 0.  0.
        254    2    1    2    0    0 -0.30067014183E+03 -0.52631494736E+02  0.11077700002E+04  0.14570206020E+04  0.89586943972E+03 0.  0.
        -24    2    4    4    0    0 -0.36481241850E+03 -0.38104615772E+03  0.93349820030E+03  0.10752551025E+04  0.80438613634E+02 0.  0.
         24    2    4    4    0    0  0.64142276666E+02  0.32841466298E+03  0.17427179986E+03  0.38176549949E+03  0.58342213304E+02 0.  0.
         13    1    3    3    0    0  0.13678561523E+01  0.16466686955E+02 -0.34987064712E+02  0.38692602742E+02  0.00000000000E+00 0. -1.
        -13    1    3    3    0    0  0.29930228568E+03  0.36164807780E+02 -0.52842419601E+03  0.60837643155E+03  0.00000000000E+00 0.  1.
          2    1    6    6  502    0  0.61760239736E+02  0.24934656220E+03  0.15613263758E+03  0.30060844268E+03  0.00000000000E+00 0. -1.
          1    1    5    5  503    0 -0.63176054607E+02 -0.66622318029E+02  0.10742208900E+03  0.14131260503E+03  0.00000000000E+00 0. -1.
         -2    1    5    5    0  503 -0.30163636389E+03 -0.31442383969E+03  0.82607611130E+03  0.93394249751E+03  0.00000000000E+00 0.  1.
         -1    1    6    6    0  502  0.23820369294E+01  0.79068100781E+02  0.18139162286E+02  0.81157056806E+02  0.00000000000E+00 0.  1.
<mgrwt>
<rscale>  0 0.20324534E+04</rscale>
<asrwt>0</asrwt>
<pdfrwt beam="1">  1        2 0.11997930E+00 0.20324534E+04</pdfrwt>
<pdfrwt beam="2">  1       -2 0.20372680E+00 0.20324534E+04</pdfrwt>
<totfact> 0.41491581E+00</totfact>
</mgrwt>
</event>
<event>
11    1  0.2406360E-008  0.2067704E+04  0.7818608E-02  0.8575605E-01
          3   -1    0    0  501    0  0.00000000000E+00  0.00000000000E+00  0.10278000589E+04  0.10278000589E+04  0.00000000000E+00 0. -1.
         -3   -1    0    0    0  501 -0.00000000000E+00 -0.00000000000E+00 -0.10399392622E+04  0.10399392622E+04  0.00000000000E+00 0.  1.
         23    2    1    2    0    0 -0.39065047995E+03  0.73317677358E+03  0.38630984538E+02  0.83666935127E+03  0.91472791481E+02 0.  0.
        254    2    1    2    0    0  0.39065047995E+03 -0.73317677358E+03 -0.50770187800E+02  0.12310699698E+04  0.90708306113E+03 0.  0.
        -24    2    4    4    0    0  0.39379784426E+03 -0.35951655604E+02 -0.22750953763E+02  0.40404290301E+03  0.79773415944E+02 0.  0.
         13    1    3    3    0    0 -0.84729990938E+02  0.12515344233E+03  0.38737043356E+02  0.15602279967E+03  0.00000000000E+00 0. -1.
        -13    1    3    3    0    0 -0.30592048902E+03  0.60802333125E+03 -0.10605881791E+00  0.68064655159E+03  0.00000000000E+00 0.  1.
          4    1    4    4  502    0  0.20235802236E+01 -0.25522485117E+03  0.20497412755E+03  0.32735029020E+03  0.00000000000E+00 0. -1.
          3    1    5    5  503    0  0.13096698371E+02 -0.11407573397E+02  0.11788418565E+02  0.20991023112E+02  0.00000000000E+00 0. -1.
         -4    1    5    5    0  503  0.38070114589E+03 -0.24544082207E+02 -0.34539372328E+02  0.38305187990E+03  0.00000000000E+00 0.  1.
         -3    1    4    4    0  502 -0.51709445274E+01 -0.44200026681E+03 -0.23299336159E+03  0.49967677660E+03  0.00000000000E+00 0.  1.
<mgrwt>
<rscale>  0 0.20677037E+04</rscale>
<asrwt>0</asrwt>
<pdfrwt beam="1">  1        3 0.15812309E+00 0.20677037E+04</pdfrwt>
<pdfrwt beam="2">  1       -3 0.15999066E+00 0.20677037E+04</pdfrwt>
<totfact> 0.18520751E-01</totfact>
</mgrwt>
</event>
<event>
12    1  0.2406360E-008  0.2979631E+04  0.7818608E-02  0.8249571E-01
          2   -1    0    0  501    0  0.00000000000E+00  0.00000000000E+00  0.20619655062E+04  0.20619655062E+04  0.00000000000E+00 0.  1.
         -2   -1    0    0    0  501 -0.00000000000E+00 -0.00000000000E+00 -0.10764242463E+04  0.10764242463E+04  0.00000000000E+00 0. -1.
         23    2    1    2    0    0 -0.43761161711E+03  0.12315734362E+04  0.81332869109E+03  0.15428995456E+04  0.10372266828E+03 0.  0.
        254    2    1    2    0    0  0.43761161711E+03 -0.12315734362E+04  0.17221256875E+03  0.15954902069E+04  0.89869615284E+03 0.  0.
        -24    2    4    4    0    0  0.64634416863E+03 -0.51982735078E+03  0.15583840561E+03  0.84761129743E+03  0.78600533932E+02 0.  0.
         24    2    4    4    0    0 -0.20873255151E+03 -0.71174608543E+03  0.16374163144E+02  0.74787890943E+03  0.94355613293E+02 0.  0.
         13    1    3    3    0    0 -0.42366006025E+03  0.12237069917E+04  0.80088576181E+03  0.15226176972E+04  0.00000000000E+00 0. -1.
        -13    1    3    3    0    0 -0.13951556867E+02  0.78664444890E+01  0.12442929279E+02  0.20281848460E+02  0.00000000000E+00 0.  1.
          2    1    6    6  502    0 -0.14385551513E+03 -0.36130855258E+03 -0.21451749425E+02  0.38948486101E+03  0.00000000000E+00 0. -1.
          1    1    5    5  503    0  0.47469911050E+02 -0.66641894214E+02  0.22404235252E+02  0.84832094614E+02  0.00000000000E+00 0. -1.
         -2    1    5    5    0  503  0.59887425758E+03 -0.45318545657E+03  0.13343417035E+03  0.76277920282E+03  0.00000000000E+00 0.  1.
         -1    1    6    6    0  502 -0.64877036381E+02 -0.35043753285E+03  0.37825912568E+02  0.35839404842E+03  0.00000000000E+00 0.  1.
<mgrwt>
<rscale>  0 0.29796306E+04</rscale>
<asrwt>0</asrwt>
<pdfrwt beam="1">  1        2 0.31722546E+00 0.29796306E+04</pdfrwt>
<pdfrwt beam="2">  1       -2 0.16560373E+00 0.29796306E+04</pdfrwt>
<totfact> 0.12127248E+00</totfact>
</mgrwt>
</event>
<event>
12    1  0.2406360E-008  0.1254554E+04  0.7818608E-02  0.9066402E-01
          2   -1    0    0  501    0  0.00000000000E+00  0.00000000000E+00  0.74543446450E+03  0.74543446450E+03  0.00000000000E+00 0. -1.
         -2   -1    0    0    0  501 -0.00000000000E+00 -0.00000000000E+00 -0.52784816075E+03  0.52784816075E+03  0.00000000000E+00 0.  1.
         23    2    1    2    0    0  0.17565761528E+03  0.16558685009E+03  0.21397095947E+03  0.33522136163E+03  0.91187647561E+02 0.  0.
        254    2    1    2    0    0 -0.17565761528E+03 -0.16558685009E+03  0.36153442699E+01  0.93806126362E+03  0.90646084353E+03 0.  0.
        -24    2    4    4    0    0 -0.19501273665E+03  0.35033574063E+03 -0.47626656670E+02  0.41135645604E+03  0.78617662665E+02 0.  0.
         24    2    4    4    0    0  0.19355121377E+02 -0.51592259071E+03  0.51242000940E+02  0.52670480758E+03  0.90782549704E+02 0.  0.
         13    1    3    3    0    0  0.92039074132E-01  0.18727922719E+02 -0.39975398207E+01  0.19150036166E+02  0.00000000000E+00 0. -1.
        -13    1    3    3    0    0  0.17556557620E+03  0.14685892737E+03  0.21796849930E+03  0.31607132546E+03  0.00000000000E+00 0.  1.
          2    1    6    6  502    0 -0.26668384437E+02 -0.34344347291E+03  0.50712382020E+02  0.34819013125E+03  0.00000000000E+00 0. -1.
          3    1    5    5  503    0 -0.37592551366E+02  0.14386095767E+03 -0.24391059020E+02  0.15067879353E+03  0.00000000000E+00 0. -1.
         -2    1    5    5    0  503 -0.15742018529E+03  0.20647478296E+03 -0.23235597650E+02  0.26067766251E+03  0.00000000000E+00 0.  1.
         -1    1    6    6    0  502  0.46023505815E+02 -0.17247911780E+03  0.52961891970E+00  0.17851467632E+03  0.00000000000E+00 0.  1.
<mgrwt>
<rscale>  0 0.12545536E+04</rscale>
<asrwt>0</asrwt>
<pdfrwt beam="1">  1        2 0.11468223E+00 0.12545536E+04</pdfrwt>
<pdfrwt beam="2">  1       -2 0.81207409E-01 0.12545536E+04</pdfrwt>
<totfact> 0.49687574E+01</totfact>
</mgrwt>
</event>
<event>
12    1  0.2406360E-008  0.1425847E+04  0.7818608E-02  0.8935319E-01
         -1   -1    0    0    0  501 -0.00000000000E+00  0.00000000000E+00  0.56394545599E+03  0.56394545599E+03  0.00000000000E+00 0.  1.
          1   -1    0    0  501    0  0.00000000000E+00 -0.00000000000E+00 -0.90125722476E+03  0.90125722476E+03  0.00000000000E+00 0. -1.
         23    2    1    2    0    0 -0.22783576867E+03  0.18929535001E+02 -0.44797622175E+03  0.51080470376E+03  0.89282055012E+02 0.  0.
        254    2    1    2    0    0  0.22783576867E+03 -0.18929535001E+02  0.11066445298E+03  0.95439797699E+03  0.91997902832E+03 0.  0.
        -24    2    4    4    0    0  0.93647727578E+02 -0.33061523968E+03  0.37485831819E+03  0.51478789754E+03  0.80071762495E+02 0.  0.
         24    2    4    4    0    0  0.13418804110E+03  0.31168570468E+03 -0.26419386521E+03  0.43961007945E+03  0.91127463800E+02 0.  0.
         11    1    3    3    0    0 -0.11074086468E+03  0.34347815131E+02 -0.14522626807E+03  0.18583320600E+03  0.00000000000E+00 0.  1.
        -11    1    3    3    0    0 -0.11709490399E+03 -0.15418280130E+02 -0.30274995368E+03  0.32497149776E+03  0.00000000000E+00 0. -1.
          4    1    6    6  502    0  0.95272878228E+02  0.12286168781E+03 -0.89216143477E+02  0.17925243629E+03  0.00000000000E+00 0. -1.
          3    1    5    5  503    0  0.42818479434E+02 -0.23159507875E+03  0.29654765794E+03  0.37869541338E+03  0.00000000000E+00 0. -1.
         -4    1    5    5    0  503  0.50829248144E+02 -0.99020160927E+02  0.78310660251E+02  0.13609248416E+03  0.00000000000E+00 0.  1.
         -3    1    6    6    0  502  0.38915162869E+02  0.18882401687E+03 -0.17497772174E+03  0.26035764316E+03  0.00000000000E+00 0.  1.
<mgrwt>
<rscale>  0 0.14258470E+04</rscale>
<asrwt>0</asrwt>
<pdfrwt beam="1">  1        1 0.13865496E+00 0.14258470E+04</pdfrwt>
<pdfrwt beam="2">  1       -1 0.86760841E-01 0.14258470E+04</pdfrwt>
<totfact> 0.23135895E+01</totfact>
</mgrwt>
</event>
<event>
12    1  0.2406360E-008  0.1080257E+04  0.7818608E-02  0.9224651E-01
          2   -1    0    0  501    0  0.00000000000E+00  0.00000000000E+00  0.26286655162E+04  0.26286655162E+04  0.00000000000E+00 0. -1.
         -2   -1    0    0    0  501 -0.00000000000E+00 -0.00000000000E+00 -0.11098362794E+03  0.11098362794E+03  0.00000000000E+00 0.  1.
         23    2    1    2    0    0  0.12295434234E+02 -0.66344952569E+01  0.72978331977E+03  0.73580914475E+03  0.92931208221E+02 0.  0.
        254    2    1    2    0    0 -0.12295434234E+02  0.66344952569E+01  0.17878985685E+04  0.20038399994E+04  0.90476420005E+03 0.  0.
        -24    2    4    4    0    0 -0.32956629594E+03 -0.18737783835E+03  0.38211141273E+03  0.54552379907E+03  0.88671787394E+02 0.  0.
         24    2    4    4    0    0  0.31727086171E+03  0.19401233360E+03  0.14057871558E+04  0.14583162004E+04  0.11021355418E+03 0.  0.
         13    1    3    3    0    0  0.19573571235E+02 -0.15794335066E+02  0.72032712608E+03  0.72076608846E+03  0.00000000000E+00 0. -1.
        -13    1    3    3    0    0 -0.72781370006E+01  0.91598398093E+01  0.94561936892E+01  0.15043056292E+02  0.00000000000E+00 0.  1.
          4    1    6    6  502    0  0.47904694097E+02 -0.11095369652E+02  0.19158850097E+03  0.19779818161E+03  0.00000000000E+00 0. -1.
          3    1    5    5  503    0 -0.20167435323E+03 -0.10910160900E+03  0.28942069785E+03  0.36924253030E+03  0.00000000000E+00 0. -1.
         -4    1    5    5    0  503 -0.12789194272E+03 -0.78276229347E+02  0.92690714879E+02  0.17628126876E+03  0.00000000000E+00 0.  1.
         -3    1    6    6    0  502  0.26936616761E+03  0.20510770326E+03  0.12141986548E+04  0.12605180188E+04  0.00000000000E+00 0.  1.
<mgrwt>
<rscale>  0 0.10802571E+04</rscale>
<asrwt>0</asrwt>
<pdfrwt beam="1">  1        2 0.40441003E+00 0.10802571E+04</pdfrwt>
<pdfrwt beam="2">  1       -2 0.17074406E-01 0.10802571E+04</pdfrwt>
<totfact> 0.82863227E+01</totfact>
</mgrwt>
</event>
<event>
11    1  0.2406360E-008  0.1301326E+04  0.7818608E-02  0.9028514E-01
         -1   -1    0    0    0  501 -0.00000000000E+00  0.00000000000E+00  0.98993606074E+03  0.98993606074E+03  0.00000000000E+00 0. -1.
          1   -1    0    0  501    0  0.00000000000E+00 -0.00000000000E+00 -0.42766640507E+03  0.42766640507E+03  0.00000000000E+00 0.  1.
         23    2    1    2    0    0 -0.27148368440E+02  0.11670131363E+03  0.47286562206E+03  0.49644979952E+03  0.92218633749E+02 0.  0.
        254    2    1    2    0    0  0.27148368440E+02 -0.11670131363E+03  0.89404033619E+02  0.92115266628E+03  0.90894054968E+03 0.  0.
        -24    2    4    4    0    0  0.10597326305E+03  0.46453592828E+02 -0.37799891924E+03  0.40341050393E+03  0.80427501312E+02 0.  0.
         13    1    3    3    0    0 -0.50145032606E+02  0.24141507741E+02  0.16305680315E+03  0.17229294165E+03  0.00000000000E+00 0.  1.
        -13    1    3    3    0    0  0.22996664166E+02  0.92559805890E+02  0.30980881891E+03  0.32415685787E+03  0.00000000000E+00 0. -1.
          4    1    4    4  502    0 -0.80910668221E+02 -0.71842123786E+02  0.36416543375E+03  0.37990036868E+03  0.00000000000E+00 0. -1.
          1    1    5    5  503    0  0.10712346194E+03  0.61090818153E+02 -0.35768160437E+03  0.37834330212E+03  0.00000000000E+00 0. -1.
         -2    1    5    5    0  503 -0.11501988905E+01 -0.14637225326E+02 -0.20317314876E+02  0.25067201809E+02  0.00000000000E+00 0.  1.
         -1    1    4    4    0  502  0.20857736153E+01 -0.91312782673E+02  0.10323751911E+03  0.13784179367E+03  0.00000000000E+00 0.  1.
<mgrwt>
<rscale>  0 0.13013261E+04</rscale>
<asrwt>0</asrwt>
<pdfrwt beam="1">  1        1 0.65794832E-01 0.13013261E+04</pdfrwt>
<pdfrwt beam="2">  1       -1 0.15229785E+00 0.13013261E+04</pdfrwt>
<totfact> 0.18043629E+01</totfact>
</mgrwt>
</event>
<event>
12    1  0.2406360E-008  0.1549893E+04  0.7818608E-02  0.8851936E-01
         -1   -1    0    0    0  501 -0.00000000000E+00  0.00000000000E+00  0.31422921399E+03  0.31422921399E+03  0.00000000000E+00 0.  1.
          1   -1    0    0  501    0  0.00000000000E+00 -0.00000000000E+00 -0.19111591557E+04  0.19111591557E+04  0.00000000000E+00 0. -1.
         23    2    1    2    0    0  0.57057749787E+03 -0.12405460453E+03 -0.58950198605E+03  0.83485160075E+03  0.92284222557E+02 0.  0.
        254    2    1    2    0    0 -0.57057749787E+03  0.12405460453E+03 -0.10074279556E+04  0.13905367689E+04  0.76008762252E+03 0.  0.
        -24    2    4    4    0    0 -0.67683729333E+02  0.11834292215E+03 -0.83636747229E+03  0.85140835776E+03  0.82459132501E+02 0.  0.
         24    2    4    4    0    0 -0.50289376854E+03  0.57116823752E+01 -0.17106048333E+03  0.53912841113E+03  0.91994505172E+02 0.  0.
         13    1    3    3    0    0  0.13672815732E+03 -0.70021785473E+02 -0.14103395525E+03  0.20853828421E+03  0.00000000000E+00 0.  1.
        -13    1    3    3    0    0  0.43384934055E+03 -0.54032819054E+02 -0.44846803080E+03  0.62631331654E+03  0.00000000000E+00 0. -1.
          4    1    6    6  502    0 -0.38697421517E+03  0.11907399137E+02 -0.89821090041E+02  0.39744013080E+03  0.00000000000E+00 0. -1.
          1    1    5    5  503    0 -0.69821185160E+02  0.11985800168E+03 -0.83723540814E+03  0.84864837660E+03  0.00000000000E+00 0. -1.
         -2    1    5    5    0  503  0.21374558274E+01 -0.15150795303E+01  0.86793585073E+00  0.27599811663E+01  0.00000000000E+00 0.  1.
         -3    1    6    6    0  502 -0.11591955337E+03 -0.61957167618E+01 -0.81239393287E+02  0.14168828033E+03  0.00000000000E+00 0.  1.
<mgrwt>
<rscale>  0 0.15498930E+04</rscale>
<asrwt>0</asrwt>
<pdfrwt beam="1">  1        1 0.29402448E+00 0.15498930E+04</pdfrwt>
<pdfrwt beam="2">  1       -1 0.48342957E-01 0.15498930E+04</pdfrwt>
<totfact> 0.14121393E+01</totfact>
</mgrwt>
</event>
<event>
12    1  0.2406360E-008  0.2503040E+04  0.7818608E-02  0.8401903E-01
         -1   -1    0    0    0  501 -0.00000000000E+00  0.00000000000E+00  0.69121832395E+03  0.69121832395E+03  0.00000000000E+00 0.  1.
          1   -1    0    0  501    0  0.00000000000E+00 -0.00000000000E+00 -0.22660025561E+04  0.22660025561E+04  0.00000000000E+00 0. -1.
         23    2    1    2    0    0 -0.50379404390E+03  0.38859436576E+03 -0.17301512998E+04  0.18457156276E+04  0.91807612832E+02 0.  0.
        254    2    1    2    0    0  0.50379404390E+03 -0.38859436576E+03  0.15536706768E+03  0.11115052525E+04  0.89804842900E+03 0.  0.
        -24    2    4    4    0    0 -0.20134696789E+03 -0.30793848076E+03 -0.95441482507E+01  0.37635210331E+03  0.78632725294E+02 0.  0.
         24    2    4    4    0    0  0.70514101179E+03 -0.80655884998E+02  0.16491121593E+03  0.73515314918E+03  0.97597260831E+02 0.  0.
         13    1    3    3    0    0 -0.45431622758E+03  0.31068753277E+03 -0.14670260628E+04  0.15668744195E+04  0.00000000000E+00 0. -1.
        -13    1    3    3    0    0 -0.49477816324E+02  0.77906832997E+02 -0.26312523705E+03  0.27884120805E+03  0.00000000000E+00 0.  1.
          4    1    6    6  502    0  0.57476667928E+03 -0.99637211134E+02  0.15171433344E+03  0.60274501112E+03  0.00000000000E+00 0. -1.
          3    1    5    5  503    0 -0.15656560295E+03 -0.17036088950E+03 -0.11393328961E+02  0.23165799931E+03  0.00000000000E+00 0. -1.
         -4    1    5    5    0  503 -0.44781364937E+02 -0.13757759126E+03  0.18491807100E+01  0.14469410400E+03  0.00000000000E+00 0.  1.
         -3    1    6    6    0  502  0.13037433251E+03  0.18981326135E+02  0.13196882490E+02  0.13240813807E+03  0.00000000000E+00 0.  1.
<mgrwt>
<rscale>  0 0.25030401E+04</rscale>
<asrwt>0</asrwt>
<pdfrwt beam="1">  1        1 0.34861577E+00 0.25030401E+04</pdfrwt>
<pdfrwt beam="2">  1       -1 0.10634128E+00 0.25030401E+04</pdfrwt>
<totfact> 0.14409957E+00</totfact>
</mgrwt>
</event>
<event>
11    1  0.2406360E-008  0.1318916E+04  0.7818608E-02  0.9014698E-01
          2   -1    0    0  501    0  0.00000000000E+00  0.00000000000E+00  0.28496525912E+04  0.28496525912E+04  0.00000000000E+00 0. -1.
         -2   -1    0    0    0  501 -0.00000000000E+00 -0.00000000000E+00 -0.15260974567E+03  0.15260974567E+03  0.00000000000E+00 0.  1.
         23    2    1    2    0    0 -0.22933848737E+03 -0.12882825032E+03  0.23311169811E+03  0.36357384408E+03  0.93016215991E+02 0.  0.
        254    2    1    2    0    0  0.22933848737E+03  0.12882825032E+03  0.24639311474E+04  0.26386884928E+04  0.90693296494E+03 0.  0.
        -24    2    4    4    0    0 -0.39216080795E+02 -0.15702724387E+03  0.20453646325E+04  0.20532127837E+04  0.77270945177E+02 0.  0.
         13    1    3    3    0    0 -0.14352430644E+03 -0.27354343716E+02  0.12309034939E+03  0.19104638382E+03  0.00000000000E+00 0.  1.
        -13    1    3    3    0    0 -0.85814180928E+02 -0.10147390660E+03  0.11002134873E+03  0.17252746026E+03  0.00000000000E+00 0. -1.
          2    1    4    4  502    0  0.14171505254E+03  0.15418090615E+03  0.30591469348E+03  0.37072726852E+03  0.00000000000E+00 0. -1.
          3    1    5    5  503    0  0.93869491397E+01 -0.78363879129E+02  0.12504373508E+04  0.12529256085E+04  0.00000000000E+00 0. -1.
         -2    1    5    5    0  503 -0.48603029935E+02 -0.78663364741E+02  0.79492728172E+03  0.80028717514E+03  0.00000000000E+00 0.  1.
         -1    1    4    4    0  502  0.12683951563E+03  0.13167458804E+03  0.11265182147E+03  0.21474844060E+03  0.00000000000E+00 0.  1.
<mgrwt>
<rscale>  0 0.13189159E+04</rscale>
<asrwt>0</asrwt>
<pdfrwt beam="1">  1        2 0.43840805E+00 0.13189159E+04</pdfrwt>
<pdfrwt beam="2">  1       -2 0.23478424E-01 0.13189159E+04</pdfrwt>
<totfact> 0.34231847E+01</totfact>
</mgrwt>
</event>
<event>
12    1  0.2406360E-008  0.1090325E+04  0.7818608E-02  0.9214674E-01
         -2   -1    0    0    0  501 -0.00000000000E+00  0.00000000000E+00  0.87637711204E+02  0.87637711204E+02  0.00000000000E+00 0. -1.
          2   -1    0    0  501    0  0.00000000000E+00 -0.00000000000E+00 -0.33912566251E+04  0.33912566251E+04  0.00000000000E+00 0.  1.
         23    2    1    2    0    0  0.94044428184E+02  0.82956045377E+02 -0.32847525926E+03  0.36358437848E+03  0.92582635449E+02 0.  0.
        254    2    1    2    0    0 -0.94044428184E+02 -0.82956045377E+02 -0.29751436546E+04  0.31153099578E+04  0.91539625720E+03 0.  0.
        -24    2    4    4    0    0  0.22624304502E+03  0.29500373116E+03 -0.17723324890E+04  0.18126834935E+04  0.80286233104E+02 0.  0.
         24    2    4    4    0    0 -0.32028747321E+03 -0.37795977654E+03 -0.12028111656E+04  0.13026264643E+04  0.68142110440E+02 0.  0.
         13    1    3    3    0    0  0.62617183080E+02  0.35057926455E+01 -0.19738353738E+03  0.20710737077E+03  0.00000000000E+00 0.  1.
        -13    1    3    3    0    0  0.31427245105E+02  0.79450252732E+02 -0.13109172188E+03  0.15647700770E+03  0.00000000000E+00 0. -1.
          4    1    6    6  502    0 -0.11514100636E+03 -0.15090092609E+03 -0.38033372508E+03  0.42506738674E+03  0.00000000000E+00 0. -1.
          1    1    5    5  503    0  0.95975816509E+02  0.69675034140E+02 -0.48355557210E+03  0.49788749638E+03  0.00000000000E+00 0. -1.
         -2    1    5    5    0  503  0.13026722851E+03  0.22532869702E+03 -0.12887769169E+04  0.13147959971E+04  0.00000000000E+00 0.  1.
         -3    1    6    6    0  502 -0.20514646684E+03 -0.22705885044E+03 -0.82247744050E+03  0.87755907753E+03  0.00000000000E+00 0.  1.
<mgrwt>
<rscale>  0 0.10903247E+04</rscale>
<asrwt>0</asrwt>
<pdfrwt beam="1">  1        2 0.52173181E+00 0.10903247E+04</pdfrwt>
<pdfrwt beam="2">  1       -2 0.13482724E-01 0.10903247E+04</pdfrwt>
<totfact> 0.41555596E+01</totfact>
</mgrwt>
</event>
<event>
12    1  0.3057052E-008  0.1769785E+04  0.7818608E-02  0.8722534E-01
          3   -1    0    0  501    0  0.00000000000E+00  0.00000000000E+00  0.16670702331E+04  0.16670702331E+04  0.00000000000E+00 0. -1.
         -3   -1    0    0    0  501 -0.00000000000E+00 -0.00000000000E+00 -0.46970731537E+03  0.46970731537E+03  0.00000000000E+00 0.  1.
         23    2    1    2    0    0 -0.36442549538E+03 -0.50992373835E+03  0.33493433767E+03  0.71677697028E+03  0.93595159935E+02 0.  0.
        254    2    1    2    0    0  0.36442549538E+03  0.50992373835E+03  0.86242858003E+03  0.14200005782E+04  0.93797144184E+03 0.  0.
        -24    2    4    4    0    0 -0.26576670834E+03  0.33317372899E+03  0.51632402921E+03  0.67406278146E+03  0.78316366471E+02 0.  0.
         24    2    4    4    0    0  0.63019220372E+03  0.17675000936E+03  0.34610455083E+03  0.74593779671E+03  0.90840833408E+02 0.  0.
         11    1    3    3    0    0 -0.27310134819E+02 -0.12726071563E+02  0.32190949833E+02  0.44091423343E+02  0.00000000000E+00 0. -1.
        -11    1    3    3    0    0 -0.33711536056E+03 -0.49719766679E+03  0.30274338784E+03  0.67268554694E+03  0.00000000000E+00 0.  1.
          4    1    6    6  502    0  0.71102069381E+02  0.62393884231E+01  0.68211970529E+02  0.98728451632E+02  0.00000000000E+00 0. -1.
          3    1    5    5  503    0 -0.23435988444E+02  0.76671101662E+02  0.86374342595E+02  0.11784833662E+03  0.00000000000E+00 0. -1.
         -4    1    5    5    0  503 -0.24233071990E+03  0.25650262733E+03  0.42994968661E+03  0.55621444484E+03  0.00000000000E+00 0.  1.
         -3    1    6    6    0  502  0.55909013434E+03  0.17051062094E+03  0.27789258030E+03  0.64720934508E+03  0.00000000000E+00 0.  1.
<mgrwt>
<rscale>  0 0.17697854E+04</rscale>
<asrwt>0</asrwt>
<pdfrwt beam="1">  1        3 0.25647234E+00 0.17697854E+04</pdfrwt>
<pdfrwt beam="2">  1       -3 0.72262665E-01 0.17697854E+04</pdfrwt>
<totfact> 0.30604859E-01</totfact>
</mgrwt>
</event>
<event>
11    1  0.2406360E-008  0.1152307E+04  0.7818608E-02  0.9155658E-01
         -2   -1    0    0    0  501 -0.00000000000E+00  0.00000000000E+00  0.24130953063E+03  0.24130953063E+03  0.00000000000E+00 0.  1.
          2   -1    0    0  501    0  0.00000000000E+00 -0.00000000000E+00 -0.13756300191E+04  0.13756300191E+04  0.00000000000E+00 0. -1.
         23    2    1    2    0    0  0.13702023115E+03  0.85579893516E+01 -0.18946604224E+02  0.16399586788E+03  0.87680601859E+02 0.  0.
        254    2    1    2    0    0 -0.13702023115E+03 -0.85579893516E+01 -0.11153738843E+04  0.14529436819E+04  0.92094443811E+03 0.  0.
        -24    2    4    4    0    0  0.26788523108E+03 -0.28761271068E+03 -0.33583199795E+03  0.52373886249E+03  0.83879060931E+02 0.  0.
         11    1    3    3    0    0  0.80314278480E+02 -0.76787301290E+00 -0.53905348859E+02  0.96730344734E+02  0.00000000000E+00 0. -1.
        -11    1    3    3    0    0  0.56705952672E+02  0.93258623645E+01  0.34958744634E+02  0.67265523143E+02  0.00000000000E+00 0.  1.
          4    1    4    4  502    0 -0.20565539507E+02  0.44405042531E+02 -0.39337697976E+02  0.62786970778E+02  0.00000000000E+00 0. -1.
          3    1    5    5  503    0  0.32346121037E+02 -0.49554806083E+02 -0.17541144674E+02  0.61722298309E+02  0.00000000000E+00 0. -1.
         -2    1    5    5    0  503  0.23553911004E+03 -0.23805790460E+03 -0.31829085328E+03  0.46201656419E+03  0.00000000000E+00 0.  1.
         -3    1    4    4    0  502 -0.38433992272E+03  0.23464967880E+03 -0.74020418832E+03  0.86641784860E+03  0.00000000000E+00 0.  1.
<mgrwt>
<rscale>  0 0.11523066E+04</rscale>
<asrwt>0</asrwt>
<pdfrwt beam="1">  1        2 0.21163539E+00 0.11523066E+04</pdfrwt>
<pdfrwt beam="2">  1       -2 0.37124543E-01 0.11523066E+04</pdfrwt>
<totfact> 0.10108082E+02</totfact>
</mgrwt>
</event>
<event>
11    1  0.2406360E-008  0.1735015E+04  0.7818608E-02  0.8741642E-01
         -1   -1    0    0    0  501 -0.00000000000E+00  0.00000000000E+00  0.78018335834E+03  0.78018335834E+03  0.00000000000E+00 0.  1.
          1   -1    0    0  501    0  0.00000000000E+00 -0.00000000000E+00 -0.96460519300E+03  0.96460519300E+03  0.00000000000E+00 0. -1.
         23    2    1    2    0    0  0.47751205437E+03  0.36969779748E+03  0.11498736156E+03  0.62188280510E+03  0.93925004311E+02 0.  0.
        254    2    1    2    0    0 -0.47751205437E+03 -0.36969779748E+03 -0.29940919622E+03  0.11229057462E+04  0.89809644507E+03 0.  0.
        -24    2    4    4    0    0 -0.49809524707E+03 -0.31215305756E+03 -0.28234483953E+02  0.59403838227E+03  0.80907397830E+02 0.  0.
         11    1    3    3    0    0  0.73100925800E+02  0.71773956982E+02  0.54246005069E+02  0.11592185005E+03  0.00000000000E+00 0. -1.
        -11    1    3    3    0    0  0.40441112857E+03  0.29792384049E+03  0.60741356496E+02  0.50596095505E+03  0.00000000000E+00 0.  1.
          2    1    4    4  502    0  0.10211152199E+03 -0.22877963300E+03 -0.88943118063E+02  0.26585289476E+03  0.00000000000E+00 0. -1.
          3    1    5    5  503    0 -0.95756887540E+02 -0.98958196379E+02  0.18139247164E+01  0.13771491010E+03  0.00000000000E+00 0. -1.
         -2    1    5    5    0  503 -0.40233835953E+03 -0.21319486119E+03 -0.30048408669E+02  0.45632347217E+03  0.00000000000E+00 0.  1.
         -1    1    4    4    0  502 -0.81528329288E+02  0.17123489309E+03 -0.18223159421E+03  0.26301446921E+03  0.00000000000E+00 0.  1.
<mgrwt>
<rscale>  0 0.17350146E+04</rscale>
<asrwt>0</asrwt>
<pdfrwt beam="1">  1        1 0.14840080E+00 0.17350146E+04</pdfrwt>
<pdfrwt beam="2">  1       -1 0.12002821E+00 0.17350146E+04</pdfrwt>
<totfact> 0.94745192E+00</totfact>
</mgrwt>
</event>
<event>
12    1  0.2406360E-008  0.2491358E+04  0.7818608E-02  0.8406071E-01
         -2   -1    0    0    0  501 -0.00000000000E+00  0.00000000000E+00  0.13958371722E+04  0.13958371722E+04  0.00000000000E+00 0.  1.
          2   -1    0    0  501    0  0.00000000000E+00 -0.00000000000E+00 -0.11116740585E+04  0.11116740585E+04  0.00000000000E+00 0. -1.
         23    2    1    2    0    0  0.37642142074E+03 -0.68711268515E+03 -0.62636542318E+03  0.10073563738E+04  0.92823986600E+02 0.  0.
        254    2    1    2    0    0 -0.37642142074E+03  0.68711268515E+03  0.91052853684E+03  0.15001548569E+04  0.89865758230E+03 0.  0.
        -24    2    4    4    0    0  0.61950553322E+01  0.68264272102E+02  0.73975531980E+03  0.74718217377E+03  0.79654742891E+02 0.  0.
         24    2    4    4    0    0 -0.38261647607E+03  0.61884841305E+03  0.17077321704E+03  0.75297268315E+03  0.91845761004E+02 0.  0.
         11    1    3    3    0    0  0.30734611799E+03 -0.47710979322E+03 -0.46390897917E+03  0.73301223181E+03  0.00000000000E+00 0. -1.
        -11    1    3    3    0    0  0.69075302750E+02 -0.21000289193E+03 -0.16245644401E+03  0.27434414204E+03  0.00000000000E+00 0.  1.
          2    1    6    6  502    0 -0.24098370249E+03  0.46550311477E+03  0.11052909495E+03  0.53570792001E+03  0.00000000000E+00 0. -1.
          3    1    5    5  503    0  0.29117243784E+02  0.88856755329E+01  0.42306856574E+03  0.42416244581E+03  0.00000000000E+00 0. -1.
         -4    1    5    5    0  503 -0.22922188451E+02  0.59378596569E+02  0.31668675406E+03  0.32301972796E+03  0.00000000000E+00 0.  1.
         -1    1    6    6    0  502 -0.14163277358E+03  0.15334529827E+03  0.60244122095E+02  0.21726476314E+03  0.00000000000E+00 0.  1.
<mgrwt>
<rscale>  0 0.24913578E+04</rscale>
<asrwt>0</asrwt>
<pdfrwt beam="1">  1        2 0.17102678E+00 0.24913578E+04</pdfrwt>
<pdfrwt beam="2">  1       -2 0.21474418E+00 0.24913578E+04</pdfrwt>
<totfact> 0.20413953E+00</totfact>
</mgrwt>
</event>
<event>
12    1  0.2406360E-008  0.1159636E+04  0.7818608E-02  0.9148940E-01
         -2   -1    0    0    0  501 -0.00000000000E+00  0.00000000000E+00  0.14921175458E+03  0.14921175458E+03  0.00000000000E+00 0. -1.
          2   -1    0    0  501    0  0.00000000000E+00 -0.00000000000E+00 -0.22530993913E+04  0.22530993913E+04  0.00000000000E+00 0.  1.
         23    2    1    2    0    0  0.16954264564E+03  0.13117899146E+02 -0.66154233392E+03  0.68927962416E+03  0.92473524590E+02 0.  0.
        254    2    1    2    0    0 -0.16954264564E+03 -0.13117899146E+02 -0.14423453028E+04  0.17130315217E+04  0.90840532469E+03 0.  0.
        -24    2    4    4    0    0  0.20878424249E+03  0.28054920667E+03 -0.28557422195E+03  0.45707977610E+03  0.71207922314E+02 0.  0.
         24    2    4    4    0    0 -0.37832688812E+03 -0.29366710582E+03 -0.11567710809E+04  0.12559517456E+04  0.99618524948E+02 0.  0.
         11    1    3    3    0    0  0.72083432295E+02  0.50898584032E+02 -0.33422511886E+03  0.34567776490E+03  0.00000000000E+00 0. -1.
        -11    1    3    3    0    0  0.97459213340E+02 -0.37780684885E+02 -0.32731721506E+03  0.34360185926E+03  0.00000000000E+00 0.  1.
          2    1    6    6  502    0 -0.76806070249E+02 -0.98394338957E+02 -0.22455185090E+03  0.25691273248E+03  0.00000000000E+00 0. -1.
          1    1    5    5  503    0  0.41455158213E+02  0.89468604680E+02 -0.49553827403E+02  0.11035734310E+03  0.00000000000E+00 0. -1.
         -2    1    5    5    0  503  0.16732908428E+03  0.19108060199E+03 -0.23602039455E+03  0.34672243300E+03  0.00000000000E+00 0.  1.
         -1    1    6    6    0  502 -0.30152081787E+03 -0.19527276686E+03 -0.93221922998E+03  0.99903901317E+03  0.00000000000E+00 0.  1.
<mgrwt>
<rscale>  0 0.11596360E+04</rscale>
<asrwt>0</asrwt>
<pdfrwt beam="1">  1        2 0.34663069E+00 0.11596360E+04</pdfrwt>
<pdfrwt beam="2">  1       -2 0.22955653E-01 0.11596360E+04</pdfrwt>
<totfact> 0.80110642E+01</totfact>
</mgrwt>
</event>
<event>
12    1  0.2406360E-008  0.3104795E+04  0.7818608E-02  0.8214423E-01
         -2   -1    0    0    0  501 -0.00000000000E+00  0.00000000000E+00  0.18096539206E+04  0.18096539206E+04  0.00000000000E+00 0.  1.
          2   -1    0    0  501    0  0.00000000000E+00 -0.00000000000E+00 -0.13317120097E+04  0.13317120097E+04  0.00000000000E+00 0. -1.
         23    2    1    2    0    0  0.13146743389E+04  0.67025995373E+02  0.75608784389E+03  0.15207590582E+04  0.90433313216E+02 0.  0.
        254    2    1    2    0    0 -0.13146743389E+04 -0.67025995373E+02 -0.27814593294E+03  0.16206068720E+04  0.90340487728E+03 0.  0.
        -24    2    4    4    0    0 -0.99353508237E+03 -0.29486414711E+03  0.12797734858E+03  0.10472975187E+04  0.79981659597E+02 0.  0.
         24    2    4    4    0    0 -0.32113925652E+03  0.22783815174E+03 -0.40612328152E+03  0.57330935329E+03  0.93310499464E+02 0.  0.
         13    1    3    3    0    0  0.97789212095E+03  0.34292632744E+02  0.51918426171E+03  0.11077008994E+04  0.00000000000E+00 0. -1.
        -13    1    3    3    0    0  0.33678221794E+03  0.32733362629E+02  0.23690358218E+03  0.41305815886E+03  0.00000000000E+00 0.  1.
          2    1    6    6  502    0  0.39533454362E+01  0.11863575035E+02 -0.24181646653E+02  0.27223618194E+02  0.00000000000E+00 0. -1.
          1    1    5    5  503    0 -0.72078739937E+03 -0.17785557486E+03  0.10191193781E+03  0.74936848324E+03  0.00000000000E+00 0. -1.
         -2    1    5    5    0  503 -0.27274768300E+03 -0.11700857225E+03  0.26065410772E+02  0.29792903551E+03  0.00000000000E+00 0.  1.
         -3    1    6    6    0  502 -0.32509260196E+03  0.21597457670E+03 -0.38194163487E+03  0.54608573509E+03  0.00000000000E+00 0.  1.
<mgrwt>
<rscale>  0 0.31047949E+04</rscale>
<asrwt>0</asrwt>
<pdfrwt beam="1">  1        2 0.20487877E+00 0.31047949E+04</pdfrwt>
<pdfrwt beam="2">  1       -2 0.27840829E+00 0.31047949E+04</pdfrwt>
<totfact> 0.57903298E-01</totfact>
</mgrwt>
</event>
<event>
12    1  0.2406360E-008  0.1279595E+04  0.7818608E-02  0.9045904E-01
          1   -1    0    0  501    0  0.00000000000E+00  0.00000000000E+00  0.82173332867E+03  0.82173332867E+03  0.00000000000E+00 0. -1.
         -1   -1    0    0    0  501 -0.00000000000E+00 -0.00000000000E+00 -0.49814352707E+03  0.49814352707E+03  0.00000000000E+00 0.  1.
         23    2    1    2    0    0 -0.98343981831E+02 -0.82557754192E+02 -0.24888999888E+03  0.29523244921E+03  0.93427222926E+02 0.  0.
        254    2    1    2    0    0  0.98343981831E+02  0.82557754192E+02  0.57247980048E+03  0.10246444065E+04  0.84004506804E+03 0.  0.
        -24    2    4    4    0    0  0.36724237093E+03 -0.21967185973E+02  0.26680093287E+00  0.37739374052E+03  0.84121625845E+02 0.  0.
         24    2    4    4    0    0 -0.26889838910E+03  0.10452494016E+03  0.57221299955E+03  0.64725066601E+03  0.90960986265E+02 0.  0.
         13    1    3    3    0    0 -0.89196732430E+02 -0.15538631034E+02 -0.15516292381E+03  0.17964698454E+03  0.00000000000E+00 0.  1.
        -13    1    3    3    0    0 -0.91472494004E+01 -0.67019123158E+02 -0.93727075074E+02  0.11558546467E+03  0.00000000000E+00 0. -1.
          4    1    6    6  502    0 -0.10715450744E+03  0.69143090318E+02  0.17181081504E+03  0.21396684689E+03  0.00000000000E+00 0. -1.
          1    1    5    5  503    0  0.72953480066E+02 -0.37802718440E+02 -0.80687351402E+01  0.82561251577E+02  0.00000000000E+00 0. -1.
         -2    1    5    5    0  503  0.29428889087E+03  0.15835532467E+02  0.83355360731E+01  0.29483248894E+03  0.00000000000E+00 0.  1.
         -3    1    6    6    0  502 -0.16174388166E+03  0.35381849847E+02  0.40040218451E+03  0.43328381912E+03  0.00000000000E+00 0.  1.
<mgrwt>
<rscale>  0 0.12795955E+04</rscale>
<asrwt>0</asrwt>
<pdfrwt beam="1">  1        1 0.12642051E+00 0.12795955E+04</pdfrwt>
<pdfrwt beam="2">  1       -1 0.76637466E-01 0.12795955E+04</pdfrwt>
<totfact> 0.35606790E+01</totfact>
</mgrwt>
</event>
<event>
12    1  0.7833625E-008  0.1937502E+04  0.7818608E-02  0.8636411E-01
          2   -1    0    0  501    0  0.00000000000E+00  0.00000000000E+00  0.27733097457E+04  0.27733097457E+04  0.00000000000E+00 0. -1.
         -2   -1    0    0    0  501 -0.00000000000E+00 -0.00000000000E+00 -0.33839657169E+03  0.33839657169E+03  0.00000000000E+00 0.  1.
         23    2    1    2    0    0  0.47550009264E+03 -0.46820184134E+03  0.38696179361E+03  0.77722876196E+03  0.95035868843E+02 0.  0.
        254    2    1    2    0    0 -0.47550009264E+03  0.46820184134E+03  0.20479513804E+04  0.23344775554E+04  0.90020403134E+03 0.  0.
        -24    2    4    4    0    0 -0.33643758495E+03  0.29644661293E+03  0.20455681998E+04  0.20956165897E+04  0.78668851990E+02 0.  0.
         24    2    4    4    0    0 -0.13906250768E+03  0.17175522841E+03  0.23831805677E+01  0.23886096567E+03  0.90612592068E+02 0.  0.
         13    1    3    3    0    0  0.24554642449E+02 -0.61119152721E+02  0.27818048788E+02  0.71500525407E+02  0.00000000000E+00 0. -1.
        -13    1    3    3    0    0  0.45094545019E+03 -0.40708268862E+03  0.35914374483E+03  0.70572823655E+03  0.00000000000E+00 0.  1.
          2    1    6    6  502    0 -0.13976385507E+03  0.16615198682E+03 -0.17853428886E+02  0.21785124015E+03  0.00000000000E+00 0. -1.
          1    1    5    5  503    0 -0.31297308126E+03  0.29711072335E+03  0.19238591505E+04  0.19716645157E+04  0.00000000000E+00 0. -1.
         -2    1    5    5    0  503 -0.23464503695E+02 -0.66411042403E+00  0.12170904928E+03  0.12395207401E+03  0.00000000000E+00 0.  1.
         -1    1    6    6    0  502  0.70134739018E+00  0.56032415908E+01  0.20236609453E+02  0.21009725525E+02  0.00000000000E+00 0.  1.
<mgrwt>
<rscale>  0 0.19375020E+04</rscale>
<asrwt>0</asrwt>
<pdfrwt beam="1">  1        2 0.42666302E+00 0.19375020E+04</pdfrwt>
<pdfrwt beam="2">  1       -2 0.52061013E-01 0.19375020E+04</pdfrwt>
<totfact> 0.78191284E+00</totfact>
</mgrwt>
</event>
<event>
12    1  0.2406360E-008  0.1077444E+04  0.7818608E-02  0.9227459E-01
         -2   -1    0    0    0  501 -0.00000000000E+00  0.00000000000E+00  0.64932947231E+03  0.64932947231E+03  0.00000000000E+00 0.  1.
          2   -1    0    0  501    0  0.00000000000E+00 -0.00000000000E+00 -0.44695570740E+03  0.44695570740E+03  0.00000000000E+00 0. -1.
         23    2    1    2    0    0 -0.22842291132E+02  0.10361628428E+03 -0.57748154923E+02  0.15472201333E+03  0.96674440158E+02 0.  0.
        254    2    1    2    0    0  0.22842291132E+02 -0.10361628428E+03  0.26012191984E+03  0.94156316638E+03  0.89867662620E+03 0.  0.
        -24    2    4    4    0    0  0.44057120338E+03 -0.15499520048E+03  0.11643692709E+03  0.48769316716E+03  0.78489297876E+02 0.  0.
         24    2    4    4    0    0 -0.41772891225E+03  0.51378916198E+02  0.14368499275E+03  0.45386999922E+03  0.90638633548E+02 0.  0.
         13    1    3    3    0    0  0.21923424152E+00  0.25507938539E+02  0.27027927051E+02  0.37164658384E+02  0.00000000000E+00 0.  1.
        -13    1    3    3    0    0 -0.23061525374E+02  0.78108345744E+02 -0.84776081974E+02  0.11755735495E+03  0.00000000000E+00 0. -1.
          2    1    6    6  502    0 -0.40844471144E+03  0.35189635132E+02  0.14574477815E+03  0.43509416576E+03  0.00000000000E+00 0. -1.
          3    1    5    5  503    0  0.33739376626E+03 -0.93165150346E+02  0.61196479805E+02  0.35532985786E+03  0.00000000000E+00 0. -1.
         -4    1    5    5    0  503  0.10317743713E+03 -0.61830050134E+02  0.55240447288E+02  0.13236330930E+03  0.00000000000E+00 0.  1.
         -1    1    6    6    0  502 -0.92842008119E+01  0.16189281066E+02 -0.20597854002E+01  0.18775833458E+02  0.00000000000E+00 0.  1.
<mgrwt>
<rscale>  0 0.10774442E+04</rscale>
<asrwt>0</asrwt>
<pdfrwt beam="1">  1        2 0.68762417E-01 0.10774442E+04</pdfrwt>
<pdfrwt beam="2">  1       -2 0.99896842E-01 0.10774442E+04</pdfrwt>
<totfact> 0.57714102E+01</totfact>
</mgrwt>
</event>
<event>
12    1  0.2406360E-008  0.1681291E+04  0.7818608E-02  0.8772107E-01
          1   -1    0    0  501    0  0.00000000000E+00  0.00000000000E+00  0.91731245469E+03  0.91731245469E+03  0.00000000000E+00 0. -1.
         -1   -1    0    0    0  501 -0.00000000000E+00 -0.00000000000E+00 -0.77038638193E+03  0.77038638193E+03  0.00000000000E+00 0.  1.
         23    2    1    2    0    0 -0.33014347868E+03  0.42953505753E+03  0.17177550960E+02  0.54986505636E+03  0.92527994599E+02 0.  0.
        254    2    1    2    0    0  0.33014347868E+03 -0.42953505753E+03  0.12974852180E+03  0.11378337803E+04  0.99213706233E+03 0.  0.
        -24    2    4    4    0    0 -0.32523626883E+03 -0.18323439422E+03 -0.10140848511E+03  0.39308031391E+03  0.69821046585E+02 0.  0.
         24    2    4    4    0    0  0.65537974751E+03 -0.24630066331E+03  0.23115700691E+03  0.74475346635E+03  0.10505966689E+03 0.  0.
         11    1    3    3    0    0 -0.12634305185E+03  0.98936482068E+02 -0.80950249061E+01  0.16067521173E+03  0.00000000000E+00 0.  1.
        -11    1    3    3    0    0 -0.20380042682E+03  0.33059857546E+03  0.25272575866E+02  0.38918984463E+03  0.00000000000E+00 0. -1.
          2    1    6    6  502    0  0.58999218390E+03 -0.25286968401E+03  0.20272835949E+03  0.67315127713E+03  0.00000000000E+00 0. -1.
          3    1    5    5  503    0 -0.11145733905E+03 -0.49157272859E+02 -0.19201519607E+01  0.12183128862E+03  0.00000000000E+00 0. -1.
         -2    1    5    5    0  503 -0.21377892978E+03 -0.13407712136E+03 -0.99488333145E+02  0.27124902529E+03  0.00000000000E+00 0.  1.
         -1    1    6    6    0  502  0.65387563604E+02  0.65690207026E+01  0.28428647421E+02  0.71602189221E+02  0.00000000000E+00 0.  1.
<mgrwt>
<rscale>  0 0.16812912E+04</rscale>
<asrwt>0</asrwt>
<pdfrwt beam="1">  1        1 0.14112499E+00 0.16812912E+04</pdfrwt>
<pdfrwt beam="2">  1       -1 0.11852098E+00 0.16812912E+04</pdfrwt>
<totfact> 0.10715310E+01</totfact>
</mgrwt>
</event>
<event>
12    1  0.2406360E-008  0.1701180E+04  0.7818608E-02  0.8760691E-01
          2   -1    0    0  501    0  0.00000000000E+00  0.00000000000E+00  0.32195318119E+04  0.32195318119E+04  0.00000000000E+00 0. -1.
         -2   -1    0    0    0  501 -0.00000000000E+00 -0.00000000000E+00 -0.22472325008E+03  0.22472325008E+03  0.00000000000E+00 0.  1.
         23    2    1    2    0    0 -0.13242334875E+03  0.44578939090E+03  0.18053655290E+04  0.18671562838E+04  0.10326553413E+03 0.  0.
        254    2    1    2    0    0  0.13242334875E+03 -0.44578939090E+03  0.11894430329E+04  0.15770987782E+04  0.92531167910E+03 0.  0.
        -24    2    4    4    0    0 -0.27857174749E+03 -0.27895050588E+02  0.83706291453E+03  0.88627857135E+03  0.80218643735E+02 0.  0.
         24    2    4    4    0    0  0.41099509624E+03 -0.41789434031E+03  0.35238011834E+03  0.69082020687E+03  0.97509802708E+02 0.  0.
         11    1    3    3    0    0 -0.78146618907E+02  0.38441968209E+03  0.15554715302E+04  0.16041748868E+04  0.00000000000E+00 0. -1.
        -11    1    3    3    0    0 -0.54276729841E+02  0.61369708810E+02  0.24989399874E+03  0.26298139700E+03  0.00000000000E+00 0.  1.
          2    1    6    6  502    0  0.33658173579E+03 -0.38499965250E+03  0.28676522435E+03  0.58629880708E+03  0.00000000000E+00 0. -1.
          1    1    5    5  503    0 -0.26986522400E+03 -0.28286936623E+02  0.83401560162E+03  0.87704584467E+03  0.00000000000E+00 0. -1.
         -2    1    5    5    0  503 -0.87065234910E+01  0.39188603448E+00  0.30473129120E+01  0.92327266800E+01  0.00000000000E+00 0.  1.
         -1    1    6    6    0  502  0.74413360451E+02 -0.32894687806E+02  0.65614893997E+02  0.10452139979E+03  0.00000000000E+00 0.  1.
<mgrwt>
<rscale>  0 0.17011804E+04</rscale>
<asrwt>0</asrwt>
<pdfrwt beam="1">  1        2 0.49531255E+00 0.17011804E+04</pdfrwt>
<pdfrwt beam="2">  1       -2 0.34572810E-01 0.17011804E+04</pdfrwt>
<totfact> 0.94605111E+00</totfact>
</mgrwt>
</event>
<event>
11    1  0.2406360E-008  0.1223682E+04  0.7818608E-02  0.9092377E-01
         -4   -1    0    0    0  501 -0.00000000000E+00  0.00000000000E+00  0.12451230814E+04  0.12451230814E+04  0.00000000000E+00 0.  1.
          4   -1    0    0  501    0  0.00000000000E+00 -0.00000000000E+00 -0.30065234965E+03  0.30065234965E+03  0.00000000000E+00 0. -1.
         23    2    1    2    0    0 -0.13274914523E+03  0.80243148568E+02  0.52524170323E+03  0.55492311645E+03  0.89440035277E+02 0.  0.
        254    2    1    2    0    0  0.13274914523E+03 -0.80243148568E+02  0.41922902847E+03  0.99085231456E+03  0.88429295626E+03 0.  0.
        -24    2    4    4    0    0 -0.31628272709E+03 -0.18360471202E+03  0.12588405010E+02  0.37454978376E+03  0.79897552150E+02 0.  0.
         13    1    3    3    0    0 -0.65991936377E+02  0.87866432174E+02  0.36447465412E+03  0.38067994308E+03  0.00000000000E+00 0.  1.
        -13    1    3    3    0    0 -0.66757208848E+02 -0.76232836060E+01  0.16076704912E+03  0.17424317338E+03  0.00000000000E+00 0. -1.
          2    1    4    4  502    0  0.78894402411E+02  0.86570318424E+01  0.90772542122E+02  0.12057746612E+03  0.00000000000E+00 0. -1.
          1    1    5    5  503    0 -0.25197362503E+02 -0.34346621326E+02 -0.17488317228E+02  0.46048221606E+02  0.00000000000E+00 0. -1.
         -4    1    5    5    0  503 -0.29108536459E+03 -0.14925809070E+03  0.30076722238E+02  0.32850156216E+03  0.00000000000E+00 0.  1.
         -1    1    4    4    0  502  0.37013746991E+03  0.94704531613E+02  0.31586808134E+03  0.49572506468E+03  0.00000000000E+00 0.  1.
<mgrwt>
<rscale>  0 0.12236816E+04</rscale>
<asrwt>0</asrwt>
<pdfrwt beam="1">  1        4 0.46254208E-01 0.12236816E+04</pdfrwt>
<pdfrwt beam="2">  1       -4 0.19155739E+00 0.12236816E+04</pdfrwt>
<totfact> 0.13374056E+00</totfact>
</mgrwt>
</event>
<event>
11    1  0.2406360E-008  0.3048910E+04  0.7818608E-02  0.8229901E-01
          1   -1    0    0  501    0  0.00000000000E+00  0.00000000000E+00  0.21116635548E+04  0.21116635548E+04  0.00000000000E+00 0. -1.
         -1   -1    0    0    0  501 -0.00000000000E+00 -0.00000000000E+00 -0.11005363710E+04  0.11005363710E+04  0.00000000000E+00 0.  1.
         23    2    1    2    0    0  0.11544898744E+04 -0.51386600111E+03 -0.15271033731E+03  0.12763731370E+04  0.94354652862E+02 0.  0.
        254    2    1    2    0    0 -0.11544898744E+04  0.51386600111E+03  0.11638375211E+04  0.19358267888E+04  0.89218969014E+03 0.  0.
        -24    2    4    4    0    0 -0.11934415729E+04  0.52063391613E+03  0.79008233009E+03  0.15253295914E+04  0.83891665936E+02 0.  0.
         11    1    3    3    0    0  0.49230931830E+03 -0.27037846510E+03 -0.65533850045E+02  0.56548003039E+03  0.00000000000E+00 0. -1.
        -11    1    3    3    0    0  0.66218055612E+03 -0.24348753601E+03 -0.87176487270E+02  0.71089310662E+03  0.00000000000E+00 0.  1.
          2    1    4    4  502    0  0.19311662645E+02 -0.74106643665E+02  0.29614088989E+03  0.30588259449E+03  0.00000000000E+00 0. -1.
          1    1    5    5  503    0 -0.10801223197E+04  0.46532549904E+03  0.74073617331E+03  0.13899216252E+04  0.00000000000E+00 0. -1.
         -2    1    5    5    0  503 -0.11331925316E+03  0.55308417099E+02  0.49346156782E+02  0.13540796627E+03  0.00000000000E+00 0.  1.
         -1    1    4    4    0  502  0.19640035821E+02  0.67338728640E+02  0.77614301173E+02  0.10461460284E+03  0.00000000000E+00 0.  1.
<mgrwt>
<rscale>  0 0.30489097E+04</rscale>
<asrwt>0</asrwt>
<pdfrwt beam="1">  1        1 0.32487131E+00 0.30489097E+04</pdfrwt>
<pdfrwt beam="2">  1       -1 0.16931329E+00 0.30489097E+04</pdfrwt>
<totfact> 0.52791638E-01</totfact>
</mgrwt>
</event>
<event>
12    1  0.2406360E-008  0.2351535E+04  0.7818608E-02  0.8457874E-01
         -2   -1    0    0    0  501 -0.00000000000E+00  0.00000000000E+00  0.65821788495E+03  0.65821788495E+03  0.00000000000E+00 0.  1.
          2   -1    0    0  501    0  0.00000000000E+00 -0.00000000000E+00 -0.21002615401E+04  0.21002615401E+04  0.00000000000E+00 0. -1.
         23    2    1    2    0    0  0.41119665262E+03  0.40380537915E+03  0.36647219188E+03  0.68954692034E+03  0.95034817760E+02 0.  0.
        254    2    1    2    0    0 -0.41119665262E+03 -0.40380537915E+03 -0.18085158470E+04  0.20689325047E+04  0.82317110537E+03 0.  0.
        -24    2    4    4    0    0 -0.26332327512E+03 -0.48951303616E+03 -0.51754421236E+03  0.76351747839E+03  0.78388572373E+02 0.  0.
         24    2    4    4    0    0 -0.14787337750E+03  0.85707657010E+02 -0.12909716346E+04  0.13054150263E+04  0.91040052581E+02 0.  0.
         13    1    3    3    0    0  0.45447217251E+02  0.91723730780E+02  0.79569700011E+02  0.12965349785E+03  0.00000000000E+00 0. -1.
        -13    1    3    3    0    0  0.36574943536E+03  0.31208164837E+03  0.28690249187E+03  0.55989342250E+03  0.00000000000E+00 0.  1.
          2    1    6    6  502    0 -0.42014946803E+02  0.52175643174E+02 -0.76056805971E+03  0.76351249298E+03  0.00000000000E+00 0. -1.
          3    1    5    5  503    0 -0.21763367260E+03 -0.39148710776E+03 -0.37234538039E+03  0.58246686883E+03  0.00000000000E+00 0. -1.
         -4    1    5    5    0  503 -0.45689602517E+02 -0.98025928396E+02 -0.14519883197E+03  0.18105060956E+03  0.00000000000E+00 0.  1.
         -1    1    6    6    0  502 -0.10585843070E+03  0.33532013836E+02 -0.53040357492E+03  0.54190253330E+03  0.00000000000E+00 0.  1.
<mgrwt>
<rscale>  0 0.23515354E+04</rscale>
<asrwt>0</asrwt>
<pdfrwt beam="1">  1        2 0.32311716E+00 0.23515354E+04</pdfrwt>
<pdfrwt beam="2">  1       -2 0.10126429E+00 0.23515354E+04</pdfrwt>
<totfact> 0.42508522E+00</totfact>
</mgrwt>
</event>
<event>
11    1  0.2406360E-008  0.2811696E+04  0.7818608E-02  0.8299646E-01
         -1   -1    0    0    0  501 -0.00000000000E+00  0.00000000000E+00  0.22529124468E+04  0.22529124468E+04  0.00000000000E+00 0.  1.
          1   -1    0    0  501    0  0.00000000000E+00 -0.00000000000E+00 -0.87726850080E+03  0.87726850080E+03  0.00000000000E+00 0. -1.
         23    2    1    2    0    0 -0.11523379211E+04 -0.50077453482E+03  0.50855641161E+03  0.13585004901E+04  0.90753173434E+02 0.  0.
        254    2    1    2    0    0  0.11523379211E+04  0.50077453482E+03  0.86708753436E+03  0.17716804575E+04  0.89908455224E+03 0.  0.
        -24    2    4    4    0    0  0.92930777312E+03  0.21459116513E+03  0.85606887519E+03  0.12839312037E+04  0.77221184731E+02 0.  0.
         13    1    3    3    0    0 -0.10325780490E+04 -0.47736583853E+03  0.45393337699E+03  0.12248065487E+04  0.00000000000E+00 0. -1.
        -13    1    3    3    0    0 -0.11975987217E+03 -0.23408696293E+02  0.54623034614E+02  0.13369394136E+03  0.00000000000E+00 0.  1.
          2    1    4    4  502    0  0.29148036448E+03  0.20133712361E+03  0.73923483100E+02  0.36188689059E+03  0.00000000000E+00 0. -1.
          3    1    5    5  503    0  0.34654613510E+03  0.50270286847E+02  0.34526464270E+03  0.49176111984E+03  0.00000000000E+00 0. -1.
         -4    1    5    5    0  503  0.58276163803E+03  0.16432087828E+03  0.51080423249E+03  0.79217008383E+03  0.00000000000E+00 0.  1.
         -1    1    4    4    0  502 -0.68450216470E+02  0.84846246079E+02 -0.62904823929E+02  0.12586236325E+03  0.00000000000E+00 0.  1.
<mgrwt>
<rscale>  0 0.28116964E+04</rscale>
<asrwt>0</asrwt>
<pdfrwt beam="1">  1        1 0.13496439E+00 0.28116964E+04</pdfrwt>
<pdfrwt beam="2">  1       -1 0.34660191E+00 0.28116964E+04</pdfrwt>
<totfact> 0.26888827E-01</totfact>
</mgrwt>
</event>
<event>
11    1  0.2406360E-008  0.1521753E+04  0.7818608E-02  0.8870115E-01
         -1   -1    0    0    0  501 -0.00000000000E+00  0.00000000000E+00  0.39261687898E+03  0.39261687898E+03  0.00000000000E+00 0.  1.
          1   -1    0    0  501    0  0.00000000000E+00 -0.00000000000E+00 -0.14745497284E+04  0.14745497284E+04  0.00000000000E+00 0. -1.
         23    2    1    2    0    0 -0.12439009300E+03 -0.30917318739E+03  0.69709954736E+02  0.36329098901E+03  0.12672769972E+03 0.  0.
        254    2    1    2    0    0  0.12439009300E+03  0.30917318739E+03 -0.11516428041E+04  0.15038756183E+04  0.90790956162E+03 0.  0.
        -24    2    4    4    0    0 -0.36493988417E+03  0.83677935720E+02 -0.31147005089E+03  0.49351972332E+03  0.79781004765E+02 0.  0.
         13    1    3    3    0    0 -0.12533179630E+03 -0.32003903719E+03  0.73983029653E+02  0.35157720797E+03  0.00000000000E+00 0.  1.
        -13    1    3    3    0    0  0.94170329954E+00  0.10865849804E+02 -0.42730749171E+01  0.11713781043E+02  0.00000000000E+00 0. -1.
          4    1    4    4  502    0  0.30249680036E+03  0.21659283409E+03 -0.59923603951E+03  0.70533722506E+03  0.00000000000E+00 0. -1.
          1    1    5    5  503    0 -0.36237064251E+03  0.71609682962E+02 -0.29382699664E+03  0.47199018337E+03  0.00000000000E+00 0. -1.
         -2    1    5    5    0  503 -0.25692416678E+01  0.12068252758E+02 -0.17643054242E+02  0.21529539948E+02  0.00000000000E+00 0.  1.
         -3    1    4    4    0  502  0.18683317681E+03  0.89024175781E+01 -0.24093671371E+03  0.30501866994E+03  0.00000000000E+00 0.  1.
<mgrwt>
<rscale>  0 0.15217531E+04</rscale>
<asrwt>0</asrwt>
<pdfrwt beam="1">  1        1 0.22685381E+00 0.15217531E+04</pdfrwt>
<pdfrwt beam="2">  1       -1 0.60402595E-01 0.15217531E+04</pdfrwt>
<totfact> 0.18286036E+01</totfact>
</mgrwt>
</event>
<event>
12    1  0.2406360E-008  0.2366883E+04  0.7818608E-02  0.8452007E-01
          2   -1    0    0  501    0  0.00000000000E+00  0.00000000000E+00  0.10086537283E+04  0.10086537283E+04  0.00000000000E+00 0. -1.
         -2   -1    0    0    0  501 -0.00000000000E+00 -0.00000000000E+00 -0.13885174505E+04  0.13885174505E+04  0.00000000000E+00 0.  1.
         23    2    1    2    0    0 -0.81610200984E+03  0.55707068651E+03 -0.21650641547E+02  0.99255151404E+03  0.91320958763E+02 0.  0.
        254    2    1    2    0    0  0.81610200984E+03 -0.55707068651E+03 -0.35821308068E+03  0.14046196648E+04  0.93182055745E+03 0.  0.
        -24    2    4    4    0    0  0.99963315332E+03 -0.56045625859E+03 -0.26977928132E+03  0.11800144677E+04  0.79218837826E+02 0.  0.
         24    2    4    4    0    0 -0.18353114348E+03  0.33855720789E+01 -0.88433799362E+02  0.22460519711E+03  0.94508279926E+02 0.  0.
         13    1    3    3    0    0 -0.62178442542E+03  0.44764681622E+03 -0.49772900541E+02  0.76777658560E+03  0.00000000000E+00 0. -1.
        -13    1    3    3    0    0 -0.19431758442E+03  0.10942387029E+03  0.28122258994E+02  0.22477492844E+03  0.00000000000E+00 0.  1.
          2    1    6    6  502    0  0.42838958307E+01 -0.18308885348E+00  0.11183143924E+02  0.11976977626E+02  0.00000000000E+00 0. -1.
          1    1    5    5  503    0  0.28962141553E+03 -0.20417789654E+03 -0.86192272298E+02  0.36468930006E+03  0.00000000000E+00 0. -1.
         -2    1    5    5    0  503  0.71001173779E+03 -0.35627836205E+03 -0.18358700902E+03  0.81532516761E+03  0.00000000000E+00 0.  1.
         -1    1    6    6    0  502 -0.18781503931E+03  0.35686609324E+01 -0.99616943286E+02  0.21262821949E+03  0.00000000000E+00 0.  1.
<mgrwt>
<rscale>  0 0.23668826E+04</rscale>
<asrwt>0</asrwt>
<pdfrwt beam="1">  1        2 0.15517750E+00 0.23668826E+04</pdfrwt>
<pdfrwt beam="2">  1       -2 0.21361807E+00 0.23668826E+04</pdfrwt>
<totfact> 0.24332563E+00</totfact>
</mgrwt>
</event>
<event>
11    1  0.2406360E-008  0.2915656E+04  0.7818608E-02  0.8268235E-01
         -2   -1    0    0    0  501 -0.00000000000E+00  0.00000000000E+00  0.90986206255E+03  0.90986206255E+03  0.00000000000E+00 0. -1.
          2   -1    0    0  501    0  0.00000000000E+00 -0.00000000000E+00 -0.23358072959E+04  0.23358072959E+04  0.00000000000E+00 0.  1.
         23    2    1    2    0    0 -0.67785022298E+03  0.76005883629E+03  0.27570818712E+03  0.10590134259E+04  0.91236354337E+02 0.  0.
        254    2    1    2    0    0  0.67785022298E+03 -0.76005883629E+03 -0.17016534205E+04  0.21866559325E+04  0.92123256813E+03 0.  0.
        -24    2    4    4    0    0  0.17659886269E+03 -0.76169398887E+03 -0.99176098046E+03  0.12654838623E+04  0.80589530620E+02 0.  0.
         13    1    3    3    0    0 -0.65162386525E+03  0.71524099818E+03  0.27898230010E+03  0.10069828554E+04  0.00000000000E+00 0. -1.
        -13    1    3    3    0    0 -0.26226357722E+02  0.44817838116E+02 -0.32741129766E+01  0.52030570519E+02  0.00000000000E+00 0.  1.
          4    1    4    4  502    0  0.10934674652E+03 -0.12446478968E+03 -0.28422899933E+03  0.32898984620E+03  0.00000000000E+00 0. -1.
          1    1    5    5  503    0  0.17615220669E+02 -0.21913168744E+03 -0.30417524973E+03  0.37530197840E+03  0.00000000000E+00 0. -1.
         -2    1    5    5    0  503  0.15898364203E+03 -0.54256230143E+03 -0.68758573073E+03  0.89018188392E+03  0.00000000000E+00 0.  1.
         -3    1    4    4    0  502  0.39190461376E+03  0.12609994226E+03 -0.42566344067E+03  0.59218222402E+03  0.00000000000E+00 0.  1.
<mgrwt>
<rscale>  0 0.29156560E+04</rscale>
<asrwt>0</asrwt>
<pdfrwt beam="1">  1        2 0.35935496E+00 0.29156560E+04</pdfrwt>
<pdfrwt beam="2">  1       -2 0.13997878E+00 0.29156560E+04</pdfrwt>
<totfact> 0.13396053E+00</totfact>
</mgrwt>
</event>
<event>
12    1  0.2406360E-008  0.3235050E+04  0.7818608E-02  0.8179621E-01
         -2   -1    0    0    0  501 -0.00000000000E+00  0.00000000000E+00  0.12051302993E+04  0.12051302993E+04  0.00000000000E+00 0. -1.
          2   -1    0    0  501    0  0.00000000000E+00 -0.00000000000E+00 -0.21710407268E+04  0.21710407268E+04  0.00000000000E+00 0.  1.
         23    2    1    2    0    0 -0.36314525377E+02  0.11767929336E+04  0.50322576077E+03  0.12834792161E+04  0.89007743250E+02 0.  0.
        254    2    1    2    0    0  0.36314525377E+02 -0.11767929336E+04 -0.14691361883E+04  0.20926918100E+04  0.91369443377E+03 0.  0.
        -24    2    4    4    0    0  0.14371171948E+03 -0.50137895135E+03 -0.12675560856E+04  0.13732230934E+04  0.83721698932E+02 0.  0.
         24    2    4    4    0    0 -0.10739719411E+03 -0.67541398230E+03 -0.20158010276E+03  0.71946871664E+03  0.96345688041E+02 0.  0.
         11    1    3    3    0    0  0.20530644816E+02  0.13573147466E+03  0.43420069918E+02  0.14397862015E+03  0.00000000000E+00 0.  1.
        -11    1    3    3    0    0 -0.56845170193E+02  0.10410614590E+04  0.45980569085E+03  0.11395005959E+04  0.00000000000E+00 0. -1.
          4    1    6    6  502    0 -0.24501885115E+02 -0.27453100827E+03 -0.12654786744E+03  0.30328531061E+03  0.00000000000E+00 0. -1.
          3    1    5    5  503    0  0.17076172501E+02 -0.82340635428E+01 -0.39869151451E+02  0.44146853876E+02  0.00000000000E+00 0. -1.
         -4    1    5    5    0  503  0.12663554698E+03 -0.49314488781E+03 -0.12276869341E+04  0.13290762395E+04  0.00000000000E+00 0.  1.
         -3    1    6    6    0  502 -0.82895308993E+02 -0.40088297403E+03 -0.75032235321E+02  0.41618340603E+03  0.00000000000E+00 0.  1.
<mgrwt>
<rscale>  0 0.32350499E+04</rscale>
<asrwt>0</asrwt>
<pdfrwt beam="1">  1        2 0.33400626E+00 0.32350499E+04</pdfrwt>
<pdfrwt beam="2">  1       -2 0.18540466E+00 0.32350499E+04</pdfrwt>
<totfact> 0.74946211E-01</totfact>
</mgrwt>
</event>
<event>
11    1  0.2406360E-008  0.1762308E+04  0.7818608E-02  0.8726604E-01
         -2   -1    0    0    0  501 -0.00000000000E+00  0.00000000000E+00  0.47580027495E+03  0.47580027495E+03  0.00000000000E+00 0.  1.
          2   -1    0    0  501    0  0.00000000000E+00 -0.00000000000E+00 -0.16318451309E+04  0.16318451309E+04  0.00000000000E+00 0. -1.
         23    2    1    2    0    0  0.45129835137E+03  0.45651983361E+03 -0.37607614152E+03  0.75174885212E+03  0.10776136605E+03 0.  0.
        254    2    1    2    0    0 -0.45129835137E+03 -0.45651983361E+03 -0.77996871440E+03  0.13558965537E+04  0.90444663108E+03 0.  0.
        -24    2    4    4    0    0  0.19427461801E+03 -0.19082526794E+02  0.38639189842E+02  0.21459960128E+03  0.80332010100E+02 0.  0.
         13    1    3    3    0    0  0.42061475582E+03  0.45013437546E+03 -0.37317036388E+03  0.72027345450E+03  0.00000000000E+00 0. -1.
        -13    1    3    3    0    0  0.30683595542E+02  0.63854581523E+01 -0.29057776426E+01  0.31475397613E+02  0.00000000000E+00 0.  1.
          4    1    4    4  502    0 -0.54628712124E+03 -0.30836478636E+03 -0.69924017213E+03  0.93939090831E+03  0.00000000000E+00 0. -1.
          1    1    5    5  503    0  0.10087026637E+03 -0.31631853988E+02  0.54652253249E+02  0.11900526715E+03  0.00000000000E+00 0. -1.
         -2    1    5    5    0  503  0.93404351641E+02  0.12549327194E+02 -0.16013063407E+02  0.95594334133E+02  0.00000000000E+00 0.  1.
         -3    1    4    4    0  502 -0.99285848135E+02 -0.12907252046E+03 -0.11936773212E+03  0.20190604411E+03  0.00000000000E+00 0.  1.
<mgrwt>
<rscale>  0 0.17623080E+04</rscale>
<asrwt>0</asrwt>
<pdfrwt beam="1">  1        2 0.25105310E+00 0.17623080E+04</pdfrwt>
<pdfrwt beam="2">  1       -2 0.73200042E-01 0.17623080E+04</pdfrwt>
<totfact> 0.17076976E+01</totfact>
</mgrwt>
</event>
<event>
11    1  0.2406360E-008  0.1360342E+04  0.7818608E-02  0.8983036E-01
          1   -1    0    0  501    0  0.00000000000E+00  0.00000000000E+00  0.12827774054E+04  0.12827774054E+04  0.00000000000E+00 0. -1.
         -1   -1    0    0    0  501 -0.00000000000E+00 -0.00000000000E+00 -0.36064937905E+03  0.36064937905E+03  0.00000000000E+00 0.  1.
         23    2    1    2    0    0 -0.31468303283E+03  0.19109325535E+03  0.23814124423E+03  0.44761606354E+03  0.90038018325E+02 0.  0.
        254    2    1    2    0    0  0.31468303283E+03 -0.19109325535E+03  0.68398678216E+03  0.11958107209E+04  0.90916627674E+03 0.  0.
        -24    2    4    4    0    0  0.51841003887E+03  0.14371382462E+03  0.31809636186E+03  0.63004490177E+03  0.79803828494E+02 0.  0.
         13    1    3    3    0    0 -0.50074062771E+02  0.72915328831E+02  0.43964255458E+02  0.98777085900E+02  0.00000000000E+00 0. -1.
        -13    1    3    3    0    0 -0.26460897006E+03  0.11817792652E+03  0.19417698877E+03  0.34883897764E+03  0.00000000000E+00 0.  1.
          4    1    4    4  502    0 -0.22965544473E+03 -0.31906451031E+03  0.36336130503E+03  0.53532721118E+03  0.00000000000E+00 0. -1.
          3    1    5    5  503    0  0.49531622554E+03  0.13559081142E+03  0.28042096033E+03  0.58511447292E+03  0.00000000000E+00 0. -1.
         -4    1    5    5    0  503  0.23093813329E+02  0.81230131984E+01  0.37675401522E+02  0.44930428858E+02  0.00000000000E+00 0.  1.
         -3    1    4    4    0  502  0.25928438694E+02 -0.15742569653E+02  0.25291152786E+01  0.30438607992E+02  0.00000000000E+00 0.  1.
<mgrwt>
<rscale>  0 0.13603424E+04</rscale>
<asrwt>0</asrwt>
<pdfrwt beam="1">  1        1 0.19735037E+00 0.13603424E+04</pdfrwt>
<pdfrwt beam="2">  1       -1 0.55484520E-01 0.13603424E+04</pdfrwt>
<totfact> 0.29893632E+01</totfact>
</mgrwt>
</event>
<event>
11    1  0.2406360E-008  0.3317782E+04  0.7818608E-02  0.8158386E-01
          1   -1    0    0  501    0  0.00000000000E+00  0.00000000000E+00  0.21928285460E+04  0.21928285460E+04  0.00000000000E+00 0. -1.
         -1   -1    0    0    0  501 -0.00000000000E+00 -0.00000000000E+00 -0.12549629612E+04  0.12549629612E+04  0.00000000000E+00 0.  1.
         23    2    1    2    0    0 -0.13566041727E+04 -0.53479261776E+03  0.73474353212E+03  0.16354211598E+04  0.91522054685E+02 0.  0.
        254    2    1    2    0    0  0.13566041727E+04  0.53479261776E+03  0.20312205263E+03  0.18123703474E+04  0.10569057113E+04 0.  0.
        -24    2    4    4    0    0  0.40383136500E+03  0.55938610637E+03 -0.26084261606E+03  0.74191585322E+03  0.80047957821E+02 0.  0.
         13    1    3    3    0    0 -0.25088458180E+03 -0.10953208297E+03  0.10026168567E+03  0.29153517146E+03  0.00000000000E+00 0.  1.
        -13    1    3    3    0    0 -0.11057195909E+04 -0.42526053479E+03  0.63448184646E+03  0.13438859883E+04  0.00000000000E+00 0. -1.
          2    1    4    4  502    0  0.73505605671E+03  0.44117284218E+02  0.35374935448E+03  0.81694084674E+03  0.00000000000E+00 0. -1.
          3    1    5    5  503    0  0.95952445015E+02  0.11191967138E+03 -0.89110659773E+02  0.17226025145E+03  0.00000000000E+00 0. -1.
         -4    1    5    5    0  503  0.30787891999E+03  0.44746643499E+03 -0.17173195628E+03  0.56965560177E+03  0.00000000000E+00 0.  1.
         -1    1    4    4    0  502  0.21771675098E+03 -0.68710772829E+02  0.11021531421E+03  0.25351364746E+03  0.00000000000E+00 0.  1.
<mgrwt>
<rscale>  0 0.33177816E+04</rscale>
<asrwt>0</asrwt>
<pdfrwt beam="1">  1        1 0.33735824E+00 0.33177816E+04</pdfrwt>
<pdfrwt beam="2">  1       -1 0.19307123E+00 0.33177816E+04</pdfrwt>
<totfact> 0.30689391E-01</totfact>
</mgrwt>
</event>
<event>
12    1  0.2406360E-008  0.1691158E+04  0.7818608E-02  0.8766424E-01
          1   -1    0    0  501    0  0.00000000000E+00  0.00000000000E+00  0.15617380321E+04  0.15617380321E+04  0.00000000000E+00 0. -1.
         -1   -1    0    0    0  501 -0.00000000000E+00 -0.00000000000E+00 -0.45782547397E+03  0.45782547397E+03  0.00000000000E+00 0.  1.
         23    2    1    2    0    0 -0.32420315789E+03  0.30607100733E+03 -0.81114599818E+02  0.46525033039E+03  0.10531449337E+03 0.  0.
        254    2    1    2    0    0  0.32420315789E+03 -0.30607100733E+03  0.11850271580E+04  0.15543131757E+04  0.90156138667E+03 0.  0.
        -24    2    4    4    0    0  0.58162688544E+03 -0.31789824375E+02  0.52735195943E+03  0.78984372892E+03  0.80328078466E+02 0.  0.
         24    2    4    4    0    0 -0.25742372755E+03 -0.27428118295E+03  0.65767519853E+03  0.76446944678E+03  0.10188093774E+03 0.  0.
         11    1    3    3    0    0 -0.82732178212E+02  0.23557488351E+02 -0.71818640751E+01  0.86320030935E+02  0.00000000000E+00 0. -1.
        -11    1    3    3    0    0 -0.24147097968E+03  0.28251351898E+03 -0.73932735742E+02  0.37893029945E+03  0.00000000000E+00 0.  1.
          4    1    6    6  502    0 -0.15383223072E+03 -0.21166052110E+03  0.37804381015E+03  0.45976260591E+03  0.00000000000E+00 0. -1.
          3    1    5    5  503    0  0.45581635250E+03 -0.16699272807E+02  0.36679303902E+03  0.58530722394E+03  0.00000000000E+00 0. -1.
         -4    1    5    5    0  503  0.12581053294E+03 -0.15090551568E+02  0.16055892041E+03  0.20453650498E+03  0.00000000000E+00 0.  1.
         -3    1    6    6    0  502 -0.10359149683E+03 -0.62620661848E+02  0.27963138838E+03  0.30470684087E+03  0.00000000000E+00 0.  1.
<mgrwt>
<rscale>  0 0.16911575E+04</rscale>
<asrwt>0</asrwt>
<pdfrwt beam="1">  1        1 0.24026739E+00 0.16911575E+04</pdfrwt>
<pdfrwt beam="2">  1       -1 0.70434689E-01 0.16911575E+04</pdfrwt>
<totfact> 0.11501567E+01</totfact>
</mgrwt>
</event>
<event>
12    1  0.2406360E-008  0.1501515E+04  0.7818608E-02  0.8883446E-01
         -3   -1    0    0    0  501 -0.00000000000E+00  0.00000000000E+00  0.12890070388E+04  0.12890070388E+04  0.00000000000E+00 0.  1.
          3   -1    0    0  501    0  0.00000000000E+00 -0.00000000000E+00 -0.43726457537E+03  0.43726457537E+03  0.00000000000E+00 0. -1.
         23    2    1    2    0    0  0.19280226837E+03  0.21258492600E+03  0.70933159797E+03  0.77055458389E+03  0.90763348451E+02 0.  0.
        254    2    1    2    0    0 -0.19280226837E+03 -0.21258492600E+03  0.14241086544E+03  0.95571703027E+03  0.90041608265E+03 0.  0.
        -24    2    4    4    0    0 -0.30009895542E+03  0.27967221775E+03 -0.15500420752E+02  0.41821221943E+03  0.79907853250E+02 0.  0.
         24    2    4    4    0    0  0.10729668705E+03 -0.49225714375E+03  0.15791128619E+03  0.53750481084E+03  0.10072622669E+03 0.  0.
         11    1    3    3    0    0 -0.38628032991E+01 -0.58783185572E+01  0.15130438914E+02  0.16685504491E+02  0.00000000000E+00 0. -1.
        -11    1    3    3    0    0  0.19666507167E+03  0.21846324456E+03  0.69420115906E+03  0.75386907940E+03  0.00000000000E+00 0.  1.
          4    1    6    6  502    0  0.36252272299E+02 -0.31046989057E+03  0.56819200542E+02  0.31770143492E+03  0.00000000000E+00 0. -1.
          3    1    5    5  503    0 -0.27654982461E+03  0.28102672232E+03 -0.16231632676E+02  0.39461283564E+03  0.00000000000E+00 0. -1.
         -4    1    5    5    0  503 -0.23549130808E+02 -0.13545045703E+01  0.73121192452E+00  0.23599383791E+02  0.00000000000E+00 0.  1.
         -3    1    6    6    0  502  0.71044414753E+02 -0.18178725318E+03  0.10109208565E+03  0.21980337592E+03  0.00000000000E+00 0.  1.
<mgrwt>
<rscale>  0 0.15015154E+04</rscale>
<asrwt>0</asrwt>
<pdfrwt beam="1">  1        3 0.67271474E-01 0.15015154E+04</pdfrwt>
<pdfrwt beam="2">  1       -3 0.19830877E+00 0.15015154E+04</pdfrwt>
<totfact> 0.80814409E-01</totfact>
</mgrwt>
</event>
<event>
11    1  0.2406360E-008  0.1902867E+04  0.7818608E-02  0.8653431E-01
         -2   -1    0    0    0  501 -0.00000000000E+00  0.00000000000E+00  0.20740105251E+03  0.20740105251E+03  0.00000000000E+00 0.  1.
          2   -1    0    0  501    0  0.00000000000E+00 -0.00000000000E+00 -0.43646150479E+04  0.43646150479E+04  0.00000000000E+00 0. -1.
         23    2    1    2    0    0 -0.47551373518E+01  0.61722599051E+03 -0.66612568354E+03  0.91287780884E+03  0.92908196176E+02 0.  0.
        254    2    1    2    0    0  0.47551373518E+01 -0.61722599051E+03 -0.34910883118E+04  0.36591382915E+04  0.90587245294E+03 0.  0.
        -24    2    4    4    0    0 -0.36037003726E+02  0.17174655270E+03 -0.23644410973E+03  0.30482565427E+03  0.78849974467E+02 0.  0.
         11    1    3    3    0    0  0.34753321746E+02  0.23842480367E+03 -0.29764169611E+03  0.38294224061E+03  0.00000000000E+00 0. -1.
        -11    1    3    3    0    0 -0.39508459098E+02  0.37880118683E+03 -0.36848398743E+03  0.52993556823E+03  0.00000000000E+00 0.  1.
          2    1    4    4  502    0 -0.52741830799E+02 -0.15081211097E+03 -0.48824894836E+03  0.51372466274E+03  0.00000000000E+00 0. -1.
          3    1    5    5  503    0  0.22262174815E+02  0.28084394860E+02 -0.30592321811E+02  0.47119293457E+02  0.00000000000E+00 0. -1.
         -4    1    5    5    0  503 -0.58299178541E+02  0.14366215784E+03 -0.20585178792E+03  0.25770636081E+03  0.00000000000E+00 0.  1.
         -1    1    4    4    0  502  0.93533971877E+02 -0.63816043223E+03 -0.27663952537E+04  0.28405879745E+04  0.00000000000E+00 0.  1.
<mgrwt>
<rscale>  0 0.19028671E+04</rscale>
<asrwt>0</asrwt>
<pdfrwt beam="1">  1        2 0.67147917E+00 0.19028671E+04</pdfrwt>
<pdfrwt beam="2">  1       -2 0.31907858E-01 0.19028671E+04</pdfrwt>
<totfact> 0.14408096E+00</totfact>
</mgrwt>
</event>
<event>
11    1  0.2406360E-008  0.1535463E+04  0.7818608E-02  0.8861207E-01
         -2   -1    0    0    0  501 -0.00000000000E+00  0.00000000000E+00  0.56134130706E+03  0.56134130706E+03  0.00000000000E+00 0.  1.
          2   -1    0    0  501    0  0.00000000000E+00 -0.00000000000E+00 -0.10500052891E+04  0.10500052891E+04  0.00000000000E+00 0. -1.
         23    2    1    2    0    0 -0.94409606953E+02 -0.37261757153E+03  0.19004055749E+03  0.43873091478E+03  0.92802874939E+02 0.  0.
        254    2    1    2    0    0  0.94409606953E+02  0.37261757153E+03 -0.67870453958E+03  0.11726156814E+04  0.87557447186E+03 0.  0.
        -24    2    4    4    0    0 -0.19024490373E+03 -0.11645124854E+03  0.50808484290E+02  0.24266559054E+03  0.80938680969E+02 0.  0.
         11    1    3    3    0    0  0.84542267729E+01 -0.11065582938E+02 -0.55488996217E+01  0.14990375683E+02  0.00000000000E+00 0. -1.
        -11    1    3    3    0    0 -0.10286383373E+03 -0.36155198859E+03  0.19558945712E+03  0.42374053910E+03  0.00000000000E+00 0.  1.
          4    1    4    4  502    0  0.28007206394E+03  0.42902645155E+03 -0.68326408415E+03  0.85402216939E+03  0.00000000000E+00 0. -1.
          3    1    5    5  503    0 -0.17375805788E+03 -0.72258572060E+02  0.52815733284E+02  0.19545502193E+03  0.00000000000E+00 0. -1.
         -4    1    5    5    0  503 -0.16486845845E+02 -0.44192676477E+02 -0.20072489940E+01  0.47210568612E+02  0.00000000000E+00 0.  1.
         -3    1    4    4    0  502  0.45824467455E+01  0.60042368516E+02 -0.46248939719E+02  0.75927921480E+02  0.00000000000E+00 0.  1.
<mgrwt>
<rscale>  0 0.15354626E+04</rscale>
<asrwt>0</asrwt>
<pdfrwt beam="1">  1        2 0.16153927E+00 0.15354626E+04</pdfrwt>
<pdfrwt beam="2">  1       -2 0.86360202E-01 0.15354626E+04</pdfrwt>
<totfact> 0.26216917E+01</totfact>
</mgrwt>
</event>
<event>
11    1  0.2406360E-008  0.1596162E+04  0.7818608E-02  0.8822910E-01
         -1   -1    0    0    0  501 -0.00000000000E+00  0.00000000000E+00  0.40128632354E+03  0.40128632354E+03  0.00000000000E+00 0.  1.
          1   -1    0    0  501    0  0.00000000000E+00 -0.00000000000E+00 -0.15872280255E+04  0.15872280255E+04  0.00000000000E+00 0. -1.
         23    2    1    2    0    0  0.29784229610E+03  0.25746087494E+03 -0.87516873012E+03  0.96373425852E+03  0.88697685316E+02 0.  0.
        254    2    1    2    0    0 -0.29784229610E+03 -0.25746087494E+03 -0.31077297184E+03  0.10247800905E+04  0.89364325009E+03 0.  0.
        -24    2    4    4    0    0 -0.27532627921E+03  0.10092838339E+03  0.21845475837E+03  0.37421635855E+03  0.79525486186E+02 0.  0.
         13    1    3    3    0    0  0.23894978434E+03  0.18491626871E+03 -0.57780049280E+03  0.65203100796E+03  0.00000000000E+00 0. -1.
        -13    1    3    3    0    0  0.58892511764E+02  0.72544606231E+02 -0.29736823733E+03  0.31170325056E+03  0.00000000000E+00 0.  1.
          4    1    4    4  502    0  0.17318431362E+02 -0.60360472894E+02 -0.17502047600E+03  0.18594483530E+03  0.00000000000E+00 0. -1.
          3    1    5    5  503    0  0.70025560649E-01 -0.21153753448E+01 -0.46529905133E+01  0.51117548010E+01  0.00000000000E+00 0. -1.
         -4    1    5    5    0  503 -0.27539630477E+03  0.10304375873E+03  0.22310774889E+03  0.36910460375E+03  0.00000000000E+00 0.  1.
         -1    1    4    4    0  502 -0.39834448260E+02 -0.29802878543E+03 -0.35420725421E+03  0.46461889668E+03  0.00000000000E+00 0.  1.
<mgrwt>
<rscale>  0 0.15961615E+04</rscale>
<asrwt>0</asrwt>
<pdfrwt beam="1">  1        1 0.24418893E+00 0.15961615E+04</pdfrwt>
<pdfrwt beam="2">  1       -1 0.61736358E-01 0.15961615E+04</pdfrwt>
<totfact> 0.14543759E+01</totfact>
</mgrwt>
</event>
<event>
11    1  0.2406360E-008  0.1548519E+04  0.7818608E-02  0.8852814E-01
          2   -1    0    0  501    0  0.00000000000E+00  0.00000000000E+00  0.19647724978E+04  0.19647724978E+04  0.00000000000E+00 0. -1.
         -2   -1    0    0    0  501 -0.00000000000E+00 -0.00000000000E+00 -0.30511312548E+03  0.30511312548E+03  0.00000000000E+00 0.  1.
         23    2    1    2    0    0 -0.20219835187E+03 -0.98372934497E+02 -0.10233611551E+03  0.26386848557E+03  0.92695681678E+02 0.  0.
        254    2    1    2    0    0  0.20219835187E+03  0.98372934497E+02  0.17619954878E+04  0.20060171377E+04  0.93215623684E+03 0.  0.
        -24    2    4    4    0    0 -0.11535317725E+03 -0.23186158286E+03  0.13553541877E+04  0.13825069910E+04  0.85290426636E+02 0.  0.
         13    1    3    3    0    0 -0.91803147978E+02 -0.83857562585E+00 -0.16203490593E+02  0.93225931452E+02  0.00000000000E+00 0. -1.
        -13    1    3    3    0    0 -0.11039520389E+03 -0.97534358871E+02 -0.86132624912E+02  0.17064255412E+03  0.00000000000E+00 0.  1.
          2    1    4    4  502    0  0.29501949172E+03  0.33814969432E+03  0.38741547559E+03  0.59285113392E+03  0.00000000000E+00 0. -1.
          1    1    5    5  503    0 -0.10139106424E+03 -0.16367980064E+03  0.11411845188E+04  0.11573129788E+04  0.00000000000E+00 0. -1.
         -2    1    5    5    0  503 -0.13962113008E+02 -0.68181782219E+02  0.21416966899E+03  0.22519401222E+03  0.00000000000E+00 0.  1.
         -1    1    4    4    0  502  0.22532037394E+02 -0.79151769669E+01  0.19225824465E+02  0.30659012736E+02  0.00000000000E+00 0.  1.
<mgrwt>
<rscale>  0 0.15485191E+04</rscale>
<asrwt>0</asrwt>
<pdfrwt beam="1">  1        2 0.30227268E+00 0.15485191E+04</pdfrwt>
<pdfrwt beam="2">  1       -2 0.46940482E-01 0.15485191E+04</pdfrwt>
<totfact> 0.28953452E+01</totfact>
</mgrwt>
</event>
<event>
11    1  0.2406360E-008  0.1848666E+04  0.7818608E-02  0.8680839E-01
          2   -1    0    0  501    0  0.00000000000E+00  0.00000000000E+00  0.97842627623E+03  0.97842627623E+03  0.00000000000E+00 0. -1.
         -2   -1    0    0    0  501 -0.00000000000E+00 -0.00000000000E+00 -0.87323012904E+03  0.87323012904E+03  0.00000000000E+00 0.  1.
         23    2    1    2    0    0  0.16055565403E+03 -0.57760316937E+03  0.39652084040E+03  0.72878835533E+03  0.12041657150E+03 0.  0.
        254    2    1    2    0    0 -0.16055565403E+03  0.57760316937E+03 -0.29132469320E+03  0.11228680499E+04  0.90363656488E+03 0.  0.
        -24    2    4    4    0    0 -0.31831578455E+03 -0.85670708541E+02  0.41343250451E+02  0.34141105020E+03  0.78662772903E+02 0.  0.
         11    1    3    3    0    0  0.45730483602E+02 -0.56040012642E+02  0.19033679495E+02  0.74793322579E+02  0.00000000000E+00 0.  1.
        -11    1    3    3    0    0  0.11482517043E+03 -0.52156315673E+03  0.37748716090E+03  0.65399503275E+03  0.00000000000E+00 0. -1.
          2    1    4    4  502    0  0.14274181085E+03  0.21411736737E+03 -0.10903069093E+03  0.27948016591E+03  0.00000000000E+00 0. -1.
          1    1    5    5  503    0 -0.14451712453E+03 -0.79065344498E+02  0.26568890217E+02  0.16686052232E+03  0.00000000000E+00 0. -1.
         -2    1    5    5    0  503 -0.17379866003E+03 -0.66053640431E+01  0.14774360233E+02  0.17455052787E+03  0.00000000000E+00 0.  1.
         -1    1    4    4    0  502  0.15018319667E+02  0.44915651054E+03 -0.22363725272E+03  0.50197683382E+03  0.00000000000E+00 0.  1.
<mgrwt>
<rscale>  0 0.18486658E+04</rscale>
<asrwt>0</asrwt>
<pdfrwt beam="1">  1        2 0.15052712E+00 0.18486658E+04</pdfrwt>
<pdfrwt beam="2">  1       -2 0.13434310E+00 0.18486658E+04</pdfrwt>
<totfact> 0.97708456E+00</totfact>
</mgrwt>
</event>
<event>
12    1  0.2406360E-008  0.2199707E+04  0.7818608E-02  0.8518550E-01
          1   -1    0    0  501    0  0.00000000000E+00  0.00000000000E+00  0.56933002205E+03  0.56933002205E+03  0.00000000000E+00 0. -1.
         -1   -1    0    0    0  501 -0.00000000000E+00 -0.00000000000E+00 -0.21247393361E+04  0.21247393361E+04  0.00000000000E+00 0.  1.
         23    2    1    2    0    0  0.16248124629E+03 -0.14830027440E+03 -0.17379683848E+04  0.17542375431E+04  0.91772133390E+02 0.  0.
        254    2    1    2    0    0 -0.16248124629E+03  0.14830027440E+03  0.18255907067E+03  0.93983181509E+03  0.89530045213E+03 0.  0.
        -24    2    4    4    0    0 -0.28023261112E+03  0.45042118661E+03 -0.30321930885E+02  0.53736277427E+03  0.80185846626E+02 0.  0.
         24    2    4    4    0    0  0.11775136483E+03 -0.30212091221E+03  0.21288100155E+03  0.40246904082E+03  0.10733395774E+03 0.  0.
         13    1    3    3    0    0  0.16853965006E+03 -0.13689583693E+03 -0.14691010435E+04  0.14850602547E+04  0.00000000000E+00 0.  1.
        -13    1    3    3    0    0 -0.60584037789E+01 -0.11404437473E+02 -0.26886734122E+03  0.26917728846E+03  0.00000000000E+00 0. -1.
          4    1    6    6  502    0  0.16864023564E+02 -0.11836891876E+03  0.13115684900E+03  0.17747595685E+03  0.00000000000E+00 0. -1.
          1    1    5    5  503    0 -0.96636591275E+01  0.84922455047E+01  0.11824227065E+02  0.17473319293E+02  0.00000000000E+00 0. -1.
         -2    1    5    5    0  503 -0.27056895199E+03  0.44192894110E+03 -0.42146157950E+02  0.51988945497E+03  0.00000000000E+00 0.  1.
         -3    1    6    6    0  502  0.10088734127E+03 -0.18375199345E+03  0.81724152548E+02  0.22499308397E+03  0.00000000000E+00 0.  1.
<mgrwt>
<rscale>  0 0.21997072E+04</rscale>
<asrwt>0</asrwt>
<pdfrwt beam="1">  1        1 0.87589235E-01 0.21997072E+04</pdfrwt>
<pdfrwt beam="2">  1       -1 0.32688297E+00 0.21997072E+04</pdfrwt>
<totfact> 0.74350888E-01</totfact>
</mgrwt>
</event>
<event>
11    1  0.2406360E-008  0.1341160E+04  0.7818608E-02  0.8997547E-01
          1   -1    0    0  501    0  0.00000000000E+00  0.00000000000E+00  0.10250132840E+04  0.10250132840E+04  0.00000000000E+00 0. -1.
         -1   -1    0    0    0  501 -0.00000000000E+00 -0.00000000000E+00 -0.43870408557E+03  0.43870408557E+03  0.00000000000E+00 0.  1.
         23    2    1    2    0    0  0.18091214160E+03 -0.24505222264E+03  0.34073800773E+03  0.46591564737E+03  0.90527375734E+02 0.  0.
        254    2    1    2    0    0 -0.18091214160E+03  0.24505222264E+03  0.24557119067E+03  0.99780172216E+03  0.91789066465E+03 0.  0.
        -24    2    4    4    0    0 -0.44406385059E+03 -0.13448189174E+03  0.11084370615E+03  0.48369816956E+03  0.79996933921E+02 0.  0.
         13    1    3    3    0    0  0.16636737540E+03 -0.22192991394E+03  0.33973840008E+03  0.43858086003E+03  0.00000000000E+00 0. -1.
        -13    1    3    3    0    0  0.14544766198E+02 -0.23122308703E+02  0.99960764857E+00  0.27334787341E+02  0.00000000000E+00 0.  1.
          2    1    4    4  502    0  0.17303557284E+03  0.95055034604E+02  0.44917785195E+02  0.20247068059E+03  0.00000000000E+00 0. -1.
          3    1    5    5  503    0 -0.43614932935E+03 -0.11859877828E+03  0.10004985015E+03  0.46292751075E+03  0.00000000000E+00 0. -1.
         -4    1    5    5    0  503 -0.79145212392E+01 -0.15883113459E+02  0.10793856009E+02  0.20770658804E+02  0.00000000000E+00 0.  1.
         -1    1    4    4    0  502  0.90116136140E+02  0.28447907978E+03  0.89809699319E+02  0.31163287201E+03  0.00000000000E+00 0.  1.
<mgrwt>
<rscale>  0 0.13411600E+04</rscale>
<asrwt>0</asrwt>
<pdfrwt beam="1">  1        1 0.15769435E+00 0.13411600E+04</pdfrwt>
<pdfrwt beam="2">  1       -1 0.67492937E-01 0.13411600E+04</pdfrwt>
<totfact> 0.31508185E+01</totfact>
</mgrwt>
</event>
<event>
12    1  0.2406360E-008  0.1616958E+04  0.7818608E-02  0.8810197E-01
          2   -1    0    0  501    0  0.00000000000E+00  0.00000000000E+00  0.95384906018E+03  0.95384906018E+03  0.00000000000E+00 0.  1.
         -2   -1    0    0    0  501 -0.00000000000E+00 -0.00000000000E+00 -0.68526374704E+03  0.68526374704E+03  0.00000000000E+00 0. -1.
         23    2    1    2    0    0 -0.15989549598E+03  0.22273668952E+03 -0.39377579731E+03  0.48894683738E+03  0.93975681645E+02 0.  0.
        254    2    1    2    0    0  0.15989549598E+03 -0.22273668952E+03  0.66236111045E+03  0.11501659698E+04  0.89943388587E+03 0.  0.
        -24    2    4    4    0    0  0.23347000411E+03 -0.54363608072E+03  0.42689843400E+03  0.73362029909E+03  0.76863770401E+02 0.  0.
         24    2    4    4    0    0 -0.73574508129E+02  0.32089939120E+03  0.23546267645E+03  0.41654567076E+03  0.98376807756E+02 0.  0.
         11    1    3    3    0    0 -0.41963182485E+02  0.33226455527E+02 -0.14577304241E+03  0.15528903994E+03  0.00000000000E+00 0. -1.
        -11    1    3    3    0    0 -0.11793231349E+03  0.18951023399E+03 -0.24800275490E+03  0.33365779744E+03  0.00000000000E+00 0.  1.
          4    1    6    6  502    0 -0.55048754165E+02  0.31287730250E+03  0.19899247093E+03  0.37486074113E+03  0.00000000000E+00 0. -1.
          3    1    5    5  503    0  0.14287224880E+03 -0.38834181545E+03  0.26271042919E+03  0.49014142317E+03  0.00000000000E+00 0. -1.
         -4    1    5    5    0  503  0.90597755308E+02 -0.15529426527E+03  0.16418800481E+03  0.24347887592E+03  0.00000000000E+00 0.  1.
         -3    1    6    6    0  502 -0.18525753964E+02  0.80220887011E+01  0.36470205520E+02  0.41684929624E+02  0.00000000000E+00 0.  1.
<mgrwt>
<rscale>  0 0.16169579E+04</rscale>
<asrwt>0</asrwt>
<pdfrwt beam="1">  1        2 0.14674601E+00 0.16169579E+04</pdfrwt>
<pdfrwt beam="2">  1       -2 0.10542519E+00 0.16169579E+04</pdfrwt>
<totfact> 0.18821081E+01</totfact>
</mgrwt>
</event>
<event>
12    1  0.2406360E-008  0.1614676E+04  0.7818608E-02  0.8811583E-01
         -1   -1    0    0    0  501 -0.00000000000E+00  0.00000000000E+00  0.41190772558E+03  0.41190772558E+03  0.00000000000E+00 0.  1.
          1   -1    0    0  501    0  0.00000000000E+00 -0.00000000000E+00 -0.15823796121E+04  0.15823796121E+04  0.00000000000E+00 0. -1.
         23    2    1    2    0    0  0.37627376372E+03 -0.62161526555E+02 -0.90058806966E+03  0.98269372637E+03  0.95823212192E+02 0.  0.
        254    2    1    2    0    0 -0.37627376372E+03  0.62161526555E+02 -0.26988381683E+03  0.10115936113E+04  0.89723929869E+03 0.  0.
        -24    2    4    4    0    0 -0.35701476562E+02  0.44520989730E+03 -0.75455460312E+02  0.45976953530E+03  0.78791186138E+02 0.  0.
         24    2    4    4    0    0 -0.34057228715E+03 -0.38304837075E+03 -0.19442835651E+03  0.55182407597E+03  0.63181388799E+02 0.  0.
         11    1    3    3    0    0  0.33976830075E+03 -0.38970119242E+02 -0.72140131264E+03  0.79836146091E+03  0.00000000000E+00 0. -1.
        -11    1    3    3    0    0  0.36505462967E+02 -0.23191407313E+02 -0.17918675702E+03  0.18433226546E+03  0.00000000000E+00 0.  1.
          2    1    6    6  502    0 -0.17263429966E+02 -0.47044977755E+02 -0.16996858517E+02  0.52916435496E+02  0.00000000000E+00 0. -1.
          3    1    5    5  503    0 -0.11262176545E+02  0.22642052811E+02 -0.21264730558E+02  0.33040701290E+02  0.00000000000E+00 0. -1.
         -4    1    5    5    0  503 -0.24439300017E+02  0.42256784449E+03 -0.54190729755E+02  0.42672883401E+03  0.00000000000E+00 0.  1.
         -1    1    6    6    0  502 -0.32330885719E+03 -0.33600339299E+03 -0.17743149800E+03  0.49890764047E+03  0.00000000000E+00 0.  1.
<mgrwt>
<rscale>  0 0.16146757E+04</rscale>
<asrwt>0</asrwt>
<pdfrwt beam="1">  1        1 0.24344301E+00 0.16146757E+04</pdfrwt>
<pdfrwt beam="2">  1       -1 0.63370420E-01 0.16146757E+04</pdfrwt>
<totfact> 0.13888094E+01</totfact>
</mgrwt>
</event>
<event>
12    1  0.2406360E-008  0.1173190E+04  0.7818608E-02  0.9136653E-01
          1   -1    0    0  501    0  0.00000000000E+00  0.00000000000E+00  0.29825663997E+04  0.29825663997E+04  0.00000000000E+00 0. -1.
         -1   -1    0    0    0  501 -0.00000000000E+00 -0.00000000000E+00 -0.11536827117E+03  0.11536827117E+03  0.00000000000E+00 0.  1.
         23    2    1    2    0    0  0.20838319256E+03  0.10208742732E+02  0.36725837643E+03  0.43284668363E+03  0.94603187600E+02 0.  0.
        254    2    1    2    0    0 -0.20838319256E+03 -0.10208742732E+02  0.24999397521E+04  0.26650879873E+04  0.89970408591E+03 0.  0.
        -24    2    4    4    0    0 -0.36912602712E+03  0.18135719636E+03  0.52302002969E+03  0.67004596378E+03  0.79165557884E+02 0.  0.
         24    2    4    4    0    0  0.16074283456E+03 -0.19156593909E+03  0.19769197224E+04  0.19950420235E+04  0.97187028989E+02 0.  0.
         11    1    3    3    0    0 -0.89121666881E+01 -0.51848143517E+01  0.26195231152E+02  0.28151361425E+02  0.00000000000E+00 0. -1.
        -11    1    3    3    0    0  0.21729535925E+03  0.15393557083E+02  0.34106314528E+03  0.40469532221E+03  0.00000000000E+00 0.  1.
          4    1    6    6  502    0  0.23878308378E+02 -0.49743557907E+02  0.78500058974E+03  0.78693743148E+03  0.00000000000E+00 0. -1.
          1    1    5    5  503    0 -0.11439467544E+03  0.47877699594E+02  0.21818632343E+03  0.25096551082E+03  0.00000000000E+00 0. -1.
         -2    1    5    5    0  503 -0.25473135168E+03  0.13347949676E+03  0.30483370626E+03  0.41908045296E+03  0.00000000000E+00 0.  1.
         -3    1    6    6    0  502  0.13686452618E+03 -0.14182238118E+03  0.11919191327E+04  0.12081045920E+04  0.00000000000E+00 0.  1.
<mgrwt>
<rscale>  0 0.11731897E+04</rscale>
<asrwt>0</asrwt>
<pdfrwt beam="1">  1        1 0.45885631E+00 0.11731897E+04</pdfrwt>
<pdfrwt beam="2">  1       -1 0.17748967E-01 0.11731897E+04</pdfrwt>
<totfact> 0.15444712E+01</totfact>
</mgrwt>
</event>
<event>
11    1  0.2406360E-008  0.1756229E+04  0.7818608E-02  0.8729929E-01
          1   -1    0    0  501    0  0.00000000000E+00  0.00000000000E+00  0.67132860739E+03  0.67132860739E+03  0.00000000000E+00 0. -1.
         -1   -1    0    0    0  501 -0.00000000000E+00 -0.00000000000E+00 -0.11485957148E+04  0.11485957148E+04  0.00000000000E+00 0.  1.
         23    2    1    2    0    0  0.44878641336E+03 -0.24830847942E+03  0.22319866996E+03  0.56659705552E+03  0.90267553914E+02 0.  0.
        254    2    1    2    0    0 -0.44878641336E+03  0.24830847942E+03 -0.70046577738E+03  0.12533272667E+04  0.90394169411E+03 0.  0.
        -24    2    4    4    0    0  0.55186951900E+02  0.59785341456E+02 -0.70449836723E+03  0.71311354890E+03  0.74787014126E+02 0.  0.
         13    1    3    3    0    0  0.31905539176E+03 -0.20498715161E+03  0.12919198160E+03  0.40063280376E+03  0.00000000000E+00 0. -1.
        -13    1    3    3    0    0  0.12973102160E+03 -0.43321327809E+02  0.94006688359E+02  0.16596425177E+03  0.00000000000E+00 0.  1.
          4    1    4    4  502    0 -0.46204348203E+03  0.16610909554E+03  0.15744421238E+02  0.49124769486E+03  0.00000000000E+00 0. -1.
          1    1    5    5  503    0 -0.13186686281E+02  0.35583493787E+02 -0.25039172187E+03  0.25325103772E+03  0.00000000000E+00 0. -1.
         -2    1    5    5    0  503  0.68373638181E+02  0.24201847669E+02 -0.45410664536E+03  0.45986251118E+03  0.00000000000E+00 0.  1.
         -3    1    4    4    0  502 -0.41929883229E+02  0.22414042423E+02 -0.11711831381E+02  0.48966022910E+02  0.00000000000E+00 0.  1.
<mgrwt>
<rscale>  0 0.17562291E+04</rscale>
<asrwt>0</asrwt>
<pdfrwt beam="1">  1        1 0.10328133E+00 0.17562291E+04</pdfrwt>
<pdfrwt beam="2">  1       -1 0.17670703E+00 0.17562291E+04</pdfrwt>
<totfact> 0.60419068E+00</totfact>
</mgrwt>
</event>
<event>
12    1  0.2406360E-008  0.1692707E+04  0.7818608E-02  0.8765535E-01
         -2   -1    0    0    0  501 -0.00000000000E+00  0.00000000000E+00  0.21351933457E+03  0.21351933457E+03  0.00000000000E+00 0.  1.
          2   -1    0    0  501    0  0.00000000000E+00 -0.00000000000E+00 -0.33547993225E+04  0.33547993225E+04  0.00000000000E+00 0. -1.
         23    2    1    2    0    0  0.31019996986E+03 -0.29754612462E+03 -0.18642579486E+03  0.47756050453E+03  0.92475623405E+02 0.  0.
        254    2    1    2    0    0 -0.31019996986E+03  0.29754612462E+03 -0.29548541931E+04  0.30907581525E+04  0.79803818055E+03 0.  0.
        -24    2    4    4    0    0 -0.21884860728E+03  0.26516184739E+03 -0.29559894654E+04  0.29771167414E+04  0.84527238822E+02 0.  0.
         24    2    4    4    0    0 -0.91351362580E+02  0.32384277227E+02  0.11352723582E+01  0.11364141112E+03  0.59323423884E+02 0.  0.
         13    1    3    3    0    0  0.20083273721E+03 -0.18277891833E+03 -0.16456534330E+03  0.31752743746E+03  0.00000000000E+00 0.  1.
        -13    1    3    3    0    0  0.10936723264E+03 -0.11476720628E+03 -0.21860451563E+02  0.16003306707E+03  0.00000000000E+00 0. -1.
          2    1    6    6  502    0 -0.17234916174E+02 -0.81506789965E+01 -0.18873934640E+02  0.26827249438E+02  0.00000000000E+00 0. -1.
          3    1    5    5  503    0 -0.71439388251E+02  0.71579210989E+02 -0.58519922469E+03  0.59387313647E+03  0.00000000000E+00 0. -1.
         -4    1    5    5    0  503 -0.14740921903E+03  0.19358263640E+03 -0.23707902407E+04  0.23832436049E+04  0.00000000000E+00 0.  1.
         -1    1    6    6    0  502 -0.74116446406E+02  0.40534956223E+02  0.20009206998E+02  0.86814161682E+02  0.00000000000E+00 0.  1.
<mgrwt>
<rscale>  0 0.16927073E+04</rscale>
<asrwt>0</asrwt>
<pdfrwt beam="1">  1        2 0.51612289E+00 0.16927073E+04</pdfrwt>
<pdfrwt beam="2">  1       -2 0.32849134E-01 0.16927073E+04</pdfrwt>
<totfact> 0.84934954E+00</totfact>
</mgrwt>
</event>
<event>
12    1  0.2406360E-008  0.3177321E+04  0.7818608E-02  0.8194832E-01
         -2   -1    0    0    0  501 -0.00000000000E+00  0.00000000000E+00  0.17475040918E+04  0.17475040918E+04  0.00000000000E+00 0.  1.
          2   -1    0    0  501    0  0.00000000000E+00 -0.00000000000E+00 -0.14442552568E+04  0.14442552568E+04  0.00000000000E+00 0. -1.
         23    2    1    2    0    0 -0.68954187484E+03  0.86801402376E+02  0.14296907071E+04  0.15924342203E+04  0.93961414541E+02 0.  0.
        254    2    1    2    0    0  0.68954187484E+03 -0.86801402376E+02 -0.11264418721E+04  0.15993251283E+04  0.89775670089E+03 0.  0.
        -24    2    4    4    0    0  0.48451997713E+01 -0.17108692153E+03 -0.81964161450E+03  0.84144294279E+03  0.83184367964E+02 0.  0.
         24    2    4    4    0    0  0.68469667506E+03  0.84285519157E+02 -0.30680025763E+03  0.75788218547E+03  0.65919825462E+02 0.  0.
         13    1    3    3    0    0 -0.45005230909E+03  0.24306066812E+02  0.99250327125E+03  0.10900461501E+04  0.00000000000E+00 0.  1.
        -13    1    3    3    0    0 -0.23948956574E+03  0.62495335564E+02  0.43718743589E+03  0.50238807029E+03  0.00000000000E+00 0. -1.
          2    1    6    6  502    0  0.63923132475E+03  0.94924897316E+02 -0.28334764373E+03  0.70562972576E+03  0.00000000000E+00 0. -1.
          1    1    5    5  503    0 -0.91594319853E+01 -0.78682755208E+02 -0.55832365307E+03  0.56391504036E+03  0.00000000000E+00 0. -1.
         -2    1    5    5    0  503  0.14004631757E+02 -0.92404166325E+02 -0.26131796143E+03  0.27752790244E+03  0.00000000000E+00 0.  1.
         -1    1    6    6    0  502  0.45465350312E+02 -0.10639378160E+02 -0.23452613907E+02  0.52252459709E+02  0.00000000000E+00 0.  1.
<mgrwt>
<rscale>  0 0.31773209E+04</rscale>
<asrwt>0</asrwt>
<pdfrwt beam="1">  1        2 0.22219312E+00 0.31773209E+04</pdfrwt>
<pdfrwt beam="2">  1       -2 0.26884678E+00 0.31773209E+04</pdfrwt>
<totfact> 0.56734981E-01</totfact>
</mgrwt>
</event>
<event>
11    1  0.2406360E-008  0.1941248E+04  0.7818608E-02  0.8634593E-01
          2   -1    0    0  501    0  0.00000000000E+00  0.00000000000E+00  0.15949022126E+04  0.15949022126E+04  0.00000000000E+00 0. -1.
         -2   -1    0    0    0  501 -0.00000000000E+00 -0.00000000000E+00 -0.59070149314E+03  0.59070149314E+03  0.00000000000E+00 0.  1.
         23    2    1    2    0    0  0.19940264521E+03  0.14436229312E+03  0.12073800745E+04  0.12356741759E+04  0.92315427870E+02 0.  0.
        254    2    1    2    0    0 -0.19940264521E+03 -0.14436229312E+03 -0.20317935507E+03  0.94992952975E+03  0.89469680595E+03 0.  0.
        -24    2    4    4    0    0  0.26785447935E+03  0.17535943198E+03 -0.41940002380E+02  0.33253053152E+03  0.79502440849E+02 0.  0.
         13    1    3    3    0    0  0.39595575798E+02  0.82345522529E+02  0.43812873630E+03  0.44755489527E+03  0.00000000000E+00 0.  1.
        -13    1    3    3    0    0  0.15980706941E+03  0.62016770588E+02  0.76925133819E+03  0.78811928068E+03  0.00000000000E+00 0. -1.
          4    1    4    4  502    0 -0.51347210096E+02 -0.31711636844E+02 -0.87298103605E+02  0.10612786057E+03  0.00000000000E+00 0. -1.
          3    1    5    5  503    0  0.76251547561E+02  0.75250555798E+02  0.16975039216E+02  0.10846703006E+03  0.00000000000E+00 0. -1.
         -4    1    5    5    0  503  0.19160293179E+03  0.10010887618E+03 -0.58915041596E+02  0.22406350146E+03  0.00000000000E+00 0.  1.
         -3    1    4    4    0  502 -0.41590991446E+03 -0.28801008825E+03 -0.73941249088E+02  0.51127113766E+03  0.00000000000E+00 0.  1.
<mgrwt>
<rscale>  0 0.19412482E+04</rscale>
<asrwt>0</asrwt>
<pdfrwt beam="1">  1        2 0.24536957E+00 0.19412482E+04</pdfrwt>
<pdfrwt beam="2">  1       -2 0.90877153E-01 0.19412482E+04</pdfrwt>
<totfact> 0.10828655E+01</totfact>
</mgrwt>
</event>
<event>
11    1  0.2406360E-008  0.1171231E+04  0.7818608E-02  0.9138418E-01
         -2   -1    0    0    0  501 -0.00000000000E+00  0.00000000000E+00  0.16078961364E+03  0.16078961364E+03  0.00000000000E+00 0. -1.
          2   -1    0    0  501    0  0.00000000000E+00 -0.00000000000E+00 -0.21328823385E+04  0.21328823385E+04  0.00000000000E+00 0.  1.
         23    2    1    2    0    0 -0.14761764341E+03 -0.13205364106E+03 -0.58050840746E+03  0.61963651814E+03  0.87921958074E+02 0.  0.
        254    2    1    2    0    0  0.14761764341E+03  0.13205364106E+03 -0.13915843174E+04  0.16740354340E+04  0.90920767108E+03 0.  0.
        -24    2    4    4    0    0 -0.29930821502E+03 -0.57037163313E+02 -0.77428273444E+03  0.83617063094E+03  0.82637313705E+02 0.  0.
         13    1    3    3    0    0 -0.66527803088E+02 -0.48244948124E+02 -0.36968685472E+03  0.37871083184E+03  0.00000000000E+00 0. -1.
        -13    1    3    3    0    0 -0.81089840323E+02 -0.83808692937E+02 -0.21082155274E+03  0.24092568629E+03  0.00000000000E+00 0.  1.
          4    1    4    4  502    0  0.47527282716E+03  0.12484779748E+03 -0.49930028295E+03  0.70055121535E+03  0.00000000000E+00 0. -1.
          1    1    5    5  503    0 -0.19066847571E+03 -0.54983098647E+02 -0.58717825237E+03  0.61980312102E+03  0.00000000000E+00 0. -1.
         -2    1    5    5    0  503 -0.10863973931E+03 -0.20540646659E+01 -0.18710448207E+03  0.21636750992E+03  0.00000000000E+00 0.  1.
         -3    1    4    4    0  502 -0.28346968725E+02  0.64243006891E+02 -0.11800130004E+03  0.13731358775E+03  0.00000000000E+00 0.  1.
<mgrwt>
<rscale>  0 0.11712307E+04</rscale>
<asrwt>0</asrwt>
<pdfrwt beam="1">  1        2 0.32813576E+00 0.11712307E+04</pdfrwt>
<pdfrwt beam="2">  1       -2 0.24736863E-01 0.11712307E+04</pdfrwt>
<totfact> 0.81639711E+01</totfact>
</mgrwt>
</event>
<event>
11    1  0.2406360E-008  0.1696208E+04  0.7818608E-02  0.8763530E-01
          1   -1    0    0  501    0  0.00000000000E+00  0.00000000000E+00  0.46349164114E+03  0.46349164114E+03  0.00000000000E+00 0. -1.
         -1   -1    0    0    0  501 -0.00000000000E+00 -0.00000000000E+00 -0.15518727718E+04  0.15518727718E+04  0.00000000000E+00 0.  1.
         23    2    1    2    0    0  0.25132784275E+03  0.51013250267E+03 -0.12411385366E+03  0.58952246982E+03  0.93443239061E+02 0.  0.
        254    2    1    2    0    0 -0.25132784275E+03 -0.51013250267E+03 -0.96426727703E+03  0.14258419432E+04  0.88307021832E+03 0.  0.
        -24    2    4    4    0    0 -0.53101805989E+03 -0.24929601472E+03 -0.66921292127E+03  0.89378963568E+03  0.82977683555E+02 0.  0.
         13    1    3    3    0    0  0.21560541846E+03  0.48588482831E+03 -0.10299249025E+03  0.54145841567E+03  0.00000000000E+00 0. -1.
        -13    1    3    3    0    0  0.35722424291E+02  0.24247674366E+02 -0.21121363406E+02  0.48064054152E+02  0.00000000000E+00 0.  1.
          2    1    4    4  502    0 -0.36831968675E+02 -0.23913056707E+02 -0.51514805999E+02  0.67691974669E+02  0.00000000000E+00 0. -1.
          1    1    5    5  503    0 -0.17536275466E+03 -0.83349049933E+02 -0.16475086435E+03  0.25464093770E+03  0.00000000000E+00 0. -1.
         -2    1    5    5    0  503 -0.35565530523E+03 -0.16594696479E+03 -0.50446205692E+03  0.63914869798E+03  0.00000000000E+00 0.  1.
         -1    1    4    4    0  502  0.31652218581E+03 -0.23692343124E+03 -0.24353954976E+03  0.46436033280E+03  0.00000000000E+00 0.  1.
<mgrwt>
<rscale>  0 0.16962076E+04</rscale>
<asrwt>0</asrwt>
<pdfrwt beam="1">  1        1 0.71306406E-01 0.16962076E+04</pdfrwt>
<pdfrwt beam="2">  1       -1 0.23874966E+00 0.16962076E+04</pdfrwt>
<totfact> 0.38688436E+00</totfact>
</mgrwt>
</event>
<event>
11    1  0.2406360E-008  0.1366301E+04  0.7818608E-02  0.8978580E-01
          1   -1    0    0  501    0  0.00000000000E+00  0.00000000000E+00  0.23927377462E+04  0.23927377462E+04  0.00000000000E+00 0.  1.
         -1   -1    0    0    0  501 -0.00000000000E+00 -0.00000000000E+00 -0.19504621547E+03  0.19504621547E+03  0.00000000000E+00 0. -1.
         23    2    1    2    0    0 -0.28927467873E+03  0.44408385507E+02  0.17274644954E+03  0.35285815873E+03  0.94950512914E+02 0.  0.
        254    2    1    2    0    0  0.28927467873E+03 -0.44408385507E+02  0.20249450811E+04  0.22349258029E+04  0.89935466769E+03 0.  0.
        -24    2    4    4    0    0  0.46672679330E+03  0.27031263541E+03  0.11695226562E+04  0.12903313325E+04  0.79176283488E+02 0.  0.
         11    1    3    3    0    0 -0.22745138399E+03  0.30562225222E+02  0.17631207864E+03  0.28940305935E+03  0.00000000000E+00 0.  1.
        -11    1    3    3    0    0 -0.61823294738E+02  0.13846160285E+02 -0.35656290996E+01  0.63455099384E+02  0.00000000000E+00 0. -1.
          2    1    4    4  502    0 -0.21007586401E+03 -0.29616787595E+03  0.77494926908E+03  0.85580000528E+03  0.00000000000E+00 0. -1.
          3    1    5    5  503    0  0.43267299356E+03  0.25823465947E+03  0.10364530541E+04  0.11524434876E+04  0.00000000000E+00 0. -1.
         -4    1    5    5    0  503  0.34053799738E+02  0.12077975949E+02  0.13306960210E+03  0.13788784494E+03  0.00000000000E+00 0.  1.
         -1    1    4    4    0  502  0.32623749442E+02 -0.18553144972E+02  0.80473155849E+02  0.88794465077E+02  0.00000000000E+00 0.  1.
<mgrwt>
<rscale>  0 0.13663008E+04</rscale>
<asrwt>0</asrwt>
<pdfrwt beam="1">  1        1 0.36811348E+00 0.13663008E+04</pdfrwt>
<pdfrwt beam="2">  1       -1 0.30007112E-01 0.13663008E+04</pdfrwt>
<totfact> 0.16074765E+01</totfact>
</mgrwt>
</event>
<event>
11    1  0.2406360E-008  0.1458696E+04  0.7818608E-02  0.8912394E-01
         -1   -1    0    0    0  501 -0.00000000000E+00  0.00000000000E+00  0.70941725272E+03  0.70941725272E+03  0.00000000000E+00 0.  1.
          1   -1    0    0  501    0  0.00000000000E+00 -0.00000000000E+00 -0.74983919918E+03  0.74983919918E+03  0.00000000000E+00 0. -1.
         23    2    1    2    0    0 -0.30377931871E+03 -0.69070063773E+02 -0.33000358756E+03  0.45871265924E+03  0.66801105984E+02 0.  0.
        254    2    1    2    0    0  0.30377931871E+03  0.69070063773E+02  0.28958164110E+03  0.10005437927E+04  0.90563668541E+03 0.  0.
        -24    2    4    4    0    0  0.12312766097E+02 -0.38330634186E+03  0.32670539742E+02  0.39313553546E+03  0.80080142110E+02 0.  0.
         13    1    3    3    0    0 -0.20993968323E+03 -0.27441245160E+02 -0.25573244947E+03  0.33200418407E+03  0.00000000000E+00 0. -1.
        -13    1    3    3    0    0 -0.93839635481E+02 -0.41628818613E+02 -0.74271138088E+02  0.12670847517E+03  0.00000000000E+00 0.  1.
          4    1    4    4  502    0  0.11948256364E+03  0.29094203539E+03  0.14680760717E+03  0.34709627554E+03  0.00000000000E+00 0. -1.
          1    1    5    5  503    0  0.40092146396E+02 -0.28316556210E+03  0.40846748125E+02  0.28889197392E+03  0.00000000000E+00 0. -1.
         -2    1    5    5    0  503 -0.27779380298E+02 -0.10014077976E+03 -0.81762083829E+01  0.10424356155E+03  0.00000000000E+00 0.  1.
         -3    1    4    4    0  502  0.17198398897E+03  0.16143437024E+03  0.11010349418E+03  0.26031198165E+03  0.00000000000E+00 0.  1.
<mgrwt>
<rscale>  0 0.14586965E+04</rscale>
<asrwt>0</asrwt>
<pdfrwt beam="1">  1        1 0.11535988E+00 0.14586965E+04</pdfrwt>
<pdfrwt beam="2">  1       -1 0.10914112E+00 0.14586965E+04</pdfrwt>
<totfact> 0.18494716E+01</totfact>
</mgrwt>
</event>
<event>
12    1  0.2406360E-008  0.1574388E+04  0.7818608E-02  0.8836439E-01
          2   -1    0    0  501    0  0.00000000000E+00  0.00000000000E+00  0.13242412102E+04  0.13242412102E+04  0.00000000000E+00 0. -1.
         -2   -1    0    0    0  501 -0.00000000000E+00 -0.00000000000E+00 -0.46794667581E+03  0.46794667581E+03  0.00000000000E+00 0.  1.
         23    2    1    2    0    0 -0.45453892055E+03  0.15593796155E+03  0.44184666099E+02  0.49127142130E+03  0.92049152762E+02 0.  0.
        254    2    1    2    0    0  0.45453892055E+03 -0.15593796155E+03  0.81210986825E+03  0.13009164647E+04  0.89551043085E+03 0.  0.
        -24    2    4    4    0    0 -0.83060426840E+01  0.25939549210E+03  0.56768449510E+03  0.62922087046E+03  0.79361238564E+02 0.  0.
         24    2    4    4    0    0  0.46284496323E+03 -0.41533345365E+03  0.24442537315E+03  0.67169559420E+03  0.68584768817E+02 0.  0.
         11    1    3    3    0    0 -0.21037121302E+03  0.10355197344E+03  0.56698651477E+02  0.24123390216E+03  0.00000000000E+00 0.  1.
        -11    1    3    3    0    0 -0.24416770753E+03  0.52385988110E+02 -0.12513985378E+02  0.25003751914E+03  0.00000000000E+00 0. -1.
          2    1    6    6  502    0  0.39604277083E+03 -0.38392353640E+03  0.20949208205E+03  0.59002888961E+03  0.00000000000E+00 0. -1.
          3    1    5    5  503    0  0.23499539424E+02  0.21180617771E+03  0.46882328692E+03  0.51498481495E+03  0.00000000000E+00 0. -1.
         -4    1    5    5    0  503 -0.31805582108E+02  0.47589314384E+02  0.98861208177E+02  0.11423605551E+03  0.00000000000E+00 0.  1.
         -1    1    6    6    0  502  0.66802192403E+02 -0.31409917246E+02  0.34933291101E+02  0.81666704588E+02  0.00000000000E+00 0.  1.
<mgrwt>
<rscale>  0 0.15743878E+04</rscale>
<asrwt>0</asrwt>
<pdfrwt beam="1">  1        2 0.20372942E+00 0.15743878E+04</pdfrwt>
<pdfrwt beam="2">  1       -2 0.71991797E-01 0.15743878E+04</pdfrwt>
<totfact> 0.26876401E+01</totfact>
</mgrwt>
</event>
<event>
11    1  0.2406360E-008  0.1890845E+04  0.7818608E-02  0.8659427E-01
          4   -1    0    0  501    0  0.00000000000E+00  0.00000000000E+00  0.22701423114E+04  0.22701423114E+04  0.00000000000E+00 0. -1.
         -4   -1    0    0    0  501 -0.00000000000E+00 -0.00000000000E+00 -0.39373018946E+03  0.39373018946E+03  0.00000000000E+00 0.  1.
         23    2    1    2    0    0 -0.35012024832E+03  0.32353131352E+03 -0.49190560767E+02  0.48742143533E+03  0.88900198207E+02 0.  0.
        254    2    1    2    0    0  0.35012024832E+03 -0.32353131352E+03  0.19256026827E+04  0.21764510655E+04  0.89539759317E+03 0.  0.
        -24    2    4    4    0    0  0.47245129686E+03 -0.67289422368E+01  0.45113714839E+03  0.65771475804E+03  0.76213317185E+02 0.  0.
         13    1    3    3    0    0 -0.44797224940E+00  0.25418760569E+02 -0.32243933618E+01  0.25626368853E+02  0.00000000000E+00 0. -1.
        -13    1    3    3    0    0 -0.34967227607E+03  0.29811255295E+03 -0.45966167405E+02  0.46179506648E+03  0.00000000000E+00 0.  1.
          4    1    4    4  502    0 -0.36524310805E+01  0.11774531388E+02  0.91551253040E+02  0.92377550170E+02  0.00000000000E+00 0. -1.
          1    1    5    5  503    0  0.60632816926E+02 -0.16221734102E+02  0.33650056287E+02  0.71216637338E+02  0.00000000000E+00 0. -1.
         -2    1    5    5    0  503  0.41181847993E+03  0.94927918650E+01  0.41748709210E+03  0.58649812070E+03  0.00000000000E+00 0.  1.
         -3    1    4    4    0  502 -0.11867861746E+03 -0.32857690267E+03  0.13829142813E+04  0.14263587573E+04  0.00000000000E+00 0.  1.
<mgrwt>
<rscale>  0 0.18908449E+04</rscale>
<asrwt>0</asrwt>
<pdfrwt beam="1">  1        4 0.34925266E+00 0.18908449E+04</pdfrwt>
<pdfrwt beam="2">  1       -4 0.60573876E-01 0.18908449E+04</pdfrwt>
<totfact> 0.72554347E-02</totfact>
</mgrwt>
</event>
<event>
12    1  0.2406360E-008  0.2017417E+04  0.7818608E-02  0.8598521E-01
         -2   -1    0    0    0  501 -0.00000000000E+00  0.00000000000E+00  0.14467706748E+04  0.14467706748E+04  0.00000000000E+00 0.  1.
          2   -1    0    0  501    0  0.00000000000E+00 -0.00000000000E+00 -0.70328572572E+03  0.70328572572E+03  0.00000000000E+00 0. -1.
         23    2    1    2    0    0  0.25034285068E+03 -0.30280742620E+03  0.10504099741E+04  0.11250681648E+04  0.89740634876E+02 0.  0.
        254    2    1    2    0    0 -0.25034285068E+03  0.30280742620E+03 -0.30692502494E+03  0.10249882358E+04  0.89556352780E+03 0.  0.
        -24    2    4    4    0    0 -0.31055646070E+03  0.42562839153E+03 -0.52677676874E+03  0.74939963884E+03  0.80630091417E+02 0.  0.
         24    2    4    4    0    0  0.60213610022E+02 -0.12282096534E+03  0.21985174380E+03  0.27558859695E+03  0.94358980283E+02 0.  0.
         11    1    3    3    0    0  0.48708696305E+02 -0.11847919915E+03  0.28851569535E+03  0.31567572632E+03  0.00000000000E+00 0. -1.
        -11    1    3    3    0    0  0.20163415437E+03 -0.18432822704E+03  0.76189427870E+03  0.80939243845E+03  0.00000000000E+00 0.  1.
          4    1    6    6  502    0 -0.11073132157E+02 -0.17294643244E+02 -0.10992266564E+01  0.20565194868E+02  0.00000000000E+00 0. -1.
          1    1    5    5  503    0 -0.48255092607E+02  0.95300747057E+02 -0.14774277323E+03  0.18231487431E+03  0.00000000000E+00 0. -1.
         -2    1    5    5    0  503 -0.26230136809E+03  0.33032764448E+03 -0.37903399551E+03  0.56708476453E+03  0.00000000000E+00 0.  1.
         -3    1    6    6    0  502  0.71286742179E+02 -0.10552632209E+03  0.22095097046E+03  0.25502340208E+03  0.00000000000E+00 0.  1.
<mgrwt>
<rscale>  0 0.20174173E+04</rscale>
<asrwt>0</asrwt>
<pdfrwt beam="1">  1        2 0.10819780E+00 0.20174173E+04</pdfrwt>
<pdfrwt beam="2">  1       -2 0.22258010E+00 0.20174173E+04</pdfrwt>
<totfact> 0.35951329E+00</totfact>
</mgrwt>
</event>
<event>
11    1  0.2406360E-008  0.2031971E+04  0.7818608E-02  0.8591817E-01
          3   -1    0    0  501    0  0.00000000000E+00  0.00000000000E+00  0.56213216855E+03  0.56213216855E+03  0.00000000000E+00 0. -1.
         -3   -1    0    0    0  501 -0.00000000000E+00 -0.00000000000E+00 -0.18362705146E+04  0.18362705146E+04  0.00000000000E+00 0.  1.
         23    2    1    2    0    0 -0.45178634660E+03  0.55882579827E+03 -0.39817195415E+02  0.72533807037E+03  0.90181658307E+02 0.  0.
        254    2    1    2    0    0  0.45178634660E+03 -0.55882579827E+03 -0.12343211506E+04  0.16730646128E+04  0.87132044615E+03 0.  0.
        -24    2    4    4    0    0 -0.15278850523E+03 -0.20778906076E+03 -0.38711890053E+02  0.27254564320E+03  0.79132143264E+02 0.  0.
         11    1    3    3    0    0 -0.35613163776E+02  0.45440730940E+02  0.21525507015E+02  0.61615784624E+02  0.00000000000E+00 0.  1.
        -11    1    3    3    0    0 -0.41617318282E+03  0.51338506733E+03 -0.61342702430E+02  0.66372228575E+03  0.00000000000E+00 0. -1.
          4    1    4    4  502    0  0.38785871253E+00  0.81313680115E+01 -0.90204814926E+02  0.90571398443E+02  0.00000000000E+00 0. -1.
          3    1    5    5  503    0 -0.12063120637E+03 -0.17114001640E+03  0.14351999279E+01  0.20938685002E+03  0.00000000000E+00 0. -1.
         -4    1    5    5    0  503 -0.32157298860E+02 -0.36649044358E+02 -0.40147089981E+02  0.63158793183E+02  0.00000000000E+00 0.  1.
         -3    1    4    4    0  502  0.60418699311E+03 -0.35916810552E+03 -0.11054044457E+04  0.13099475711E+04  0.00000000000E+00 0.  1.
<mgrwt>
<rscale>  0 0.20319712E+04</rscale>
<asrwt>0</asrwt>
<pdfrwt beam="1">  1        3 0.86481872E-01 0.20319712E+04</pdfrwt>
<pdfrwt beam="2">  1       -3 0.28250316E+00 0.20319712E+04</pdfrwt>
<totfact> 0.14105646E-01</totfact>
</mgrwt>
</event>
<event>
12    1  0.2406360E-008  0.1358512E+04  0.7818608E-02  0.8984410E-01
          1   -1    0    0  501    0  0.00000000000E+00  0.00000000000E+00  0.28491276459E+04  0.28491276459E+04  0.00000000000E+00 0. -1.
         -1   -1    0    0    0  501 -0.00000000000E+00 -0.00000000000E+00 -0.16194031962E+03  0.16194031962E+03  0.00000000000E+00 0.  1.
         23    2    1    2    0    0  0.17284975318E+02  0.10835812933E+03 -0.23601977418E+02  0.15465919532E+03  0.10640563330E+03 0.  0.
        254    2    1    2    0    0 -0.17284975318E+02 -0.10835812933E+03  0.27107893037E+04  0.28564087702E+04  0.89367340726E+03 0.  0.
        -24    2    4    4    0    0 -0.20762312797E+02  0.33577174023E+03  0.18450441960E+04  0.18771521786E+04  0.79614578211E+02 0.  0.
         24    2    4    4    0    0  0.34773374795E+01 -0.44412986956E+03  0.86574510770E+03  0.97925659165E+03  0.11029708911E+03 0.  0.
         11    1    3    3    0    0  0.30027966501E+02  0.12536581941E+03 -0.30208583254E+02  0.13240402543E+03  0.00000000000E+00 0.  1.
        -11    1    3    3    0    0 -0.12742991183E+02 -0.17007690082E+02  0.66066058357E+01  0.22255169892E+02  0.00000000000E+00 0. -1.
          2    1    6    6  502    0  0.25074581989E+01 -0.39518187405E+02  0.26730434315E+02  0.47775418377E+02  0.00000000000E+00 0. -1.
          1    1    5    5  503    0 -0.11526579943E+02  0.13186943784E+03  0.52553969418E+03  0.54195422393E+03  0.00000000000E+00 0. -1.
         -2    1    5    5    0  503 -0.92357328542E+01  0.20390230240E+03  0.13195045018E+04  0.13351979546E+04  0.00000000000E+00 0.  1.
         -1    1    6    6    0  502  0.96987928059E+00 -0.40461168216E+03  0.83901467339E+03  0.93148117327E+03  0.00000000000E+00 0.  1.
<mgrwt>
<rscale>  0 0.13585119E+04</rscale>
<asrwt>0</asrwt>
<pdfrwt beam="1">  1        1 0.43832729E+00 0.13585119E+04</pdfrwt>
<pdfrwt beam="2">  1       -1 0.24913897E-01 0.13585119E+04</pdfrwt>
<totfact> 0.10669168E+01</totfact>
</mgrwt>
</event>
<event>
11    1  0.2406360E-008  0.2134070E+04  0.7818608E-02  0.8546382E-01
         -1   -1    0    0    0  501 -0.00000000000E+00  0.00000000000E+00  0.68393929506E+03  0.68393929506E+03  0.00000000000E+00 0.  1.
          1   -1    0    0  501    0  0.00000000000E+00 -0.00000000000E+00 -0.16647144121E+04  0.16647144121E+04  0.00000000000E+00 0. -1.
         23    2    1    2    0    0  0.73317760670E+03 -0.46816294463E+03 -0.36699959962E+03  0.94967032919E+03  0.10226965496E+03 0.  0.
        254    2    1    2    0    0 -0.73317760670E+03  0.46816294463E+03 -0.61377551739E+03  0.13989833779E+04  0.90758369328E+03 0.  0.
        -24    2    4    4    0    0 -0.68104735272E+03  0.38540087793E+03 -0.71939180084E+03  0.10659521357E+04  0.79812650213E+02 0.  0.
         11    1    3    3    0    0  0.40617405359E+03 -0.30188769633E+03 -0.17403125747E+03  0.53516392029E+03  0.00000000000E+00 0. -1.
        -11    1    3    3    0    0  0.32700355311E+03 -0.16627524830E+03 -0.19296834215E+03  0.41450640889E+03  0.00000000000E+00 0.  1.
          2    1    4    4  502    0  0.55915225492E+02 -0.57808326412E+02 -0.52026350789E+02  0.95786513773E+02  0.00000000000E+00 0. -1.
          1    1    5    5  503    0 -0.15657969741E+03  0.59007340857E+02 -0.12691629893E+03  0.21001622521E+03  0.00000000000E+00 0. -1.
         -2    1    5    5    0  503 -0.52446765530E+03  0.32639353707E+03 -0.59247550191E+03  0.85593591048E+03  0.00000000000E+00 0.  1.
         -1    1    4    4    0  502 -0.10804547948E+03  0.14057039311E+03  0.15764263424E+03  0.23724472847E+03  0.00000000000E+00 0.  1.
<mgrwt>
<rscale>  0 0.21340699E+04</rscale>
<asrwt>0</asrwt>
<pdfrwt beam="1">  1        1 0.25610991E+00 0.21340699E+04</pdfrwt>
<pdfrwt beam="2">  1       -1 0.10522143E+00 0.21340699E+04</pdfrwt>
<totfact> 0.39134861E+00</totfact>
</mgrwt>
</event>
<event>
12    1  0.2406360E-008  0.2007966E+04  0.7818608E-02  0.8602905E-01
          3   -1    0    0  501    0  0.00000000000E+00  0.00000000000E+00  0.17353057618E+04  0.17353057618E+04  0.00000000000E+00 0. -1.
         -3   -1    0    0    0  501 -0.00000000000E+00 -0.00000000000E+00 -0.58086696087E+03  0.58086696087E+03  0.00000000000E+00 0.  1.
         23    2    1    2    0    0 -0.61740066615E+03 -0.11218417589E+03  0.10708413999E+04  0.12445334042E+04  0.91614510612E+02 0.  0.
        254    2    1    2    0    0  0.61740066615E+03  0.11218417589E+03  0.83597400989E+02  0.10716393184E+04  0.86466955044E+03 0.  0.
        -24    2    4    4    0    0  0.72522104381E+03  0.29680613313E+03  0.21004688394E+03  0.81533631984E+03  0.81327596516E+02 0.  0.
         24    2    4    4    0    0 -0.10782037765E+03 -0.18462195724E+03 -0.12644948295E+03  0.25630299859E+03  0.63176375433E+02 0.  0.
         13    1    3    3    0    0 -0.16511835684E+03 -0.56088672225E+02  0.23660591949E+03  0.29392579345E+03  0.00000000000E+00 0.  1.
        -13    1    3    3    0    0 -0.45228230931E+03 -0.56095503663E+02  0.83423548043E+03  0.95060761077E+03  0.00000000000E+00 0. -1.
          4    1    6    6  502    0 -0.14510160478E+02 -0.90038379475E+01 -0.31721888254E+02  0.36026268878E+02  0.00000000000E+00 0. -1.
          1    1    5    5  503    0  0.36390598003E+03  0.11718477608E+03  0.13127568254E+03  0.40421917183E+03  0.00000000000E+00 0. -1.
         -2    1    5    5    0  503  0.36131506378E+03  0.17962135705E+03  0.78771201396E+02  0.41111714801E+03  0.00000000000E+00 0.  1.
         -3    1    6    6    0  502 -0.93310217176E+02 -0.17561811930E+03 -0.94727594694E+02  0.22027672971E+03  0.00000000000E+00 0.  1.
<mgrwt>
<rscale>  0 0.20079659E+04</rscale>
<asrwt>0</asrwt>
<pdfrwt beam="1">  1        3 0.26697011E+00 0.20079659E+04</pdfrwt>
<pdfrwt beam="2">  1       -3 0.89364149E-01 0.20079659E+04</pdfrwt>
<totfact> 0.16260836E-01</totfact>
</mgrwt>
</event>
<event>
12    1  0.2406360E-008  0.1145857E+04  0.7818608E-02  0.9161614E-01
         -1   -1    0    0    0  501 -0.00000000000E+00  0.00000000000E+00  0.43481049313E+03  0.43481049313E+03  0.00000000000E+00 0.  1.
          1   -1    0    0  501    0  0.00000000000E+00 -0.00000000000E+00 -0.75491944284E+03  0.75491944284E+03  0.00000000000E+00 0. -1.
         23    2    1    2    0    0  0.59749817475E+02 -0.13118290228E+03 -0.21737075485E+03  0.27661100026E+03  0.92111920313E+02 0.  0.
        254    2    1    2    0    0 -0.59749817475E+02  0.13118290228E+03 -0.10273819486E+03  0.91311893572E+03  0.89579688520E+03 0.  0.
        -24    2    4    4    0    0  0.16604777467E+03 -0.27104912050E+03 -0.25553744959E+03  0.41567758508E+03  0.80305525327E+02 0.  0.
         24    2    4    4    0    0 -0.22579759214E+03  0.40223202278E+03  0.15279925473E+03  0.49744135063E+03  0.10641960488E+03 0.  0.
         11    1    3    3    0    0  0.72948604219E+02 -0.69728513052E+02 -0.17079473545E+03  0.19837944966E+03  0.00000000000E+00 0. -1.
        -11    1    3    3    0    0 -0.13198786744E+02 -0.61454389226E+02 -0.46576019404E+02  0.78231550606E+02  0.00000000000E+00 0.  1.
          2    1    6    6  502    0 -0.19391865079E+03  0.36996269502E+03  0.16708794634E+03  0.44988356343E+03  0.00000000000E+00 0. -1.
          3    1    5    5  503    0  0.11916065123E+03 -0.22979820389E+03 -0.16968804308E+03  0.30951657028E+03  0.00000000000E+00 0. -1.
         -4    1    5    5    0  503  0.46887123444E+02 -0.41250916613E+02 -0.85849406512E+02  0.10616101481E+03  0.00000000000E+00 0.  1.
         -1    1    6    6    0  502 -0.31878941352E+02  0.32269327763E+02 -0.14288691607E+02  0.47557787205E+02  0.00000000000E+00 0.  1.
<mgrwt>
<rscale>  0 0.11458567E+04</rscale>
<asrwt>0</asrwt>
<pdfrwt beam="1">  1        1 0.11614145E+00 0.11458567E+04</pdfrwt>
<pdfrwt beam="2">  1       -1 0.66893923E-01 0.11458567E+04</pdfrwt>
<totfact> 0.54541272E+01</totfact>
</mgrwt>
</event>
<event>
12    1  0.2406360E-008  0.1658862E+04  0.7818608E-02  0.8785181E-01
          2   -1    0    0  501    0  0.00000000000E+00  0.00000000000E+00  0.18257986807E+04  0.18257986807E+04  0.00000000000E+00 0. -1.
         -2   -1    0    0    0  501 -0.00000000000E+00 -0.00000000000E+00 -0.37679738827E+03  0.37679738827E+03  0.00000000000E+00 0.  1.
         23    2    1    2    0    0  0.33078024669E+03 -0.62105343507E+02 -0.11954428779E+03  0.36901309900E+03  0.92774916875E+02 0.  0.
        254    2    1    2    0    0 -0.33078024669E+03  0.62105343507E+02  0.15685455802E+04  0.18335829699E+04  0.88792940328E+03 0.  0.
        -24    2    4    4    0    0 -0.56778173037E+03  0.14405663652E+03  0.65734666606E+03  0.88417965694E+03  0.80874090343E+02 0.  0.
         24    2    4    4    0    0  0.23700148368E+03 -0.81951293013E+02  0.91119891413E+03  0.94940331300E+03  0.90539891390E+02 0.  0.
         11    1    3    3    0    0  0.16791920937E+03  0.38177344909E+01 -0.90943599108E+02  0.19100307377E+03  0.00000000000E+00 0. -1.
        -11    1    3    3    0    0  0.16286103733E+03 -0.65923077998E+02 -0.28600688682E+02  0.17801002524E+03  0.00000000000E+00 0.  1.
          4    1    6    6  502    0  0.10164449198E+03  0.11201333174E+02  0.34148246716E+03  0.35646507261E+03  0.00000000000E+00 0. -1.
          3    1    5    5  503    0 -0.45017068253E+02  0.34545047545E+02  0.53130899763E+02  0.77735379678E+02  0.00000000000E+00 0. -1.
         -4    1    5    5    0  503 -0.52276466212E+03  0.10951158897E+03  0.60421576630E+03  0.80644427726E+03  0.00000000000E+00 0.  1.
         -3    1    6    6    0  502  0.13535699170E+03 -0.93152626187E+02  0.56971644697E+03  0.59293824039E+03  0.00000000000E+00 0.  1.
<mgrwt>
<rscale>  0 0.16588625E+04</rscale>
<asrwt>0</asrwt>
<pdfrwt beam="1">  1        2 0.28089210E+00 0.16588625E+04</pdfrwt>
<pdfrwt beam="2">  1       -2 0.57968830E-01 0.16588625E+04</pdfrwt>
<totfact> 0.22195773E+01</totfact>
</mgrwt>
</event>
<event>
12    1  0.2406360E-008  0.2010230E+04  0.7818608E-02  0.8601853E-01
          1   -1    0    0  501    0  0.00000000000E+00  0.00000000000E+00  0.12678472980E+04  0.12678472980E+04  0.00000000000E+00 0.  1.
         -1   -1    0    0    0  501 -0.00000000000E+00 -0.00000000000E+00 -0.79682803106E+03  0.79682803106E+03  0.00000000000E+00 0. -1.
         23    2    1    2    0    0 -0.32399151824E+03 -0.51503286043E+02 -0.55867972604E+03  0.65383633600E+03  0.88067165427E+02 0.  0.
        254    2    1    2    0    0  0.32399151824E+03  0.51503286043E+02  0.10296989930E+04  0.14108389931E+04  0.90695289616E+03 0.  0.
        -24    2    4    4    0    0  0.42035142894E+03  0.14056687318E+03  0.94228695503E+02  0.46039027217E+03  0.81398931259E+02 0.  0.
         24    2    4    4    0    0 -0.96359910699E+02 -0.89063587136E+02  0.93547029752E+03  0.95044872093E+03  0.10502637112E+03 0.  0.
         13    1    3    3    0    0 -0.21214867836E+03 -0.68040066602E+02 -0.32227620927E+03  0.39178880466E+03  0.00000000000E+00 0.  1.
        -13    1    3    3    0    0 -0.11184283987E+03  0.16536780558E+02 -0.23640351677E+03  0.26204753134E+03  0.00000000000E+00 0. -1.
          2    1    6    6  502    0 -0.93675855915E+02 -0.10769350327E+03  0.71068085718E+03  0.72487263529E+03  0.00000000000E+00 0. -1.
          3    1    5    5  503    0  0.39422619795E+03  0.10874691219E+03  0.91929036966E+02  0.41915526228E+03  0.00000000000E+00 0. -1.
         -4    1    5    5    0  503  0.26125230990E+02  0.31819960987E+02  0.22996585374E+01  0.41235009893E+02  0.00000000000E+00 0.  1.
         -1    1    6    6    0  502 -0.26840547840E+01  0.18629916130E+02  0.22478944033E+03  0.22557608563E+03  0.00000000000E+00 0.  1.
<mgrwt>
<rscale>  0 0.20102301E+04</rscale>
<asrwt>0</asrwt>
<pdfrwt beam="1">  1        1 0.19505343E+00 0.20102301E+04</pdfrwt>
<pdfrwt beam="2">  1       -1 0.12258893E+00 0.20102301E+04</pdfrwt>
<totfact> 0.51935815E+00</totfact>
</mgrwt>
</event>
<event>
12    1  0.2406360E-008  0.1392790E+04  0.7818608E-02  0.8959054E-01
         -1   -1    0    0    0  501 -0.00000000000E+00  0.00000000000E+00  0.33638157250E+03  0.33638157250E+03  0.00000000000E+00 0.  1.
          1   -1    0    0  501    0  0.00000000000E+00 -0.00000000000E+00 -0.14417140794E+04  0.14417140794E+04  0.00000000000E+00 0. -1.
         23    2    1    2    0    0  0.15776691678E+03  0.10516599108E+03  0.12640374359E+03  0.24615687439E+03  0.93086060737E+02 0.  0.
        254    2    1    2    0    0 -0.15776691678E+03 -0.10516599108E+03 -0.12317362505E+04  0.15319387775E+04  0.89090512488E+03 0.  0.
        -24    2    4    4    0    0  0.10654397675E+03 -0.44615062835E+03 -0.64686596249E+03  0.79685072159E+03  0.78316645242E+02 0.  0.
         24    2    4    4    0    0 -0.26431089353E+03  0.34098463727E+03 -0.58487028801E+03  0.73508805592E+03  0.11022896562E+03 0.  0.
         11    1    3    3    0    0  0.11996900507E+03  0.96442122770E+02  0.52399175590E+02  0.16260171839E+03  0.00000000000E+00 0. -1.
        -11    1    3    3    0    0  0.37797911714E+02  0.87238683093E+01  0.74004568004E+02  0.83555155997E+02  0.00000000000E+00 0.  1.
          2    1    6    6  502    0 -0.15263709271E+03  0.21943132069E+03 -0.44319086967E+03  0.51755804846E+03  0.00000000000E+00 0. -1.
          3    1    5    5  503    0  0.86640287026E+02 -0.22168073072E+03 -0.36883096591E+03  0.43895918617E+03  0.00000000000E+00 0. -1.
         -4    1    5    5    0  503  0.19903689723E+02 -0.22446989763E+03 -0.27803499657E+03  0.35789153542E+03  0.00000000000E+00 0.  1.
         -1    1    6    6    0  502 -0.11167380082E+03  0.12155331658E+03 -0.14167941834E+03  0.21753000745E+03  0.00000000000E+00 0.  1.
<mgrwt>
<rscale>  0 0.13927901E+04</rscale>
<asrwt>0</asrwt>
<pdfrwt beam="1">  1        1 0.22180217E+00 0.13927901E+04</pdfrwt>
<pdfrwt beam="2">  1       -1 0.51751011E-01 0.13927901E+04</pdfrwt>
<totfact> 0.26331286E+01</totfact>
</mgrwt>
</event>
<event>
11    1  0.2406360E-008  0.1465138E+04  0.7818608E-02  0.8907973E-01
         -2   -1    0    0    0  501 -0.00000000000E+00  0.00000000000E+00  0.39274894657E+03  0.39274894657E+03  0.00000000000E+00 0.  1.
          2   -1    0    0  501    0  0.00000000000E+00 -0.00000000000E+00 -0.13664131000E+04  0.13664131000E+04  0.00000000000E+00 0. -1.
         23    2    1    2    0    0 -0.44737547372E+02 -0.26223208494E+03  0.12994700915E+03  0.30945074742E+03  0.90035689471E+02 0.  0.
        254    2    1    2    0    0  0.44737547372E+02  0.26223208494E+03 -0.11036111625E+04  0.14497112991E+04  0.90163082144E+03 0.  0.
        -24    2    4    4    0    0 -0.31536285449E+03  0.20605576168E+03 -0.14328568957E+03  0.41121354825E+03  0.81566454560E+02 0.  0.
         11    1    3    3    0    0  0.10985317642E+02 -0.38527937588E+02 -0.79107755235E+01  0.40836987497E+02  0.00000000000E+00 0. -1.
        -11    1    3    3    0    0 -0.55722865014E+02 -0.22370414735E+03  0.13785778467E+03  0.26861375993E+03  0.00000000000E+00 0.  1.
          4    1    4    4  502    0 -0.37697601619E+01 -0.22088505942E+02 -0.70278909070E+02  0.73764749349E+02  0.00000000000E+00 0. -1.
          3    1    5    5  503    0 -0.61788537819E+02  0.78789595736E+02 -0.54089553249E+02  0.11380379419E+03  0.00000000000E+00 0. -1.
         -4    1    5    5    0  503 -0.25357431668E+03  0.12726616595E+03 -0.89196136319E+02  0.29740975405E+03  0.00000000000E+00 0.  1.
         -3    1    4    4    0  502  0.36387016203E+03  0.78264829197E+02 -0.89004656390E+03  0.96473300151E+03  0.00000000000E+00 0.  1.
<mgrwt>
<rscale>  0 0.14651380E+04</rscale>
<asrwt>0</asrwt>
<pdfrwt beam="1">  1        2 0.21021739E+00 0.14651380E+04</pdfrwt>
<pdfrwt beam="2">  1       -2 0.60422917E-01 0.14651380E+04</pdfrwt>
<totfact> 0.37390880E+01</totfact>
</mgrwt>
</event>
<event>
11    1  0.2406360E-008  0.2709331E+04  0.7818608E-02  0.8331984E-01
          2   -1    0    0  501    0  0.00000000000E+00  0.00000000000E+00  0.14769269732E+04  0.14769269732E+04  0.00000000000E+00 0. -1.
         -2   -1    0    0    0  501 -0.00000000000E+00 -0.00000000000E+00 -0.12425253710E+04  0.12425253710E+04  0.00000000000E+00 0.  1.
         23    2    1    2    0    0 -0.86164430463E+03  0.33111711056E+03  0.87609044789E+03  0.12755996396E+04  0.86893722081E+02 0.  0.
        254    2    1    2    0    0  0.86164430463E+03 -0.33111711056E+03 -0.64168884565E+03  0.14438527047E+04  0.90602241120E+03 0.  0.
        -24    2    4    4    0    0  0.29896325023E+03 -0.41146650410E+03 -0.68286394296E+03  0.85585811662E+03  0.86638572356E+02 0.  0.
         11    1    3    3    0    0 -0.85666014001E+03  0.31912637802E+03  0.86401321828E+03  0.12578660827E+04  0.00000000000E+00 0. -1.
        -11    1    3    3    0    0 -0.49841646239E+01  0.11990732544E+02  0.12077229609E+02  0.17733556862E+02  0.00000000000E+00 0.  1.
          2    1    4    4  502    0  0.17594317189E+03  0.73588191955E+01 -0.51875032412E+02  0.18357878675E+03  0.00000000000E+00 0. -1.
          3    1    5    5  503    0  0.18388120024E+03 -0.30980425087E+03 -0.51313970951E+03  0.62697953008E+03  0.00000000000E+00 0. -1.
         -4    1    5    5    0  503  0.11508204999E+03 -0.10166225324E+03 -0.16972423344E+03  0.22887858655E+03  0.00000000000E+00 0.  1.
         -1    1    4    4    0  502  0.38673788252E+03  0.72990574344E+02  0.93050129721E+02  0.40441580132E+03  0.00000000000E+00 0.  1.
<mgrwt>
<rscale>  0 0.27093315E+04</rscale>
<asrwt>0</asrwt>
<pdfrwt beam="1">  1        2 0.22721953E+00 0.27093315E+04</pdfrwt>
<pdfrwt beam="2">  1       -2 0.19115775E+00 0.27093315E+04</pdfrwt>
<totfact> 0.17461850E+00</totfact>
</mgrwt>
</event>
<event>
12    1  0.2406360E-008  0.2708033E+04  0.7818608E-02  0.8332403E-01
         -2   -1    0    0    0  501 -0.00000000000E+00  0.00000000000E+00  0.10224728520E+04  0.10224728520E+04  0.00000000000E+00 0.  1.
          2   -1    0    0  501    0  0.00000000000E+00 -0.00000000000E+00 -0.17930659648E+04  0.17930659648E+04  0.00000000000E+00 0. -1.
         23    2    1    2    0    0 -0.11389919938E+03  0.97237790832E+03 -0.10713238693E+04  0.14541315564E+04  0.90950129972E+02 0.  0.
        254    2    1    2    0    0  0.11389919938E+03 -0.97237790832E+03  0.30073075653E+03  0.13614072604E+04  0.89693863587E+03 0.  0.
        -24    2    4    4    0    0  0.41204453395E+02 -0.41625516188E+01 -0.23201476047E+03  0.24920081667E+03  0.80963350594E+02 0.  0.
         24    2    4    4    0    0  0.72694745990E+02 -0.96821535671E+03  0.53274551699E+03  0.11122064437E+04  0.10227357687E+03 0.  0.
         11    1    3    3    0    0 -0.14526277149E+02  0.80097155391E+02 -0.56028968162E+02  0.98822124562E+02  0.00000000000E+00 0.  1.
        -11    1    3    3    0    0 -0.99372922236E+02  0.89228075293E+03 -0.10152949011E+04  0.13553094318E+04  0.00000000000E+00 0. -1.
          2    1    6    6  502    0  0.67698900078E+02 -0.94620211262E+03  0.49969544153E+03  0.10721833394E+04  0.00000000000E+00 0. -1.
          1    1    5    5  503    0  0.55389470841E+02 -0.13398812709E+02 -0.22270926395E+03  0.22988461870E+03  0.00000000000E+00 0. -1.
         -2    1    5    5    0  503 -0.14185017446E+02  0.92362610899E+01 -0.93054965126E+01  0.19316197975E+02  0.00000000000E+00 0.  1.
         -1    1    6    6    0  502  0.49958459115E+01 -0.22013244089E+02  0.33050075467E+02  0.40023104328E+02  0.00000000000E+00 0.  1.
<mgrwt>
<rscale>  0 0.27080334E+04</rscale>
<asrwt>0</asrwt>
<pdfrwt beam="1">  1        2 0.27585630E+00 0.27080334E+04</pdfrwt>
<pdfrwt beam="2">  1       -2 0.15730352E+00 0.27080334E+04</pdfrwt>
<totfact> 0.20137217E+00</totfact>
</mgrwt>
</event>
<event>
12    1  0.2406360E-008  0.2312683E+04  0.7818608E-02  0.8472937E-01
          2   -1    0    0  501    0  0.00000000000E+00  0.00000000000E+00  0.23203567546E+04  0.23203567546E+04  0.00000000000E+00 0. -1.
         -2   -1    0    0    0  501 -0.00000000000E+00 -0.00000000000E+00 -0.57625844775E+03  0.57625844775E+03  0.00000000000E+00 0.  1.
         23    2    1    2    0    0 -0.62106128009E+03  0.11348430509E+02  0.17107262954E+04  0.18225833826E+04  0.96849512543E+02 0.  0.
        254    2    1    2    0    0  0.62106128009E+03 -0.11348430509E+02  0.33372011423E+02  0.10740318198E+04  0.87554826150E+03 0.  0.
        -24    2    4    4    0    0  0.97011987612E+02 -0.30803277732E+03 -0.23355449072E+03  0.40609028676E+03  0.77885192561E+02 0.  0.
         24    2    4    4    0    0  0.52404929248E+03  0.29668434681E+03  0.26692650214E+03  0.66794153301E+03  0.11066558352E+03 0.  0.
         11    1    3    3    0    0 -0.48752845195E+03  0.25765108767E+01  0.14456079706E+04  0.15256057927E+04  0.00000000000E+00 0. -1.
        -11    1    3    3    0    0 -0.13353282815E+03  0.87719196322E+01  0.26511832479E+03  0.29697758990E+03  0.00000000000E+00 0.  1.
          2    1    6    6  502    0  0.15038011263E+03  0.63823442773E+02  0.24099000540E+02  0.16513137784E+03  0.00000000000E+00 0. -1.
          1    1    5    5  503    0  0.10471396591E+03 -0.28128483080E+03 -0.22977881906E+03  0.37800063014E+03  0.00000000000E+00 0. -1.
         -2    1    5    5    0  503 -0.77019783008E+01 -0.26747946515E+02 -0.37756716634E+01  0.28089656620E+02  0.00000000000E+00 0.  1.
         -1    1    6    6    0  502  0.37366917986E+03  0.23286090403E+03  0.24282750160E+03  0.50281015517E+03  0.00000000000E+00 0.  1.
<mgrwt>
<rscale>  0 0.23126826E+04</rscale>
<asrwt>0</asrwt>
<pdfrwt beam="1">  1        2 0.35697796E+00 0.23126826E+04</pdfrwt>
<pdfrwt beam="2">  1       -2 0.88655147E-01 0.23126826E+04</pdfrwt>
<totfact> 0.43738608E+00</totfact>
</mgrwt>
</event>
<event>
11    1  0.2406360E-008  0.2083073E+04  0.7818608E-02  0.8568737E-01
         -2   -1    0    0    0  501 -0.00000000000E+00  0.00000000000E+00  0.36328404820E+03  0.36328404820E+03  0.00000000000E+00 0.  1.
          2   -1    0    0  501    0  0.00000000000E+00 -0.00000000000E+00 -0.29860871490E+04  0.29860871490E+04  0.00000000000E+00 0. -1.
         23    2    1    2    0    0 -0.19148916288E+03 -0.75063828993E+02 -0.24447182530E+04  0.24551144389E+04  0.92934889609E+02 0.  0.
        254    2    1    2    0    0  0.19148916288E+03  0.75063828993E+02 -0.17808484785E+03  0.89425675833E+03  0.85186751250E+03 0.  0.
        -24    2    4    4    0    0 -0.15832672523E+03  0.76007208711E+01 -0.33411848112E+03  0.37758496390E+03  0.76224160595E+02 0.  0.
         13    1    3    3    0    0 -0.11266631254E+03 -0.89060987889E+02 -0.17209711556E+04  0.17269531771E+04  0.00000000000E+00 0. -1.
        -13    1    3    3    0    0 -0.78822850340E+02  0.13997158896E+02 -0.72374709734E+03  0.72816126174E+03  0.00000000000E+00 0.  1.
          4    1    4    4  502    0  0.36075035569E+03 -0.37104836586E+02  0.18569300424E+03  0.40743033743E+03  0.00000000000E+00 0. -1.
          1    1    5    5  503    0 -0.13922054437E+03 -0.21461470958E+02 -0.27553257109E+03  0.30945298906E+03  0.00000000000E+00 0. -1.
         -2    1    5    5    0  503 -0.19106180864E+02  0.29062191829E+02 -0.58585910027E+02  0.68131974834E+02  0.00000000000E+00 0.  1.
         -3    1    4    4    0  502 -0.10934467578E+02  0.10456794471E+03 -0.29659370976E+02  0.10924145700E+03  0.00000000000E+00 0.  1.
<mgrwt>
<rscale>  0 0.20830726E+04</rscale>
<asrwt>0</asrwt>
<pdfrwt beam="1">  1        2 0.45939803E+00 0.20830726E+04</pdfrwt>
<pdfrwt beam="2">  1       -2 0.55889853E-01 0.20830726E+04</pdfrwt>
<totfact> 0.49379743E+00</totfact>
</mgrwt>
</event>
<event>
12    1  0.2406360E-008  0.2020250E+04  0.7818608E-02  0.8597211E-01
          2   -1    0    0  501    0  0.00000000000E+00  0.00000000000E+00  0.30869680867E+04  0.30869680867E+04  0.00000000000E+00 0. -1.
         -2   -1    0    0    0  501 -0.00000000000E+00 -0.00000000000E+00 -0.33053554655E+03  0.33053554655E+03  0.00000000000E+00 0.  1.
         23    2    1    2    0    0  0.49423678109E+03  0.52512125149E+03  0.17200360114E+04  0.18670624996E+04  0.85884645609E+02 0.  0.
        254    2    1    2    0    0 -0.49423678109E+03 -0.52512125149E+03  0.10363965288E+04  0.15504411337E+04  0.89984866483E+03 0.  0.
        -24    2    4    4    0    0 -0.66825571236E+03 -0.62369573554E+03  0.92579462888E+03  0.13033191849E+04  0.77350729517E+02 0.  0.
         24    2    4    4    0    0  0.17401893128E+03  0.98574484050E+02  0.11060189992E+03  0.24712194875E+03  0.94005105915E+02 0.  0.
         13    1    3    3    0    0  0.12268513261E+03  0.11847252731E+03  0.50436328417E+03  0.53241872986E+03  0.00000000000E+00 0.  1.
        -13    1    3    3    0    0  0.37155164848E+03  0.40664872418E+03  0.12156727272E+04  0.13346437697E+04  0.00000000000E+00 0. -1.
          2    1    6    6  502    0  0.12366737489E+03  0.81361850210E+02  0.30793684503E+02  0.15120059949E+03  0.00000000000E+00 0. -1.
          3    1    5    5  503    0 -0.37651543994E+03 -0.36261239033E+03  0.58201267879E+03  0.78229814036E+03  0.00000000000E+00 0. -1.
         -4    1    5    5    0  503 -0.29174027242E+03 -0.26108334521E+03  0.34378195008E+03  0.52102104459E+03  0.00000000000E+00 0.  1.
         -3    1    6    6    0  502  0.50351556387E+02  0.17212633839E+02  0.79808215421E+02  0.95921349255E+02  0.00000000000E+00 0.  1.
<mgrwt>
<rscale>  0 0.20202502E+04</rscale>
<asrwt>0</asrwt>
<pdfrwt beam="1">  1        2 0.47491815E+00 0.20202502E+04</pdfrwt>
<pdfrwt beam="2">  1       -2 0.50851625E-01 0.20202502E+04</pdfrwt>
<totfact> 0.52155290E+00</totfact>
</mgrwt>
</event>
<event>
11    1  0.2406360E-008  0.2439272E+04  0.7818608E-02  0.8424945E-01
          2   -1    0    0  501    0  0.00000000000E+00  0.00000000000E+00  0.29017315323E+04  0.29017315323E+04  0.00000000000E+00 0. -1.
         -2   -1    0    0    0  501 -0.00000000000E+00 -0.00000000000E+00 -0.51262896333E+03  0.51262896333E+03  0.00000000000E+00 0.  1.
         23    2    1    2    0    0  0.20936366678E+03 -0.10068401135E+04  0.82004325412E+03  0.13185502268E+04  0.92431612636E+02 0.  0.
        254    2    1    2    0    0 -0.20936366678E+03  0.10068401135E+04  0.15690593149E+04  0.20958102688E+04  0.93429834108E+03 0.  0.
        -24    2    4    4    0    0 -0.53155401066E+03  0.58737860221E+03  0.11814429039E+04  0.14246784741E+04  0.79612378478E+02 0.  0.
         11    1    3    3    0    0  0.19098015218E+03 -0.80547387015E+03  0.69442528922E+03  0.10805036124E+04  0.00000000000E+00 0.  1.
        -11    1    3    3    0    0  0.18383514595E+02 -0.20136624334E+03  0.12561796490E+03  0.23804661449E+03  0.00000000000E+00 0. -1.
          4    1    4    4  502    0  0.12060140393E+03  0.58877952631E+02  0.82144317957E+02  0.15734993139E+03  0.00000000000E+00 0. -1.
          3    1    5    5  503    0 -0.52286011119E+03  0.58702776697E+03  0.11575630850E+04  0.13992628741E+04  0.00000000000E+00 0. -1.
         -4    1    5    5    0  503 -0.86938994680E+01  0.35083524410E+00  0.23879818836E+02  0.25415599953E+02  0.00000000000E+00 0.  1.
         -3    1    4    4    0  502  0.20158893995E+03  0.36058355864E+03  0.30547209308E+03  0.51378186337E+03  0.00000000000E+00 0.  1.
<mgrwt>
<rscale>  0 0.24392717E+04</rscale>
<asrwt>0</asrwt>
<pdfrwt beam="1">  1        2 0.44642023E+00 0.24392717E+04</pdfrwt>
<pdfrwt beam="2">  1       -2 0.78865996E-01 0.24392717E+04</pdfrwt>
<totfact> 0.25645916E+00</totfact>
</mgrwt>
</event>
<event>
12    1  0.2406360E-008  0.1191905E+04  0.7818608E-02  0.9119972E-01
          2   -1    0    0  501    0  0.00000000000E+00  0.00000000000E+00  0.11365827248E+04  0.11365827248E+04  0.00000000000E+00 0. -1.
         -2   -1    0    0    0  501 -0.00000000000E+00 -0.00000000000E+00 -0.31248006315E+03  0.31248006315E+03  0.00000000000E+00 0.  1.
         23    2    1    2    0    0  0.19216261705E+03  0.14038978252E+02 -0.79590917591E+01  0.21317097497E+03  0.90856772593E+02 0.  0.
        254    2    1    2    0    0 -0.19216261705E+03 -0.14038978252E+02  0.83206175345E+03  0.12358918130E+04  0.89329628212E+03 0.  0.
        -24    2    4    4    0    0 -0.16433760546E+03  0.10316063399E+03 -0.13885846214E+03  0.25152067448E+03  0.79573941781E+02 0.  0.
         24    2    4    4    0    0 -0.27825011590E+02 -0.11719961224E+03  0.97092021559E+03  0.98437113855E+03  0.10858403650E+03 0.  0.
         11    1    3    3    0    0  0.89066817810E+01  0.13922712631E+02  0.21964105314E+02  0.27488048850E+02  0.00000000000E+00 0. -1.
        -11    1    3    3    0    0  0.18325593527E+03  0.11626562069E+00 -0.29923197073E+02  0.18568292612E+03  0.00000000000E+00 0.  1.
          4    1    6    6  502    0  0.24924869360E+02 -0.20830055715E+02  0.74892858104E+02  0.81633819761E+02  0.00000000000E+00 0. -1.
          3    1    5    5  503    0 -0.29710212307E+02  0.34688015451E+02  0.98489609938E+00  0.45682875911E+02  0.00000000000E+00 0. -1.
         -4    1    5    5    0  503 -0.13462739316E+03  0.68472618536E+02 -0.13984335824E+03  0.20583779857E+03  0.00000000000E+00 0.  1.
         -3    1    6    6    0  502 -0.52749880950E+02 -0.96369556524E+02  0.89602735749E+03  0.90273731879E+03  0.00000000000E+00 0.  1.
<mgrwt>
<rscale>  0 0.11919051E+04</rscale>
<asrwt>0</asrwt>
<pdfrwt beam="1">  1        2 0.17485888E+00 0.11919051E+04</pdfrwt>
<pdfrwt beam="2">  1       -2 0.48073856E-01 0.11919051E+04</pdfrwt>
<totfact> 0.83697436E+01</totfact>
</mgrwt>
</event>
<event>
12    1  0.2406360E-008  0.3417038E+04  0.7818608E-02  0.8133737E-01
         -1   -1    0    0    0  501 -0.00000000000E+00  0.00000000000E+00  0.13575439107E+04  0.13575439107E+04  0.00000000000E+00 0.  1.
          1   -1    0    0  501    0  0.00000000000E+00 -0.00000000000E+00 -0.21502343365E+04  0.21502343365E+04  0.00000000000E+00 0. -1.
         23    2    1    2    0    0 -0.34873384552E+03 -0.92612921116E+03 -0.16447161828E+04  0.19215821160E+04  0.89754641140E+02 0.  0.
        254    2    1    2    0    0  0.34873384552E+03  0.92612921116E+03  0.85202575698E+03  0.15861961312E+04  0.90041083137E+03 0.  0.
        -24    2    4    4    0    0  0.58996502749E+03  0.47895157924E+03  0.72592424797E+03  0.10538897047E+04  0.79146363985E+02 0.  0.
         24    2    4    4    0    0 -0.24123118197E+03  0.44717763192E+03  0.12610150901E+03  0.53230642650E+03  0.96375429827E+02 0.  0.
         11    1    3    3    0    0 -0.34768048296E+03 -0.86153952152E+03 -0.15343296175E+04  0.17936832051E+04  0.00000000000E+00 0. -1.
        -11    1    3    3    0    0 -0.10533625642E+01 -0.64589689631E+02 -0.11038656536E+03  0.12789891083E+03  0.00000000000E+00 0.  1.
          4    1    6    6  502    0 -0.27010571045E+01  0.56700181812E+02  0.31995198489E+02  0.65160563636E+02  0.00000000000E+00 0. -1.
          3    1    5    5  503    0  0.13601803333E+03  0.10702522825E+03  0.12169490280E+03  0.21157730087E+03  0.00000000000E+00 0. -1.
         -4    1    5    5    0  503  0.45394699416E+03  0.37192635099E+03  0.60422934517E+03  0.84231240382E+03  0.00000000000E+00 0.  1.
         -3    1    6    6    0  502 -0.23853012486E+03  0.39047745010E+03  0.94106310520E+02  0.46714586286E+03  0.00000000000E+00 0.  1.
<mgrwt>
<rscale>  0 0.34170382E+04</rscale>
<asrwt>0</asrwt>
<pdfrwt beam="1">  1        1 0.33080528E+00 0.34170382E+04</pdfrwt>
<pdfrwt beam="2">  1       -1 0.20885291E+00 0.34170382E+04</pdfrwt>
<totfact> 0.25329413E-01</totfact>
</mgrwt>
</event>
<event>
11    1  0.2406360E-008  0.2348741E+04  0.7818608E-02  0.8458947E-01
          2   -1    0    0  501    0  0.00000000000E+00  0.00000000000E+00  0.84142543053E+03  0.84142543053E+03  0.00000000000E+00 0. -1.
         -2   -1    0    0    0  501 -0.00000000000E+00 -0.00000000000E+00 -0.16390594640E+04  0.16390594640E+04  0.00000000000E+00 0.  1.
         23    2    1    2    0    0 -0.19134440165E+02 -0.45478762726E+03 -0.12755168754E+04  0.13600008315E+04  0.12434246848E+03 0.  0.
        254    2    1    2    0    0  0.19134440165E+02  0.45478762726E+03  0.47788284200E+03  0.11204840630E+04  0.90549136497E+03 0.  0.
        -24    2    4    4    0    0 -0.29763425568E+02  0.20228560655E+03 -0.23217983475E+03  0.31929428640E+03  0.78968585792E+02 0.  0.
         13    1    3    3    0    0 -0.16299226351E+02 -0.14590690264E+01 -0.25313387163E+02  0.30142349473E+02  0.00000000000E+00 0. -1.
        -13    1    3    3    0    0 -0.28352138142E+01 -0.45332855824E+03 -0.12502034883E+04  0.13298584820E+04  0.00000000000E+00 0.  1.
          4    1    4    4  502    0 -0.94405006912E+02  0.82334472853E+02  0.13287301917E+03  0.18261026799E+03  0.00000000000E+00 0. -1.
          1    1    5    5  503    0  0.14806131351E+02  0.15714487810E+02 -0.53759127234E+01  0.22250103153E+02  0.00000000000E+00 0. -1.
         -2    1    5    5    0  503 -0.44569556919E+02  0.18657111874E+03 -0.22680392203E+03  0.29704418325E+03  0.00000000000E+00 0.  1.
         -3    1    4    4    0  502  0.14330287265E+03  0.17016754786E+03  0.57718965757E+03  0.61857950860E+03  0.00000000000E+00 0.  1.
<mgrwt>
<rscale>  0 0.23487412E+04</rscale>
<asrwt>0</asrwt>
<pdfrwt beam="1">  1        2 0.12945007E+00 0.23487412E+04</pdfrwt>
<pdfrwt beam="2">  1       -2 0.25216299E+00 0.23487412E+04</pdfrwt>
<totfact> 0.18108090E+00</totfact>
</mgrwt>
</event>
<event>
12    1  0.2406360E-008  0.1704759E+04  0.7818608E-02  0.8758655E-01
         -2   -1    0    0    0  501 -0.00000000000E+00  0.00000000000E+00  0.56351950111E+03  0.56351950111E+03  0.00000000000E+00 0.  1.
          2   -1    0    0  501    0  0.00000000000E+00 -0.00000000000E+00 -0.12893097057E+04  0.12893097057E+04  0.00000000000E+00 0. -1.
         23    2    1    2    0    0  0.36749125298E+03 -0.48550241233E+03 -0.30994382701E+03  0.68912274239E+03  0.89791785729E+02 0.  0.
        254    2    1    2    0    0 -0.36749125298E+03  0.48550241233E+03 -0.41584637757E+03  0.11637064644E+04  0.90029001560E+03 0.  0.
        -24    2    4    4    0    0  0.27958379063E+03  0.48447143417E+02 -0.16108337059E+03  0.33590533640E+03  0.79814291027E+02 0.  0.
         24    2    4    4    0    0 -0.64707504361E+03  0.43705526891E+03 -0.25476300698E+03  0.82780112802E+03  0.10308781534E+03 0.  0.
         11    1    3    3    0    0  0.66759706860E+02 -0.86152298394E+02 -0.18792122568E+02  0.11059937093E+03  0.00000000000E+00 0.  1.
        -11    1    3    3    0    0  0.30073154612E+03 -0.39935011394E+03 -0.29115170444E+03  0.57852337147E+03  0.00000000000E+00 0. -1.
          2    1    6    6  502    0 -0.18289980201E+03  0.70115854669E+02 -0.59371616801E+02  0.20467916243E+03  0.00000000000E+00 0. -1.
          1    1    5    5  503    0  0.48268178343E+02  0.38058091005E+02 -0.49250212718E+02  0.78764324311E+02  0.00000000000E+00 0. -1.
         -2    1    5    5    0  503  0.23131561229E+03  0.10389052412E+02 -0.11183315788E+03  0.25714101209E+03  0.00000000000E+00 0.  1.
         -1    1    6    6    0  502 -0.46417524160E+03  0.36693941424E+03 -0.19539139017E+03  0.62312196559E+03  0.00000000000E+00 0.  1.
<mgrwt>
<rscale>  0 0.17047594E+04</rscale>
<asrwt>0</asrwt>
<pdfrwt beam="1">  1        2 0.19835534E+00 0.17047594E+04</pdfrwt>
<pdfrwt beam="2">  1       -2 0.86695307E-01 0.17047594E+04</pdfrwt>
<totfact> 0.18375468E+01</totfact>
</mgrwt>
</event>
<event>
12    1  0.2406360E-008  0.2241235E+04  0.7818608E-02  0.8501458E-01
          1   -1    0    0  501    0  0.00000000000E+00  0.00000000000E+00  0.11575392106E+04  0.11575392106E+04  0.00000000000E+00 0. -1.
         -1   -1    0    0    0  501 -0.00000000000E+00 -0.00000000000E+00 -0.10848737563E+04  0.10848737563E+04  0.00000000000E+00 0.  1.
         23    2    1    2    0    0 -0.58930439517E+03  0.38007824478E+03 -0.62037655830E+03  0.94029836652E+03  0.86918362048E+02 0.  0.
        254    2    1    2    0    0  0.58930439517E+03 -0.38007824478E+03  0.69304201256E+03  0.13021146003E+04  0.85056220169E+03 0.  0.
        -24    2    4    4    0    0  0.49048410691E+03 -0.26898713205E+03  0.87966119232E+03  0.10452986730E+04  0.76920518150E+02 0.  0.
         24    2    4    4    0    0  0.98820288264E+02 -0.11109111273E+03 -0.18661917976E+03  0.25681592737E+03  0.94979037687E+02 0.  0.
         13    1    3    3    0    0 -0.34198685894E+02  0.45656837636E+02 -0.34491565892E+02  0.66661571070E+02  0.00000000000E+00 0. -1.
        -13    1    3    3    0    0 -0.55510570928E+03  0.33442140714E+03 -0.58588499241E+03  0.87363679545E+03  0.00000000000E+00 0.  1.
          4    1    6    6  502    0  0.31016169327E+02 -0.76397570633E+02 -0.40110230105E+02  0.91691995929E+02  0.00000000000E+00 0. -1.
          1    1    5    5  503    0  0.76748522545E+02 -0.47941979559E+02  0.95646537895E+02  0.13167015352E+03  0.00000000000E+00 0. -1.
         -2    1    5    5    0  503  0.41373558437E+03 -0.22104515249E+03  0.78401465442E+03  0.91362851945E+03  0.00000000000E+00 0.  1.
         -3    1    6    6    0  502  0.67804118937E+02 -0.34693542098E+02 -0.14650894965E+03  0.16512393145E+03  0.00000000000E+00 0.  1.
<mgrwt>
<rscale>  0 0.22412353E+04</rscale>
<asrwt>0</asrwt>
<pdfrwt beam="1">  1        1 0.17808295E+00 0.22412353E+04</pdfrwt>
<pdfrwt beam="2">  1       -1 0.16690366E+00 0.22412353E+04</pdfrwt>
<totfact> 0.27061406E+00</totfact>
</mgrwt>
</event>
<event>
11    1  0.2406360E-008  0.1841615E+04  0.7818608E-02  0.8684477E-01
          2   -1    0    0  501    0  0.00000000000E+00  0.00000000000E+00  0.19766061243E+04  0.19766061243E+04  0.00000000000E+00 0.  1.
         -2   -1    0    0    0  501 -0.00000000000E+00 -0.00000000000E+00 -0.42896091380E+03  0.42896091380E+03  0.00000000000E+00 0. -1.
         23    2    1    2    0    0 -0.13478385050E+03  0.34304773412E+03  0.13583420412E+04  0.14104068885E+04  0.91137566066E+02 0.  0.
        254    2    1    2    0    0  0.13478385050E+03 -0.34304773412E+03  0.18930316922E+03  0.99516014953E+03  0.90479809853E+03 0.  0.
        -24    2    4    4    0    0  0.36359165736E+03  0.15762304877E+03  0.47469851096E+02  0.40733646886E+03  0.81398361738E+02 0.  0.
         11    1    3    3    0    0 -0.43988231049E+02  0.45795150957E+02  0.33268553445E+03  0.33869134201E+03  0.00000000000E+00 0. -1.
        -11    1    3    3    0    0 -0.90795619446E+02  0.29725258316E+03  0.10256565068E+04  0.10717155465E+04  0.00000000000E+00 0.  1.
          4    1    4    4  502    0 -0.81512403605E+02 -0.34704615921E+03  0.10668242991E+03  0.37211080261E+03  0.00000000000E+00 0. -1.
          1    1    5    5  503    0  0.16676708976E+03  0.11221761830E+03  0.58119732407E+01  0.20109160876E+03  0.00000000000E+00 0. -1.
         -2    1    5    5    0  503  0.19682456760E+03  0.45405430478E+02  0.41657877855E+02  0.20624486010E+03  0.00000000000E+00 0.  1.
         -3    1    4    4    0  502 -0.14729540326E+03 -0.15362462368E+03  0.35150888218E+02  0.21571287807E+03  0.00000000000E+00 0.  1.
<mgrwt>
<rscale>  0 0.18416153E+04</rscale>
<asrwt>0</asrwt>
<pdfrwt beam="1">  1        2 0.30409324E+00 0.18416153E+04</pdfrwt>
<pdfrwt beam="2">  1       -2 0.65993988E-01 0.18416153E+04</pdfrwt>
<totfact> 0.13686096E+01</totfact>
</mgrwt>
</event>
<event>
11    1  0.2406360E-008  0.3085159E+04  0.7818608E-02  0.8219823E-01
          1   -1    0    0  501    0  0.00000000000E+00  0.00000000000E+00  0.22767813270E+04  0.22767813270E+04  0.00000000000E+00 0. -1.
         -1   -1    0    0    0  501 -0.00000000000E+00 -0.00000000000E+00 -0.10451384854E+04  0.10451384854E+04  0.00000000000E+00 0.  1.
         23    2    1    2    0    0 -0.66672261706E+03  0.93573677889E+03  0.14366107766E+04  0.18418842928E+04  0.92546513426E+02 0.  0.
        254    2    1    2    0    0  0.66672261706E+03 -0.93573677889E+03 -0.20496793500E+03  0.14800355195E+04  0.91014884346E+03 0.  0.
        -24    2    4    4    0    0  0.61510750773E+03 -0.60383727884E+03  0.23469014883E+03  0.89696725006E+03  0.80585832101E+02 0.  0.
         13    1    3    3    0    0 -0.58045441997E+03  0.82829690380E+03  0.13076227255E+04  0.16531425488E+04  0.00000000000E+00 0. -1.
        -13    1    3    3    0    0 -0.86268197086E+02  0.10743987509E+03  0.12898805107E+03  0.18874174394E+03  0.00000000000E+00 0.  1.
          4    1    4    4  502    0  0.61096681705E+02 -0.20757989853E+03 -0.39545331424E+03  0.45078325450E+03  0.00000000000E+00 0. -1.
          1    1    5    5  503    0  0.26562586143E+03 -0.21369727254E+03  0.11389050293E+03  0.35943659970E+03  0.00000000000E+00 0. -1.
         -2    1    5    5    0  503  0.34948164630E+03 -0.39014000631E+03  0.12079964590E+03  0.53753065036E+03  0.00000000000E+00 0.  1.
         -3    1    4    4    0  502 -0.94815723740E+01 -0.12431960151E+03 -0.44204769587E+02  0.13228501498E+03  0.00000000000E+00 0.  1.
<mgrwt>
<rscale>  0 0.30851592E+04</rscale>
<asrwt>0</asrwt>
<pdfrwt beam="1">  1        1 0.35027405E+00 0.30851592E+04</pdfrwt>
<pdfrwt beam="2">  1       -1 0.16079054E+00 0.30851592E+04</pdfrwt>
<totfact> 0.47007447E-01</totfact>
</mgrwt>
</event>
<event>
12    1  0.2406360E-008  0.1194612E+04  0.7818608E-02  0.9117586E-01
         -2   -1    0    0    0  501 -0.00000000000E+00  0.00000000000E+00  0.21347228045E+03  0.21347228045E+03  0.00000000000E+00 0.  1.
          2   -1    0    0  501    0  0.00000000000E+00 -0.00000000000E+00 -0.16712905859E+04  0.16712905859E+04  0.00000000000E+00 0. -1.
         23    2    1    2    0    0  0.14414059810E+03  0.13068167306E+03 -0.58068745964E+03  0.62026202208E+03  0.98350589984E+02 0.  0.
        254    2    1    2    0    0 -0.14414059810E+03 -0.13068167306E+03 -0.87713084577E+03  0.12645008442E+04  0.88980315396E+03 0.  0.
        -24    2    4    4    0    0 -0.41104048812E+03 -0.22389393402E+03 -0.18390505371E+03  0.50927032779E+03  0.80326965730E+02 0.  0.
         24    2    4    4    0    0  0.26689989001E+03  0.93212260960E+02 -0.69322579206E+03  0.75523051645E+03  0.99433683025E+02 0.  0.
         11    1    3    3    0    0  0.11346432003E+03  0.80272359329E+02 -0.50782295331E+03  0.52649972032E+03  0.00000000000E+00 0. -1.
        -11    1    3    3    0    0  0.30676278073E+02  0.50409313733E+02 -0.72864506339E+02  0.93762301760E+02  0.00000000000E+00 0.  1.
          4    1    6    6  502    0  0.24107929172E+02  0.35319189817E+02 -0.53192976772E+02  0.68250495941E+02  0.00000000000E+00 0. -1.
          3    1    5    5  503    0 -0.16720034540E+03 -0.13438347714E+03 -0.96406673972E+02  0.23517891321E+03  0.00000000000E+00 0. -1.
         -4    1    5    5    0  503 -0.24384014272E+03 -0.89510456880E+02 -0.87498379735E+02  0.27409141458E+03  0.00000000000E+00 0.  1.
         -1    1    6    6    0  502  0.24279196084E+03  0.57893071143E+02 -0.64003281529E+03  0.68698002051E+03  0.00000000000E+00 0.  1.
<mgrwt>
<rscale>  0 0.11946116E+04</rscale>
<asrwt>0</asrwt>
<pdfrwt beam="1">  1        2 0.25712163E+00 0.11946116E+04</pdfrwt>
<pdfrwt beam="2">  1       -2 0.32841889E-01 0.11946116E+04</pdfrwt>
<totfact> 0.86840433E+01</totfact>
</mgrwt>
</event>
<event>
11    1  0.2406360E-008  0.3368306E+04  0.7818608E-02  0.8145729E-01
         -2   -1    0    0    0  501 -0.00000000000E+00  0.00000000000E+00  0.10137064833E+04  0.10137064833E+04  0.00000000000E+00 0.  1.
          2   -1    0    0  501    0  0.00000000000E+00 -0.00000000000E+00 -0.27980196270E+04  0.27980196270E+04  0.00000000000E+00 0. -1.
         23    2    1    2    0    0  0.10340707941E+04  0.34014987106E+03  0.43957947534E+03  0.11773430555E+04  0.88894393523E+02 0.  0.
        254    2    1    2    0    0 -0.10340707941E+04 -0.34014987106E+03 -0.22238926190E+04  0.26343830549E+04  0.89959510728E+03 0.  0.
        -24    2    4    4    0    0  0.84814219534E+02 -0.15385336473E+03 -0.35724894320E+03  0.40615211127E+03  0.80426490594E+02 0.  0.
         13    1    3    3    0    0  0.30334877157E+03  0.10687454523E+03  0.87303820117E+02  0.33326356332E+03  0.00000000000E+00 0. -1.
        -13    1    3    3    0    0  0.73072202250E+03  0.23327532583E+03  0.35227565522E+03  0.84407949215E+03  0.00000000000E+00 0.  1.
          4    1    4    4  502    0 -0.26389764590E+03 -0.87520324868E+02 -0.17031566485E+03  0.32605091699E+03  0.00000000000E+00 0. -1.
          3    1    5    5  503    0 -0.89646002745E+01 -0.84743200805E+01 -0.68035012789E+02  0.69144349907E+02  0.00000000000E+00 0. -1.
         -4    1    5    5    0  503  0.93778819809E+02 -0.14537904465E+03 -0.28921393042E+03  0.33700776136E+03  0.00000000000E+00 0.  1.
         -3    1    4    4    0  502 -0.85498736770E+03 -0.98776181458E+02 -0.16963280110E+04  0.19021800267E+04  0.00000000000E+00 0.  1.
<mgrwt>
<rscale>  0 0.33683056E+04</rscale>
<asrwt>0</asrwt>
<pdfrwt beam="1">  1        2 0.43046455E+00 0.33683056E+04</pdfrwt>
<pdfrwt beam="2">  1       -2 0.15595485E+00 0.33683056E+04</pdfrwt>
<totfact> 0.51979932E-01</totfact>
</mgrwt>
</event>
<event>
11    1  0.2406360E-008  0.1674153E+04  0.7818608E-02  0.8776245E-01
          2   -1    0    0  501    0  0.00000000000E+00  0.00000000000E+00  0.57980665339E+03  0.57980665339E+03  0.00000000000E+00 0. -1.
         -2   -1    0    0    0  501 -0.00000000000E+00 -0.00000000000E+00 -0.12085009013E+04  0.12085009013E+04  0.00000000000E+00 0.  1.
         23    2    1    2    0    0 -0.20349701066E+03 -0.23005137913E+03  0.30210103710E+03  0.44100772481E+03  0.94276753959E+02 0.  0.
        254    2    1    2    0    0  0.20349701066E+03  0.23005137913E+03 -0.93079528498E+03  0.13472998298E+04  0.92439293515E+03 0.  0.
        -24    2    4    4    0    0 -0.30573197534E+03 -0.94596549195E+02 -0.24739233544E+03  0.41220565797E+03  0.79309450636E+02 0.  0.
         13    1    3    3    0    0 -0.12591150792E+03 -0.11906507158E+03  0.22882181613E+03  0.28703592568E+03  0.00000000000E+00 0. -1.
        -13    1    3    3    0    0 -0.77585502745E+02 -0.11098630755E+03  0.73279220972E+02  0.15397179913E+03  0.00000000000E+00 0.  1.
          2    1    4    4  502    0  0.85446133969E+02  0.11975357238E+03 -0.27511928355E+03  0.31198169833E+03  0.00000000000E+00 0. -1.
          1    1    5    5  503    0 -0.22185112962E+03 -0.37009828731E+02 -0.19542163660E+03  0.29795514291E+03  0.00000000000E+00 0. -1.
         -2    1    5    5    0  503 -0.83880845715E+02 -0.57586720463E+02 -0.51970698846E+02  0.11425051505E+03  0.00000000000E+00 0.  1.
         -1    1    4    4    0  502  0.42378285203E+03  0.20489435595E+03 -0.40828366598E+03  0.62311247354E+03  0.00000000000E+00 0.  1.
<mgrwt>
<rscale>  0 0.16741528E+04</rscale>
<asrwt>0</asrwt>
<pdfrwt beam="1">  1        2 0.89201024E-01 0.16741528E+04</pdfrwt>
<pdfrwt beam="2">  1       -2 0.18592321E+00 0.16741528E+04</pdfrwt>
<totfact> 0.81312738E+00</totfact>
</mgrwt>
</event>
<event>
12    1  0.2406360E-008  0.2274749E+04  0.7818608E-02  0.8487944E-01
         -2   -1    0    0    0  501 -0.00000000000E+00  0.00000000000E+00  0.16871572446E+04  0.16871572446E+04  0.00000000000E+00 0.  1.
          2   -1    0    0  501    0  0.00000000000E+00 -0.00000000000E+00 -0.76674564844E+03  0.76674564844E+03  0.00000000000E+00 0. -1.
         23    2    1    2    0    0  0.75360893043E+03  0.33358354289E+02  0.92755646987E+03  0.11987789062E+04  0.87582311923E+02 0.  0.
        254    2    1    2    0    0 -0.75360893043E+03 -0.33358354289E+02 -0.71448737391E+01  0.12551239868E+04  0.10031181253E+04 0.  0.
        -24    2    4    4    0    0 -0.69057034928E+03  0.24617081247E+03 -0.33165029365E+03  0.80866942369E+03  0.80416685519E+02 0.  0.
         24    2    4    4    0    0 -0.63038581153E+02 -0.27952916676E+03  0.32450541991E+03  0.44645456312E+03  0.10912145341E+03 0.  0.
         13    1    3    3    0    0  0.42297930024E+03  0.61323777866E+02  0.50841384699E+03  0.66419630681E+03  0.00000000000E+00 0.  1.
        -13    1    3    3    0    0  0.33062963019E+03 -0.27965423577E+02  0.41914262288E+03  0.53458259941E+03  0.00000000000E+00 0. -1.
          2    1    6    6  502    0 -0.16434489843E+02 -0.19810849975E+03  0.15256622089E+03  0.25058635614E+03  0.00000000000E+00 0. -1.
          1    1    5    5  503    0 -0.32590315996E+03  0.98445884358E+02 -0.11398830640E+03  0.35902339174E+03  0.00000000000E+00 0. -1.
         -4    1    5    5    0  503 -0.36466718931E+03  0.14772492811E+03 -0.21766198726E+03  0.44964603194E+03  0.00000000000E+00 0.  1.
         -1    1    6    6    0  502 -0.46604091310E+02 -0.81420667015E+02  0.17193919902E+03  0.19586820698E+03  0.00000000000E+00 0.  1.
<mgrwt>
<rscale>  0 0.22747488E+04</rscale>
<asrwt>0</asrwt>
<pdfrwt beam="1">  1        2 0.11796087E+00 0.22747488E+04</pdfrwt>
<pdfrwt beam="2">  1       -2 0.25956265E+00 0.22747488E+04</pdfrwt>
<totfact> 0.18579888E+00</totfact>
</mgrwt>
</event>
<event>
12    1  0.2406360E-008  0.1586976E+04  0.7818608E-02  0.8828589E-01
          1   -1    0    0  501    0  0.00000000000E+00  0.00000000000E+00  0.11395873736E+04  0.11395873736E+04  0.00000000000E+00 0. -1.
         -1   -1    0    0    0  501 -0.00000000000E+00 -0.00000000000E+00 -0.55250104683E+03  0.55250104683E+03  0.00000000000E+00 0.  1.
         23    2    1    2    0    0 -0.26258484872E+03 -0.37291672042E+03  0.51658400436E+03  0.69500832164E+03  0.90331890476E+02 0.  0.
        254    2    1    2    0    0  0.26258484872E+03  0.37291672042E+03  0.70502322372E+02  0.99708009876E+03  0.88384413940E+03 0.  0.
        -24    2    4    4    0    0  0.99231880986E+02  0.46375398956E+02 -0.38553297460E+03  0.40883123341E+03  0.80682458287E+02 0.  0.
         24    2    4    4    0    0  0.16335296773E+03  0.32654132146E+03  0.45603529697E+03  0.58824886536E+03  0.68957297103E+02 0.  0.
         11    1    3    3    0    0 -0.20401555324E+03 -0.33656836344E+03  0.46316148181E+03  0.60779862410E+03  0.00000000000E+00 0. -1.
        -11    1    3    3    0    0 -0.58569295475E+02 -0.36348356979E+02  0.53422522556E+02  0.87209697532E+02  0.00000000000E+00 0.  1.
          2    1    6    6  502    0  0.14435392059E+03  0.26495163320E+03  0.40994642539E+03  0.50901227296E+03  0.00000000000E+00 0. -1.
          3    1    5    5  503    0  0.73426875739E+02  0.12867373696E+02 -0.33374044102E+03  0.34196455570E+03  0.00000000000E+00 0. -1.
         -4    1    5    5    0  503  0.25805005247E+02  0.33508025260E+02 -0.51792533580E+02  0.66866677704E+02  0.00000000000E+00 0.  1.
         -1    1    6    6    0  502  0.18999047136E+02  0.61589688262E+02  0.46088871575E+02  0.79236592402E+02  0.00000000000E+00 0.  1.
<mgrwt>
<rscale>  0 0.15869760E+04</rscale>
<asrwt>0</asrwt>
<pdfrwt beam="1">  1        1 0.17532113E+00 0.15869760E+04</pdfrwt>
<pdfrwt beam="2">  1       -1 0.85000161E-01 0.15869760E+04</pdfrwt>
<totfact> 0.15574809E+01</totfact>
</mgrwt>
</event>
<event>
11    1  0.2406360E-008  0.1107176E+04  0.7818608E-02  0.9198226E-01
          2   -1    0    0  501    0  0.00000000000E+00  0.00000000000E+00  0.13954259438E+04  0.13954259438E+04  0.00000000000E+00 0. -1.
         -2   -1    0    0    0  501 -0.00000000000E+00 -0.00000000000E+00 -0.21961725993E+03  0.21961725993E+03  0.00000000000E+00 0.  1.
         23    2    1    2    0    0 -0.80099133175E+02 -0.10774967481E+03  0.65872347277E+02  0.17833282190E+03  0.97147134155E+02 0.  0.
        254    2    1    2    0    0  0.80099133175E+02  0.10774967481E+03  0.11099363366E+04  0.14367103818E+04  0.90230382155E+03 0.  0.
        -24    2    4    4    0    0 -0.77621816990E+02 -0.35524624556E+03  0.68176400633E+03  0.77680288874E+03  0.79972033643E+02 0.  0.
         11    1    3    3    0    0 -0.74126939261E+02 -0.94854413226E+02  0.90016547085E+02  0.15031680406E+03  0.00000000000E+00 0. -1.
        -11    1    3    3    0    0 -0.59721939139E+01 -0.12895261586E+02 -0.24144199809E+02  0.28016017846E+02  0.00000000000E+00 0.  1.
          4    1    4    4  502    0  0.21300554817E+02  0.21825049237E+01  0.15144513525E+02  0.26226575323E+02  0.00000000000E+00 0. -1.
          1    1    5    5  503    0  0.93800365702E+01 -0.51321190109E+02  0.14192680250E+03  0.15121199327E+03  0.00000000000E+00 0. -1.
         -2    1    5    5    0  503 -0.87001853560E+02 -0.30392505546E+03  0.53983720383E+03  0.62559089547E+03  0.00000000000E+00 0.  1.
         -3    1    4    4    0  502  0.13642039535E+03  0.46081341545E+03  0.41302781672E+03  0.63368091774E+03  0.00000000000E+00 0.  1.
<mgrwt>
<rscale>  0 0.11071759E+04</rscale>
<asrwt>0</asrwt>
<pdfrwt beam="1">  1        2 0.21468091E+00 0.11071759E+04</pdfrwt>
<pdfrwt beam="2">  1       -2 0.33787272E-01 0.11071759E+04</pdfrwt>
<totfact> 0.11829081E+02</totfact>
</mgrwt>
</event>
<event>
11    1  0.2406360E-008  0.1481625E+04  0.7818608E-02  0.8896765E-01
          2   -1    0    0  501    0  0.00000000000E+00  0.00000000000E+00  0.74133259340E+03  0.74133259340E+03  0.00000000000E+00 0. -1.
         -2   -1    0    0    0  501 -0.00000000000E+00 -0.00000000000E+00 -0.74029302753E+03  0.74029302753E+03  0.00000000000E+00 0.  1.
         23    2    1    2    0    0 -0.53129655058E+01  0.34636315686E+03 -0.25863609254E+03  0.44141828323E+03  0.89228966005E+02 0.  0.
        254    2    1    2    0    0  0.53129655058E+01 -0.34636315686E+03  0.25967565841E+03  0.10402073377E+04  0.94583518321E+03 0.  0.
        -24    2    4    4    0    0 -0.33585180362E+02  0.27018475315E+03 -0.10384849182E+03  0.30226176862E+03  0.80311284035E+02 0.  0.
         13    1    3    3    0    0  0.23610353691E+02  0.30406437413E+03 -0.20648251369E+03  0.36830370739E+03  0.00000000000E+00 0.  1.
        -13    1    3    3    0    0 -0.28923319197E+02  0.42298782730E+02 -0.52153578851E+02  0.73114575843E+02  0.00000000000E+00 0. -1.
          4    1    4    4  502    0 -0.49213817676E+02 -0.45921729331E+03  0.25857292545E+03  0.52930376921E+03  0.00000000000E+00 0. -1.
          1    1    5    5  503    0 -0.52241845322E+02  0.16335137229E+03 -0.38925372022E+02  0.17586377063E+03  0.00000000000E+00 0. -1.
         -2    1    5    5    0  503  0.18656664960E+02  0.10683338086E+03 -0.64923119798E+02  0.12639799800E+03  0.00000000000E+00 0.  1.
         -3    1    4    4    0  502  0.88111963544E+02 -0.15733061670E+03  0.10495122478E+03  0.20864179987E+03  0.00000000000E+00 0.  1.
<mgrwt>
<rscale>  0 0.14816253E+04</rscale>
<asrwt>0</asrwt>
<pdfrwt beam="1">  1        2 0.11405117E+00 0.14816253E+04</pdfrwt>
<pdfrwt beam="2">  1       -2 0.11389124E+00 0.14816253E+04</pdfrwt>
<totfact> 0.22238524E+01</totfact>
</mgrwt>
</event>
<event>
11    1  0.2406360E-008  0.1142059E+04  0.7818608E-02  0.9165141E-01
         -1   -1    0    0    0  501 -0.00000000000E+00  0.00000000000E+00  0.53286973184E+03  0.53286973184E+03  0.00000000000E+00 0.  1.
          1   -1    0    0  501    0  0.00000000000E+00 -0.00000000000E+00 -0.61192149037E+03  0.61192149037E+03  0.00000000000E+00 0. -1.
         23    2    1    2    0    0 -0.62910627923E+02 -0.94614892959E+02 -0.16164847476E+03  0.21787070432E+03  0.91802447302E+02 0.  0.
        254    2    1    2    0    0  0.62910627923E+02  0.94614892959E+02  0.82596716233E+02  0.92692051789E+03  0.91621487866E+03 0.  0.
        -24    2    4    4    0    0  0.38700957309E+03 -0.17894579099E+03 -0.10973706671E+03  0.44729823271E+03  0.78965051717E+02 0.  0.
         13    1    3    3    0    0 -0.39565430379E+02  0.78673496790E+01 -0.54168689269E+02  0.67539361628E+02  0.00000000000E+00 0.  1.
        -13    1    3    3    0    0 -0.23345197544E+02 -0.10248224264E+03 -0.10747978550E+03  0.15033134269E+03  0.00000000000E+00 0. -1.
          4    1    4    4  502    0 -0.13904933342E+03  0.86604951929E+02  0.13040086823E+03  0.20937889401E+03  0.00000000000E+00 0. -1.
          3    1    5    5  503    0  0.16855130328E+02  0.33004868891E+01  0.69498612634E+01  0.18528065297E+02  0.00000000000E+00 0. -1.
         -4    1    5    5    0  503  0.37015444277E+03 -0.18224627788E+03 -0.11668692797E+03  0.42877016741E+03  0.00000000000E+00 0.  1.
         -3    1    4    4    0  502 -0.18504961175E+03  0.18695573202E+03  0.61932914711E+02  0.27024339117E+03  0.00000000000E+00 0.  1.
<mgrwt>
<rscale>  0 0.11420586E+04</rscale>
<asrwt>0</asrwt>
<pdfrwt beam="1">  1        1 0.94141768E-01 0.11420586E+04</pdfrwt>
<pdfrwt beam="2">  1       -1 0.81979958E-01 0.11420586E+04</pdfrwt>
<totfact> 0.48988431E+01</totfact>
</mgrwt>
</event>
<event>
12    1  0.2406360E-008  0.1136091E+04  0.7818608E-02  0.9170712E-01
          2   -1    0    0  501    0  0.00000000000E+00  0.00000000000E+00  0.66898428802E+03  0.66898428802E+03  0.00000000000E+00 0. -1.
         -2   -1    0    0    0  501 -0.00000000000E+00 -0.00000000000E+00 -0.48233651470E+03  0.48233651470E+03  0.00000000000E+00 0.  1.
         23    2    1    2    0    0  0.57040188515E+02  0.17428498015E+03 -0.34786909205E+02  0.20661110187E+03  0.88595603462E+02 0.  0.
        254    2    1    2    0    0 -0.57040188515E+02 -0.17428498015E+03  0.22143468253E+03  0.94470970086E+03  0.89989680678E+03 0.  0.
        -24    2    4    4    0    0 -0.39905430888E+02  0.20742784571E+03  0.44344237305E+03  0.49796687720E+03  0.81921413472E+02 0.  0.
         24    2    4    4    0    0 -0.17134757627E+02 -0.38171282585E+03 -0.22200769052E+03  0.44674282365E+03  0.65524457257E+02 0.  0.
         13    1    3    3    0    0 -0.18357226974E+02  0.41169587017E+02  0.11972059812E+02  0.46639606489E+02  0.00000000000E+00 0. -1.
        -13    1    3    3    0    0  0.75397415489E+02  0.13311539313E+03 -0.46758969017E+02  0.15997149538E+03  0.00000000000E+00 0.  1.
          4    1    6    6  502    0 -0.31870658218E+02 -0.35827290375E+03 -0.20145636985E+03  0.41226190871E+03  0.00000000000E+00 0. -1.
          1    1    5    5  503    0 -0.34664222413E+02  0.18631349795E+03  0.31436531606E+03  0.36706931195E+03  0.00000000000E+00 0. -1.
         -2    1    5    5    0  503 -0.52412084750E+01  0.21114347754E+02  0.12907705699E+03  0.13089756525E+03  0.00000000000E+00 0.  1.
         -3    1    6    6    0  502  0.14735900591E+02 -0.23439922097E+02 -0.20551320675E+02  0.34480914947E+02  0.00000000000E+00 0.  1.
<mgrwt>
<rscale>  0 0.11360908E+04</rscale>
<asrwt>0</asrwt>
<pdfrwt beam="1">  1        2 0.10292066E+00 0.11360908E+04</pdfrwt>
<pdfrwt beam="2">  1       -2 0.74205617E-01 0.11360908E+04</pdfrwt>
<totfact> 0.70306667E+01</totfact>
</mgrwt>
</event>
<event>
12    1  0.2406360E-008  0.2390844E+04  0.7818608E-02  0.8442939E-01
         -1   -1    0    0    0  501 -0.00000000000E+00  0.00000000000E+00  0.87692510291E+03  0.87692510291E+03  0.00000000000E+00 0.  1.
          1   -1    0    0  501    0  0.00000000000E+00 -0.00000000000E+00 -0.16295964576E+04  0.16295964576E+04  0.00000000000E+00 0. -1.
         23    2    1    2    0    0  0.54899240686E+03 -0.32258026511E+03 -0.11633256344E+04  0.13293678803E+04  0.91878937748E+02 0.  0.
        254    2    1    2    0    0 -0.54899240686E+03  0.32258026511E+03  0.41065427968E+03  0.11771536803E+04  0.90089020383E+03 0.  0.
        -24    2    4    4    0    0  0.21493195205E+03  0.23037092760E+03  0.15911793437E+03  0.36180123139E+03  0.79467639359E+02 0.  0.
         24    2    4    4    0    0 -0.76392435891E+03  0.92209337515E+02  0.25153634531E+03  0.81535244888E+03  0.97191022388E+02 0.  0.
         11    1    3    3    0    0  0.25340735206E+03 -0.13403334610E+03 -0.61507585702E+03  0.67860042281E+03  0.00000000000E+00 0. -1.
        -11    1    3    3    0    0  0.29558505480E+03 -0.18854691901E+03 -0.54824977736E+03  0.65076745744E+03  0.00000000000E+00 0.  1.
          4    1    6    6  502    0 -0.32353978885E+03  0.36725221886E+02  0.56312273250E+02  0.33045091770E+03  0.00000000000E+00 0. -1.
          1    1    5    5  503    0  0.25589299142E+02  0.77393890498E+02  0.39815469012E+02  0.90718785760E+02  0.00000000000E+00 0. -1.
         -2    1    5    5    0  503  0.18934265291E+03  0.15297703710E+03  0.11930246536E+03  0.27108244563E+03  0.00000000000E+00 0.  1.
         -3    1    6    6    0  502 -0.44038457006E+03  0.55484115628E+02  0.19522407205E+03  0.48490153118E+03  0.00000000000E+00 0.  1.
<mgrwt>
<rscale>  0 0.23908442E+04</rscale>
<asrwt>0</asrwt>
<pdfrwt beam="1">  1        1 0.25070715E+00 0.23908442E+04</pdfrwt>
<pdfrwt beam="2">  1       -1 0.13491155E+00 0.23908442E+04</pdfrwt>
<totfact> 0.22035429E+00</totfact>
</mgrwt>
</event>
<event>
12    1  0.2406360E-008  0.1466099E+04  0.7818608E-02  0.8907315E-01
         -1   -1    0    0    0  501 -0.00000000000E+00  0.00000000000E+00  0.35602267869E+03  0.35602267869E+03  0.00000000000E+00 0.  1.
          1   -1    0    0  501    0  0.00000000000E+00 -0.00000000000E+00 -0.15093460717E+04  0.15093460717E+04  0.00000000000E+00 0. -1.
         23    2    1    2    0    0  0.18304755784E+03 -0.30268508950E+03 -0.34402210728E+01  0.36532343004E+03  0.91239802632E+02 0.  0.
        254    2    1    2    0    0 -0.18304755784E+03  0.30268508950E+03 -0.11498831719E+04  0.15000453203E+04  0.89597990052E+03 0.  0.
        -24    2    4    4    0    0  0.30274331670E+03  0.13143179356E+02 -0.71443730330E+03  0.78027915597E+03  0.81170449867E+02 0.  0.
         24    2    4    4    0    0 -0.48579087454E+03  0.28954191014E+03 -0.43544586860E+03  0.71976616434E+03  0.92859761634E+02 0.  0.
         13    1    3    3    0    0  0.12304676572E+03 -0.25991732715E+03  0.19279323803E+02  0.28821730662E+03  0.00000000000E+00 0.  1.
        -13    1    3    3    0    0  0.60000792112E+02 -0.42767762345E+02 -0.22719544876E+02  0.77106123424E+02  0.00000000000E+00 0. -1.
          4    1    6    6  502    0 -0.17476235527E+03  0.80527509913E+02 -0.10015066853E+03  0.21692560264E+03  0.00000000000E+00 0. -1.
          1    1    5    5  503    0  0.24796358038E+02 -0.22271618687E+02 -0.84607901461E+02  0.90936138914E+02  0.00000000000E+00 0. -1.
         -2    1    5    5    0  503  0.27794695866E+03  0.35414798043E+02 -0.62982940184E+03  0.68934301706E+03  0.00000000000E+00 0.  1.
         -3    1    6    6    0  502 -0.31102851927E+03  0.20901440023E+03 -0.33529520007E+03  0.50284056170E+03  0.00000000000E+00 0.  1.
<mgrwt>
<rscale>  0 0.14660988E+04</rscale>
<asrwt>0</asrwt>
<pdfrwt beam="1">  1        1 0.23220709E+00 0.14660988E+04</pdfrwt>
<pdfrwt beam="2">  1       -1 0.54772719E-01 0.14660988E+04</pdfrwt>
<totfact> 0.21053645E+01</totfact>
</mgrwt>
</event>
<event>
11    1  0.2406360E-008  0.2265256E+04  0.7818608E-02  0.8491747E-01
         -1   -1    0    0    0  501 -0.00000000000E+00  0.00000000000E+00  0.81373288973E+03  0.81373288973E+03  0.00000000000E+00 0.  1.
          1   -1    0    0  501    0  0.00000000000E+00 -0.00000000000E+00 -0.15764958230E+04  0.15764958230E+04  0.00000000000E+00 0. -1.
         23    2    1    2    0    0  0.41309346149E+03 -0.60797105125E+03 -0.95864730978E+03  0.12117363160E+04  0.95001199726E+02 0.  0.
        254    2    1    2    0    0 -0.41309346149E+03  0.60797105125E+03  0.19588437652E+03  0.11784923967E+04  0.90011034491E+03 0.  0.
        -24    2    4    4    0    0 -0.64795475351E+03  0.26758254623E+03  0.39247532948E+00  0.70558711154E+03  0.80045214076E+02 0.  0.
         13    1    3    3    0    0  0.10300618468E+03 -0.12112880977E+03 -0.26828588382E+03  0.31186499979E+03  0.00000000000E+00 0. -1.
        -13    1    3    3    0    0  0.31008727681E+03 -0.48684224148E+03 -0.69036142596E+03  0.89987131624E+03  0.00000000000E+00 0.  1.
          2    1    4    4  502    0  0.12910734038E+03  0.28118355060E+03  0.14090294155E+03  0.33998019561E+03  0.00000000000E+00 0. -1.
          1    1    5    5  503    0 -0.35140908893E+03  0.10792607925E+03 -0.20213633280E+02  0.36816433468E+03  0.00000000000E+00 0. -1.
         -2    1    5    5    0  503 -0.29654566458E+03  0.15965646698E+03  0.20606108610E+02  0.33742277686E+03  0.00000000000E+00 0.  1.
         -1    1    4    4    0  502  0.10575395164E+03  0.59204954421E+02  0.54588959637E+02  0.13292508954E+03  0.00000000000E+00 0.  1.
<mgrwt>
<rscale>  0 0.22652563E+04</rscale>
<asrwt>0</asrwt>
<pdfrwt beam="1">  1        1 0.24253782E+00 0.22652563E+04</pdfrwt>
<pdfrwt beam="2">  1       -1 0.12518968E+00 0.22652563E+04</pdfrwt>
<totfact> 0.29273659E+00</totfact>
</mgrwt>
</event>
<event>
11    1  0.2406360E-008  0.2156605E+04  0.7818608E-02  0.8536710E-01
         -1   -1    0    0    0  501 -0.00000000000E+00  0.00000000000E+00  0.75772293798E+03  0.75772293798E+03  0.00000000000E+00 0.  1.
          1   -1    0    0  501    0  0.00000000000E+00 -0.00000000000E+00 -0.15345136151E+04  0.15345136151E+04  0.00000000000E+00 0. -1.
         23    2    1    2    0    0  0.20745028967E+03  0.44106840595E+03  0.46617107568E+03  0.68083615694E+03  0.92980854932E+02 0.  0.
        254    2    1    2    0    0 -0.20745028967E+03 -0.44106840595E+03 -0.12429617528E+04  0.16114003961E+04  0.90226401697E+03 0.  0.
        -24    2    4    4    0    0 -0.10995715313E+03 -0.29821413487E+03  0.21765427131E+02  0.32842328483E+03  0.79786430149E+02 0.  0.
         13    1    3    3    0    0  0.14854850289E+03  0.38594392956E+03  0.41140760040E+03  0.58333145649E+03  0.00000000000E+00 0.  1.
        -13    1    3    3    0    0  0.58901786783E+02  0.55124476391E+02  0.54763475289E+02  0.97504700447E+02  0.00000000000E+00 0. -1.
          2    1    4    4  502    0 -0.98900765210E+02 -0.67228248172E+02 -0.48239627139E+03  0.49699815026E+03  0.00000000000E+00 0. -1.
          3    1    5    5  503    0 -0.61010593207E+02 -0.12103184834E+03 -0.27095631055E+02  0.13822146728E+03  0.00000000000E+00 0. -1.
         -4    1    5    5    0  503 -0.48946559927E+02 -0.17718228654E+03  0.48861058186E+02  0.19020181755E+03  0.00000000000E+00 0.  1.
         -1    1    4    4    0  502  0.14076286762E+01 -0.75626022904E+02 -0.78233090849E+03  0.78597896100E+03  0.00000000000E+00 0.  1.
<mgrwt>
<rscale>  0 0.21566049E+04</rscale>
<asrwt>0</asrwt>
<pdfrwt beam="1">  1        1 0.23607902E+00 0.21566049E+04</pdfrwt>
<pdfrwt beam="2">  1       -1 0.11657276E+00 0.21566049E+04</pdfrwt>
<totfact> 0.37639784E+00</totfact>
</mgrwt>
</event>
<event>
12    1  0.2406360E-008  0.2040405E+04  0.7818608E-02  0.8587959E-01
          2   -1    0    0  501    0  0.00000000000E+00  0.00000000000E+00  0.22076680140E+04  0.22076680140E+04  0.00000000000E+00 0. -1.
         -2   -1    0    0    0  501 -0.00000000000E+00 -0.00000000000E+00 -0.47145377962E+03  0.47145377962E+03  0.00000000000E+00 0.  1.
         23    2    1    2    0    0  0.74146596013E+02  0.77448451124E+02 -0.35933324998E+03  0.38608435772E+03  0.91895410397E+02 0.  0.
        254    2    1    2    0    0 -0.74146596013E+02 -0.77448451124E+02  0.20955474844E+04  0.22930374359E+04  0.92477318464E+03 0.  0.
        -24    2    4    4    0    0 -0.13354031150E+03  0.36133808093E+03  0.14551141049E+04  0.15073668855E+04  0.79997786506E+02 0.  0.
         24    2    4    4    0    0  0.59393715483E+02 -0.43878653205E+03  0.64043337950E+03  0.78567055041E+03  0.10517635688E+03 0.  0.
         13    1    3    3    0    0 -0.12994114085E+02 -0.24942391407E+01 -0.81847212786E+01  0.15558209799E+02  0.00000000000E+00 0. -1.
        -13    1    3    3    0    0  0.87140710097E+02  0.79942690265E+02 -0.35114852870E+03  0.37052614792E+03  0.00000000000E+00 0.  1.
          4    1    6    6  502    0 -0.29052667361E+02 -0.78379789452E+02  0.13112966183E+03  0.15550703228E+03  0.00000000000E+00 0. -1.
          3    1    5    5  503    0 -0.37762038250E+02  0.63905943007E+02  0.40510300656E+03  0.41184752883E+03  0.00000000000E+00 0. -1.
         -4    1    5    5    0  503 -0.95778273246E+02  0.29743213792E+03  0.10500110983E+04  0.10955193567E+04  0.00000000000E+00 0.  1.
         -3    1    6    6    0  502  0.88446382844E+02 -0.36040674260E+03  0.50930371767E+03  0.63016351813E+03  0.00000000000E+00 0.  1.
<mgrwt>
<rscale>  0 0.20404053E+04</rscale>
<asrwt>0</asrwt>
<pdfrwt beam="1">  1        2 0.33964123E+00 0.20404053E+04</pdfrwt>
<pdfrwt beam="2">  1       -2 0.72531352E-01 0.20404053E+04</pdfrwt>
<totfact> 0.81408791E+00</totfact>
</mgrwt>
</event>
<event>
12    1  0.2406360E-008  0.1260078E+04  0.7818608E-02  0.9061837E-01
          1   -1    0    0  501    0  0.00000000000E+00  0.00000000000E+00  0.11801114796E+04  0.11801114796E+04  0.00000000000E+00 0. -1.
         -1   -1    0    0    0  501 -0.00000000000E+00 -0.00000000000E+00 -0.33636581754E+03  0.33636581754E+03  0.00000000000E+00 0.  1.
         23    2    1    2    0    0 -0.73154025246E+02 -0.23292754703E+03  0.41084894880E+03  0.48653671709E+03  0.91183138667E+02 0.  0.
        254    2    1    2    0    0  0.73154025246E+02  0.23292754703E+03  0.43289671328E+03  0.10299405801E+04  0.90209272279E+03 0.  0.
        -24    2    4    4    0    0 -0.39778481928E+02 -0.25055710959E+03  0.45223128090E+03  0.52473845100E+03  0.80474329692E+02 0.  0.
         24    2    4    4    0    0  0.11293250717E+03  0.48348465662E+03 -0.19334567615E+02  0.50520212906E+03  0.91346600044E+02 0.  0.
         11    1    3    3    0    0 -0.72065406485E+02 -0.23372102538E+03  0.41525512938E+03  0.48192920952E+03  0.00000000000E+00 0. -1.
        -11    1    3    3    0    0 -0.10886187613E+01  0.79347835043E+00 -0.44061805808E+01  0.46075075704E+01  0.00000000000E+00 0.  1.
          2    1    6    6  502    0  0.13855080164E+02  0.25796575382E+03 -0.16474802010E+02  0.25886234274E+03  0.00000000000E+00 0. -1.
          1    1    5    5  503    0  0.10169427521E+02 -0.13539309681E+03  0.18484270523E+03  0.22935024220E+03  0.00000000000E+00 0. -1.
         -2    1    5    5    0  503 -0.49947909449E+02 -0.11516401278E+03  0.26738857566E+03  0.29538820879E+03  0.00000000000E+00 0.  1.
         -3    1    6    6    0  502  0.99077427011E+02  0.22551890281E+03 -0.28597656041E+01  0.24633978632E+03  0.00000000000E+00 0.  1.
<mgrwt>
<rscale>  0 0.12600780E+04</rscale>
<asrwt>0</asrwt>
<pdfrwt beam="1">  1        1 0.18155561E+00 0.12600780E+04</pdfrwt>
<pdfrwt beam="2">  1       -1 0.51748588E-01 0.12600780E+04</pdfrwt>
<totfact> 0.40920263E+01</totfact>
</mgrwt>
</event>
<event>
11    1  0.2406360E-008  0.1623555E+04  0.7818608E-02  0.8806206E-01
          1   -1    0    0  501    0  0.00000000000E+00  0.00000000000E+00  0.96442142450E+03  0.96442142450E+03  0.00000000000E+00 0. -1.
         -1   -1    0    0    0  501 -0.00000000000E+00 -0.00000000000E+00 -0.68329357343E+03  0.68329357343E+03  0.00000000000E+00 0.  1.
         23    2    1    2    0    0  0.23902417696E+03  0.21122231777E+03 -0.35816549744E+03  0.48826951127E+03  0.91526866956E+02 0.  0.
        254    2    1    2    0    0 -0.23902417696E+03 -0.21122231777E+03  0.63929334851E+03  0.11594454867E+04  0.91316505977E+03 0.  0.
        -24    2    4    4    0    0 -0.41367135019E+03 -0.24784524777E+02  0.72811635257E+03  0.84156495430E+03  0.79623431232E+02 0.  0.
         13    1    3    3    0    0  0.93907583809E+02  0.13946674698E+03 -0.20801166262E+03  0.26746674484E+03  0.00000000000E+00 0.  1.
        -13    1    3    3    0    0  0.14511659316E+03  0.71755570793E+02 -0.15015383482E+03  0.22080276643E+03  0.00000000000E+00 0. -1.
          2    1    4    4  502    0  0.28438636340E+02 -0.14883484360E+02 -0.86714827849E+02  0.92464779848E+02  0.00000000000E+00 0. -1.
          3    1    5    5  503    0 -0.25538990004E+03 -0.23676855436E+02  0.52271611987E+03  0.58225143752E+03  0.00000000000E+00 0. -1.
         -4    1    5    5    0  503 -0.15828145016E+03 -0.11076693410E+01  0.20540023270E+03  0.25931351679E+03  0.00000000000E+00 0.  1.
         -1    1    4    4    0  502  0.14620853689E+03 -0.17155430864E+03 -0.21081762022E+01  0.22541575251E+03  0.00000000000E+00 0.  1.
<mgrwt>
<rscale>  0 0.16235553E+04</rscale>
<asrwt>0</asrwt>
<pdfrwt beam="1">  1        1 0.14837253E+00 0.16235553E+04</pdfrwt>
<pdfrwt beam="2">  1       -1 0.10512209E+00 0.16235553E+04</pdfrwt>
<totfact> 0.13128049E+01</totfact>
</mgrwt>
</event>
<event>
11    1  0.2406360E-008  0.1657083E+04  0.7818608E-02  0.8786227E-01
         -2   -1    0    0    0  501 -0.00000000000E+00  0.00000000000E+00  0.41256750296E+03  0.41256750296E+03  0.00000000000E+00 0.  1.
          2   -1    0    0  501    0  0.00000000000E+00 -0.00000000000E+00 -0.16639250803E+04  0.16639250803E+04  0.00000000000E+00 0. -1.
         23    2    1    2    0    0 -0.13480731930E+03  0.13987335506E+03  0.24143813497E+03  0.32313183052E+03  0.91565485204E+02 0.  0.
        254    2    1    2    0    0  0.13480731930E+03 -0.13987335506E+03 -0.14927957123E+04  0.17533607528E+04  0.89894233506E+03 0.  0.
        -24    2    4    4    0    0 -0.27454217862E+03  0.88954532446E+02 -0.79821136543E+03  0.85252151200E+03  0.79782377920E+02 0.  0.
         13    1    3    3    0    0 -0.11100603308E+02  0.26635472164E+02  0.98931278221E+02  0.10305372182E+03  0.00000000000E+00 0.  1.
        -13    1    3    3    0    0 -0.12370671600E+03  0.11323788289E+03  0.14250685675E+03  0.22007810870E+03  0.00000000000E+00 0. -1.
          2    1    4    4  502    0  0.30256744827E+02 -0.26364489254E+02 -0.34366287361E+03  0.34599816126E+03  0.00000000000E+00 0. -1.
          3    1    5    5  503    0 -0.16802212636E+02  0.19405079519E+02 -0.31326129515E+02  0.40499356180E+02  0.00000000000E+00 0. -1.
         -4    1    5    5    0  503 -0.25773996598E+03  0.69549452927E+02 -0.76688523592E+03  0.81202215582E+03  0.00000000000E+00 0.  1.
         -1    1    4    4    0  502  0.37909275310E+03 -0.20246339825E+03 -0.35092147329E+03  0.55484107950E+03  0.00000000000E+00 0.  1.
<mgrwt>
<rscale>  0 0.16570835E+04</rscale>
<asrwt>0</asrwt>
<pdfrwt beam="1">  1        2 0.25598847E+00 0.16570835E+04</pdfrwt>
<pdfrwt beam="2">  1       -2 0.63471924E-01 0.16570835E+04</pdfrwt>
<totfact> 0.22528425E+01</totfact>
</mgrwt>
</event>
<event>
11    1  0.2406360E-008  0.1228085E+04  0.7818608E-02  0.9088623E-01
         -2   -1    0    0    0  501 -0.00000000000E+00  0.00000000000E+00  0.25511637048E+03  0.25511637048E+03  0.00000000000E+00 0.  1.
          2   -1    0    0  501    0  0.00000000000E+00 -0.00000000000E+00 -0.14779456228E+04  0.14779456228E+04  0.00000000000E+00 0. -1.
         23    2    1    2    0    0  0.19482482003E+02  0.21452195617E+03 -0.53967456910E+03  0.58807267232E+03  0.90452145438E+02 0.  0.
        254    2    1    2    0    0 -0.19482482003E+02 -0.21452195617E+03 -0.68315468322E+03  0.11449893210E+04  0.89325303645E+03 0.  0.
        -24    2    4    4    0    0 -0.58995923655E+02 -0.47255512494E+03 -0.68122310739E+03  0.83499105097E+03  0.79726206709E+02 0.  0.
         13    1    3    3    0    0  0.15633877990E+02  0.11159881188E+03 -0.16726878280E+03  0.20168678353E+03  0.00000000000E+00 0. -1.
        -13    1    3    3    0    0  0.38486040128E+01  0.10292314430E+03 -0.37240578630E+03  0.38638588879E+03  0.00000000000E+00 0.  1.
          4    1    4    4  502    0  0.14897924493E+02 -0.13411040062E+02 -0.29912426118E+02  0.36007740640E+02  0.00000000000E+00 0. -1.
          1    1    5    5  503    0 -0.42168394574E+02 -0.27257907175E+03 -0.32627224310E+03  0.42723658606E+03  0.00000000000E+00 0. -1.
         -2    1    5    5    0  503 -0.16827529081E+02 -0.19997605319E+03 -0.35495086429E+03  0.40775446490E+03  0.00000000000E+00 0.  1.
         -3    1    4    4    0  502  0.24615517159E+02  0.27144420883E+03  0.27980850286E+02  0.27399052935E+03  0.00000000000E+00 0.  1.
<mgrwt>
<rscale>  0 0.12280849E+04</rscale>
<asrwt>0</asrwt>
<pdfrwt beam="1">  1        2 0.22737625E+00 0.12280849E+04</pdfrwt>
<pdfrwt beam="2">  1       -2 0.39248673E-01 0.12280849E+04</pdfrwt>
<totfact> 0.78935626E+01</totfact>
</mgrwt>
</event>
<event>
11    1  0.2406360E-008  0.3355074E+04  0.7818608E-02  0.8149022E-01
          2   -1    0    0  501    0  0.00000000000E+00  0.00000000000E+00  0.10251330825E+04  0.10251330825E+04  0.00000000000E+00 0. -1.
         -2   -1    0    0    0  501 -0.00000000000E+00 -0.00000000000E+00 -0.27451362712E+04  0.27451362712E+04  0.00000000000E+00 0.  1.
         23    2    1    2    0    0 -0.61325189856E+03  0.98618698418E+03 -0.19621045866E+04  0.22818726670E+04  0.91901036240E+02 0.  0.
        254    2    1    2    0    0  0.61325189856E+03 -0.98618698418E+03  0.24210139800E+03  0.14883966868E+04  0.89892655506E+03 0.  0.
        -24    2    4    4    0    0  0.30807648783E+03 -0.50907432398E+01  0.13733303567E+03  0.34674103908E+03  0.80199423149E+02 0.  0.
         11    1    3    3    0    0 -0.26209728204E+03  0.44134981957E+03 -0.78078372198E+03  0.93440241277E+03  0.00000000000E+00 0. -1.
        -11    1    3    3    0    0 -0.35115461652E+03  0.54483716461E+03 -0.11813208647E+04  0.13474702542E+04  0.00000000000E+00 0.  1.
          4    1    4    4  502    0  0.27465276659E+03 -0.10333159412E+04  0.12806940779E+03  0.10768369188E+04  0.00000000000E+00 0. -1.
          3    1    5    5  503    0  0.11783344085E+03  0.37068426343E+02  0.53381774999E+02  0.13456746233E+03  0.00000000000E+00 0. -1.
         -4    1    5    5    0  503  0.19024304697E+03 -0.42159169583E+02  0.83951260672E+02  0.21217357675E+03  0.00000000000E+00 0.  1.
         -3    1    4    4    0  502  0.30522644149E+02  0.52219700220E+02 -0.23301045462E+02  0.64818728902E+02  0.00000000000E+00 0.  1.
<mgrwt>
<rscale>  0 0.33550738E+04</rscale>
<asrwt>0</asrwt>
<pdfrwt beam="1">  1        2 0.15771278E+00 0.33550738E+04</pdfrwt>
<pdfrwt beam="2">  1       -2 0.42232867E+00 0.33550738E+04</pdfrwt>
<totfact> 0.10668809E-01</totfact>
</mgrwt>
</event>
<event>
11    1  0.2406360E-008  0.2371667E+04  0.7818608E-02  0.8450188E-01
          1   -1    0    0  501    0  0.00000000000E+00  0.00000000000E+00  0.26425062794E+04  0.26425062794E+04  0.00000000000E+00 0. -1.
         -1   -1    0    0    0  501 -0.00000000000E+00 -0.00000000000E+00 -0.53214674610E+03  0.53214674610E+03  0.00000000000E+00 0.  1.
         23    2    1    2    0    0  0.97055283162E+03  0.21008691047E+03  0.12699807512E+04  0.16147008389E+04  0.91095454176E+02 0.  0.
        254    2    1    2    0    0 -0.97055283162E+03 -0.21008691047E+03  0.84037878203E+03  0.15599521866E+04  0.86087456586E+03 0.  0.
        -24    2    4    4    0    0 -0.63924937670E+03 -0.49351824265E+03  0.47350147052E+03  0.93938432734E+03  0.77712614378E+02 0.  0.
         11    1    3    3    0    0  0.91406373324E+03  0.19845515890E+03  0.12265387089E+04  0.15424960820E+04  0.00000000000E+00 0. -1.
        -11    1    3    3    0    0  0.56489098380E+02  0.11631751576E+02  0.43442042321E+02  0.72204756918E+02  0.00000000000E+00 0.  1.
          4    1    4    4  502    0 -0.27821515362E+03  0.98314954980E+02  0.28842114516E+03  0.41262120529E+03  0.00000000000E+00 0. -1.
          1    1    5    5  503    0 -0.40411019361E+03 -0.35332013481E+03  0.29407726651E+03  0.61206339943E+03  0.00000000000E+00 0. -1.
         -2    1    5    5    0  503 -0.23513918309E+03 -0.14019810784E+03  0.17942420401E+03  0.32732092791E+03  0.00000000000E+00 0.  1.
         -3    1    4    4    0  502 -0.53088301300E+02  0.18511637720E+03  0.78456166358E+02  0.20794665393E+03  0.00000000000E+00 0.  1.
<mgrwt>
<rscale>  0 0.23716670E+04</rscale>
<asrwt>0</asrwt>
<pdfrwt beam="1">  1        1 0.40653942E+00 0.23716670E+04</pdfrwt>
<pdfrwt beam="2">  1       -1 0.81868732E-01 0.23716670E+04</pdfrwt>
<totfact> 0.14366686E+00</totfact>
</mgrwt>
</event>
<event>
12    1  0.2406360E-008  0.1860499E+04  0.7818608E-02  0.8674772E-01
          1   -1    0    0  501    0  0.00000000000E+00  0.00000000000E+00  0.94659310228E+03  0.94659310228E+03  0.00000000000E+00 0. -1.
         -1   -1    0    0    0  501 -0.00000000000E+00 -0.00000000000E+00 -0.91418825377E+03  0.91418825377E+03  0.00000000000E+00 0.  1.
         23    2    1    2    0    0 -0.29028663095E+02  0.34664857757E+03 -0.50322737053E+03  0.61825393361E+03  0.89399330924E+02 0.  0.
        254    2    1    2    0    0  0.29028663095E+02 -0.34664857757E+03  0.53563221904E+03  0.12425274224E+04  0.10658164109E+04 0.  0.
        -24    2    4    4    0    0 -0.12020480165E+03 -0.45334944178E+03 -0.17428136377E+03  0.50673556492E+03  0.80199927042E+02 0.  0.
         24    2    4    4    0    0  0.14923346474E+03  0.10670086421E+03  0.70991358281E+03  0.73579185752E+03  0.61291607169E+02 0.  0.
         13    1    3    3    0    0  0.21742985531E+02  0.29177840342E+02 -0.36770902569E+02  0.51732031302E+02  0.00000000000E+00 0. -1.
        -13    1    3    3    0    0 -0.50771648627E+02  0.31747073722E+03 -0.46645646796E+03  0.56652190231E+03  0.00000000000E+00 0.  1.
          4    1    6    6  502    0  0.12978428907E+03  0.11183162015E+03  0.59676723301E+03  0.62087148698E+03  0.00000000000E+00 0. -1.
          3    1    5    5  503    0 -0.71730316434E+02 -0.35240465945E+03 -0.16081286587E+03  0.39394804242E+03  0.00000000000E+00 0. -1.
         -4    1    5    5    0  503 -0.48474485212E+02 -0.10094478233E+03 -0.13468497901E+02  0.11278752250E+03  0.00000000000E+00 0.  1.
         -3    1    6    6    0  502  0.19449175667E+02 -0.51307559355E+01  0.11314634980E+03  0.11492037053E+03  0.00000000000E+00 0.  1.
<mgrwt>
<rscale>  0 0.18604992E+04</rscale>
<asrwt>0</asrwt>
<pdfrwt beam="1">  1        1 0.14562971E+00 0.18604992E+04</pdfrwt>
<pdfrwt beam="2">  1       -1 0.14064435E+00 0.18604992E+04</pdfrwt>
<totfact> 0.64853703E+00</totfact>
</mgrwt>
</event>
<event>
12    1  0.2406360E-008  0.1448552E+04  0.7818608E-02  0.8919405E-01
          2   -1    0    0  501    0  0.00000000000E+00  0.00000000000E+00  0.16200242421E+04  0.16200242421E+04  0.00000000000E+00 0. -1.
         -2   -1    0    0    0  501 -0.00000000000E+00 -0.00000000000E+00 -0.32380735628E+03  0.32380735628E+03  0.00000000000E+00 0.  1.
         23    2    1    2    0    0 -0.38915456186E+03  0.47043656920E+01  0.13003715285E+03  0.42055783702E+03  0.92172821833E+02 0.  0.
        254    2    1    2    0    0  0.38915456186E+03 -0.47043656920E+01  0.11661797330E+04  0.15232737614E+04  0.89940223391E+03 0.  0.
        -24    2    4    4    0    0 -0.11214266977E+03  0.12319393415E+03  0.92779832426E+03  0.94583359792E+03  0.77709334488E+02 0.  0.
         24    2    4    4    0    0  0.50129723163E+03 -0.12789829984E+03  0.23838140871E+03  0.57744016343E+03  0.94628519915E+02 0.  0.
         11    1    3    3    0    0 -0.18013008217E+03  0.20726713756E+02  0.16289228406E+02  0.18204884545E+03  0.00000000000E+00 0. -1.
        -11    1    3    3    0    0 -0.20902447969E+03 -0.16022348064E+02  0.11374792444E+03  0.23850899158E+03  0.00000000000E+00 0.  1.
          4    1    6    6  502    0  0.28116479762E+03 -0.60294635700E+02  0.18215441381E+03  0.34039582398E+03  0.00000000000E+00 0. -1.
          1    1    5    5  503    0 -0.10013942420E+03  0.77299660347E+02  0.51459764874E+03  0.52991875024E+03  0.00000000000E+00 0. -1.
         -2    1    5    5    0  503 -0.12003245572E+02  0.45894273801E+02  0.41320067552E+03  0.41591484769E+03  0.00000000000E+00 0.  1.
         -3    1    6    6    0  502  0.22013243401E+03 -0.67603664141E+02  0.56226994903E+02  0.23704433945E+03  0.00000000000E+00 0.  1.
<mgrwt>
<rscale>  0 0.14485521E+04</rscale>
<asrwt>0</asrwt>
<pdfrwt beam="1">  1        2 0.24923449E+00 0.14485521E+04</pdfrwt>
<pdfrwt beam="2">  1       -2 0.49816517E-01 0.14485521E+04</pdfrwt>
<totfact> 0.40181652E+01</totfact>
</mgrwt>
</event>
<event>
12    1  0.2406360E-008  0.1478239E+04  0.7818608E-02  0.8899054E-01
         -2   -1    0    0    0  501 -0.00000000000E+00  0.00000000000E+00  0.30725580448E+03  0.30725580448E+03  0.00000000000E+00 0.  1.
          2   -1    0    0  501    0  0.00000000000E+00 -0.00000000000E+00 -0.17779887739E+04  0.17779887739E+04  0.00000000000E+00 0. -1.
         23    2    1    2    0    0  0.14258674874E+02 -0.30225554144E+02 -0.11139211491E+04  0.11180455348E+04  0.89936630671E+02 0.  0.
        254    2    1    2    0    0 -0.14258674874E+02  0.30225554144E+02 -0.35681182027E+03  0.96719904352E+03  0.89835539781E+03 0.  0.
        -24    2    4    4    0    0  0.32643470714E+03  0.29051943017E+03 -0.89499335961E+02  0.45385606815E+03  0.83749878344E+02 0.  0.
         24    2    4    4    0    0 -0.34069338201E+03 -0.26029387603E+03 -0.26731248431E+03  0.51334297538E+03  0.90775347179E+02 0.  0.
         13    1    3    3    0    0 -0.11756362623E+02 -0.52464941378E+02 -0.44280163458E+03  0.44605388657E+03  0.00000000000E+00 0. -1.
        -13    1    3    3    0    0  0.26015037496E+02  0.22239387234E+02 -0.67111951454E+03  0.67199164825E+03  0.00000000000E+00 0.  1.
          2    1    6    6  502    0 -0.21196606575E+03 -0.21465433476E+03 -0.18464502121E+03  0.35369461449E+03  0.00000000000E+00 0. -1.
          3    1    5    5  503    0  0.33106125499E+03  0.28053295263E+03 -0.87501924324E+02  0.44267016935E+03  0.00000000000E+00 0. -1.
         -4    1    5    5    0  503 -0.46265478527E+01  0.99864775398E+01 -0.19974116377E+01  0.11185898799E+02  0.00000000000E+00 0.  1.
         -1    1    6    6    0  502 -0.12872731626E+03 -0.45639541272E+02 -0.82667463095E+02  0.15964836089E+03  0.00000000000E+00 0.  1.
<mgrwt>
<rscale>  0 0.14782386E+04</rscale>
<asrwt>0</asrwt>
<pdfrwt beam="1">  1        2 0.27353673E+00 0.14782386E+04</pdfrwt>
<pdfrwt beam="2">  1       -2 0.47270124E-01 0.14782386E+04</pdfrwt>
<totfact> 0.36429673E+01</totfact>
</mgrwt>
</event>
<event>
12    1  0.2406360E-008  0.3686002E+04  0.7818608E-02  0.8071071E-01
          2   -1    0    0  501    0  0.00000000000E+00  0.00000000000E+00  0.33638010898E+04  0.33638010898E+04  0.00000000000E+00 0. -1.
         -2   -1    0    0    0  501 -0.00000000000E+00 -0.00000000000E+00 -0.10097661166E+04  0.10097661166E+04  0.00000000000E+00 0.  1.
         23    2    1    2    0    0  0.14017973458E+04 -0.70929855677E+03  0.19511024007E+04  0.25066025391E+04  0.90085902740E+02 0.  0.
        254    2    1    2    0    0 -0.14017973458E+04  0.70929855677E+03  0.40293257255E+03  0.18669646673E+04  0.92469571740E+03 0.  0.
        -24    2    4    4    0    0 -0.33145677090E+03  0.21878545840E+03  0.54362194912E+03  0.67771430324E+03  0.77725063357E+02 0.  0.
         24    2    4    4    0    0 -0.10703405749E+04  0.49051309836E+03 -0.14068937657E+03  0.11892503641E+04  0.91054279968E+02 0.  0.
         13    1    3    3    0    0  0.13566360145E+04 -0.67180463479E+03  0.18945081045E+04  0.24250657107E+04  0.00000000000E+00 0. -1.
        -13    1    3    3    0    0  0.45161331223E+02 -0.37493921974E+02  0.56594296167E+02  0.81536828375E+02  0.00000000000E+00 0.  1.
          4    1    6    6  502    0 -0.88262127230E+03  0.36903427407E+03 -0.12930907817E+03  0.96536389173E+03  0.00000000000E+00 0. -1.
          3    1    5    5  503    0 -0.28387120472E+03  0.17712475884E+03  0.40494814040E+03  0.52529899816E+03  0.00000000000E+00 0. -1.
         -4    1    5    5    0  503 -0.47585566181E+02  0.41660699565E+02  0.13867380872E+03  0.15241530508E+03  0.00000000000E+00 0.  1.
         -3    1    6    6    0  502 -0.18771930255E+03  0.12147882430E+03 -0.11380298404E+02  0.22388647234E+03  0.00000000000E+00 0.  1.
<mgrwt>
<rscale>  0 0.36860018E+04</rscale>
<asrwt>0</asrwt>
<pdfrwt beam="1">  1        2 0.51750785E+00 0.36860018E+04</pdfrwt>
<pdfrwt beam="2">  1       -2 0.15534864E+00 0.36860018E+04</pdfrwt>
<totfact> 0.22252675E-01</totfact>
</mgrwt>
</event>
<event>
12    1  0.2406360E-008  0.1989912E+04  0.7818608E-02  0.8611352E-01
         -2   -1    0    0    0  501 -0.00000000000E+00  0.00000000000E+00  0.44599722194E+03  0.44599722194E+03  0.00000000000E+00 0.  1.
          2   -1    0    0  501    0  0.00000000000E+00 -0.00000000000E+00 -0.22196048894E+04  0.22196048894E+04  0.00000000000E+00 0. -1.
         23    2    1    2    0    0  0.53431274257E+03  0.54061290889E+03 -0.97663713888E+03  0.12407658163E+04  0.89035306501E+02 0.  0.
        254    2    1    2    0    0 -0.53431274257E+03 -0.54061290889E+03 -0.79697052860E+03  0.14248362950E+04  0.90401549769E+03 0.  0.
        -24    2    4    4    0    0 -0.17950225689E+03  0.20279201931E+03 -0.12766364043E+02  0.28235435591E+03  0.78837420860E+02 0.  0.
         24    2    4    4    0    0 -0.35481048568E+03 -0.74340492820E+03 -0.78420416456E+03  0.11424819391E+04  0.10838561479E+03 0.  0.
         13    1    3    3    0    0  0.40153626377E+03  0.37752522590E+03 -0.64903500561E+03  0.85147114209E+03  0.00000000000E+00 0. -1.
        -13    1    3    3    0    0  0.13277647880E+03  0.16308768299E+03 -0.32760213326E+03  0.38929467423E+03  0.00000000000E+00 0.  1.
          4    1    6    6  502    0 -0.32597428952E+03 -0.67232601291E+03 -0.66233994657E+03  0.99848670992E+03  0.00000000000E+00 0. -1.
          1    1    5    5  503    0 -0.98750363566E+02  0.10892595172E+03  0.32398946106E+02  0.15055294408E+03  0.00000000000E+00 0. -1.
         -2    1    5    5    0  503 -0.80751893320E+02  0.93866067590E+02 -0.45165310149E+02  0.13180141183E+03  0.00000000000E+00 0.  1.
         -3    1    6    6    0  502 -0.28836196166E+02 -0.71078915289E+02 -0.12186421799E+03  0.14399522921E+03  0.00000000000E+00 0.  1.
<mgrwt>
<rscale>  0 0.19899122E+04</rscale>
<asrwt>0</asrwt>
<pdfrwt beam="1">  1        2 0.34147768E+00 0.19899122E+04</pdfrwt>
<pdfrwt beam="2">  1       -2 0.68614956E-01 0.19899122E+04</pdfrwt>
<totfact> 0.90896570E+00</totfact>
</mgrwt>
</event>
<event>
11    1  0.2406360E-008  0.1260788E+04  0.7818608E-02  0.9061252E-01
         -1   -1    0    0    0  501 -0.00000000000E+00  0.00000000000E+00  0.42392031225E+03  0.42392031225E+03  0.00000000000E+00 0.  1.
          1   -1    0    0  501    0  0.00000000000E+00 -0.00000000000E+00 -0.93743192441E+03  0.93743192441E+03  0.00000000000E+00 0. -1.
         23    2    1    2    0    0 -0.22439455996E+03  0.79829017593E+02  0.73644970488E+02  0.26477594492E+03  0.89202739542E+02 0.  0.
        254    2    1    2    0    0  0.22439455996E+03 -0.79829017593E+02 -0.58715658264E+03  0.10965762917E+04  0.89498665938E+03 0.  0.
        -24    2    4    4    0    0 -0.23750383442E+03  0.23289834775E+03 -0.18790323392E+03  0.39039251985E+03  0.80305557012E+02 0.  0.
         11    1    3    3    0    0 -0.11408978735E+03 -0.26569818634E+01  0.51769371220E+02  0.12531403324E+03  0.00000000000E+00 0.  1.
        -11    1    3    3    0    0 -0.11030477261E+03  0.82485999457E+02  0.21875599268E+02  0.13946191168E+03  0.00000000000E+00 0. -1.
          2    1    4    4  502    0  0.35301439802E+03 -0.29844501043E+03 -0.26535541277E+03  0.53301227429E+03  0.00000000000E+00 0. -1.
          3    1    5    5  503    0 -0.23242175050E+03  0.20217192044E+03 -0.18447528162E+03  0.35906055903E+03  0.00000000000E+00 0. -1.
         -4    1    5    5    0  503 -0.50820839285E+01  0.30726427310E+02 -0.34279523003E+01  0.31331960827E+02  0.00000000000E+00 0.  1.
         -1    1    4    4    0  502  0.10888399637E+03 -0.14282354918E+02 -0.13389793595E+03  0.17317149759E+03  0.00000000000E+00 0.  1.
<mgrwt>
<rscale>  0 0.12607877E+04</rscale>
<asrwt>0</asrwt>
<pdfrwt beam="1">  1        1 0.14422029E+00 0.12607877E+04</pdfrwt>
<pdfrwt beam="2">  1       -1 0.65218510E-01 0.12607877E+04</pdfrwt>
<totfact> 0.39848683E+01</totfact>
</mgrwt>
</event>
<event>
12    1  0.2406360E-008  0.1806800E+04  0.7818608E-02  0.8702692E-01
         -1   -1    0    0    0  501 -0.00000000000E+00  0.00000000000E+00  0.81836826208E+03  0.81836826208E+03  0.00000000000E+00 0.  1.
          1   -1    0    0  501    0  0.00000000000E+00 -0.00000000000E+00 -0.99726678301E+03  0.99726678301E+03  0.00000000000E+00 0. -1.
         23    2    1    2    0    0 -0.28212796769E+03  0.41788780472E+03  0.38461071330E+03  0.64070805652E+03  0.91405718797E+02 0.  0.
        254    2    1    2    0    0  0.28212796769E+03 -0.41788780472E+03 -0.56350923423E+03  0.11749269886E+04  0.89926879404E+03 0.  0.
        -24    2    4    4    0    0 -0.75805295388E+02  0.30746751915E+02  0.19258503533E+03  0.22406185881E+03  0.80143091901E+02 0.  0.
         24    2    4    4    0    0  0.35793326307E+03 -0.44863455663E+03 -0.75609426955E+03  0.95086512976E+03  0.55468588694E+02 0.  0.
         11    1    3    3    0    0 -0.19854233932E+03  0.28297431164E+03  0.31400231869E+03  0.46700211744E+03  0.00000000000E+00 0.  1.
        -11    1    3    3    0    0 -0.83585628364E+02  0.13491349308E+03  0.70608394604E+02  0.17370593908E+03  0.00000000000E+00 0. -1.
          2    1    6    6  502    0  0.39076679836E+02 -0.55258700281E+02 -0.12064717109E+03  0.13833383807E+03  0.00000000000E+00 0. -1.
          1    1    5    5  503    0 -0.42600203806E+02  0.42801123753E+01  0.17128811459E+03  0.17655796477E+03  0.00000000000E+00 0. -1.
         -2    1    5    5    0  503 -0.33205091582E+02  0.26466639540E+02  0.21296920737E+02  0.47503894034E+02  0.00000000000E+00 0.  1.
         -1    1    6    6    0  502  0.31885658324E+03 -0.39337585635E+03 -0.63544709846E+03  0.81253129169E+03  0.00000000000E+00 0.  1.
<mgrwt>
<rscale>  0 0.18067999E+04</rscale>
<asrwt>0</asrwt>
<pdfrwt beam="1">  1        1 0.15342566E+00 0.18067999E+04</pdfrwt>
<pdfrwt beam="2">  1       -1 0.12590281E+00 0.18067999E+04</pdfrwt>
<totfact> 0.78835067E+00</totfact>
</mgrwt>
</event>
<event>
12    1  0.2406360E-008  0.1420519E+04  0.7818608E-02  0.8939098E-01
         -2   -1    0    0    0  501 -0.00000000000E+00  0.00000000000E+00  0.97739060159E+03  0.97739060159E+03  0.00000000000E+00 0.  1.
          2   -1    0    0  501    0  0.00000000000E+00 -0.00000000000E+00 -0.51613827646E+03  0.51613827646E+03  0.00000000000E+00 0. -1.
         23    2    1    2    0    0  0.23875057806E+02  0.55486881683E+02  0.57375405816E+03  0.58412762513E+03  0.91446983374E+02 0.  0.
        254    2    1    2    0    0 -0.23875057806E+02 -0.55486881683E+02 -0.11250173302E+03  0.90940125291E+03  0.90039168502E+03 0.  0.
        -24    2    4    4    0    0  0.13605944654E+03  0.96231983873E+02 -0.45785311438E+03  0.49413519518E+03  0.82263898834E+02 0.  0.
         24    2    4    4    0    0 -0.15993450435E+03 -0.15171886556E+03  0.34535138136E+03  0.41526605773E+03  0.67680589895E+02 0.  0.
         11    1    3    3    0    0 -0.13562853387E+02 -0.19672836268E+02  0.17539651151E+03  0.17701668772E+03  0.00000000000E+00 0. -1.
        -11    1    3    3    0    0  0.37437911193E+02  0.75159717951E+02  0.39835754664E+03  0.40711093742E+03  0.00000000000E+00 0.  1.
          4    1    6    6  502    0  0.21457561747E+01 -0.23079830619E+02  0.43640920345E+02  0.49414702058E+02  0.00000000000E+00 0. -1.
          1    1    5    5  503    0  0.13490411688E+02  0.54670329298E+02 -0.14693487549E+03  0.15735531052E+03  0.00000000000E+00 0. -1.
         -4    1    5    5    0  503  0.12256903486E+03  0.41561654576E+02 -0.31091823889E+03  0.33677988466E+03  0.00000000000E+00 0.  1.
         -3    1    6    6    0  502 -0.16208026052E+03 -0.12863903494E+03  0.30171046102E+03  0.36585135568E+03  0.00000000000E+00 0.  1.
<mgrwt>
<rscale>  0 0.14205192E+04</rscale>
<asrwt>0</asrwt>
<pdfrwt beam="1">  1        2 0.79405889E-01 0.14205192E+04</pdfrwt>
<pdfrwt beam="2">  1       -2 0.15036778E+00 0.14205192E+04</pdfrwt>
<totfact> 0.17151041E+01</totfact>
</mgrwt>
</event>
<event>
12    1  0.2406360E-008  0.1320806E+04  0.7818608E-02  0.9013226E-01
         -2   -1    0    0    0  501 -0.00000000000E+00  0.00000000000E+00  0.33180625201E+03  0.33180625201E+03  0.00000000000E+00 0.  1.
          2   -1    0    0  501    0  0.00000000000E+00 -0.00000000000E+00 -0.13144183717E+04  0.13144183717E+04  0.00000000000E+00 0. -1.
         23    2    1    2    0    0 -0.86567649551E+02  0.10726395773E+03  0.13015216234E+03  0.21017226841E+03  0.90737436976E+02 0.  0.
        254    2    1    2    0    0  0.86567649551E+02 -0.10726395773E+03 -0.11127642820E+04  0.14360523553E+04  0.89721931833E+03 0.  0.
        -24    2    4    4    0    0 -0.34196015713E+03 -0.24633595848E+03 -0.70825899354E+03  0.82794494053E+03  0.79018156871E+02 0.  0.
         24    2    4    4    0    0  0.42852780668E+03  0.13907200076E+03 -0.40450528845E+03  0.60810741473E+03  0.56506609952E+02 0.  0.
         13    1    3    3    0    0 -0.27440605847E+02  0.21910814585E+02 -0.92851497441E+01  0.36321958246E+02  0.00000000000E+00 0. -1.
        -13    1    3    3    0    0 -0.59127043704E+02  0.85353143141E+02  0.13943731208E+03  0.17385031016E+03  0.00000000000E+00 0.  1.
          4    1    6    6  502    0  0.12323473164E+03  0.63969284640E+02 -0.14100383037E+03  0.19789125458E+03  0.00000000000E+00 0. -1.
          1    1    5    5  503    0 -0.11239309209E+03 -0.12000764320E+03 -0.23189351100E+03  0.28426860893E+03  0.00000000000E+00 0. -1.
         -2    1    5    5    0  503 -0.22956706504E+03 -0.12632831528E+03 -0.47636548254E+03  0.54367633160E+03  0.00000000000E+00 0.  1.
         -3    1    6    6    0  502  0.30529307504E+03  0.75102716117E+02 -0.26350145808E+03  0.41021616015E+03  0.00000000000E+00 0.  1.
<mgrwt>
<rscale>  0 0.13208062E+04</rscale>
<asrwt>0</asrwt>
<pdfrwt beam="1">  1        2 0.20221821E+00 0.13208062E+04</pdfrwt>
<pdfrwt beam="2">  1       -2 0.51047116E-01 0.13208062E+04</pdfrwt>
<totfact> 0.57548279E+01</totfact>
</mgrwt>
</event>
<event>
11    1  0.2406360E-008  0.1904008E+04  0.7818608E-02  0.8652864E-01
         -1   -1    0    0    0  501 -0.00000000000E+00  0.00000000000E+00  0.14016717882E+04  0.14016717882E+04  0.00000000000E+00 0.  1.
          1   -1    0    0  501    0  0.00000000000E+00 -0.00000000000E+00 -0.64659338376E+03  0.64659338376E+03  0.00000000000E+00 0. -1.
         23    2    1    2    0    0 -0.23478122410E+03  0.63778893192E+03 -0.10515096948E+02  0.68516731680E+03  0.86294495035E+02 0.  0.
        254    2    1    2    0    0  0.23478122410E+03 -0.63778893192E+03  0.76559350142E+03  0.13630978552E+04  0.90000300473E+03 0.  0.
        -24    2    4    4    0    0 -0.25337146418E+03 -0.48121411549E+03  0.19103355650E+03  0.58164962493E+03  0.77835356109E+02 0.  0.
         11    1    3    3    0    0 -0.14175305534E+03  0.26980884563E+03  0.11242702654E+02  0.30498711488E+03  0.00000000000E+00 0. -1.
        -11    1    3    3    0    0 -0.93028168766E+02  0.36798008629E+03 -0.21757799602E+02  0.38018020192E+03  0.00000000000E+00 0.  1.
          2    1    4    4  502    0  0.17680207573E+03 -0.14039018009E+02  0.12805364976E+03  0.21875512617E+03  0.00000000000E+00 0. -1.
          1    1    5    5  503    0 -0.85963302608E+02 -0.96973695997E+02  0.57424621486E+02  0.14174333940E+03  0.00000000000E+00 0. -1.
         -2    1    5    5    0  503 -0.16740816158E+03 -0.38424041950E+03  0.13360893501E+03  0.43990628553E+03  0.00000000000E+00 0.  1.
         -1    1    4    4    0  502  0.31135061256E+03 -0.14253579842E+03  0.44650629516E+03  0.56269310409E+03  0.00000000000E+00 0.  1.
<mgrwt>
<rscale>  0 0.19040081E+04</rscale>
<asrwt>0</asrwt>
<pdfrwt beam="1">  1        1 0.99475906E-01 0.19040081E+04</pdfrwt>
<pdfrwt beam="2">  1       -1 0.21564181E+00 0.19040081E+04</pdfrwt>
<totfact> 0.33794445E+00</totfact>
</mgrwt>
</event>
<event>
12    1  0.2406360E-008  0.2446821E+04  0.7818608E-02  0.8422180E-01
         -2   -1    0    0    0  501 -0.00000000000E+00  0.00000000000E+00  0.18411390675E+04  0.18411390675E+04  0.00000000000E+00 0.  1.
          2   -1    0    0  501    0  0.00000000000E+00 -0.00000000000E+00 -0.81293840895E+03  0.81293840895E+03  0.00000000000E+00 0. -1.
         23    2    1    2    0    0  0.19224459926E+03  0.67450410191E+03  0.12970602465E+04  0.14773798817E+04  0.91500068520E+02 0.  0.
        254    2    1    2    0    0 -0.19224459926E+03 -0.67450410191E+03 -0.26885958794E+03  0.11766975947E+04  0.90576927632E+03 0.  0.
        -24    2    4    4    0    0  0.29752308766E+03 -0.49641521870E+03 -0.42236062529E+01  0.58441949252E+03  0.81118723804E+02 0.  0.
         24    2    4    4    0    0 -0.48976768691E+03 -0.17808888321E+03 -0.26463598168E+03  0.59227810218E+03  0.95776354350E+02 0.  0.
         11    1    3    3    0    0  0.15073850766E+03  0.37059527905E+03  0.76159528814E+03  0.86028503502E+03  0.00000000000E+00 0.  1.
        -11    1    3    3    0    0  0.41506091594E+02  0.30390882286E+03  0.53546495833E+03  0.61709484672E+03  0.00000000000E+00 0. -1.
          2    1    6    6  502    0 -0.40640904934E+03 -0.16675093432E+03 -0.25412593078E+03  0.50749795880E+03  0.00000000000E+00 0. -1.
          3    1    5    5  503    0  0.25781446419E+03 -0.42369472198E+03  0.24901500540E+02  0.49659399927E+03  0.00000000000E+00 0. -1.
         -4    1    5    5    0  503  0.39708623469E+02 -0.72720496713E+02 -0.29125106793E+02  0.87825493256E+02  0.00000000000E+00 0.  1.
         -1    1    6    6    0  502 -0.83358637566E+02 -0.11337948895E+02 -0.10510050899E+02  0.84780143383E+02  0.00000000000E+00 0.  1.
<mgrwt>
<rscale>  0 0.24468205E+04</rscale>
<asrwt>0</asrwt>
<pdfrwt beam="1">  1        2 0.12506745E+00 0.24468205E+04</pdfrwt>
<pdfrwt beam="2">  1       -2 0.28325216E+00 0.24468205E+04</pdfrwt>
<totfact> 0.12151496E+00</totfact>
</mgrwt>
</event>
<event>
11    1  0.2406360E-008  0.2739834E+04  0.7818608E-02  0.8322195E-01
          2   -1    0    0  501    0  0.00000000000E+00  0.00000000000E+00  0.25177006226E+04  0.25177006226E+04  0.00000000000E+00 0. -1.
         -2   -1    0    0    0  501 -0.00000000000E+00 -0.00000000000E+00 -0.74539124163E+03  0.74539124163E+03  0.00000000000E+00 0.  1.
         23    2    1    2    0    0 -0.41350758107E+03 -0.11024412374E+04  0.11736266307E+04  0.16648025993E+04  0.88334732237E+02 0.  0.
        254    2    1    2    0    0  0.41350758107E+03  0.11024412374E+04  0.59868275031E+03  0.15982892649E+04  0.89985684262E+03 0.  0.
        -24    2    4    4    0    0  0.61302002093E+03  0.61891200234E+03  0.15603453369E+03  0.88859302408E+03  0.80032331251E+02 0.  0.
         11    1    3    3    0    0 -0.18454502524E+03 -0.52456507249E+03  0.49429280090E+03  0.74400991569E+03  0.00000000000E+00 0.  1.
        -11    1    3    3    0    0 -0.22896255583E+03 -0.57787616494E+03  0.67933382976E+03  0.92079268363E+03  0.00000000000E+00 0. -1.
          4    1    4    4  502    0 -0.88907144058E+02  0.27855287876E+03  0.35717310754E+03  0.46159377734E+03  0.00000000000E+00 0. -1.
          3    1    5    5  503    0  0.13708997807E+03  0.17283880269E+03  0.14253175599E+02  0.22106575224E+03  0.00000000000E+00 0. -1.
         -4    1    5    5    0  503  0.47593004286E+03  0.44607319966E+03  0.14178135809E+03  0.66752727184E+03  0.00000000000E+00 0.  1.
         -3    1    4    4    0  502 -0.11060529580E+03  0.20497635633E+03  0.85475109081E+02  0.24810246348E+03  0.00000000000E+00 0.  1.
<mgrwt>
<rscale>  0 0.27398336E+04</rscale>
<asrwt>0</asrwt>
<pdfrwt beam="1">  1        2 0.38733855E+00 0.27398336E+04</pdfrwt>
<pdfrwt beam="2">  1       -2 0.11467558E+00 0.27398336E+04</pdfrwt>
<totfact> 0.17646451E+00</totfact>
</mgrwt>
</event>
<event>
11    1  0.2406360E-008  0.1668457E+04  0.7818608E-02  0.8779562E-01
          2   -1    0    0  501    0  0.00000000000E+00  0.00000000000E+00  0.86107266756E+03  0.86107266756E+03  0.00000000000E+00 0. -1.
         -2   -1    0    0    0  501 -0.00000000000E+00 -0.00000000000E+00 -0.80822072975E+03  0.80822072975E+03  0.00000000000E+00 0.  1.
         23    2    1    2    0    0 -0.39750462627E+03  0.35854116135E+03 -0.23053829057E+03  0.58998981823E+03  0.91533545304E+02 0.  0.
        254    2    1    2    0    0  0.39750462627E+03 -0.35854116135E+03  0.28339022838E+03  0.10793035791E+04  0.89332217143E+03 0.  0.
        -24    2    4    4    0    0 -0.98970887194E+02  0.22309970078E+03  0.12448860461E+03  0.28325824251E+03  0.71896496904E+02 0.  0.
         13    1    3    3    0    0 -0.37504162105E+02  0.60277092553E+01 -0.63473779451E+01  0.38512136539E+02  0.00000000000E+00 0. -1.
        -13    1    3    3    0    0 -0.36000046416E+03  0.35251345209E+03 -0.22419091262E+03  0.55147768169E+03  0.00000000000E+00 0.  1.
          2    1    4    4  502    0  0.49660284492E+03 -0.58597376550E+03  0.14523988809E+03  0.78171239246E+03  0.00000000000E+00 0. -1.
          1    1    5    5  503    0 -0.96569112284E+02  0.20366143473E+03  0.88233896689E+02  0.24205122179E+03  0.00000000000E+00 0. -1.
         -2    1    5    5    0  503 -0.24017749105E+01  0.19438266053E+02  0.36254707922E+02  0.41207020717E+02  0.00000000000E+00 0.  1.
         -1    1    4    4    0  502 -0.12733145577E+00  0.43329033719E+01  0.13661735674E+02  0.14332944099E+02  0.00000000000E+00 0.  1.
<mgrwt>
<rscale>  0 0.16684565E+04</rscale>
<asrwt>0</asrwt>
<pdfrwt beam="1">  1        2 0.13247272E+00 0.16684565E+04</pdfrwt>
<pdfrwt beam="2">  1       -2 0.12434165E+00 0.16684565E+04</pdfrwt>
<totfact> 0.14450314E+01</totfact>
</mgrwt>
</event>
<event>
12    1  0.2406360E-008  0.1769736E+04  0.7818608E-02  0.8722561E-01
         -2   -1    0    0    0  501 -0.00000000000E+00  0.00000000000E+00  0.59810492641E+03  0.59810492641E+03  0.00000000000E+00 0.  1.
          2   -1    0    0  501    0  0.00000000000E+00 -0.00000000000E+00 -0.13091207655E+04  0.13091207655E+04  0.00000000000E+00 0. -1.
         23    2    1    2    0    0 -0.11677533258E+03 -0.24296294847E+03  0.37386110295E+03  0.47074808398E+03  0.95729627840E+02 0.  0.
        254    2    1    2    0    0  0.11677533258E+03  0.24296294847E+03 -0.10848769421E+04  0.14364776080E+04  0.90213217775E+03 0.  0.
        -24    2    4    4    0    0 -0.15819898554E+03 -0.19515309873E+03 -0.79312102376E+03  0.83544083944E+03  0.76215398103E+02 0.  0.
         24    2    4    4    0    0  0.27497431812E+03  0.43811604720E+03 -0.29175591832E+03  0.60103676853E+03  0.92558818097E+02 0.  0.
         13    1    3    3    0    0 -0.57444714395E+02 -0.31642740953E+02  0.10318017457E+03  0.12225917835E+03  0.00000000000E+00 0. -1.
        -13    1    3    3    0    0 -0.59330618187E+02 -0.21132020752E+03  0.27068092838E+03  0.34848890563E+03  0.00000000000E+00 0.  1.
          4    1    6    6  502    0  0.24175550375E+03  0.36326882457E+03 -0.20626348556E+03  0.48265369363E+03  0.00000000000E+00 0. -1.
          3    1    5    5  503    0 -0.62766958952E+02 -0.13718458879E+03 -0.45871995571E+03  0.48289056763E+03  0.00000000000E+00 0. -1.
         -4    1    5    5    0  503 -0.95432026589E+02 -0.57968509942E+02 -0.33440106805E+03  0.35255027181E+03  0.00000000000E+00 0.  1.
         -3    1    6    6    0  502  0.33218814376E+02  0.74847222627E+02 -0.85492432758E+02  0.11838307490E+03  0.00000000000E+00 0.  1.
<mgrwt>
<rscale>  0 0.17697362E+04</rscale>
<asrwt>0</asrwt>
<pdfrwt beam="1">  1        2 0.20140319E+00 0.17697362E+04</pdfrwt>
<pdfrwt beam="2">  1       -2 0.92016143E-01 0.17697362E+04</pdfrwt>
<totfact> 0.15517085E+01</totfact>
</mgrwt>
</event>
<event>
11    1  0.2406360E-008  0.3069212E+04  0.7818608E-02  0.8224238E-01
          1   -1    0    0  501    0  0.00000000000E+00  0.00000000000E+00  0.19517770813E+04  0.19517770813E+04  0.00000000000E+00 0. -1.
         -1   -1    0    0    0  501 -0.00000000000E+00 -0.00000000000E+00 -0.12066008969E+04  0.12066008969E+04  0.00000000000E+00 0.  1.
         23    2    1    2    0    0  0.16726262333E+03 -0.57264543028E+03 -0.96724019770E+03  0.11401417307E+04  0.92032559352E+02 0.  0.
        254    2    1    2    0    0 -0.16726262333E+03  0.57264543028E+03  0.17124163820E+04  0.20182362476E+04  0.88600683490E+03 0.  0.
        -24    2    4    4    0    0  0.13098396971E+03  0.60629633469E+03  0.67857475282E+03  0.92287462708E+03  0.80509852619E+02 0.  0.
         11    1    3    3    0    0  0.51409543118E+02 -0.32972422867E+03 -0.50631448579E+03  0.60639538802E+03  0.00000000000E+00 0.  1.
        -11    1    3    3    0    0  0.11585308022E+03 -0.24292120161E+03 -0.46092571192E+03  0.53374634265E+03  0.00000000000E+00 0. -1.
          4    1    4    4  502    0 -0.22023168692E+03  0.27143609096E+02  0.91108647424E+03  0.93771921970E+03  0.00000000000E+00 0. -1.
          3    1    5    5  503    0  0.13765121410E+03  0.60204189720E+03  0.67006302582E+03  0.91125559603E+03  0.00000000000E+00 0. -1.
         -4    1    5    5    0  503 -0.66672443875E+01  0.42544374931E+01  0.85117269955E+01  0.11619031051E+02  0.00000000000E+00 0.  1.
         -3    1    4    4    0  502 -0.78014906125E+02 -0.60794513504E+02  0.12275515498E+03  0.15764240078E+03  0.00000000000E+00 0.  1.
<mgrwt>
<rscale>  0 0.30692123E+04</rscale>
<asrwt>0</asrwt>
<pdfrwt beam="1">  1        1 0.30027340E+00 0.30692123E+04</pdfrwt>
<pdfrwt beam="2">  1       -1 0.18563091E+00 0.30692123E+04</pdfrwt>
<totfact> 0.51573791E-01</totfact>
</mgrwt>
</event>
<event>
11    1  0.2406360E-008  0.2392602E+04  0.7818608E-02  0.8442278E-01
         -2   -1    0    0    0  501 -0.00000000000E+00  0.00000000000E+00  0.82561076992E+03  0.82561076992E+03  0.00000000000E+00 0.  1.
          2   -1    0    0  501    0  0.00000000000E+00 -0.00000000000E+00 -0.17334272519E+04  0.17334272519E+04  0.00000000000E+00 0. -1.
         23    2    1    2    0    0 -0.18689173758E+03 -0.77316784739E+03 -0.10820736586E+04  0.13461738041E+04  0.92646998749E+02 0.  0.
        254    2    1    2    0    0  0.18689173758E+03  0.77316784739E+03  0.17425717666E+03  0.12128642177E+04  0.89886428627E+03 0.  0.
        -24    2    4    4    0    0  0.10488348381E+03  0.88128600071E+03 -0.85454888222E+02  0.89497977638E+03  0.77593182581E+02 0.  0.
         11    1    3    3    0    0 -0.14821912974E+03 -0.65351420620E+03 -0.85172142708E+03  0.10837338776E+04  0.00000000000E+00 0.  1.
        -11    1    3    3    0    0 -0.38672607846E+02 -0.11965364119E+03 -0.23035223154E+03  0.26243992650E+03  0.00000000000E+00 0. -1.
          2    1    4    4  502    0  0.11243011375E+02 -0.57802635322E+02  0.18818415936E+02  0.61819760055E+02  0.00000000000E+00 0. -1.
          3    1    5    5  503    0  0.26608850624E+02  0.79610865157E+02 -0.23216285095E+02  0.87091427111E+02  0.00000000000E+00 0. -1.
         -4    1    5    5    0  503  0.78274633186E+02  0.80167513556E+03 -0.62238603127E+02  0.80788834927E+03  0.00000000000E+00 0.  1.
         -1    1    4    4    0  502  0.70765242397E+02 -0.50315518006E+02  0.24089364895E+03  0.25606468126E+03  0.00000000000E+00 0.  1.
<mgrwt>
<rscale>  0 0.23926021E+04</rscale>
<asrwt>0</asrwt>
<pdfrwt beam="1">  1        2 0.26668111E+00 0.23926021E+04</pdfrwt>
<pdfrwt beam="2">  1       -2 0.12701704E+00 0.23926021E+04</pdfrwt>
<totfact> 0.38940101E+00</totfact>
</mgrwt>
</event>
<event>
11    1  0.2406360E-008  0.1474501E+04  0.7818608E-02  0.8901589E-01
          2   -1    0    0  501    0  0.00000000000E+00  0.00000000000E+00  0.12809562510E+04  0.12809562510E+04  0.00000000000E+00 0. -1.
         -2   -1    0    0    0  501 -0.00000000000E+00 -0.00000000000E+00 -0.42432247476E+03  0.42432247476E+03  0.00000000000E+00 0.  1.
         23    2    1    2    0    0  0.20774556271E+03  0.23380277744E+03  0.65458919665E+03  0.73274891958E+03  0.10301458739E+03 0.  0.
        254    2    1    2    0    0 -0.20774556271E+03 -0.23380277744E+03  0.20204457957E+03  0.97252980616E+03  0.89842654355E+03 0.  0.
        -24    2    4    4    0    0 -0.19981205263E+03 -0.18255689572E+03 -0.32532486387E+03  0.43050873172E+03  0.79054566496E+02 0.  0.
         11    1    3    3    0    0  0.33208729359E+01  0.24147455787E+01  0.82985024310E+02  0.83086541949E+02  0.00000000000E+00 0. -1.
        -11    1    3    3    0    0  0.20442468977E+03  0.23138803186E+03  0.57160417234E+03  0.64966237763E+03  0.00000000000E+00 0.  1.
          2    1    4    4  502    0 -0.34280101909E+02  0.79396661638E+01  0.55428409568E+02  0.65654187018E+02  0.00000000000E+00 0. -1.
          1    1    5    5  503    0 -0.15116167737E+03 -0.11025149160E+03 -0.17198491812E+03  0.25413393352E+03  0.00000000000E+00 0. -1.
         -2    1    5    5    0  503 -0.48650375262E+02 -0.72305404113E+02 -0.15333994574E+03  0.17637479819E+03  0.00000000000E+00 0.  1.
         -1    1    4    4    0  502  0.26346591835E+02 -0.59185547889E+02  0.47194103387E+03  0.47636688742E+03  0.00000000000E+00 0.  1.
<mgrwt>
<rscale>  0 0.14745013E+04</rscale>
<asrwt>0</asrwt>
<pdfrwt beam="1">  1        2 0.19707019E+00 0.14745013E+04</pdfrwt>
<pdfrwt beam="2">  1       -2 0.65280381E-01 0.14745013E+04</pdfrwt>
<totfact> 0.35513943E+01</totfact>
</mgrwt>
</event>
<event>
12    1  0.2406360E-008  0.1350497E+04  0.7818608E-02  0.8990452E-01
         -1   -1    0    0    0  501 -0.00000000000E+00  0.00000000000E+00  0.60301266513E+03  0.60301266513E+03  0.00000000000E+00 0.  1.
          1   -1    0    0  501    0  0.00000000000E+00 -0.00000000000E+00 -0.75613811461E+03  0.75613811461E+03  0.00000000000E+00 0. -1.
         23    2    1    2    0    0  0.18398322609E+03  0.14055493358E+03  0.24512780317E+03  0.34849495803E+03  0.88065765484E+02 0.  0.
        254    2    1    2    0    0 -0.18398322609E+03 -0.14055493358E+03 -0.39825325265E+03  0.10106558217E+04  0.89956323839E+03 0.  0.
        -24    2    4    4    0    0  0.35360299978E+03  0.23284255243E+02 -0.14000825463E+03  0.38883783949E+03  0.77558468653E+02 0.  0.
         24    2    4    4    0    0 -0.53758622587E+03 -0.16383918882E+03 -0.25824499802E+03  0.62181798222E+03  0.64225337419E+02 0.  0.
         13    1    3    3    0    0  0.96381510723E+02  0.19883017486E+02  0.90920542605E+02  0.13398236847E+03  0.00000000000E+00 0.  1.
        -13    1    3    3    0    0  0.87601715371E+02  0.12067191609E+03  0.15420726056E+03  0.21451258956E+03  0.00000000000E+00 0. -1.
          2    1    6    6  502    0 -0.15064808098E+03 -0.74769100458E+02 -0.66004224615E+02  0.18067047449E+03  0.00000000000E+00 0. -1.
          3    1    5    5  503    0  0.46933880779E+00  0.13065002287E+01 -0.12758763379E+02  0.12834066570E+02  0.00000000000E+00 0. -1.
         -4    1    5    5    0  503  0.35313366097E+03  0.21977755014E+02 -0.12724949125E+03  0.37600377292E+03  0.00000000000E+00 0.  1.
         -1    1    6    6    0  502 -0.38693814489E+03 -0.89070088366E+02 -0.19224077341E+03  0.44114750773E+03  0.00000000000E+00 0.  1.
<mgrwt>
<rscale>  0 0.13504975E+04</rscale>
<asrwt>0</asrwt>
<pdfrwt beam="1">  1        1 0.11632894E+00 0.13504975E+04</pdfrwt>
<pdfrwt beam="2">  1       -1 0.92771180E-01 0.13504975E+04</pdfrwt>
<totfact> 0.26740544E+01</totfact>
</mgrwt>
</event>
<event>
12    1  0.2406360E-008  0.1195656E+04  0.7818608E-02  0.9116668E-01
         -2   -1    0    0    0  501 -0.00000000000E+00  0.00000000000E+00  0.27366679042E+03  0.27366679042E+03  0.00000000000E+00 0.  1.
          2   -1    0    0  501    0  0.00000000000E+00 -0.00000000000E+00 -0.13059610862E+04  0.13059610862E+04  0.00000000000E+00 0. -1.
         23    2    1    2    0    0  0.46881247274E+02  0.70428936401E+02 -0.52946908036E+03  0.54373408921E+03  0.90283809623E+02 0.  0.
        254    2    1    2    0    0 -0.46881247274E+02 -0.70428936401E+02 -0.50282521544E+03  0.10358937874E+04  0.90171206887E+03 0.  0.
        -24    2    4    4    0    0 -0.26270399509E+03  0.32171832899E+03 -0.11797958649E+03  0.43865565720E+03  0.77353283863E+02 0.  0.
         24    2    4    4    0    0  0.21582274781E+03 -0.39214726539E+03 -0.38484562895E+03  0.59723813023E+03  0.90709921469E+02 0.  0.
         13    1    3    3    0    0 -0.21566442082E+02  0.45669886147E+01 -0.18837711637E+03  0.18966261303E+03  0.00000000000E+00 0.  1.
        -13    1    3    3    0    0  0.68447689356E+02  0.65861947786E+02 -0.34109196399E+03  0.35407147618E+03  0.00000000000E+00 0. -1.
          2    1    6    6  502    0  0.32288925695E+02 -0.81824553263E+02 -0.12488915309E+03  0.15275841319E+03  0.00000000000E+00 0. -1.
          1    1    5    5  503    0 -0.22968650109E+03  0.26525214899E+03 -0.12587017368E+03  0.37277056207E+03  0.00000000000E+00 0. -1.
         -2    1    5    5    0  503 -0.33017494001E+02  0.56466180002E+02  0.78905871945E+01  0.65885095131E+02  0.00000000000E+00 0.  1.
         -1    1    6    6    0  502  0.18353382212E+03 -0.31032271213E+03 -0.25995647586E+03  0.44447971705E+03  0.00000000000E+00 0.  1.
<mgrwt>
<rscale>  0 0.11956558E+04</rscale>
<asrwt>0</asrwt>
<pdfrwt beam="1">  1        2 0.20091709E+00 0.11956558E+04</pdfrwt>
<pdfrwt beam="2">  1       -2 0.42102583E-01 0.11956558E+04</pdfrwt>
<totfact> 0.86494181E+01</totfact>
</mgrwt>
</event>
<event>
11    1  0.2406360E-008  0.1326056E+04  0.7818608E-02  0.9009154E-01
         -1   -1    0    0    0  501 -0.00000000000E+00  0.00000000000E+00  0.52880950342E+03  0.52880950342E+03  0.00000000000E+00 0.  1.
          1   -1    0    0  501    0  0.00000000000E+00 -0.00000000000E+00 -0.83131262820E+03  0.83131262820E+03  0.00000000000E+00 0. -1.
         23    2    1    2    0    0 -0.31637439685E+03  0.59231123105E+02  0.49156517411E+02  0.33785364094E+03  0.90153394658E+02 0.  0.
        254    2    1    2    0    0  0.31637439685E+03 -0.59231123105E+02 -0.35165964219E+03  0.10222684907E+04  0.90430485909E+03 0.  0.
        -24    2    4    4    0    0  0.26308976507E+03 -0.35188839372E+03  0.59966407848E+02  0.45033897523E+03  0.78533791568E+02 0.  0.
         13    1    3    3    0    0 -0.26239508242E+03  0.20146245571E+02  0.61052749279E+02  0.27015641522E+03  0.00000000000E+00 0.  1.
        -13    1    3    3    0    0 -0.53979314427E+02  0.39084877535E+02 -0.11896231868E+02  0.67697225723E+02  0.00000000000E+00 0. -1.
          4    1    4    4  502    0  0.11246621675E+02  0.31515376930E+03 -0.24709668089E+03  0.40063094552E+03  0.00000000000E+00 0. -1.
          3    1    5    5  503    0  0.25548775891E+03 -0.35415810650E+03  0.53221171864E+02  0.43992550788E+03  0.00000000000E+00 0. -1.
         -4    1    5    5    0  503  0.76020061558E+01  0.22697127730E+01  0.67452359843E+01  0.10413467345E+02  0.00000000000E+00 0.  1.
         -3    1    4    4    0  502  0.42038010103E+02 -0.22496498680E+02 -0.16452936916E+03  0.17129856993E+03  0.00000000000E+00 0.  1.
<mgrwt>
<rscale>  0 0.13260558E+04</rscale>
<asrwt>0</asrwt>
<pdfrwt beam="1">  1        1 0.12789425E+00 0.13260558E+04</pdfrwt>
<pdfrwt beam="2">  1       -1 0.81355309E-01 0.13260558E+04</pdfrwt>
<totfact> 0.30667492E+01</totfact>
</mgrwt>
</event>
<event>
12    1  0.2406360E-008  0.1112741E+04  0.7818608E-02  0.9192862E-01
         -1   -1    0    0    0  501 -0.00000000000E+00  0.00000000000E+00  0.19125724727E+04  0.19125724727E+04  0.00000000000E+00 0.  1.
          1   -1    0    0  501    0  0.00000000000E+00 -0.00000000000E+00 -0.16184914050E+03  0.16184914050E+03  0.00000000000E+00 0. -1.
         23    2    1    2    0    0  0.55975229854E+02  0.13097091178E+03  0.51576105976E+03  0.54338830420E+03  0.94735274771E+02 0.  0.
        254    2    1    2    0    0 -0.55975229854E+02 -0.13097091178E+03  0.12349622725E+04  0.15310333090E+04  0.89366916296E+03 0.  0.
        -24    2    4    4    0    0  0.34020374021E+03  0.12548761741E+03  0.79902473959E+03  0.88093790181E+03  0.78264458007E+02 0.  0.
         24    2    4    4    0    0 -0.39617897007E+03 -0.25645852918E+03  0.43593753288E+03  0.65009540721E+03  0.99266068694E+02 0.  0.
         13    1    3    3    0    0 -0.78023803857E+01  0.92205423613E+01  0.28896730737E+01  0.12419571313E+02  0.00000000000E+00 0. -1.
        -13    1    3    3    0    0  0.63777610240E+02  0.12175036942E+03  0.51287138668E+03  0.53096873288E+03  0.00000000000E+00 0.  1.
          4    1    6    6  502    0 -0.12872456472E+03 -0.11009635273E+03  0.21432895887E+03  0.27318148373E+03  0.00000000000E+00 0. -1.
          3    1    5    5  503    0  0.76658176042E+00  0.12746404422E+02  0.37166327428E+02  0.39298783287E+02  0.00000000000E+00 0. -1.
         -4    1    5    5    0  503  0.33943715845E+03  0.11274121298E+03  0.76185841216E+03  0.84163911852E+03  0.00000000000E+00 0.  1.
         -3    1    6    6    0  502 -0.26745440535E+03 -0.14636217645E+03  0.22160857401E+03  0.37691392348E+03  0.00000000000E+00 0.  1.
<mgrwt>
<rscale>  0 0.11127411E+04</rscale>
<asrwt>0</asrwt>
<pdfrwt beam="1">  1        1 0.24899869E-01 0.11127411E+04</pdfrwt>
<pdfrwt beam="2">  1       -1 0.29424190E+00 0.11127411E+04</pdfrwt>
<totfact> 0.70929582E+00</totfact>
</mgrwt>
</event>
<event>
12    1  0.2406360E-008  0.1316332E+04  0.7818608E-02  0.9016713E-01
         -2   -1    0    0    0  501 -0.00000000000E+00  0.00000000000E+00  0.29337001170E+03  0.29337001170E+03  0.00000000000E+00 0.  1.
          2   -1    0    0  501    0  0.00000000000E+00 -0.00000000000E+00 -0.14765745217E+04  0.14765745217E+04  0.00000000000E+00 0. -1.
         23    2    1    2    0    0 -0.31087694393E+03  0.15546735238E+03 -0.38433745648E+03  0.52628971043E+03  0.91929358327E+02 0.  0.
        254    2    1    2    0    0  0.31087694393E+03 -0.15546735238E+03 -0.79886705353E+03  0.12436548230E+04  0.88751009999E+03 0.  0.
        -24    2    4    4    0    0 -0.24184468357E+03 -0.27535763022E+03 -0.23492718422E+03  0.44224588494E+03  0.77974132723E+02 0.  0.
         24    2    4    4    0    0  0.55272162750E+03  0.11989027784E+03 -0.56393986930E+03  0.80140893803E+03  0.65979038646E+02 0.  0.
         13    1    3    3    0    0 -0.10247256132E+03  0.28751244627E+02 -0.65913484879E+02  0.12518724927E+03  0.00000000000E+00 0.  1.
        -13    1    3    3    0    0 -0.20840438262E+03  0.12671610775E+03 -0.31842397160E+03  0.40110246116E+03  0.00000000000E+00 0. -1.
          4    1    6    6  502    0  0.69479892710E+02  0.27088206634E+02 -0.10304865349E+03  0.12720161719E+03  0.00000000000E+00 0. -1.
          1    1    5    5  503    0 -0.59290884557E+02 -0.38736507469E+02 -0.75519707961E+02  0.10353333904E+03  0.00000000000E+00 0. -1.
         -2    1    5    5    0  503 -0.18255379901E+03 -0.23662112275E+03 -0.15940747626E+03  0.33871254590E+03  0.00000000000E+00 0.  1.
         -3    1    6    6    0  502  0.48324173479E+03  0.92802071206E+02 -0.46089121582E+03  0.67420732085E+03  0.00000000000E+00 0.  1.
<mgrwt>
<rscale>  0 0.13163323E+04</rscale>
<asrwt>0</asrwt>
<pdfrwt beam="1">  1        2 0.22716531E+00 0.13163323E+04</pdfrwt>
<pdfrwt beam="2">  1       -2 0.45133849E-01 0.13163323E+04</pdfrwt>
<totfact> 0.59631280E+01</totfact>
</mgrwt>
</event>
<event>
11    1  0.2406360E-008  0.1909730E+04  0.7818608E-02  0.8650028E-01
         -1   -1    0    0    0  501 -0.00000000000E+00  0.00000000000E+00  0.13817514261E+04  0.13817514261E+04  0.00000000000E+00 0.  1.
          1   -1    0    0  501    0  0.00000000000E+00 -0.00000000000E+00 -0.65986326503E+03  0.65986326503E+03  0.00000000000E+00 0. -1.
         23    2    1    2    0    0  0.47581597782E+03 -0.24792201900E+01  0.81327756019E+03  0.94642096798E+03  0.88799028468E+02 0.  0.
        254    2    1    2    0    0 -0.47581597782E+03  0.24792201900E+01 -0.91389399082E+02  0.10951937232E+04  0.98218647809E+03 0.  0.
        -24    2    4    4    0    0 -0.14331609815E+03 -0.46605057154E+02 -0.48386016158E+03  0.51358465876E+03  0.83288717179E+02 0.  0.
         13    1    3    3    0    0  0.37846150494E+03  0.25518272464E+02  0.59261295240E+03  0.70361523882E+03  0.00000000000E+00 0. -1.
        -13    1    3    3    0    0  0.97354472882E+02 -0.27997492654E+02  0.22066460779E+03  0.24280572916E+03  0.00000000000E+00 0.  1.
          2    1    4    4  502    0 -0.99076541448E+02 -0.10746294558E+03  0.16149474700E+03  0.21781872979E+03  0.00000000000E+00 0. -1.
          1    1    5    5  503    0 -0.67247335294E+02  0.20017777721E+02 -0.17279972077E+03  0.18650109658E+03  0.00000000000E+00 0. -1.
         -2    1    5    5    0  503 -0.76068762859E+02 -0.66622834875E+02 -0.31106044081E+03  0.32708356218E+03  0.00000000000E+00 0.  1.
         -1    1    4    4    0  502 -0.23342333822E+03  0.15654722293E+03  0.23097601549E+03  0.36379033462E+03  0.00000000000E+00 0.  1.
<mgrwt>
<rscale>  0 0.19097298E+04</rscale>
<asrwt>0</asrwt>
<pdfrwt beam="1">  1        1 0.10151743E+00 0.19097298E+04</pdfrwt>
<pdfrwt beam="2">  1       -1 0.21257714E+00 0.19097298E+04</pdfrwt>
<totfact> 0.34373576E+00</totfact>
</mgrwt>
</event>
<event>
11    1  0.2406360E-008  0.1627628E+04  0.7818608E-02  0.8803752E-01
         -1   -1    0    0    0  501 -0.00000000000E+00  0.00000000000E+00  0.73352382321E+03  0.73352382321E+03  0.00000000000E+00 0.  1.
          1   -1    0    0  501    0  0.00000000000E+00 -0.00000000000E+00 -0.90289277822E+03  0.90289277822E+03  0.00000000000E+00 0. -1.
         23    2    1    2    0    0 -0.37554241406E+03 -0.28404217249E+03  0.24196307316E+03  0.53702148675E+03  0.90188069841E+02 0.  0.
        254    2    1    2    0    0  0.37554241406E+03  0.28404217249E+03 -0.41133202818E+03  0.10993951147E+04  0.90430278130E+03 0.  0.
        -24    2    4    4    0    0  0.50495436420E+03  0.80498782769E+02  0.51131159551E+02  0.51981032392E+03  0.78290570462E+02 0.  0.
         11    1    3    3    0    0 -0.32358102144E+03 -0.26801507027E+03  0.23705648523E+03  0.48242360278E+03  0.00000000000E+00 0.  1.
        -11    1    3    3    0    0 -0.51961392622E+02 -0.16027102220E+02  0.49065879335E+01  0.54597883969E+02  0.00000000000E+00 0. -1.
          2    1    4    4  502    0  0.14713022602E+02 -0.18554336859E+02 -0.21780748766E+03  0.21909093576E+03  0.00000000000E+00 0. -1.
          3    1    5    5  503    0  0.15063385042E+03  0.12123214369E+02 -0.18650733910E+02  0.15226745908E+03  0.00000000000E+00 0. -1.
         -4    1    5    5    0  503  0.35432051377E+03  0.68375568401E+02  0.69781893461E+02  0.36754286483E+03  0.00000000000E+00 0.  1.
         -1    1    4    4    0  502 -0.14412497274E+03  0.22209772658E+03 -0.24465570007E+03  0.36049385500E+03  0.00000000000E+00 0.  1.
<mgrwt>
<rscale>  0 0.16276282E+04</rscale>
<asrwt>0</asrwt>
<pdfrwt beam="1">  1        1 0.13890658E+00 0.16276282E+04</pdfrwt>
<pdfrwt beam="2">  1       -1 0.11284982E+00 0.16276282E+04</pdfrwt>
<totfact> 0.12445536E+01</totfact>
</mgrwt>
</event>
<event>
11    1  0.2406360E-008  0.1539815E+04  0.7818608E-02  0.8858400E-01
          2   -1    0    0  501    0  0.00000000000E+00  0.00000000000E+00  0.18109664552E+04  0.18109664552E+04  0.00000000000E+00 0.  1.
         -2   -1    0    0    0  501 -0.00000000000E+00 -0.00000000000E+00 -0.32731543395E+03  0.32731543395E+03  0.00000000000E+00 0. -1.
         23    2    1    2    0    0 -0.52889699242E+02 -0.29272847129E+03 -0.74424370332E+02  0.31926958995E+03  0.88920222555E+02 0.  0.
        254    2    1    2    0    0  0.52889699242E+02  0.29272847129E+03  0.15580753916E+04  0.18190122992E+04  0.89034798847E+03 0.  0.
        -24    2    4    4    0    0 -0.98265422438E+02 -0.13494393247E+03  0.86251628608E+03  0.88251268655E+03  0.83835195590E+02 0.  0.
         13    1    3    3    0    0  0.18904235505E+02 -0.48630319375E+02 -0.32313016065E+02  0.61371076980E+02  0.00000000000E+00 0.  1.
        -13    1    3    3    0    0 -0.71793934746E+02 -0.24409815192E+03 -0.42111354267E+02  0.25789851297E+03  0.00000000000E+00 0. -1.
          4    1    4    4  502    0 -0.12859956533E+03  0.10574934236E+03  0.35000313450E+03  0.38758607530E+03  0.00000000000E+00 0. -1.
          1    1    5    5  503    0 -0.59898019448E+02 -0.16365033562E+02  0.27513429597E+03  0.28205401588E+03  0.00000000000E+00 0. -1.
         -2    1    5    5    0  503 -0.38367402990E+02 -0.11857889891E+03  0.58738199011E+03  0.60045867067E+03  0.00000000000E+00 0.  1.
         -3    1    4    4    0  502  0.27975468701E+03  0.32192306140E+03  0.34555597099E+03  0.54891353732E+03  0.00000000000E+00 0.  1.
<mgrwt>
<rscale>  0 0.15398146E+04</rscale>
<asrwt>0</asrwt>
<pdfrwt beam="1">  1        2 0.27861022E+00 0.15398146E+04</pdfrwt>
<pdfrwt beam="2">  1       -2 0.50356221E-01 0.15398146E+04</pdfrwt>
<totfact> 0.30569637E+01</totfact>
</mgrwt>
</event>
<event>
12    1  0.2406360E-008  0.1986387E+04  0.7818608E-02  0.8613012E-01
          3   -1    0    0  501    0  0.00000000000E+00  0.00000000000E+00  0.22123849614E+04  0.22123849614E+04  0.00000000000E+00 0. -1.
         -3   -1    0    0    0  501 -0.00000000000E+00 -0.00000000000E+00 -0.44586875131E+03  0.44586875131E+03  0.00000000000E+00 0.  1.
         23    2    1    2    0    0 -0.36968250329E+03 -0.50589988262E+03  0.13283298486E+04  0.14714526299E+04  0.90071143716E+02 0.  0.
        254    2    1    2    0    0  0.36968250329E+03  0.50589988262E+03  0.43818636152E+03  0.11868010828E+04  0.90768368844E+03 0.  0.
        -24    2    4    4    0    0  0.13204853645E+03  0.69633000657E+03  0.89752109524E+02  0.71913273885E+03  0.82366017869E+02 0.  0.
         24    2    4    4    0    0  0.23763396684E+03 -0.19043012395E+03  0.34843425200E+03  0.46766834396E+03  0.67629266404E+02 0.  0.
         11    1    3    3    0    0 -0.83222038053E+02 -0.89024089023E+02  0.18889515548E+03  0.22479451908E+03  0.00000000000E+00 0.  1.
        -11    1    3    3    0    0 -0.28646046524E+03 -0.41687579360E+03  0.11394346931E+04  0.12466581108E+04  0.00000000000E+00 0. -1.
          4    1    6    6  502    0  0.20082617456E+03 -0.18345663078E+03  0.28479981554E+03  0.39382537081E+03  0.00000000000E+00 0. -1.
          3    1    5    5  503    0  0.99572260845E+02  0.55869778964E+03  0.10418709932E+03  0.57698596772E+03  0.00000000000E+00 0. -1.
         -4    1    5    5    0  503  0.32476275602E+02  0.13763221693E+03 -0.14434989795E+02  0.14214677114E+03  0.00000000000E+00 0.  1.
         -3    1    6    6    0  502  0.36807792286E+02 -0.69734931638E+01  0.63634436459E+02  0.73842973148E+02  0.00000000000E+00 0.  1.
<mgrwt>
<rscale>  0 0.19863870E+04</rscale>
<asrwt>0</asrwt>
<pdfrwt beam="1">  1        3 0.34036691E+00 0.19863870E+04</pdfrwt>
<pdfrwt beam="2">  1       -3 0.68595194E-01 0.19863870E+04</pdfrwt>
<totfact> 0.11554734E-01</totfact>
</mgrwt>
</event>
<event>
11    1  0.2406360E-008  0.1692468E+04  0.7818608E-02  0.8765672E-01
          1   -1    0    0  501    0  0.00000000000E+00  0.00000000000E+00  0.11625404169E+04  0.11625404169E+04  0.00000000000E+00 0. -1.
         -1   -1    0    0    0  501 -0.00000000000E+00 -0.00000000000E+00 -0.61598873694E+03  0.61598873694E+03  0.00000000000E+00 0.  1.
         23    2    1    2    0    0 -0.58714267945E+03  0.10774144844E+03  0.10719658110E+03  0.61300549344E+03  0.89106016916E+02 0.  0.
        254    2    1    2    0    0  0.58714267945E+03 -0.10774144844E+03  0.43935509884E+03  0.11655236604E+04  0.89948193660E+03 0.  0.
        -24    2    4    4    0    0  0.41662032276E+03 -0.43536184862E+03  0.44935577597E+03  0.75605532415E+03  0.81157915270E+02 0.  0.
         13    1    3    3    0    0 -0.97064340026E+02  0.10279830411E+01  0.46982098017E+02  0.10784183042E+03  0.00000000000E+00 0. -1.
        -13    1    3    3    0    0 -0.49007833942E+03  0.10671346540E+03  0.60214483081E+02  0.50516366302E+03  0.00000000000E+00 0.  1.
          2    1    4    4  502    0  0.20283538764E+02  0.12007479238E+03 -0.77707255758E+02  0.14445689775E+03  0.00000000000E+00 0. -1.
          3    1    5    5  503    0  0.10649648696E+03 -0.12896115167E+03  0.83548385638E+02  0.18695671456E+03  0.00000000000E+00 0. -1.
         -2    1    5    5    0  503  0.31012383580E+03 -0.30640069695E+03  0.36580739033E+03  0.56909860960E+03  0.00000000000E+00 0.  1.
         -1    1    4    4    0  502  0.15023881792E+03  0.20754560781E+03  0.67706578626E+02  0.26501143847E+03  0.00000000000E+00 0.  1.
<mgrwt>
<rscale>  0 0.16924678E+04</rscale>
<asrwt>0</asrwt>
<pdfrwt beam="1">  1        1 0.17885237E+00 0.16924678E+04</pdfrwt>
<pdfrwt beam="2">  1       -1 0.94767498E-01 0.16924678E+04</pdfrwt>
<totfact> 0.11674740E+01</totfact>
</mgrwt>
</event>
<event>
11    1  0.2406360E-008  0.2637992E+04  0.7818608E-02  0.8355409E-01
         -1   -1    0    0    0  501 -0.00000000000E+00  0.00000000000E+00  0.60633039936E+03  0.60633039936E+03  0.00000000000E+00 0.  1.
          1   -1    0    0  501    0  0.00000000000E+00 -0.00000000000E+00 -0.28693117193E+04  0.28693117193E+04  0.00000000000E+00 0. -1.
         23    2    1    2    0    0  0.40935294408E+03  0.34548126552E+03  0.36073950654E+03  0.65192835664E+03  0.89165312554E+02 0.  0.
        254    2    1    2    0    0 -0.40935294408E+03 -0.34548126552E+03 -0.26237208265E+04  0.28237137620E+04  0.89583553008E+03 0.  0.
        -24    2    4    4    0    0 -0.10046001554E+03 -0.24378983608E+03 -0.23739264040E+04  0.23897985966E+04  0.78006806653E+02 0.  0.
         13    1    3    3    0    0  0.32130647851E+03  0.28661483035E+03  0.32736370311E+03  0.54088160278E+03  0.00000000000E+00 0.  1.
        -13    1    3    3    0    0  0.88046465569E+02  0.58866435162E+02  0.33375803425E+02  0.11104675386E+03  0.00000000000E+00 0. -1.
          2    1    4    4  502    0 -0.26863181335E+03 -0.81558533843E+02 -0.26534182576E+03  0.38629150920E+03  0.00000000000E+00 0. -1.
          1    1    5    5  503    0 -0.40463118647E+02 -0.40963755113E+02 -0.33300239350E+03  0.33794361553E+03  0.00000000000E+00 0. -1.
         -4    1    5    5    0  503 -0.59996896889E+02 -0.20282608097E+03 -0.20409240105E+04  0.20518549811E+04  0.00000000000E+00 0.  1.
         -1    1    4    4    0  502 -0.40261115194E+02 -0.20132895590E+02  0.15547403286E+02  0.47623656207E+02  0.00000000000E+00 0.  1.
<mgrwt>
<rscale>  0 0.26379924E+04</rscale>
<asrwt>0</asrwt>
<pdfrwt beam="1">  1        1 0.44143256E+00 0.26379924E+04</pdfrwt>
<pdfrwt beam="2">  1       -1 0.93281602E-01 0.26379924E+04</pdfrwt>
<totfact> 0.72764071E-01</totfact>
</mgrwt>
</event>
<event>
12    1  0.2406360E-008  0.1149604E+04  0.7818608E-02  0.9158149E-01
          2   -1    0    0  501    0  0.00000000000E+00  0.00000000000E+00  0.31318366493E+03  0.31318366493E+03  0.00000000000E+00 0.  1.
         -2   -1    0    0    0  501 -0.00000000000E+00 -0.00000000000E+00 -0.10549633154E+04  0.10549633154E+04  0.00000000000E+00 0. -1.
         23    2    1    2    0    0 -0.13775981185E+03 -0.12097817684E+03 -0.25565455089E+03  0.32654879493E+03  0.87529315368E+02 0.  0.
        254    2    1    2    0    0  0.13775981185E+03  0.12097817684E+03 -0.48612509956E+03  0.10415981854E+04  0.90277111293E+03 0.  0.
        -24    2    4    4    0    0  0.32696664216E+03 -0.28102436988E+03 -0.35809982730E+03  0.56613971604E+03  0.79980061382E+02 0.  0.
         24    2    4    4    0    0 -0.18920683031E+03  0.40200254671E+03 -0.12802527226E+03  0.47545846934E+03  0.11074752158E+03 0.  0.
         13    1    3    3    0    0 -0.44085451818E+02 -0.13165419892E+02 -0.12416350562E+03  0.13241386435E+03  0.00000000000E+00 0. -1.
        -13    1    3    3    0    0 -0.93674360032E+02 -0.10781275694E+03 -0.13149104527E+03  0.19413493058E+03  0.00000000000E+00 0.  1.
          2    1    6    6  502    0 -0.18669974178E+02  0.57097448396E+02 -0.59669945386E+02  0.84671063130E+02  0.00000000000E+00 0. -1.
          1    1    5    5  503    0  0.14306465148E+03 -0.14263680764E+03 -0.11994072972E+03  0.23494367845E+03  0.00000000000E+00 0. -1.
         -4    1    5    5    0  503  0.18390199068E+03 -0.13838756223E+03 -0.23815909758E+03  0.33119603760E+03  0.00000000000E+00 0.  1.
         -1    1    6    6    0  502 -0.17053685613E+03  0.34490509832E+03 -0.68355326869E+02  0.39078740621E+03  0.00000000000E+00 0.  1.
<mgrwt>
<rscale>  0 0.11496039E+04</rscale>
<asrwt>0</asrwt>
<pdfrwt beam="1">  1        2 0.48182102E-01 0.11496039E+04</pdfrwt>
<pdfrwt beam="2">  1       -2 0.16230205E+00 0.11496039E+04</pdfrwt>
<totfact> 0.25064206E+01</totfact>
</mgrwt>
</event>
<event>
12    1  0.2406360E-008  0.1786614E+04  0.7818608E-02  0.8713450E-01
         -2   -1    0    0    0  501 -0.00000000000E+00  0.00000000000E+00  0.28148792161E+03  0.28148792161E+03  0.00000000000E+00 0.  1.
          2   -1    0    0  501    0  0.00000000000E+00 -0.00000000000E+00 -0.28349274023E+04  0.28349274023E+04  0.00000000000E+00 0. -1.
         23    2    1    2    0    0 -0.17460387184E+03 -0.63020787268E+03 -0.10985859451E+04  0.12817884149E+04  0.91880285772E+02 0.  0.
        254    2    1    2    0    0  0.17460387184E+03  0.63020787268E+03 -0.14548535356E+04  0.18346269091E+04  0.90642628518E+03 0.  0.
        -24    2    4    4    0    0 -0.12021088386E+03  0.73887713161E+03 -0.12115959489E+04  0.14264698636E+04  0.80383183690E+02 0.  0.
         24    2    4    4    0    0  0.29481475570E+03 -0.10866925893E+03 -0.24325758678E+03  0.40815704548E+03  0.93237182689E+02 0.  0.
         11    1    3    3    0    0 -0.28910016493E+02 -0.11652272789E+03 -0.13914910991E+03  0.18378196309E+03  0.00000000000E+00 0.  1.
        -11    1    3    3    0    0 -0.14569385535E+03 -0.51368514479E+03 -0.95943683517E+03  0.10980064518E+04  0.00000000000E+00 0. -1.
          4    1    6    6  502    0  0.12068625148E+03 -0.38369956025E+02 -0.43274021932E+02  0.13382849396E+03  0.00000000000E+00 0. -1.
          3    1    5    5  503    0  0.80386717760E+01  0.11368560774E+02 -0.17865271063E+02  0.22650216956E+02  0.00000000000E+00 0. -1.
         -4    1    5    5    0  503 -0.12824955563E+03  0.72750857084E+03 -0.11937306778E+04  0.14038196466E+04  0.00000000000E+00 0.  1.
         -3    1    6    6    0  502  0.17412850422E+03 -0.70299302905E+02 -0.19998356485E+03  0.27432855153E+03  0.00000000000E+00 0.  1.
<mgrwt>
<rscale>  0 0.17866145E+04</rscale>
<asrwt>0</asrwt>
<pdfrwt beam="1">  1        2 0.43614267E+00 0.17866145E+04</pdfrwt>
<pdfrwt beam="2">  1       -2 0.43305835E-01 0.17866145E+04</pdfrwt>
<totfact> 0.10553159E+01</totfact>
</mgrwt>
</event>
<event>
12    1  0.2406360E-008  0.2594263E+04  0.7818608E-02  0.8370152E-01
         -2   -1    0    0    0  501 -0.00000000000E+00  0.00000000000E+00  0.10502160648E+04  0.10502160648E+04  0.00000000000E+00 0.  1.
          2   -1    0    0  501    0  0.00000000000E+00 -0.00000000000E+00 -0.16020993405E+04  0.16020993405E+04  0.00000000000E+00 0. -1.
         23    2    1    2    0    0  0.33354127664E+03 -0.54574590158E+03  0.71968032520E+03  0.96712310940E+03  0.91098660467E+02 0.  0.
        254    2    1    2    0    0 -0.33354127664E+03  0.54574590158E+03 -0.12715636008E+04  0.16851922959E+04  0.90217000104E+03 0.  0.
        -24    2    4    4    0    0 -0.46783386834E+03  0.58197419694E+03 -0.51684305638E+03  0.91166319506E+03  0.80252987625E+02 0.  0.
         24    2    4    4    0    0  0.13429259170E+03 -0.36228295362E+02 -0.75472054446E+03  0.77352910082E+03  0.96939053036E+02 0.  0.
         11    1    3    3    0    0  0.28488390755E+03 -0.41532708935E+03  0.52204540955E+03  0.72538737346E+03  0.00000000000E+00 0.  1.
        -11    1    3    3    0    0  0.48657369087E+02 -0.13041881223E+03  0.19763491565E+03  0.24173573595E+03  0.00000000000E+00 0. -1.
          2    1    6    6  502    0  0.36990531816E+02 -0.12004219089E+02 -0.47114821950E+03  0.47275051079E+03  0.00000000000E+00 0. -1.
          1    1    5    5  503    0 -0.32784523407E+03  0.45641518810E+03 -0.36656865466E+03  0.67094701729E+03  0.00000000000E+00 0. -1.
         -2    1    5    5    0  503 -0.13998863428E+03  0.12555900884E+03 -0.15027440173E+03  0.24071617777E+03  0.00000000000E+00 0.  1.
         -1    1    6    6    0  502  0.97302059888E+02 -0.24224076272E+02 -0.28357232497E+03  0.30077859002E+03  0.00000000000E+00 0.  1.
<mgrwt>
<rscale>  0 0.25942633E+04</rscale>
<asrwt>0</asrwt>
<pdfrwt beam="1">  1        2 0.24647682E+00 0.25942633E+04</pdfrwt>
<pdfrwt beam="2">  1       -2 0.16157170E+00 0.25942633E+04</pdfrwt>
<totfact> 0.24143578E+00</totfact>
</mgrwt>
</event>
<event>
11    1  0.2406360E-008  0.2975552E+04  0.7818608E-02  0.8250747E-01
          2   -1    0    0  501    0  0.00000000000E+00  0.00000000000E+00  0.12934513344E+04  0.12934513344E+04  0.00000000000E+00 0. -1.
         -2   -1    0    0    0  501 -0.00000000000E+00 -0.00000000000E+00 -0.17112960561E+04  0.17112960561E+04  0.00000000000E+00 0.  1.
         23    2    1    2    0    0  0.22958250830E+03  0.92841750790E+03 -0.11440684548E+04  0.14935915208E+04  0.85181011229E+02 0.  0.
        254    2    1    2    0    0 -0.22958250830E+03 -0.92841750790E+03  0.72622373300E+03  0.15111558698E+04  0.91734614802E+03 0.  0.
        -24    2    4    4    0    0 -0.35797784446E+03 -0.10100188749E+03  0.52652403991E+03  0.64933326081E+03  0.77824164595E+02 0.  0.
         11    1    3    3    0    0  0.10690002662E+03  0.34471549397E+03 -0.48738681920E+03  0.60646706342E+03  0.00000000000E+00 0.  1.
        -11    1    3    3    0    0  0.12268248169E+03  0.58370201392E+03 -0.65668163555E+03  0.88712445736E+03  0.00000000000E+00 0. -1.
          4    1    4    4  502    0  0.63265716635E+02 -0.51495235784E+03  0.11129617879E+03  0.53062729025E+03  0.00000000000E+00 0. -1.
          1    1    5    5  503    0 -0.21415446563E+03 -0.26515725519E+02  0.33525969051E+03  0.39870324670E+03  0.00000000000E+00 0. -1.
         -2    1    5    5    0  503 -0.14382337882E+03 -0.74486161967E+02  0.19126434941E+03  0.25063001411E+03  0.00000000000E+00 0.  1.
         -3    1    4    4    0  502  0.65129619515E+02 -0.31246326257E+03  0.88403514305E+02  0.33119531871E+03  0.00000000000E+00 0.  1.
<mgrwt>
<rscale>  0 0.29755525E+04</rscale>
<asrwt>0</asrwt>
<pdfrwt beam="1">  1        2 0.19899251E+00 0.29755525E+04</pdfrwt>
<pdfrwt beam="2">  1       -2 0.26327632E+00 0.29755525E+04</pdfrwt>
<totfact> 0.76212065E-01</totfact>
</mgrwt>
</event>
<event>
11    1  0.2775446E-008  0.1857005E+04  0.7818608E-02  0.8676559E-01
          2   -1    0    0  501    0  0.00000000000E+00  0.00000000000E+00  0.11119184940E+04  0.11119184940E+04  0.00000000000E+00 0.  1.
         -2   -1    0    0    0  501 -0.00000000000E+00 -0.00000000000E+00 -0.77534207566E+03  0.77534207566E+03  0.00000000000E+00 0. -1.
         23    2    1    2    0    0  0.47968230938E+03 -0.32795774075E+03  0.50783387689E+03  0.77820191291E+03  0.10025753383E+03 0.  0.
        254    2    1    2    0    0 -0.47968230938E+03  0.32795774075E+03 -0.17125745859E+03  0.11090586567E+04  0.92899439678E+03 0.  0.
        -24    2    4    4    0    0 -0.73517458883E+03  0.20311258968E+03 -0.15173614862E+03  0.78165759227E+03  0.78919785925E+02 0.  0.
         11    1    3    3    0    0  0.25561946690E+03 -0.14438560007E+03  0.31286635844E+03  0.42903831019E+03  0.00000000000E+00 0.  1.
        -11    1    3    3    0    0  0.22406284248E+03 -0.18357214068E+03  0.19496751845E+03  0.34916360272E+03  0.00000000000E+00 0. -1.
          4    1    4    4  502    0 -0.21873245837E+02  0.21793080258E+02 -0.35387596516E+01  0.31078932582E+02  0.00000000000E+00 0. -1.
          3    1    5    5  503    0 -0.18096270690E+02  0.11926815138E+02  0.69380233164E+01  0.22756539714E+02  0.00000000000E+00 0. -1.
         -4    1    5    5    0  503 -0.71707831813E+03  0.19118577454E+03 -0.15867417193E+03  0.75890105255E+03  0.00000000000E+00 0.  1.
         -3    1    4    4    0  502  0.27736552528E+03  0.10305207082E+03 -0.15982550325E+02  0.29632213186E+03  0.00000000000E+00 0.  1.
<mgrwt>
<rscale>  0 0.18570053E+04</rscale>
<asrwt>0</asrwt>
<pdfrwt beam="1">  1        2 0.17106438E+00 0.18570053E+04</pdfrwt>
<pdfrwt beam="2">  1       -2 0.11928340E+00 0.18570053E+04</pdfrwt>
<totfact> 0.10851203E+01</totfact>
</mgrwt>
</event>
<event>
11    1  0.2406360E-008  0.2900113E+04  0.7818608E-02  0.8272844E-01
         -2   -1    0    0    0  501 -0.00000000000E+00  0.00000000000E+00  0.10243145145E+04  0.10243145145E+04  0.00000000000E+00 0.  1.
          2   -1    0    0  501    0  0.00000000000E+00 -0.00000000000E+00 -0.20527518124E+04  0.20527518124E+04  0.00000000000E+00 0. -1.
         23    2    1    2    0    0 -0.10667207717E+04 -0.47718587003E+03 -0.10701740665E+04  0.15871942939E+04  0.91179135587E+02 0.  0.
        254    2    1    2    0    0  0.10667207717E+04  0.47718587003E+03  0.41736768526E+02  0.14898720330E+04  0.92324274028E+03 0.  0.
        -24    2    4    4    0    0  0.66614361846E+02  0.11115009671E+03 -0.32318998113E+03  0.35788721644E+03  0.82702349312E+02 0.  0.
         11    1    3    3    0    0 -0.35074018670E+02 -0.21429712583E+02 -0.62319974473E+02  0.74653858476E+02  0.00000000000E+00 0.  1.
        -11    1    3    3    0    0 -0.10316467531E+04 -0.45575615745E+03 -0.10078540920E+04  0.15125404355E+04  0.00000000000E+00 0. -1.
          4    1    4    4  502    0  0.30870637793E+02  0.35338880134E+02  0.88694851961E+01  0.47754586110E+02  0.00000000000E+00 0. -1.
          3    1    5    5  503    0  0.15457174834E+02 -0.11230699306E+02 -0.24498617306E+02  0.31068233143E+02  0.00000000000E+00 0. -1.
         -4    1    5    5    0  503  0.51157187012E+02  0.12238079602E+03 -0.29869136383E+03  0.32681898329E+03  0.00000000000E+00 0.  1.
         -3    1    4    4    0  502  0.96923577210E+03  0.33069689319E+03  0.35605726446E+03  0.10842302305E+04  0.00000000000E+00 0.  1.
<mgrwt>
<rscale>  0 0.29001127E+04</rscale>
<asrwt>0</asrwt>
<pdfrwt beam="1">  1        2 0.31580797E+00 0.29001127E+04</pdfrwt>
<pdfrwt beam="2">  1       -2 0.15758685E+00 0.29001127E+04</pdfrwt>
<totfact> 0.14147491E+00</totfact>
</mgrwt>
</event>
<event>
11    1  0.2406360E-008  0.1099619E+04  0.7818608E-02  0.9205563E-01
          2   -1    0    0  501    0  0.00000000000E+00  0.00000000000E+00  0.10743454463E+04  0.10743454463E+04  0.00000000000E+00 0. -1.
         -2   -1    0    0    0  501 -0.00000000000E+00 -0.00000000000E+00 -0.28137177287E+03  0.28137177287E+03  0.00000000000E+00 0.  1.
         23    2    1    2    0    0  0.16193045512E+03  0.33970989928E+02  0.10329340891E+03  0.21557059030E+03  0.91791342874E+02 0.  0.
        254    2    1    2    0    0 -0.16193045512E+03 -0.33970989928E+02  0.68968026450E+03  0.11401466289E+04  0.89269253811E+03 0.  0.
        -24    2    4    4    0    0 -0.14741814659E+03 -0.20476789389E+03 -0.13491025006E+03  0.29732862013E+03  0.80879740729E+02 0.  0.
         13    1    3    3    0    0  0.12810717051E+02 -0.24362280079E+02  0.58881007907E+01  0.28147910987E+02  0.00000000000E+00 0. -1.
        -13    1    3    3    0    0  0.14911973807E+03  0.58333270008E+02  0.97405308118E+02  0.18742267931E+03  0.00000000000E+00 0.  1.
          2    1    4    4  502    0 -0.23854219965E+02  0.12488169013E+03  0.62512648270E+03  0.63792443104E+03  0.00000000000E+00 0. -1.
          1    1    5    5  503    0 -0.35785893524E+02 -0.11612945609E+03 -0.49928724810E+02  0.13137563818E+03  0.00000000000E+00 0. -1.
         -2    1    5    5    0  503 -0.11163225307E+03 -0.88638437802E+02 -0.84981525253E+02  0.16595298194E+03  0.00000000000E+00 0.  1.
         -1    1    4    4    0  502  0.93419114372E+01  0.45915213831E+02  0.19946403187E+03  0.20489357769E+03  0.00000000000E+00 0.  1.
<mgrwt>
<rscale>  0 0.10996190E+04</rscale>
<asrwt>0</asrwt>
<pdfrwt beam="1">  1        2 0.16528391E+00 0.10996190E+04</pdfrwt>
<pdfrwt beam="2">  1       -2 0.43287965E-01 0.10996190E+04</pdfrwt>
<totfact> 0.11347841E+02</totfact>
</mgrwt>
</event>
<event>
11    1  0.2406360E-008  0.1210014E+04  0.7818608E-02  0.9104136E-01
         -2   -1    0    0    0  501 -0.00000000000E+00  0.00000000000E+00  0.79279450412E+03  0.79279450412E+03  0.00000000000E+00 0.  1.
          2   -1    0    0  501    0  0.00000000000E+00 -0.00000000000E+00 -0.46170014526E+03  0.46170014526E+03  0.00000000000E+00 0. -1.
         23    2    1    2    0    0  0.15759466758E+03 -0.73854032489E+02  0.27199399703E+03  0.33680182244E+03  0.95730015218E+02 0.  0.
        254    2    1    2    0    0 -0.15759466758E+03  0.73854032489E+02  0.59100361831E+02  0.91769282694E+03  0.89909775580E+03 0.  0.
        -24    2    4    4    0    0  0.25701398961E+03  0.24386361075E+03 -0.11711623104E+03  0.38185423331E+03  0.81060424521E+02 0.  0.
         11    1    3    3    0    0  0.33062697458E+02 -0.54527621437E+02  0.48091650130E+02  0.79869958526E+02  0.00000000000E+00 0. -1.
        -11    1    3    3    0    0  0.12453197013E+03 -0.19326411052E+02  0.22390234690E+03  0.25693186391E+03  0.00000000000E+00 0.  1.
          4    1    4    4  502    0 -0.14015142800E+03 -0.24495932504E+02  0.17454848661E+03  0.22518802734E+03  0.00000000000E+00 0. -1.
          1    1    5    5  503    0  0.12118205203E+02  0.59020406482E+01  0.10740820822E+02  0.17235144707E+02  0.00000000000E+00 0. -1.
         -2    1    5    5    0  503  0.24489578440E+03  0.23796157010E+03 -0.12785705186E+03  0.36461908860E+03  0.00000000000E+00 0.  1.
         -3    1    4    4    0  502 -0.27445722920E+03 -0.14551364576E+03  0.16681062593E+01  0.31065056629E+03  0.00000000000E+00 0.  1.
<mgrwt>
<rscale>  0 0.12100138E+04</rscale>
<asrwt>0</asrwt>
<pdfrwt beam="1">  1        2 0.71030792E-01 0.12100138E+04</pdfrwt>
<pdfrwt beam="2">  1       -2 0.12196838E+00 0.12100138E+04</pdfrwt>
<totfact> 0.33941060E+01</totfact>
</mgrwt>
</event>
<event>
12    1  0.2406360E-008  0.2560956E+04  0.7818608E-02  0.8381586E-01
         -1   -1    0    0    0  501 -0.00000000000E+00  0.00000000000E+00  0.39021293157E+03  0.39021293157E+03  0.00000000000E+00 0.  1.
          1   -1    0    0  501    0  0.00000000000E+00 -0.00000000000E+00 -0.42018709225E+04  0.42018709225E+04  0.00000000000E+00 0. -1.
         23    2    1    2    0    0  0.52485052021E+03 -0.93595872737E+03 -0.22437735174E+04  0.24898232466E+04  0.11494952904E+03 0.  0.
        254    2    1    2    0    0 -0.52485052021E+03  0.93595872737E+03 -0.15678844736E+04  0.21022606075E+04  0.89986172901E+03 0.  0.
        -24    2    4    4    0    0  0.24225402802E+03  0.32886231521E+03 -0.49930286310E+03  0.64990397215E+03  0.78958137391E+02 0.  0.
         24    2    4    4    0    0 -0.76710454823E+03  0.60709641216E+03 -0.10685816105E+04  0.14523566353E+04  0.10226287857E+03 0.  0.
         13    1    3    3    0    0  0.35799314131E+02 -0.41274749695E+02 -0.17669082067E+03  0.18494551080E+03  0.00000000000E+00 0. -1.
        -13    1    3    3    0    0  0.48905120608E+03 -0.89468397768E+03 -0.20670826967E+04  0.23048777359E+04  0.00000000000E+00 0.  1.
          2    1    6    6  502    0 -0.49676212266E+03  0.39808079915E+03 -0.76539792208E+03  0.99552745230E+03  0.00000000000E+00 0. -1.
          3    1    5    5  503    0  0.12808277723E+03  0.11438113264E+03 -0.18152735226E+03  0.24988081348E+03  0.00000000000E+00 0. -1.
         -4    1    5    5    0  503  0.11417125079E+03  0.21448118257E+03 -0.31777551084E+03  0.40002315867E+03  0.00000000000E+00 0.  1.
         -1    1    6    6    0  502 -0.27034242557E+03  0.20901561301E+03 -0.30318368838E+03  0.45682918300E+03  0.00000000000E+00 0.  1.
<mgrwt>
<rscale>  0 0.25609564E+04</rscale>
<asrwt>0</asrwt>
<pdfrwt beam="1">  1        1 0.64644165E+00 0.25609564E+04</pdfrwt>
<pdfrwt beam="2">  1       -1 0.60032762E-01 0.25609564E+04</pdfrwt>
<totfact> 0.15707373E-01</totfact>
</mgrwt>
</event>
<event>
12    1  0.2406360E-008  0.2836213E+04  0.7818608E-02  0.8292113E-01
          1   -1    0    0  501    0  0.00000000000E+00  0.00000000000E+00  0.11384534977E+04  0.11384534977E+04  0.00000000000E+00 0. -1.
         -1   -1    0    0    0  501 -0.00000000000E+00 -0.00000000000E+00 -0.17664538983E+04  0.17664538983E+04  0.00000000000E+00 0.  1.
         23    2    1    2    0    0  0.17354027785E+03  0.63586159070E+03 -0.13962746344E+04  0.15467241556E+04  0.91304808379E+02 0.  0.
        254    2    1    2    0    0 -0.17354027785E+03 -0.63586159070E+03  0.76827423384E+03  0.13581832404E+04  0.90552759518E+03 0.  0.
        -24    2    4    4    0    0 -0.16214788459E+03 -0.35452869938E+03  0.93608531792E+03  0.10171703340E+04  0.79982690642E+02 0.  0.
         24    2    4    4    0    0 -0.11392393259E+02 -0.28133289133E+03 -0.16781108408E+03  0.34101290642E+03  0.94081135391E+02 0.  0.
         13    1    3    3    0    0  0.10870231961E+03  0.48613482569E+03 -0.97327084040E+03  0.10933432177E+04  0.00000000000E+00 0. -1.
        -13    1    3    3    0    0  0.64837958241E+02  0.14972676502E+03 -0.42300379404E+03  0.45338093781E+03  0.00000000000E+00 0.  1.
          4    1    6    6  502    0 -0.19869477494E+02 -0.20687046292E+03 -0.16610996988E+03  0.26605019575E+03  0.00000000000E+00 0. -1.
          3    1    5    5  503    0 -0.12681100193E+03 -0.32893148299E+03  0.86019640993E+03  0.92963154764E+03  0.00000000000E+00 0. -1.
         -2    1    5    5    0  503 -0.35336882658E+02 -0.25597216381E+02  0.75888907996E+02  0.87538786370E+02  0.00000000000E+00 0.  1.
         -3    1    6    6    0  502  0.84770842354E+01 -0.74462428411E+02 -0.17011142035E+01  0.74962710674E+02  0.00000000000E+00 0.  1.
<mgrwt>
<rscale>  0 0.28362127E+04</rscale>
<asrwt>0</asrwt>
<pdfrwt beam="1">  1        1 0.17514669E+00 0.28362127E+04</pdfrwt>
<pdfrwt beam="2">  1       -1 0.27176214E+00 0.28362127E+04</pdfrwt>
<totfact> 0.51530348E-01</totfact>
</mgrwt>
</event>
<event>
12    1  0.2406360E-008  0.1479818E+04  0.7818608E-02  0.8897985E-01
          2   -1    0    0  501    0  0.00000000000E+00  0.00000000000E+00  0.25789779626E+04  0.25789779626E+04  0.00000000000E+00 0. -1.
         -2   -1    0    0    0  501 -0.00000000000E+00 -0.00000000000E+00 -0.21228009147E+03  0.21228009147E+03  0.00000000000E+00 0.  1.
         23    2    1    2    0    0  0.79428397368E+02  0.36006761965E+03  0.12622609092E+04  0.13183589621E+04  0.93862607671E+02 0.  0.
        254    2    1    2    0    0 -0.79428397368E+02 -0.36006761965E+03  0.11044369619E+04  0.14728990919E+04  0.90204942829E+03 0.  0.
        -24    2    4    4    0    0  0.25597438502E+03 -0.51395810351E+03  0.55430883512E+03  0.80225408811E+03  0.81716089276E+02 0.  0.
         24    2    4    4    0    0 -0.33540278239E+03  0.15389048386E+03  0.55012812680E+03  0.67064500381E+03  0.10462532095E+03 0.  0.
         11    1    3    3    0    0  0.22279644787E+02  0.12804769473E+02  0.52579999168E+02  0.58523508145E+02  0.00000000000E+00 0.  1.
        -11    1    3    3    0    0  0.57148752581E+02  0.34726285018E+03  0.12096809100E+04  0.12598354540E+04  0.00000000000E+00 0. -1.
          2    1    6    6  502    0 -0.19395791437E+03  0.93202851979E+02  0.40739088557E+03  0.46073178511E+03  0.00000000000E+00 0. -1.
          1    1    5    5  503    0  0.17045988052E+03 -0.35713493496E+03  0.32830630509E+03  0.51418572773E+03  0.00000000000E+00 0. -1.
         -2    1    5    5    0  503  0.85514504493E+02 -0.15682316855E+03  0.22600253003E+03  0.28806836038E+03  0.00000000000E+00 0.  1.
         -1    1    6    6    0  502 -0.14144486802E+03  0.60687631878E+02  0.14273724123E+03  0.20991321870E+03  0.00000000000E+00 0.  1.
<mgrwt>
<rscale>  0 0.14798185E+04</rscale>
<asrwt>0</asrwt>
<pdfrwt beam="1">  1        2 0.39676582E+00 0.14798185E+04</pdfrwt>
<pdfrwt beam="2">  1       -2 0.32658477E-01 0.14798185E+04</pdfrwt>
<totfact> 0.26575896E+01</totfact>
</mgrwt>
</event>
<event>
12    1  0.2406360E-008  0.1418635E+04  0.7818608E-02  0.8940439E-01
          1   -1    0    0  501    0  0.00000000000E+00  0.00000000000E+00  0.25255342600E+04  0.25255342600E+04  0.00000000000E+00 0. -1.
         -1   -1    0    0    0  501 -0.00000000000E+00 -0.00000000000E+00 -0.19921771432E+03  0.19921771432E+03  0.00000000000E+00 0.  1.
         23    2    1    2    0    0 -0.64968087708E+02  0.58130197043E+02  0.14484613828E+04  0.14538923411E+04  0.90347050645E+02 0.  0.
        254    2    1    2    0    0  0.64968087708E+02 -0.58130197043E+02  0.87785516281E+03  0.12708596333E+04  0.91479754499E+03 0.  0.
        -24    2    4    4    0    0  0.44832017145E+03  0.55205229669E+02  0.66387540548E+03  0.80725165351E+03  0.82982435359E+02 0.  0.
         24    2    4    4    0    0 -0.38335208375E+03 -0.11333542671E+03  0.21397975733E+03  0.46360797974E+03  0.96650314380E+02 0.  0.
         13    1    3    3    0    0 -0.82427884714E+02  0.22043680880E+02  0.95333022086E+03  0.95714094576E+03  0.00000000000E+00 0. -1.
        -13    1    3    3    0    0  0.17459797006E+02  0.36086516163E+02  0.49513116199E+03  0.49675139530E+03  0.00000000000E+00 0.  1.
          4    1    6    6  502    0 -0.27719474188E+03 -0.12155130615E+03  0.17844211258E+03  0.35135912183E+03  0.00000000000E+00 0. -1.
          3    1    5    5  503    0  0.28607178295E+03 -0.43822633102E+01  0.42823943370E+03  0.51501969070E+03  0.00000000000E+00 0. -1.
         -4    1    5    5    0  503  0.16224838850E+03  0.59587492979E+02  0.23563597178E+03  0.29223196281E+03  0.00000000000E+00 0.  1.
         -3    1    6    6    0  502 -0.10615734186E+03  0.82158794354E+01  0.35537644747E+02  0.11224885790E+03  0.00000000000E+00 0.  1.
<mgrwt>
<rscale>  0 0.14186348E+04</rscale>
<asrwt>0</asrwt>
<pdfrwt beam="1">  1        1 0.38854371E+00 0.14186348E+04</pdfrwt>
<pdfrwt beam="2">  1       -1 0.30648881E-01 0.14186348E+04</pdfrwt>
<totfact> 0.12486417E+01</totfact>
</mgrwt>
</event>
<event>
12    1  0.2406360E-008  0.1363301E+04  0.7818608E-02  0.8980820E-01
         -2   -1    0    0    0  501 -0.00000000000E+00  0.00000000000E+00  0.41565083732E+03  0.41565083732E+03  0.00000000000E+00 0.  1.
          2   -1    0    0  501    0  0.00000000000E+00 -0.00000000000E+00 -0.11178795380E+04  0.11178795380E+04  0.00000000000E+00 0. -1.
         23    2    1    2    0    0 -0.14907414613E+03 -0.27564495953E+03  0.38208649454E+02  0.33000002843E+03  0.96108652661E+02 0.  0.
        254    2    1    2    0    0  0.14907414613E+03  0.27564495953E+03 -0.74043735009E+03  0.12035303469E+04  0.89556383448E+03 0.  0.
        -24    2    4    4    0    0 -0.31851575249E+03  0.66216055771E+02 -0.52305596000E+02  0.33882550414E+03  0.78930325320E+02 0.  0.
         24    2    4    4    0    0  0.46758989862E+03  0.20942890376E+03 -0.68813175409E+03  0.86470484272E+03  0.10811278836E+03 0.  0.
         13    1    3    3    0    0 -0.12637484558E+03 -0.19560828375E+03  0.66397493365E+02  0.24216075114E+03  0.00000000000E+00 0.  1.
        -13    1    3    3    0    0 -0.22699300552E+02 -0.80036675774E+02 -0.28188843910E+02  0.87839277293E+02  0.00000000000E+00 0. -1.
          4    1    6    6  502    0  0.53542026580E+02  0.64483185713E+02 -0.90507028799E+02  0.12335457880E+03  0.00000000000E+00 0. -1.
          3    1    5    5  503    0 -0.98585592930E+02 -0.14405173766E+02 -0.43617950527E+01  0.99727896903E+02  0.00000000000E+00 0. -1.
         -4    1    5    5    0  503 -0.21993015956E+03  0.80621229537E+02 -0.47943800947E+02  0.23909760723E+03  0.00000000000E+00 0.  1.
         -3    1    6    6    0  502  0.41404787204E+03  0.14494571804E+03 -0.59762472529E+03  0.74135026391E+03  0.00000000000E+00 0.  1.
<mgrwt>
<rscale>  0 0.13633012E+04</rscale>
<asrwt>0</asrwt>
<pdfrwt beam="1">  1        2 0.17198147E+00 0.13633012E+04</pdfrwt>
<pdfrwt beam="2">  1       -2 0.63946283E-01 0.13633012E+04</pdfrwt>
<totfact> 0.46873723E+01</totfact>
</mgrwt>
</event>
<event>
12    1  0.2406360E-008  0.3926305E+04  0.7818608E-02  0.8019580E-01
          1   -1    0    0  501    0  0.00000000000E+00  0.00000000000E+00  0.19164158900E+04  0.19164158900E+04  0.00000000000E+00 0. -1.
         -1   -1    0    0    0  501 -0.00000000000E+00 -0.00000000000E+00 -0.20110292086E+04  0.20110292086E+04  0.00000000000E+00 0.  1.
         23    2    1    2    0    0 -0.90630294765E+03 -0.15458701550E+04 -0.51201886707E+03  0.18660516221E+04  0.94264348149E+02 0.  0.
        254    2    1    2    0    0  0.90630294765E+03  0.15458701550E+04  0.41740554846E+03  0.20613934765E+04  0.92952466572E+03 0.  0.
        -24    2    4    4    0    0  0.76865509454E+02  0.88201961420E+03 -0.63598728035E+02  0.89122293884E+03  0.79791115701E+02 0.  0.
         24    2    4    4    0    0  0.82943743819E+03  0.66385054077E+03  0.48100427649E+03  0.11701705377E+04  0.96280677477E+02 0.  0.
         13    1    3    3    0    0 -0.69680240011E+03 -0.11870939115E+04 -0.43431331020E+03  0.14433826904E+04  0.00000000000E+00 0. -1.
        -13    1    3    3    0    0 -0.20950054754E+03 -0.35877624343E+03 -0.77705556863E+02  0.42266893172E+03  0.00000000000E+00 0.  1.
          2    1    6    6  502    0  0.18047131159E+03  0.10125228689E+03  0.11293605042E+03  0.23574662541E+03  0.00000000000E+00 0. -1.
          1    1    5    5  503    0 -0.10753292904E+02  0.23767241623E+02  0.89792892052E+00  0.26102133227E+02  0.00000000000E+00 0. -1.
         -2    1    5    5    0  503  0.87618802358E+02  0.85825237257E+03 -0.64496656955E+02  0.86512080562E+03  0.00000000000E+00 0.  1.
         -1    1    6    6    0  502  0.64896612660E+03  0.56259825389E+03  0.36806822607E+03  0.93442391226E+03  0.00000000000E+00 0.  1.
<mgrwt>
<rscale>  0 0.39263053E+04</rscale>
<asrwt>0</asrwt>
<pdfrwt beam="1">  1        1 0.29483321E+00 0.39263053E+04</pdfrwt>
<pdfrwt beam="2">  1       -1 0.30938911E+00 0.39263053E+04</pdfrwt>
<totfact> 0.76726150E-02</totfact>
</mgrwt>
</event>
<event>
11    1  0.2406360E-008  0.1365187E+04  0.7818608E-02  0.8979411E-01
         -1   -1    0    0    0  501 -0.00000000000E+00  0.00000000000E+00  0.10226624268E+04  0.10226624268E+04  0.00000000000E+00 0.  1.
          1   -1    0    0  501    0  0.00000000000E+00 -0.00000000000E+00 -0.45560864782E+03  0.45560864782E+03  0.00000000000E+00 0. -1.
         23    2    1    2    0    0  0.36920791929E+03 -0.49350857882E+02  0.23443659203E+03  0.44939739583E+03  0.90815796300E+02 0.  0.
        254    2    1    2    0    0 -0.36920791929E+03  0.49350857882E+02  0.33261718695E+03  0.10288736788E+04  0.89955369990E+03 0.  0.
        -24    2    4    4    0    0 -0.15120229887E+03  0.39341798999E+03  0.41269566480E+03  0.59500428313E+03  0.77926472818E+02 0.  0.
         13    1    3    3    0    0  0.14069150623E+03 -0.51672309016E+02  0.12886624132E+03  0.19766293430E+03  0.00000000000E+00 0.  1.
        -13    1    3    3    0    0  0.22851641306E+03  0.23214511343E+01  0.10557035071E+03  0.25173446153E+03  0.00000000000E+00 0. -1.
          4    1    4    4  502    0 -0.11767743209E+03 -0.76550640708E+02 -0.18513773717E+02  0.14160063006E+03  0.00000000000E+00 0. -1.
          1    1    5    5  503    0 -0.79827938078E+02  0.11041178515E+03  0.14492724264E+03  0.19891497595E+03  0.00000000000E+00 0. -1.
         -2    1    5    5    0  503 -0.71374360787E+02  0.28300620483E+03  0.26776842217E+03  0.39608930718E+03  0.00000000000E+00 0.  1.
         -3    1    4    4    0  502 -0.10032818833E+03 -0.26751649140E+03 -0.61564704139E+02  0.29226876559E+03  0.00000000000E+00 0.  1.
<mgrwt>
<rscale>  0 0.13651869E+04</rscale>
<asrwt>0</asrwt>
<pdfrwt beam="1">  1        1 0.70093638E-01 0.13651869E+04</pdfrwt>
<pdfrwt beam="2">  1       -1 0.15733268E+00 0.13651869E+04</pdfrwt>
<totfact> 0.15074871E+01</totfact>
</mgrwt>
</event>
<event>
12    1  0.2406360E-008  0.1588240E+04  0.7818608E-02  0.8827805E-01
         -2   -1    0    0    0  501 -0.00000000000E+00  0.00000000000E+00  0.69067726307E+03  0.69067726307E+03  0.00000000000E+00 0.  1.
          2   -1    0    0  501    0  0.00000000000E+00 -0.00000000000E+00 -0.91305537068E+03  0.91305537068E+03  0.00000000000E+00 0. -1.
         23    2    1    2    0    0  0.53126342794E+03 -0.96931025017E+01 -0.16161023306E+03  0.56280702514E+03  0.91099363422E+02 0.  0.
        254    2    1    2    0    0 -0.53126342794E+03  0.96931025017E+01 -0.60767874558E+02  0.10409256086E+04  0.89302777223E+03 0.  0.
        -24    2    4    4    0    0  0.65897573615E+02  0.28211633488E+02 -0.35541061956E+03  0.37137134589E+03  0.80383963485E+02 0.  0.
         24    2    4    4    0    0 -0.59716100156E+03 -0.18518530986E+02  0.29464274500E+03  0.66955426271E+03  0.67411911147E+02 0.  0.
         11    1    3    3    0    0  0.16915153578E+03  0.52466931445E+01 -0.95779136468E+02  0.19445671196E+03  0.00000000000E+00 0. -1.
        -11    1    3    3    0    0  0.36211189217E+03 -0.14939795646E+02 -0.65831096588E+02  0.36835031318E+03  0.00000000000E+00 0.  1.
          2    1    6    6  502    0 -0.21323262708E+03 -0.19947433576E+02  0.73137769741E+02  0.22630772572E+03  0.00000000000E+00 0. -1.
          3    1    5    5  503    0  0.31018426146E+02  0.52218635000E+02 -0.15371805265E+03  0.16528208708E+03  0.00000000000E+00 0. -1.
         -4    1    5    5    0  503  0.34879147468E+02 -0.24007001512E+02 -0.20169256691E+03  0.20608925881E+03  0.00000000000E+00 0.  1.
         -1    1    6    6    0  502 -0.38392837447E+03  0.14289025895E+01  0.22150497526E+03  0.44324653699E+03  0.00000000000E+00 0.  1.
<mgrwt>
<rscale>  0 0.15882400E+04</rscale>
<asrwt>0</asrwt>
<pdfrwt beam="1">  1        2 0.14047006E+00 0.15882400E+04</pdfrwt>
<pdfrwt beam="2">  1       -2 0.10625804E+00 0.15882400E+04</pdfrwt>
<totfact> 0.19701935E+01</totfact>
</mgrwt>
</event>
<event>
12    1  0.2406360E-008  0.2356618E+04  0.7818608E-02  0.8455926E-01
          1   -1    0    0  501    0  0.00000000000E+00  0.00000000000E+00  0.85674087856E+03  0.85674087856E+03  0.00000000000E+00 0. -1.
         -1   -1    0    0    0  501 -0.00000000000E+00 -0.00000000000E+00 -0.16205739118E+04  0.16205739118E+04  0.00000000000E+00 0.  1.
         23    2    1    2    0    0  0.35320647689E+03 -0.45621431785E+03 -0.11886350421E+04  0.13244279549E+04  0.91486749438E+02 0.  0.
        254    2    1    2    0    0 -0.35320647689E+03  0.45621431785E+03  0.42480200884E+03  0.11528868355E+04  0.90321923672E+03 0.  0.
        -24    2    4    4    0    0  0.10523739871E+03 -0.21335130451E+03  0.46379987309E+02  0.25506962019E+03  0.79471496116E+02 0.  0.
         24    2    4    4    0    0 -0.45844387561E+03  0.66956562236E+03  0.37842202153E+03  0.89781721529E+03  0.66208881276E+02 0.  0.
         13    1    3    3    0    0  0.15812445538E+02 -0.27154387185E+02 -0.12534684379E+03  0.12922548288E+03  0.00000000000E+00 0. -1.
        -13    1    3    3    0    0  0.33739403136E+03 -0.42905993066E+03 -0.10632881983E+04  0.11952024720E+04  0.00000000000E+00 0.  1.
          4    1    6    6  502    0 -0.35016782670E+03  0.54849615557E+03  0.32038524079E+03  0.72533595116E+03  0.00000000000E+00 0. -1.
          1    1    5    5  503    0  0.82340469750E+02 -0.19558239535E+03  0.15583570305E+02  0.21277987215E+03  0.00000000000E+00 0. -1.
         -2    1    5    5    0  503  0.22896928962E+02 -0.17768909166E+02  0.30796417005E+02  0.42289748038E+02  0.00000000000E+00 0.  1.
         -3    1    6    6    0  502 -0.10827604891E+03  0.12106946679E+03  0.58036780734E+02  0.17248126413E+03  0.00000000000E+00 0.  1.
<mgrwt>
<rscale>  0 0.23566178E+04</rscale>
<asrwt>0</asrwt>
<pdfrwt beam="1">  1        1 0.13180629E+00 0.23566178E+04</pdfrwt>
<pdfrwt beam="2">  1       -1 0.24931906E+00 0.23566178E+04</pdfrwt>
<totfact> 0.12523432E+00</totfact>
</mgrwt>
</event>
<event>
12    1  0.2472104E-008  0.1918212E+04  0.7818608E-02  0.8645844E-01
         -1   -1    0    0    0  501 -0.00000000000E+00  0.00000000000E+00  0.19299691456E+04  0.19299691456E+04  0.00000000000E+00 0.  1.
          1   -1    0    0  501    0  0.00000000000E+00 -0.00000000000E+00 -0.47663159421E+03  0.47663159421E+03  0.00000000000E+00 0. -1.
         23    2    1    2    0    0 -0.53731983510E+03  0.53750189619E+03  0.64554603330E+03  0.10012940903E+04  0.90770483022E+02 0.  0.
        254    2    1    2    0    0  0.53731983510E+03 -0.53750189619E+03  0.80779151809E+03  0.14053066495E+04  0.86298247307E+03 0.  0.
        -24    2    4    4    0    0  0.70267904584E+03 -0.57052507555E+03  0.80311892939E+03  0.12126976795E+04  0.79868290194E+02 0.  0.
         24    2    4    4    0    0 -0.16535921074E+03  0.33023179361E+02  0.46725886931E+01  0.19260897001E+03  0.92963343806E+02 0.  0.
         13    1    3    3    0    0 -0.41337717459E+01  0.12412414059E+02  0.28540322383E+02  0.31395956640E+02  0.00000000000E+00 0. -1.
        -13    1    3    3    0    0 -0.53318606335E+03  0.52508948213E+03  0.61700571092E+03  0.96989813368E+03  0.00000000000E+00 0.  1.
          2    1    6    6  502    0  0.92542351076E+01 -0.46087566684E+01  0.93297330913E+01  0.13925710934E+02  0.00000000000E+00 0. -1.
          3    1    5    5  503    0  0.29858957820E+03 -0.22884386146E+03  0.28357987634E+03  0.47110805067E+03  0.00000000000E+00 0. -1.
         -4    1    5    5    0  503  0.40408946764E+03 -0.34168121410E+03  0.51953905306E+03  0.74158962882E+03  0.00000000000E+00 0.  1.
         -1    1    6    6    0  502 -0.17461344585E+03  0.37631936030E+02 -0.46571443983E+01  0.17868325908E+03  0.00000000000E+00 0.  1.
<mgrwt>
<rscale>  0 0.19182119E+04</rscale>
<asrwt>0</asrwt>
<pdfrwt beam="1">  1        1 0.73327938E-01 0.19182119E+04</pdfrwt>
<pdfrwt beam="2">  1       -1 0.29691833E+00 0.19182119E+04</pdfrwt>
<totfact> 0.15305111E+00</totfact>
</mgrwt>
</event>
<event>
12    1  0.2406360E-008  0.1220647E+04  0.7818608E-02  0.9094974E-01
         -1   -1    0    0    0  501 -0.00000000000E+00  0.00000000000E+00  0.23266537319E+03  0.23266537319E+03  0.00000000000E+00 0.  1.
          1   -1    0    0  501    0  0.00000000000E+00 -0.00000000000E+00 -0.16009885427E+04  0.16009885427E+04  0.00000000000E+00 0. -1.
         23    2    1    2    0    0  0.15017718938E+03  0.14543182990E+03 -0.63658206897E+02  0.23696150979E+03  0.91623056357E+02 0.  0.
        254    2    1    2    0    0 -0.15017718938E+03 -0.14543182990E+03 -0.13046649626E+04  0.15966924061E+04  0.89642198191E+03 0.  0.
        -24    2    4    4    0    0 -0.11115814587E+02 -0.47004079192E+03 -0.10610916412E+04  0.11635267656E+04  0.82566069111E+02 0.  0.
         24    2    4    4    0    0 -0.13906137480E+03  0.32460896202E+03 -0.24357332140E+03  0.43316564052E+03  0.59962196779E+02 0.  0.
         13    1    3    3    0    0  0.70081685441E+02  0.60693993710E+02  0.18220417695E+02  0.94483792937E+02  0.00000000000E+00 0. -1.
        -13    1    3    3    0    0  0.80095503943E+02  0.84737836189E+02 -0.81878624592E+02  0.14247771685E+03  0.00000000000E+00 0.  1.
          2    1    6    6  502    0 -0.11899800427E+03  0.20881738943E+03 -0.15470793271E+03  0.28583171901E+03  0.00000000000E+00 0. -1.
          3    1    5    5  503    0 -0.29301591822E+02 -0.82224815388E+02 -0.23690927046E+03  0.25247872382E+03  0.00000000000E+00 0. -1.
         -4    1    5    5    0  503  0.18185777235E+02 -0.38781597653E+03 -0.82418237075E+03  0.91104804176E+03  0.00000000000E+00 0.  1.
         -1    1    6    6    0  502 -0.20063370527E+02  0.11579157259E+03 -0.88865388688E+02  0.14733392151E+03  0.00000000000E+00 0.  1.
<mgrwt>
<rscale>  0 0.12206467E+04</rscale>
<asrwt>0</asrwt>
<pdfrwt beam="1">  1        1 0.24630593E+00 0.12206467E+04</pdfrwt>
<pdfrwt beam="2">  1       -1 0.35794672E-01 0.12206467E+04</pdfrwt>
<totfact> 0.41034904E+01</totfact>
</mgrwt>
</event>
<event>
12    1  0.2406360E-008  0.1243842E+04  0.7818608E-02  0.9075324E-01
         -1   -1    0    0    0  501 -0.00000000000E+00  0.00000000000E+00  0.46370908984E+03  0.46370908984E+03  0.00000000000E+00 0.  1.
          1   -1    0    0  501    0  0.00000000000E+00 -0.00000000000E+00 -0.83411344744E+03  0.83411344744E+03  0.00000000000E+00 0. -1.
         23    2    1    2    0    0  0.47240733914E+02 -0.15261146692E+03  0.15338854187E+03  0.23942622884E+03  0.90966628505E+02 0.  0.
        254    2    1    2    0    0 -0.47240733914E+02  0.15261146692E+03 -0.52379289947E+03  0.10583963084E+04  0.90571617927E+03 0.  0.
        -24    2    4    4    0    0 -0.43309146749E+03  0.72106341603E+02 -0.47073647961E+03  0.64833509429E+03  0.77317640589E+02 0.  0.
         24    2    4    4    0    0  0.38585073357E+03  0.80505125320E+02 -0.53056419858E+02  0.41006121414E+03  0.99866670379E+02 0.  0.
         13    1    3    3    0    0  0.30323700865E+02 -0.16173261756E+03  0.13931186940E+03  0.21560325455E+03  0.00000000000E+00 0.  1.
        -13    1    3    3    0    0  0.16917033049E+02  0.91211506365E+01  0.14076672471E+02  0.23822974289E+02  0.00000000000E+00 0. -1.
          4    1    6    6  502    0  0.17622895322E+02  0.28366033909E+02 -0.13656866577E+02  0.36079195168E+02  0.00000000000E+00 0. -1.
          1    1    5    5  503    0 -0.28595138432E+02  0.40028536656E+01 -0.79912452453E+01  0.29959385507E+02  0.00000000000E+00 0. -1.
         -2    1    5    5    0  503 -0.40449632905E+03  0.68103487937E+02 -0.46274523437E+03  0.61837570879E+03  0.00000000000E+00 0.  1.
         -3    1    6    6    0  502  0.36822783825E+03  0.52139091411E+02 -0.39399553281E+02  0.37398201897E+03  0.00000000000E+00 0.  1.
<mgrwt>
<rscale>  0 0.12438424E+04</rscale>
<asrwt>0</asrwt>
<pdfrwt beam="1">  1        1 0.12832514E+00 0.12438424E+04</pdfrwt>
<pdfrwt beam="2">  1       -1 0.71339861E-01 0.12438424E+04</pdfrwt>
<totfact> 0.40454395E+01</totfact>
</mgrwt>
</event>
<event>
11    1  0.2406360E-008  0.1518666E+04  0.7818608E-02  0.8872134E-01
          2   -1    0    0  501    0  0.00000000000E+00  0.00000000000E+00  0.32115446635E+04  0.32115446635E+04  0.00000000000E+00 0. -1.
         -2   -1    0    0    0  501 -0.00000000000E+00 -0.00000000000E+00 -0.17953571293E+03  0.17953571293E+03  0.00000000000E+00 0.  1.
         23    2    1    2    0    0 -0.70394457881E+02 -0.68237507109E+02  0.20303365649E+04  0.20347965031E+04  0.92295749357E+02 0.  0.
        254    2    1    2    0    0  0.70394457881E+02  0.68237507109E+02  0.10016723857E+04  0.13562838733E+04  0.90914610468E+03 0.  0.
        -24    2    4    4    0    0  0.41265460706E+03  0.90471576812E+02  0.86005387384E+03  0.96163575038E+03  0.81127797745E+02 0.  0.
         11    1    3    3    0    0  0.26990537463E+01 -0.43183275977E+02  0.34694299101E+03  0.34963054676E+03  0.00000000000E+00 0.  1.
        -11    1    3    3    0    0 -0.73093511627E+02 -0.25054231132E+02  0.16833935739E+04  0.16851659564E+04  0.00000000000E+00 0. -1.
          2    1    4    4  502    0 -0.31357948673E+03 -0.54792524066E+02  0.97879532717E+02  0.33303861355E+03  0.00000000000E+00 0. -1.
          1    1    5    5  503    0  0.33812253604E+03  0.42870173655E+02  0.65649117644E+03  0.73969275102E+03  0.00000000000E+00 0. -1.
         -2    1    5    5    0  503  0.74532071018E+02  0.47601403157E+02  0.20356269741E+03  0.22194299937E+03  0.00000000000E+00 0.  1.
         -1    1    4    4    0  502 -0.28680662448E+02  0.32558454363E+02  0.43738979101E+02  0.61609509345E+02  0.00000000000E+00 0.  1.
<mgrwt>
<rscale>  0 0.15186665E+04</rscale>
<asrwt>0</asrwt>
<pdfrwt beam="1">  1        2 0.49408375E+00 0.15186665E+04</pdfrwt>
<pdfrwt beam="2">  1       -2 0.27620881E-01 0.15186665E+04</pdfrwt>
<totfact> 0.14840315E+01</totfact>
</mgrwt>
</event>
<event>
11    1  0.2406360E-008  0.1507097E+04  0.7818608E-02  0.8879747E-01
          2   -1    0    0  501    0  0.00000000000E+00  0.00000000000E+00  0.18678606138E+04  0.18678606138E+04  0.00000000000E+00 0. -1.
         -2   -1    0    0    0  501 -0.00000000000E+00 -0.00000000000E+00 -0.30400308204E+03  0.30400308204E+03  0.00000000000E+00 0.  1.
         23    2    1    2    0    0 -0.30386249913E+03 -0.27951650060E+03  0.15752901908E+03  0.45126614508E+03  0.91454083316E+02 0.  0.
        254    2    1    2    0    0  0.30386249913E+03  0.27951650060E+03  0.14063285126E+04  0.17205975507E+04  0.90124034176E+03 0.  0.
        -24    2    4    4    0    0  0.37944942034E+03  0.14046897887E+03  0.14309198452E+04  0.14892709766E+04  0.81749873522E+02 0.  0.
         13    1    3    3    0    0 -0.28254933770E+03 -0.22266029720E+03  0.15118433917E+03  0.39021588972E+03  0.00000000000E+00 0. -1.
        -13    1    3    3    0    0 -0.21313161432E+02 -0.56856203403E+02  0.63446799084E+01  0.61050255354E+02  0.00000000000E+00 0.  1.
          4    1    4    4  502    0 -0.96248736411E+02  0.45763580238E+02 -0.67960839936E+02  0.12639936828E+03  0.00000000000E+00 0. -1.
          1    1    5    5  503    0  0.37067223874E+03  0.12091095851E+03  0.13236116370E+04  0.13798424309E+04  0.00000000000E+00 0. -1.
         -2    1    5    5    0  503  0.87771815985E+01  0.19558020360E+02  0.10730820818E+03  0.10942854573E+03  0.00000000000E+00 0.  1.
         -3    1    4    4    0  502  0.20661815206E+02  0.93283941494E+02  0.43369507361E+02  0.10492720580E+03  0.00000000000E+00 0.  1.
<mgrwt>
<rscale>  0 0.15070971E+04</rscale>
<asrwt>0</asrwt>
<pdfrwt beam="1">  1        2 0.28736317E+00 0.15070971E+04</pdfrwt>
<pdfrwt beam="2">  1       -2 0.46769706E-01 0.15070971E+04</pdfrwt>
<totfact> 0.33114064E+01</totfact>
</mgrwt>
</event>
<event>
12    1  0.2406360E-008  0.1568742E+04  0.7818608E-02  0.8839985E-01
          3   -1    0    0  501    0  0.00000000000E+00  0.00000000000E+00  0.45638169666E+03  0.45638169666E+03  0.00000000000E+00 0. -1.
         -3   -1    0    0    0  501 -0.00000000000E+00 -0.00000000000E+00 -0.13480770420E+04  0.13480770420E+04  0.00000000000E+00 0.  1.
         23    2    1    2    0    0 -0.37047711658E+03  0.15934635907E+03  0.96788701940E+02  0.42414223965E+03  0.88792063686E+02 0.  0.
        254    2    1    2    0    0  0.37047711658E+03 -0.15934635907E+03 -0.98848404733E+03  0.13803164991E+04  0.87494478094E+03 0.  0.
        -24    2    4    4    0    0  0.97574259763E+02  0.66068685706E+02 -0.10030461628E+04  0.10130764463E+04  0.79601972341E+02 0.  0.
         24    2    4    4    0    0  0.27290285681E+03 -0.22541504477E+03  0.14562115459E+02  0.36724005274E+03  0.96774425665E+02 0.  0.
         11    1    3    3    0    0 -0.37425836970E+03  0.16154722675E+03  0.92465052929E+02  0.41799117189E+03  0.00000000000E+00 0. -1.
        -11    1    3    3    0    0  0.37812531281E+01 -0.22008676822E+01  0.43236490110E+01  0.61510677563E+01  0.00000000000E+00 0.  1.
          4    1    6    6  502    0  0.12470346501E+03 -0.12343476996E+03 -0.38587788042E+02  0.17965554265E+03  0.00000000000E+00 0. -1.
          3    1    5    5  503    0  0.18625936088E+02  0.37359759578E+02 -0.14389479566E+03  0.14982786573E+03  0.00000000000E+00 0. -1.
         -4    1    5    5    0  503  0.78948323675E+02  0.28708926128E+02 -0.85915136712E+03  0.86324858059E+03  0.00000000000E+00 0.  1.
         -3    1    6    6    0  502  0.14819939180E+03 -0.10198027482E+03  0.53149903501E+02  0.18758451009E+03  0.00000000000E+00 0.  1.
<mgrwt>
<rscale>  0 0.15687418E+04</rscale>
<asrwt>0</asrwt>
<pdfrwt beam="1">  1        3 0.70212569E-01 0.15687418E+04</pdfrwt>
<pdfrwt beam="2">  1       -3 0.20739647E+00 0.15687418E+04</pdfrwt>
<totfact> 0.64236225E-01</totfact>
</mgrwt>
</event>
<event>
12    1  0.2406360E-008  0.1325323E+04  0.7818608E-02  0.9009721E-01
          1   -1    0    0  501    0  0.00000000000E+00  0.00000000000E+00  0.65557343800E+03  0.65557343800E+03  0.00000000000E+00 0. -1.
         -1   -1    0    0    0  501 -0.00000000000E+00 -0.00000000000E+00 -0.66982633341E+03  0.66982633341E+03  0.00000000000E+00 0.  1.
         23    2    1    2    0    0  0.28301381797E+03  0.43500034975E+02  0.18884455752E+03  0.35576820075E+03  0.94444012804E+02 0.  0.
        254    2    1    2    0    0 -0.28301381797E+03 -0.43500034975E+02 -0.20309745293E+03  0.96963157067E+03  0.90385161020E+03 0.  0.
        -24    2    4    4    0    0 -0.50873471391E+03  0.15255699395E+03 -0.32553599372E+03  0.62811988784E+03  0.80475243123E+02 0.  0.
         24    2    4    4    0    0  0.22572089594E+03 -0.19605702892E+03  0.12243854079E+03  0.34151168283E+03  0.11068311426E+03 0.  0.
         13    1    3    3    0    0  0.44166661921E+02  0.40193549101E+02  0.58736357489E+02  0.83762611622E+02  0.00000000000E+00 0.  1.
        -13    1    3    3    0    0  0.23884715604E+03  0.33064858738E+01  0.13010820003E+03  0.27200558912E+03  0.00000000000E+00 0. -1.
          2    1    6    6  502    0  0.13900285768E+03 -0.10155002037E+03  0.12578497865E+03  0.21320427278E+03  0.00000000000E+00 0. -1.
          1    1    5    5  503    0 -0.89075175534E+02  0.59627435836E+02 -0.71213520105E+02  0.12869026166E+03  0.00000000000E+00 0. -1.
         -4    1    5    5    0  503 -0.41965953838E+03  0.92929558112E+02 -0.25432247361E+03  0.49942962618E+03  0.00000000000E+00 0.  1.
         -1    1    6    6    0  502  0.86718038268E+02 -0.94507008553E+02 -0.33464378594E+01  0.12830741005E+03  0.00000000000E+00 0.  1.
<mgrwt>
<rscale>  0 0.13253231E+04</rscale>
<asrwt>0</asrwt>
<pdfrwt beam="1">  1        1 0.10085745E+00 0.13253231E+04</pdfrwt>
<pdfrwt beam="2">  1       -1 0.10305021E+00 0.13253231E+04</pdfrwt>
<totfact> 0.26238791E+01</totfact>
</mgrwt>
</event>
<event>
12    1  0.2406360E-008  0.2228257E+04  0.7818608E-02  0.8506758E-01
         -2   -1    0    0    0  501 -0.00000000000E+00  0.00000000000E+00  0.83497147471E+03  0.83497147471E+03  0.00000000000E+00 0. -1.
          2   -1    0    0  501    0  0.00000000000E+00 -0.00000000000E+00 -0.14866170698E+04  0.14866170698E+04  0.00000000000E+00 0.  1.
         23    2    1    2    0    0  0.39449281772E+03  0.40720457783E+03 -0.10455116423E+04  0.11926230389E+04  0.88402302711E+02 0.  0.
        254    2    1    2    0    0 -0.39449281772E+03 -0.40720457783E+03  0.39386604730E+03  0.11289655056E+04  0.89330425845E+03 0.  0.
        -24    2    4    4    0    0 -0.23891554570E+02 -0.60187664685E+03  0.10641931476E+03  0.61692092752E+03  0.80249958604E+02 0.  0.
         24    2    4    4    0    0 -0.37060126315E+03  0.19467206902E+03  0.28744673253E+03  0.51204457807E+03  0.65738232290E+02 0.  0.
         11    1    3    3    0    0  0.43600601883E+02  0.25721100579E+02 -0.55385813552E+02  0.75034497682E+02  0.00000000000E+00 0. -1.
        -11    1    3    3    0    0  0.35089221583E+03  0.38148347725E+03 -0.99012582879E+03  0.11175885412E+04  0.00000000000E+00 0.  1.
          4    1    6    6  502    0 -0.27981761775E+03  0.16338732017E+03  0.19192347422E+03  0.37660049861E+03  0.00000000000E+00 0. -1.
          1    1    5    5  503    0 -0.24148714186E+02 -0.49899774196E+03  0.57110557827E+02  0.50283548273E+03  0.00000000000E+00 0. -1.
         -2    1    5    5    0  503  0.25715961588E+00 -0.10287890489E+03  0.49308756937E+02  0.11408544479E+03  0.00000000000E+00 0.  1.
         -3    1    6    6    0  502 -0.90783645397E+02  0.31284748849E+02  0.95523258317E+02  0.13544407946E+03  0.00000000000E+00 0.  1.
<mgrwt>
<rscale>  0 0.22282575E+04</rscale>
<asrwt>0</asrwt>
<pdfrwt beam="1">  1        2 0.22871032E+00 0.22282575E+04</pdfrwt>
<pdfrwt beam="2">  1       -2 0.12845715E+00 0.22282575E+04</pdfrwt>
<totfact> 0.52736957E+00</totfact>
</mgrwt>
</event>
<event>
12    1  0.2406360E-008  0.1564840E+04  0.7818608E-02  0.8842444E-01
         -4   -1    0    0    0  501 -0.00000000000E+00  0.00000000000E+00  0.50523874880E+03  0.50523874880E+03  0.00000000000E+00 0.  1.
          4   -1    0    0  501    0  0.00000000000E+00 -0.00000000000E+00 -0.12116668898E+04  0.12116668898E+04  0.00000000000E+00 0. -1.
         23    2    1    2    0    0  0.50518863723E+01 -0.45241814173E+03 -0.26215016608E+03  0.53153727390E+03  0.95401611341E+02 0.  0.
        254    2    1    2    0    0 -0.50518863723E+01  0.45241814173E+03 -0.44427797487E+03  0.11853683647E+04  0.10015026433E+04 0.  0.
        -24    2    4    4    0    0  0.14971354580E+03  0.49267576644E+03 -0.69711641232E+03  0.87041986568E+03  0.80721085298E+02 0.  0.
         24    2    4    4    0    0 -0.15476543217E+03 -0.40257624718E+02  0.25283843745E+03  0.31494849898E+03  0.98449307842E+02 0.  0.
         13    1    3    3    0    0 -0.17409571165E+02 -0.19481347059E+03 -0.64102481060E+02  0.20582640640E+03  0.00000000000E+00 0.  1.
        -13    1    3    3    0    0  0.22461457537E+02 -0.25760467113E+03 -0.19804768502E+03  0.32571086750E+03  0.00000000000E+00 0. -1.
          4    1    6    6  502    0 -0.16464906732E+02 -0.45183537879E+02  0.49760951120E+02  0.69201138035E+02  0.00000000000E+00 0. -1.
          1    1    5    5  503    0 -0.32064632852E+01  0.24822354002E+02 -0.14739503425E+02  0.29046232565E+02  0.00000000000E+00 0. -1.
         -2    1    5    5    0  503  0.15292000909E+03  0.46785341244E+03 -0.68237690889E+03  0.84137363311E+03  0.00000000000E+00 0.  1.
         -3    1    6    6    0  502 -0.13830052544E+03  0.49259131612E+01  0.20307748633E+03  0.24574736095E+03  0.00000000000E+00 0.  1.
<mgrwt>
<rscale>  0 0.15648400E+04</rscale>
<asrwt>0</asrwt>
<pdfrwt beam="1">  1        4 0.18641029E+00 0.15648400E+04</pdfrwt>
<pdfrwt beam="2">  1       -4 0.77729038E-01 0.15648400E+04</pdfrwt>
<totfact> 0.46251616E-01</totfact>
</mgrwt>
</event>
<event>
12    1  0.2406360E-008  0.1954010E+04  0.7818608E-02  0.8628430E-01
         -2   -1    0    0    0  501 -0.00000000000E+00  0.00000000000E+00  0.39434082581E+03  0.39434082581E+03  0.00000000000E+00 0. -1.
          2   -1    0    0  501    0  0.00000000000E+00 -0.00000000000E+00 -0.24205922405E+04  0.24205922405E+04  0.00000000000E+00 0.  1.
         23    2    1    2    0    0 -0.56579488117E+03  0.33352007317E+03 -0.13698693585E+04  0.15219252966E+04  0.91406030577E+02 0.  0.
        254    2    1    2    0    0  0.56579488117E+03 -0.33352007317E+03 -0.65638205621E+03  0.12930077697E+04  0.89981787158E+03 0.  0.
        -24    2    4    4    0    0  0.54086887488E+03 -0.28081736109E+03  0.12557729194E+02  0.61462820813E+03  0.78820096105E+02 0.  0.
         24    2    4    4    0    0  0.24926006283E+02 -0.52702712072E+02 -0.66893978540E+03  0.67837956157E+03  0.96537616585E+02 0.  0.
         11    1    3    3    0    0 -0.48221159372E+03  0.24501899736E+03 -0.10949587546E+04  0.12212686045E+04  0.00000000000E+00 0.  1.
        -11    1    3    3    0    0 -0.83583287447E+02  0.88501075807E+02 -0.27491060393E+03  0.30065669211E+03  0.00000000000E+00 0. -1.
          2    1    6    6  502    0 -0.97279902565E+01 -0.34645795597E+02 -0.58141898777E+03  0.58253154789E+03  0.00000000000E+00 0. -1.
          1    1    5    5  503    0  0.24363526582E+03 -0.11710052056E+03  0.43849787638E+02  0.27384937199E+03  0.00000000000E+00 0. -1.
         -4    1    5    5    0  503  0.29723360907E+03 -0.16371684053E+03 -0.31292058445E+02  0.34077883613E+03  0.00000000000E+00 0.  1.
         -1    1    6    6    0  502  0.34653996540E+02 -0.18056916475E+02 -0.87520797633E+02  0.95848013684E+02  0.00000000000E+00 0.  1.
<mgrwt>
<rscale>  0 0.19540096E+04</rscale>
<asrwt>0</asrwt>
<pdfrwt beam="1">  1        2 0.37239882E+00 0.19540096E+04</pdfrwt>
<pdfrwt beam="2">  1       -2 0.60667817E-01 0.19540096E+04</pdfrwt>
<totfact> 0.91312437E+00</totfact>
</mgrwt>
</event>
<event>
11    1  0.2406360E-008  0.2781646E+04  0.7818608E-02  0.8308989E-01
          2   -1    0    0  501    0  0.00000000000E+00  0.00000000000E+00  0.10953158856E+04  0.10953158856E+04  0.00000000000E+00 0. -1.
         -2   -1    0    0    0  501 -0.00000000000E+00 -0.00000000000E+00 -0.17660559608E+04  0.17660559608E+04  0.00000000000E+00 0.  1.
         23    2    1    2    0    0  0.30806021347E+03  0.66232399702E+03 -0.13456972466E+04  0.15339038882E+04  0.91574486515E+02 0.  0.
        254    2    1    2    0    0 -0.30806021347E+03 -0.66232399702E+03  0.67495717140E+03  0.13274679581E+04  0.87922114652E+03 0.  0.
        -24    2    4    4    0    0  0.15825405767E+03  0.12571904337E+03  0.13108520685E+03  0.25375336913E+03  0.79735915723E+02 0.  0.
         13    1    3    3    0    0  0.12873449769E+02  0.64729267550E+02 -0.82540166212E+02  0.10568104288E+03  0.00000000000E+00 0. -1.
        -13    1    3    3    0    0  0.29518676370E+03  0.59759472947E+03 -0.12631570804E+04  0.14282228453E+04  0.00000000000E+00 0.  1.
          4    1    4    4  502    0 -0.22869059762E+03 -0.27957816345E+03  0.25781446604E+03  0.44376980273E+03  0.00000000000E+00 0. -1.
          1    1    5    5  503    0  0.10899723056E+03  0.65803283123E+02  0.38588196060E+02  0.13303953252E+03  0.00000000000E+00 0. -1.
         -2    1    5    5    0  503  0.49256827106E+02  0.59915760247E+02  0.92497010791E+02  0.12071383660E+03  0.00000000000E+00 0.  1.
         -3    1    4    4    0  502 -0.23762367351E+03 -0.50846487694E+03  0.28605749852E+03  0.62994478628E+03  0.00000000000E+00 0.  1.
<mgrwt>
<rscale>  0 0.27816464E+04</rscale>
<asrwt>0</asrwt>
<pdfrwt beam="1">  1        2 0.16851014E+00 0.27816464E+04</pdfrwt>
<pdfrwt beam="2">  1       -2 0.27170092E+00 0.27816464E+04</pdfrwt>
<totfact> 0.90442041E-01</totfact>
</mgrwt>
</event>
<event>
11    1  0.2406360E-008  0.2145839E+04  0.7818608E-02  0.8541315E-01
         -1   -1    0    0    0  501 -0.00000000000E+00  0.00000000000E+00  0.35035245208E+03  0.35035245208E+03  0.00000000000E+00 0.  1.
          1   -1    0    0  501    0  0.00000000000E+00 -0.00000000000E+00 -0.32857099781E+04  0.32857099781E+04  0.00000000000E+00 0. -1.
         23    2    1    2    0    0  0.13341944562E+02 -0.89365908959E+03 -0.12941191531E+04  0.15755802474E+04  0.94361844896E+02 0.  0.
        254    2    1    2    0    0 -0.13341944562E+02  0.89365908959E+03 -0.16412383729E+04  0.20604821827E+04  0.86782420614E+03 0.  0.
        -24    2    4    4    0    0  0.21072938485E+03  0.55513398214E+03 -0.11997357759E+04  0.13409549043E+04  0.78825829764E+02 0.  0.
         11    1    3    3    0    0 -0.31302011365E+01 -0.84861349331E+03 -0.12468394960E+04  0.15082318748E+04  0.00000000000E+00 0.  1.
        -11    1    3    3    0    0  0.16472145699E+02 -0.45045596284E+02 -0.47279657078E+02  0.67348372674E+02  0.00000000000E+00 0. -1.
          4    1    4    4  502    0 -0.16575914458E+03  0.14697699070E+03  0.13980957855E+02  0.22197701905E+03  0.00000000000E+00 0. -1.
          1    1    5    5  503    0  0.16912432278E+03  0.46237188030E+03 -0.10533550198E+04  0.11627328111E+04  0.00000000000E+00 0. -1.
         -2    1    5    5    0  503  0.41605062072E+02  0.92762101847E+02 -0.14638075615E+03  0.17822209319E+03  0.00000000000E+00 0.  1.
         -3    1    4    4    0  502 -0.58312184838E+02  0.19154811675E+03 -0.45548355478E+03  0.49755025938E+03  0.00000000000E+00 0.  1.
<mgrwt>
<rscale>  0 0.21458393E+04</rscale>
<asrwt>0</asrwt>
<pdfrwt beam="1">  1        1 0.50549385E+00 0.21458393E+04</pdfrwt>
<pdfrwt beam="2">  1       -1 0.53900377E-01 0.21458393E+04</pdfrwt>
<totfact> 0.11680298E+00</totfact>
</mgrwt>
</event>
<event>
12    1  0.2406360E-008  0.1741298E+04  0.7818608E-02  0.8738155E-01
         -1   -1    0    0    0  501 -0.00000000000E+00  0.00000000000E+00  0.28906445161E+03  0.28906445161E+03  0.00000000000E+00 0.  1.
          1   -1    0    0  501    0  0.00000000000E+00 -0.00000000000E+00 -0.26223548742E+04  0.26223548742E+04  0.00000000000E+00 0. -1.
         23    2    1    2    0    0  0.93769037231E+02 -0.62459715000E+03 -0.78813899663E+03  0.10145677221E+04  0.96282670410E+02 0.  0.
        254    2    1    2    0    0 -0.93769037231E+02  0.62459715000E+03 -0.15451514260E+04  0.18968516037E+04  0.90091000948E+03 0.  0.
        -24    2    4    4    0    0 -0.12172667162E+03 -0.14859008014E+03 -0.56904023824E+02  0.21604098628E+03  0.80865600395E+02 0.  0.
         24    2    4    4    0    0  0.27957634384E+02  0.77318723013E+03 -0.14882474022E+04  0.16808106175E+04  0.10790680935E+03 0.  0.
         11    1    3    3    0    0  0.46385132691E+01 -0.16856767244E+03 -0.27249120515E+03  0.32044973534E+03  0.00000000000E+00 0.  1.
        -11    1    3    3    0    0  0.89130523962E+02 -0.45602947756E+03 -0.51564779148E+03  0.69411798677E+03  0.00000000000E+00 0. -1.
          4    1    6    6  502    0  0.60805169287E+02  0.53846663113E+03 -0.10928233140E+04  0.12197976788E+04  0.00000000000E+00 0. -1.
          3    1    5    5  503    0 -0.73743613828E+02 -0.49663848990E+02  0.64565778990E+01  0.89142054470E+02  0.00000000000E+00 0. -1.
         -4    1    5    5    0  503 -0.47983057787E+02 -0.98926231146E+02 -0.63360601723E+02  0.12689893181E+03  0.00000000000E+00 0.  1.
         -3    1    6    6    0  502 -0.32847534903E+02  0.23472059900E+03 -0.39542408814E+03  0.46101293867E+03  0.00000000000E+00 0.  1.
<mgrwt>
<rscale>  0 0.17412979E+04</rscale>
<asrwt>0</asrwt>
<pdfrwt beam="1">  1        1 0.40343922E+00 0.17412979E+04</pdfrwt>
<pdfrwt beam="2">  1       -1 0.44471454E-01 0.17412979E+04</pdfrwt>
<totfact> 0.52938472E+00</totfact>
</mgrwt>
</event>
<event>
12    1  0.2406360E-008  0.1392173E+04  0.7818608E-02  0.8959504E-01
          2   -1    0    0  501    0  0.00000000000E+00  0.00000000000E+00  0.27242850978E+04  0.27242850978E+04  0.00000000000E+00 0. -1.
         -2   -1    0    0    0  501 -0.00000000000E+00 -0.00000000000E+00 -0.17785811864E+03  0.17785811864E+03  0.00000000000E+00 0.  1.
         23    2    1    2    0    0 -0.25649197804E+03 -0.20617042340E+03  0.11839977806E+04  0.12322768719E+04  0.91439413282E+02 0.  0.
        254    2    1    2    0    0  0.25649197804E+03  0.20617042340E+03  0.13624291985E+04  0.16698663445E+04  0.90771466288E+03 0.  0.
        -24    2    4    4    0    0  0.18398801840E+03  0.35194082122E+03  0.14155390420E+04  0.14723791329E+04  0.80222184436E+02 0.  0.
         24    2    4    4    0    0  0.72503959641E+02 -0.14577039782E+03 -0.53109843467E+02  0.19748721165E+03  0.98360104966E+02 0.  0.
         13    1    3    3    0    0 -0.25207589087E+03 -0.20715266788E+03  0.11835864084E+04  0.12277342012E+04  0.00000000000E+00 0. -1.
        -13    1    3    3    0    0 -0.44160871755E+01  0.98224448400E+00  0.41137216896E+00  0.45426707155E+01  0.00000000000E+00 0.  1.
          2    1    6    6  502    0 -0.16737843840E+02 -0.57508838952E+02  0.30667080572E+01  0.59973549773E+02  0.00000000000E+00 0. -1.
          1    1    5    5  503    0  0.75886921729E+01 -0.33612918413E+01  0.23474809321E+02  0.24898859500E+02  0.00000000000E+00 0. -1.
         -2    1    5    5    0  503  0.17639932623E+03  0.35530211306E+03  0.13920642327E+04  0.14474802734E+04  0.00000000000E+00 0.  1.
         -1    1    6    6    0  502  0.89241803481E+02 -0.88261558869E+02 -0.56176551524E+02  0.13751366188E+03  0.00000000000E+00 0.  1.
<mgrwt>
<rscale>  0 0.13921727E+04</rscale>
<asrwt>0</asrwt>
<pdfrwt beam="1">  1        2 0.41912076E+00 0.13921727E+04</pdfrwt>
<pdfrwt beam="2">  1       -2 0.27362789E-01 0.13921727E+04</pdfrwt>
<totfact> 0.30602035E+01</totfact>
</mgrwt>
</event>
<event>
12    1  0.2406360E-008  0.1860483E+04  0.7818608E-02  0.8674780E-01
         -2   -1    0    0    0  501 -0.00000000000E+00  0.00000000000E+00  0.81747230825E+03  0.81747230825E+03  0.00000000000E+00 0.  1.
          2   -1    0    0  501    0  0.00000000000E+00 -0.00000000000E+00 -0.10585670013E+04  0.10585670013E+04  0.00000000000E+00 0. -1.
         23    2    1    2    0    0 -0.54967594091E+03 -0.34465822637E+03  0.17604249853E+03  0.68007043036E+03  0.10281972548E+03 0.  0.
        254    2    1    2    0    0  0.54967594091E+03  0.34465822637E+03 -0.41713719162E+03  0.11959688792E+04  0.91400502757E+03 0.  0.
        -24    2    4    4    0    0  0.48278291777E+03  0.59434627317E+03 -0.49746230790E+03  0.91662224546E+03  0.80004718476E+02 0.  0.
         24    2    4    4    0    0  0.66893023141E+02 -0.24968804680E+03  0.80325116277E+02  0.27934663376E+03  0.69018984566E+02 0.  0.
         11    1    3    3    0    0 -0.24816127354E+02 -0.28509133884E+02 -0.11123080023E+02  0.39399667522E+02  0.00000000000E+00 0. -1.
        -11    1    3    3    0    0 -0.52485981355E+03 -0.31614909249E+03  0.18716557855E+03  0.64067076284E+03  0.00000000000E+00 0.  1.
          2    1    6    6  502    0  0.28786962679E+02 -0.69003978498E+02 -0.69732212937E+01  0.75092370346E+02  0.00000000000E+00 0. -1.
          1    1    5    5  503    0  0.75131695054E+02  0.63054524094E+02 -0.87451647624E+02  0.13140941855E+03  0.00000000000E+00 0. -1.
         -2    1    5    5    0  503  0.40765122271E+03  0.53129174908E+03 -0.41001066028E+03  0.78521282692E+03  0.00000000000E+00 0.  1.
         -1    1    6    6    0  502  0.38106060461E+02 -0.18068406830E+03  0.87298337571E+02  0.20425426342E+03  0.00000000000E+00 0.  1.
<mgrwt>
<rscale>  0 0.18604830E+04</rscale>
<asrwt>0</asrwt>
<pdfrwt beam="1">  1        2 0.16285646E+00 0.18604830E+04</pdfrwt>
<pdfrwt beam="2">  1       -2 0.12576497E+00 0.18604830E+04</pdfrwt>
<totfact> 0.10257343E+01</totfact>
</mgrwt>
</event>
<event>
11    1  0.2406360E-008  0.4237625E+04  0.7818608E-02  0.7958254E-01
         -1   -1    0    0    0  501 -0.00000000000E+00  0.00000000000E+00  0.13465491652E+04  0.13465491652E+04  0.00000000000E+00 0.  1.
          1   -1    0    0  501    0  0.00000000000E+00 -0.00000000000E+00 -0.33339781612E+04  0.33339781612E+04  0.00000000000E+00 0. -1.
         23    2    1    2    0    0  0.39155314642E+03  0.94170129012E+03 -0.28795986760E+04  0.30563186338E+04  0.94233065634E+02 0.  0.
        254    2    1    2    0    0 -0.39155314642E+03 -0.94170129012E+03  0.89216967994E+03  0.16242086926E+04  0.89552886772E+03 0.  0.
        -24    2    4    4    0    0 -0.49846917886E+03 -0.59204318125E+03  0.35140342691E+03  0.85378014686E+03  0.80433326386E+02 0.  0.
         13    1    3    3    0    0  0.28003942379E+03  0.55970371182E+03 -0.18022832824E+04  0.19078562194E+04  0.00000000000E+00 0. -1.
        -13    1    3    3    0    0  0.11151372264E+03  0.38199757830E+03 -0.10773153936E+04  0.11484624145E+04  0.00000000000E+00 0.  1.
          2    1    4    4  502    0 -0.49047059608E+02 -0.35948149605E+03  0.48241048723E+03  0.60361613485E+03  0.00000000000E+00 0. -1.
          3    1    5    5  503    0 -0.41067026681E+02 -0.22170395120E+02  0.12702239330E+02  0.48367075415E+02  0.00000000000E+00 0. -1.
         -4    1    5    5    0  503 -0.45740215218E+03 -0.56987278613E+03  0.33870118758E+03  0.80541307144E+03  0.00000000000E+00 0.  1.
         -1    1    4    4    0  502  0.15596309204E+03  0.98233871815E+01  0.58355765804E+02  0.16681241086E+03  0.00000000000E+00 0.  1.
<mgrwt>
<rscale>  0 0.42376246E+04</rscale>
<asrwt>0</asrwt>
<pdfrwt beam="1">  1        1 0.51291971E+00 0.42376246E+04</pdfrwt>
<pdfrwt beam="2">  1       -1 0.20716141E+00 0.42376246E+04</pdfrwt>
<totfact> 0.34670705E-02</totfact>
</mgrwt>
</event>
<event>
12    1  0.2406360E-008  0.1709854E+04  0.7818608E-02  0.8755764E-01
          1   -1    0    0  501    0  0.00000000000E+00  0.00000000000E+00  0.17992647556E+04  0.17992647556E+04  0.00000000000E+00 0. -1.
         -1   -1    0    0    0  501 -0.00000000000E+00 -0.00000000000E+00 -0.40622151548E+03  0.40622151548E+03  0.00000000000E+00 0.  1.
         23    2    1    2    0    0 -0.14365071729E+03 -0.58368565927E+03  0.25820471821E+03  0.66041938719E+03  0.90330576484E+02 0.  0.
        254    2    1    2    0    0  0.14365071729E+03  0.58368565927E+03  0.11348385219E+04  0.15450668839E+04  0.85909762398E+03 0.  0.
        -24    2    4    4    0    0  0.15296199221E+03 -0.11722604708E+03  0.66272727954E+03  0.69482641574E+03  0.80230815674E+02 0.  0.
         24    2    4    4    0    0 -0.93112749245E+01  0.70091170635E+03  0.47211124239E+03  0.85024046819E+03  0.93037135618E+02 0.  0.
         13    1    3    3    0    0 -0.18367941989E+02 -0.56379621857E+02  0.57123185351E+02  0.82335298374E+02  0.00000000000E+00 0. -1.
        -13    1    3    3    0    0 -0.12528277530E+03 -0.52730603742E+03  0.20108153286E+03  0.57808408881E+03  0.00000000000E+00 0.  1.
          4    1    6    6  502    0 -0.26065499491E+02  0.37134750065E+03  0.29978738548E+03  0.47796532614E+03  0.00000000000E+00 0. -1.
          1    1    5    5  503    0  0.13796476758E+03 -0.97561556271E+02  0.45022459542E+03  0.48088950984E+03  0.00000000000E+00 0. -1.
         -2    1    5    5    0  503  0.14997224633E+02 -0.19664490810E+02  0.21250268413E+03  0.21393690590E+03  0.00000000000E+00 0.  1.
         -3    1    6    6    0  502  0.16754224566E+02  0.32956420571E+03  0.17232385691E+03  0.37227514205E+03  0.00000000000E+00 0.  1.
<mgrwt>
<rscale>  0 0.17098539E+04</rscale>
<asrwt>0</asrwt>
<pdfrwt beam="1">  1        1 0.27680996E+00 0.17098539E+04</pdfrwt>
<pdfrwt beam="2">  1       -1 0.62495619E-01 0.17098539E+04</pdfrwt>
<totfact> 0.10071613E+01</totfact>
</mgrwt>
</event>
<event>
12    1  0.2406360E-008  0.1850754E+04  0.7818608E-02  0.8679765E-01
          2   -1    0    0  501    0  0.00000000000E+00  0.00000000000E+00  0.13521270504E+04  0.13521270504E+04  0.00000000000E+00 0. -1.
         -2   -1    0    0    0  501 -0.00000000000E+00 -0.00000000000E+00 -0.63331529729E+03  0.63331529729E+03  0.00000000000E+00 0.  1.
         23    2    1    2    0    0 -0.48548985308E+03  0.14794569208E+03  0.80451049585E+03  0.95544163305E+03  0.89684173604E+02 0.  0.
        254    2    1    2    0    0  0.48548985308E+03 -0.14794569208E+03 -0.85698742753E+02  0.10300007146E+04  0.89217087622E+03 0.  0.
        -24    2    4    4    0    0 -0.13358489048E+03 -0.23066330684E+02 -0.31410601043E+03  0.35157364162E+03  0.81021362109E+02 0.  0.
         24    2    4    4    0    0  0.61907474356E+03 -0.12487936139E+03  0.22840726767E+03  0.67842707300E+03  0.96151029370E+02 0.  0.
         13    1    3    3    0    0 -0.38059807422E+03  0.87639032388E+02  0.56143891827E+03  0.68392189104E+03  0.00000000000E+00 0.  1.
        -13    1    3    3    0    0 -0.10489177885E+03  0.60306659690E+02  0.24307157759E+03  0.27151974202E+03  0.00000000000E+00 0. -1.
          2    1    6    6  502    0  0.59225636482E+03 -0.10029104377E+03  0.22656910186E+03  0.64199645875E+03  0.00000000000E+00 0. -1.
          3    1    5    5  503    0 -0.94971351138E+02 -0.32244348035E+02 -0.28562577279E+03  0.30272320294E+03  0.00000000000E+00 0. -1.
         -4    1    5    5    0  503 -0.38613539342E+02  0.91780173509E+01 -0.28480237638E+02  0.48850438677E+02  0.00000000000E+00 0.  1.
         -1    1    6    6    0  502  0.26818378738E+02 -0.24588317619E+02  0.18381658119E+01  0.36430614255E+02  0.00000000000E+00 0.  1.
<mgrwt>
<rscale>  0 0.18507542E+04</rscale>
<asrwt>0</asrwt>
<pdfrwt beam="1">  1        2 0.20801954E+00 0.18507542E+04</pdfrwt>
<pdfrwt beam="2">  1       -2 0.97433123E-01 0.18507542E+04</pdfrwt>
<totfact> 0.12734658E+01</totfact>
</mgrwt>
</event>
<event>
12    1  0.2408207E-008  0.1697708E+04  0.7818608E-02  0.8762673E-01
         -2   -1    0    0    0  501 -0.00000000000E+00  0.00000000000E+00  0.62174440368E+03  0.62174440368E+03  0.00000000000E+00 0.  1.
          2   -1    0    0  501    0  0.00000000000E+00 -0.00000000000E+00 -0.11589212095E+04  0.11589212095E+04  0.00000000000E+00 0. -1.
         23    2    1    2    0    0  0.30411345331E+03 -0.51698914055E+03  0.77651095736E+01  0.60664137380E+03  0.90502461573E+02 0.  0.
        254    2    1    2    0    0 -0.30411345331E+03  0.51698914055E+03 -0.54494191536E+03  0.11740242393E+04  0.84947540253E+03 0.  0.
        -24    2    4    4    0    0 -0.41382438388E+03  0.69352096292E+03 -0.36018891910E+03  0.88802430685E+03  0.81419686896E+02 0.  0.
         24    2    4    4    0    0  0.10971093057E+03 -0.17653182237E+03 -0.18475299626E+03  0.28599993248E+03  0.66800592508E+02 0.  0.
         13    1    3    3    0    0  0.30913881126E+03 -0.51144712113E+03  0.12573256582E+02  0.59774831586E+03  0.00000000000E+00 0.  1.
        -13    1    3    3    0    0 -0.50253579515E+01 -0.55420194229E+01 -0.48081470088E+01  0.88930579377E+01  0.00000000000E+00 0. -1.
          4    1    6    6  502    0  0.92519696679E+02 -0.16585527800E+03 -0.13710975554E+03  0.23423695818E+03  0.00000000000E+00 0. -1.
          1    1    5    5  503    0 -0.33229330473E+03  0.60331228193E+03 -0.32392471611E+03  0.76113847072E+03  0.00000000000E+00 0. -1.
         -2    1    5    5    0  503 -0.81531079156E+02  0.90208680986E+02 -0.36264202995E+02  0.12688583614E+03  0.00000000000E+00 0.  1.
         -3    1    6    6    0  502  0.17191233895E+02 -0.10676544365E+02 -0.47643240718E+02  0.51762974302E+02  0.00000000000E+00 0.  1.
<mgrwt>
<rscale>  0 0.16977076E+04</rscale>
<asrwt>0</asrwt>
<pdfrwt beam="1">  1        2 0.17829557E+00 0.16977076E+04</pdfrwt>
<pdfrwt beam="2">  1       -2 0.95652986E-01 0.16977076E+04</pdfrwt>
<totfact> 0.17505579E+01</totfact>
</mgrwt>
</event>
<event>
11    1  0.2406360E-008  0.1465305E+04  0.7818608E-02  0.8907858E-01
         -2   -1    0    0    0  501 -0.00000000000E+00  0.00000000000E+00  0.35388277055E+03  0.35388277055E+03  0.00000000000E+00 0. -1.
          2   -1    0    0  501    0  0.00000000000E+00 -0.00000000000E+00 -0.15168296755E+04  0.15168296755E+04  0.00000000000E+00 0.  1.
         23    2    1    2    0    0  0.19419111268E+03 -0.21713156480E+03 -0.80795961609E+03  0.86356994910E+03  0.89988949766E+02 0.  0.
        254    2    1    2    0    0 -0.19419111268E+03  0.21713156480E+03 -0.35498728882E+03  0.10071424969E+04  0.89636138315E+03 0.  0.
        -24    2    4    4    0    0 -0.23210305149E+03  0.36575618918E+03  0.14630032238E+03  0.46432920192E+03  0.80922228016E+02 0.  0.
         13    1    3    3    0    0  0.15927954528E+03 -0.11616712845E+03 -0.49140077214E+03  0.52947095684E+03  0.00000000000E+00 0.  1.
        -13    1    3    3    0    0  0.34911567395E+02 -0.10096443635E+03 -0.31655884396E+03  0.33409899226E+03  0.00000000000E+00 0. -1.
          4    1    4    4  502    0  0.14210198973E+02 -0.16998748085E+03 -0.46015816244E+03  0.49075778940E+03  0.00000000000E+00 0. -1.
          1    1    5    5  503    0 -0.13457327244E+03  0.15060058181E+03  0.42955895651E+02  0.20648416372E+03  0.00000000000E+00 0. -1.
         -2    1    5    5    0  503 -0.97529779051E+02  0.21515560738E+03  0.10334442673E+03  0.25784503820E+03  0.00000000000E+00 0.  1.
         -3    1    4    4    0  502  0.23701739837E+02  0.21362856468E+02 -0.41129448765E+02  0.52055505602E+02  0.00000000000E+00 0.  1.
<mgrwt>
<rscale>  0 0.14653053E+04</rscale>
<asrwt>0</asrwt>
<pdfrwt beam="1">  1        2 0.23335841E+00 0.14653053E+04</pdfrwt>
<pdfrwt beam="2">  1       -2 0.54443502E-01 0.14653053E+04</pdfrwt>
<totfact> 0.38194190E+01</totfact>
</mgrwt>
</event>
<event>
12    1  0.2406360E-008  0.1904396E+04  0.7818608E-02  0.8652671E-01
          2   -1    0    0  501    0  0.00000000000E+00  0.00000000000E+00  0.74795941081E+03  0.74795941081E+03  0.00000000000E+00 0. -1.
         -2   -1    0    0    0  501 -0.00000000000E+00 -0.00000000000E+00 -0.12122066368E+04  0.12122066368E+04  0.00000000000E+00 0.  1.
         23    2    1    2    0    0 -0.29845225261E+03  0.24231350939E+03  0.45643874970E+03  0.60348080902E+03  0.89795159744E+02 0.  0.
        254    2    1    2    0    0  0.29845225261E+03 -0.24231350939E+03 -0.92068597573E+03  0.13566852386E+04  0.91931636932E+03 0.  0.
        -24    2    4    4    0    0  0.54912384436E+03 -0.39015878927E+03 -0.71601258128E+03  0.98622832025E+03  0.78812472481E+02 0.  0.
         24    2    4    4    0    0 -0.25067159174E+03  0.14784527988E+03 -0.20467339445E+03  0.37045691839E+03  0.10321170619E+03 0.  0.
         11    1    3    3    0    0 -0.24748543672E+03  0.19526733245E+03  0.41995407055E+03  0.52510931613E+03  0.00000000000E+00 0. -1.
        -11    1    3    3    0    0 -0.50966815888E+02  0.47046176935E+02  0.36484679145E+02  0.78371492893E+02  0.00000000000E+00 0.  1.
          4    1    6    6  502    0 -0.17471549656E+03  0.12641295379E+03 -0.95765328366E+02  0.23595918660E+03  0.00000000000E+00 0. -1.
          1    1    5    5  503    0  0.17019629941E+03 -0.15101228640E+03 -0.28280448590E+03  0.36297364673E+03  0.00000000000E+00 0. -1.
         -2    1    5    5    0  503  0.37892754495E+03 -0.23914650287E+03 -0.43320809538E+03  0.62325467351E+03  0.00000000000E+00 0.  1.
         -1    1    6    6    0  502 -0.75956095183E+02  0.21432326086E+02 -0.10890806608E+03  0.13449773178E+03  0.00000000000E+00 0.  1.
<mgrwt>
<rscale>  0 0.19043963E+04</rscale>
<asrwt>0</asrwt>
<pdfrwt beam="1">  1        2 0.11507068E+00 0.19043963E+04</pdfrwt>
<pdfrwt beam="2">  1       -2 0.18649333E+00 0.19043963E+04</pdfrwt>
<totfact> 0.57634392E+00</totfact>
</mgrwt>
</event>
<event>
11    1  0.2406360E-008  0.1503303E+04  0.7818608E-02  0.8882259E-01
          2   -1    0    0  501    0  0.00000000000E+00  0.00000000000E+00  0.13944644599E+04  0.13944644599E+04  0.00000000000E+00 0. -1.
         -2   -1    0    0    0  501 -0.00000000000E+00 -0.00000000000E+00 -0.40515919167E+03  0.40515919167E+03  0.00000000000E+00 0.  1.
         23    2    1    2    0    0 -0.98876278721E+02 -0.14142668181E+03 -0.21499758942E+03  0.29029430218E+03  0.90932907124E+02 0.  0.
        254    2    1    2    0    0  0.98876278721E+02  0.14142668181E+03  0.12043028576E+04  0.15093293494E+04  0.89328141545E+03 0.  0.
        -24    2    4    4    0    0  0.43121892411E+03 -0.81458369150E+01  0.45511265599E+03  0.63220733475E+03  0.80885532103E+02 0.  0.
         13    1    3    3    0    0 -0.55123894529E+02 -0.13358140150E+03 -0.19182822579E+03  0.24016807195E+03  0.00000000000E+00 0.  1.
        -13    1    3    3    0    0 -0.43752384193E+02 -0.78452803136E+01 -0.23169363628E+02  0.50126230226E+02  0.00000000000E+00 0. -1.
          2    1    4    4  502    0 -0.29338747881E+03  0.10705629137E+03  0.75703612779E+03  0.81892671286E+03  0.00000000000E+00 0. -1.
          1    1    5    5  503    0  0.36353236744E+03  0.22964249010E+02  0.37373208073E+03  0.52188006963E+03  0.00000000000E+00 0. -1.
         -2    1    5    5    0  503  0.67686556672E+02 -0.31110085925E+02  0.81380575265E+02  0.11032726513E+03  0.00000000000E+00 0.  1.
         -1    1    4    4    0  502 -0.38955166577E+02  0.42516227358E+02 -0.78459261514E+01  0.58195301778E+02  0.00000000000E+00 0.  1.
<mgrwt>
<rscale>  0 0.15033032E+04</rscale>
<asrwt>0</asrwt>
<pdfrwt beam="1">  1        2 0.21453299E+00 0.15033032E+04</pdfrwt>
<pdfrwt beam="2">  1       -2 0.62332184E-01 0.15033032E+04</pdfrwt>
<totfact> 0.33625737E+01</totfact>
</mgrwt>
</event>
<event>
12    1  0.2406360E-008  0.1665181E+04  0.7818608E-02  0.8781476E-01
         -1   -1    0    0    0  501 -0.00000000000E+00  0.00000000000E+00  0.14310623036E+04  0.14310623036E+04  0.00000000000E+00 0.  1.
          1   -1    0    0  501    0  0.00000000000E+00 -0.00000000000E+00 -0.48440010655E+03  0.48440010655E+03  0.00000000000E+00 0. -1.
         23    2    1    2    0    0  0.34220485736E+03 -0.17994450267E+03  0.83662691511E+03  0.92628687190E+03  0.92620653885E+02 0.  0.
        254    2    1    2    0    0 -0.34220485736E+03  0.17994450267E+03  0.11003528199E+03  0.98917553829E+03  0.90381208989E+03 0.  0.
        -24    2    4    4    0    0 -0.12850544694E+02 -0.80524341764E+02  0.43553740741E+03  0.45002230322E+03  0.78599834743E+02 0.  0.
         24    2    4    4    0    0 -0.32935431267E+03  0.26046884443E+03 -0.32550212542E+03  0.53915323508E+03  0.91740367622E+02 0.  0.
         11    1    3    3    0    0  0.17748105583E+03 -0.49558906224E+02  0.45006723523E+03  0.48632923682E+03  0.00000000000E+00 0.  1.
        -11    1    3    3    0    0  0.16472380154E+03 -0.13038559644E+03  0.38655967988E+03  0.43995763507E+03  0.00000000000E+00 0. -1.
          2    1    6    6  502    0 -0.26553710827E+03  0.24967558806E+03 -0.26588525218E+03  0.45115720372E+03  0.00000000000E+00 0. -1.
          1    1    5    5  503    0 -0.38525509776E+02 -0.76383104593E+02  0.36359107223E+03  0.37351982729E+03  0.00000000000E+00 0. -1.
         -2    1    5    5    0  503  0.25674965082E+02 -0.41412371711E+01  0.71946335178E+02  0.76502475926E+02  0.00000000000E+00 0.  1.
         -1    1    6    6    0  502 -0.63817204399E+02  0.10793256373E+02 -0.59616873239E+02  0.87996031361E+02  0.00000000000E+00 0.  1.
<mgrwt>
<rscale>  0 0.16651807E+04</rscale>
<asrwt>0</asrwt>
<pdfrwt beam="1">  1        1 0.74523094E-01 0.16651807E+04</pdfrwt>
<pdfrwt beam="2">  1       -1 0.22016343E+00 0.16651807E+04</pdfrwt>
<totfact> 0.48504135E+00</totfact>
</mgrwt>
</event>
<event>
12    1  0.2406360E-008  0.1579458E+04  0.7818608E-02  0.8833268E-01
          2   -1    0    0  501    0  0.00000000000E+00  0.00000000000E+00  0.10352820698E+04  0.10352820698E+04  0.00000000000E+00 0. -1.
         -2   -1    0    0    0  501 -0.00000000000E+00 -0.00000000000E+00 -0.60241730279E+03  0.60241730279E+03  0.00000000000E+00 0.  1.
         23    2    1    2    0    0  0.30826197324E+03  0.24439420620E+03 -0.18856310154E+03  0.44578184894E+03  0.91713910678E+02 0.  0.
        254    2    1    2    0    0 -0.30826197324E+03 -0.24439420620E+03  0.62142786853E+03  0.11919175236E+04  0.93794499581E+03 0.  0.
        -24    2    4    4    0    0 -0.33107544539E+03  0.80639948270E+02 -0.12728496607E+03  0.37263517130E+03  0.80881125776E+02 0.  0.
         24    2    4    4    0    0  0.22813472152E+02 -0.32503415447E+03  0.74871283460E+03  0.81928235232E+03  0.66970202712E+02 0.  0.
         11    1    3    3    0    0  0.53435164785E+02  0.42333201687E+01 -0.20675604045E+02  0.57451879324E+02  0.00000000000E+00 0. -1.
        -11    1    3    3    0    0  0.25482680845E+03  0.24016088603E+03 -0.16788749750E+03  0.38832996961E+03  0.00000000000E+00 0.  1.
          4    1    6    6  502    0  0.30789111594E+02 -0.18763076040E+03  0.50154499703E+03  0.53637734449E+03  0.00000000000E+00 0. -1.
          1    1    5    5  503    0 -0.26910481660E+03  0.31146862194E+02 -0.99733096411E+02  0.28867667011E+03  0.00000000000E+00 0. -1.
         -2    1    5    5    0  503 -0.61970628789E+02  0.49493086076E+02 -0.27551869655E+02  0.83958501197E+02  0.00000000000E+00 0.  1.
         -3    1    6    6    0  502 -0.79756394414E+01 -0.13740339406E+03  0.24716783757E+03  0.28290500783E+03  0.00000000000E+00 0.  1.
<mgrwt>
<rscale>  0 0.15794579E+04</rscale>
<asrwt>0</asrwt>
<pdfrwt beam="1">  1        2 0.15927416E+00 0.15794579E+04</pdfrwt>
<pdfrwt beam="2">  1       -2 0.92679585E-01 0.15794579E+04</pdfrwt>
<totfact> 0.22682857E+01</totfact>
</mgrwt>
</event>
<event>
12    1  0.2406360E-008  0.1788591E+04  0.7818608E-02  0.8712390E-01
         -3   -1    0    0    0  501 -0.00000000000E+00  0.00000000000E+00  0.42156899534E+03  0.42156899534E+03  0.00000000000E+00 0.  1.
          3   -1    0    0  501    0  0.00000000000E+00 -0.00000000000E+00 -0.18971139441E+04  0.18971139441E+04  0.00000000000E+00 0. -1.
         23    2    1    2    0    0 -0.27083806101E+03 -0.48187030363E+03 -0.10028100362E+04  0.11487219416E+04  0.91552637937E+02 0.  0.
        254    2    1    2    0    0  0.27083806101E+03  0.48187030363E+03 -0.47273491254E+03  0.11699609979E+04  0.91639412601E+03 0.  0.
        -24    2    4    4    0    0  0.41274342132E+02  0.19528254223E+03  0.26411310984E+03  0.34085123768E+03  0.81147944034E+02 0.  0.
         24    2    4    4    0    0  0.22956371888E+03  0.28658776140E+03 -0.73684802238E+03  0.82910976018E+03  0.98213748247E+02 0.  0.
         13    1    3    3    0    0 -0.13037801659E+03 -0.17597864129E+03 -0.46953624950E+03  0.51810346360E+03  0.00000000000E+00 0. -1.
        -13    1    3    3    0    0 -0.14046004442E+03 -0.30589166234E+03 -0.53327378674E+03  0.63061847800E+03  0.00000000000E+00 0.  1.
          4    1    6    6  502    0  0.37669323441E+02  0.21002201080E+02 -0.15988523502E+03  0.16559999625E+03  0.00000000000E+00 0. -1.
          3    1    5    5  503    0  0.91919620337E+01  0.37120581846E+02  0.95052722508E+01  0.39405329121E+02  0.00000000000E+00 0. -1.
         -4    1    5    5    0  503  0.32082380098E+02  0.15816196038E+03  0.25460783759E+03  0.30144590856E+03  0.00000000000E+00 0.  1.
         -3    1    6    6    0  502  0.19189439544E+03  0.26558556032E+03 -0.57696278736E+03  0.66350976394E+03  0.00000000000E+00 0.  1.
<mgrwt>
<rscale>  0 0.17885910E+04</rscale>
<asrwt>0</asrwt>
<pdfrwt beam="1">  1        3 0.29186368E+00 0.17885910E+04</pdfrwt>
<pdfrwt beam="2">  1       -3 0.64856768E-01 0.17885910E+04</pdfrwt>
<totfact> 0.24450988E-01</totfact>
</mgrwt>
</event>
<event>
11    1  0.2406360E-008  0.2427223E+04  0.7818608E-02  0.8429381E-01
          1   -1    0    0  501    0  0.00000000000E+00  0.00000000000E+00  0.15205240359E+04  0.15205240359E+04  0.00000000000E+00 0. -1.
         -1   -1    0    0    0  501 -0.00000000000E+00 -0.00000000000E+00 -0.96864825726E+03  0.96864825726E+03  0.00000000000E+00 0.  1.
         23    2    1    2    0    0 -0.13294766904E+03 -0.10158173504E+04  0.54351200669E+01  0.10288408587E+04  0.94466924581E+02 0.  0.
        254    2    1    2    0    0  0.13294766904E+03  0.10158173504E+04  0.54644065860E+03  0.14603314345E+04  0.88566953952E+03 0.  0.
        -24    2    4    4    0    0 -0.33349763758E+03  0.59328411573E+03  0.42371010885E+03  0.80558658868E+03  0.78947952919E+02 0.  0.
         13    1    3    3    0    0 -0.38558177270E+01 -0.23546643100E+03 -0.28132137319E+02  0.23717235212E+03  0.00000000000E+00 0. -1.
        -13    1    3    3    0    0 -0.12909185131E+03 -0.78035091940E+03  0.33567257386E+02  0.79166850654E+03  0.00000000000E+00 0.  1.
          4    1    4    4  502    0  0.77662995941E+02  0.14685567772E+03  0.41995541430E+02  0.17135272545E+03  0.00000000000E+00 0. -1.
          1    1    5    5  503    0 -0.44703545736E+02  0.37388215811E+02  0.28198699417E+02  0.64741426704E+02  0.00000000000E+00 0. -1.
         -2    1    5    5    0  503 -0.28879409184E+03  0.55589589992E+03  0.39551140943E+03  0.74084516197E+03  0.00000000000E+00 0.  1.
         -3    1    4    4    0  502  0.38878231068E+03  0.27567755695E+03  0.80735008324E+02  0.48339212040E+03  0.00000000000E+00 0.  1.
<mgrwt>
<rscale>  0 0.24272231E+04</rscale>
<asrwt>0</asrwt>
<pdfrwt beam="1">  1        1 0.23392677E+00 0.24272231E+04</pdfrwt>
<pdfrwt beam="2">  1       -1 0.14902281E+00 0.24272231E+04</pdfrwt>
<totfact> 0.20099034E+00</totfact>
</mgrwt>
</event>
<event>
12    1  0.2406360E-008  0.1451830E+04  0.7818608E-02  0.8917133E-01
          2   -1    0    0  501    0  0.00000000000E+00  0.00000000000E+00  0.62205402186E+03  0.62205402186E+03  0.00000000000E+00 0. -1.
         -2   -1    0    0    0  501 -0.00000000000E+00 -0.00000000000E+00 -0.84711725273E+03  0.84711725273E+03  0.00000000000E+00 0.  1.
         23    2    1    2    0    0 -0.27017314539E+03 -0.20567756291E+03 -0.31121919952E+03  0.47042511663E+03  0.95632692243E+02 0.  0.
        254    2    1    2    0    0  0.27017314539E+03  0.20567756291E+03  0.86155968648E+02  0.99874615796E+03  0.93529366977E+03 0.  0.
        -24    2    4    4    0    0 -0.30377664176E+03  0.77757035752E+02 -0.15129873688E+03  0.35770964901E+03  0.82088248386E+02 0.  0.
         24    2    4    4    0    0  0.57394978716E+03  0.12792052716E+03  0.23745470553E+03  0.64103650895E+03  0.93600476368E+02 0.  0.
         13    1    3    3    0    0 -0.12858381539E+03 -0.95508145755E+02 -0.83824947232E+02  0.18078225926E+03  0.00000000000E+00 0. -1.
        -13    1    3    3    0    0 -0.14158933000E+03 -0.11016941716E+03 -0.22739425229E+03  0.28964285736E+03  0.00000000000E+00 0.  1.
          2    1    6    6  502    0  0.54476568464E+03  0.13988931358E+03  0.23445784717E+03  0.60935142021E+03  0.00000000000E+00 0. -1.
          3    1    5    5  503    0 -0.12301109622E+03 -0.67882029984E+00 -0.86111554993E+02  0.15015788522E+03  0.00000000000E+00 0. -1.
         -4    1    5    5    0  503 -0.18076554554E+03  0.78435856052E+02 -0.65187181890E+02  0.20755176379E+03  0.00000000000E+00 0.  1.
         -1    1    6    6    0  502  0.29184102519E+02 -0.11968786417E+02  0.29968583577E+01  0.31685088735E+02  0.00000000000E+00 0.  1.
<mgrwt>
<rscale>  0 0.14518301E+04</rscale>
<asrwt>0</asrwt>
<pdfrwt beam="1">  1        2 0.95700620E-01 0.14518301E+04</pdfrwt>
<pdfrwt beam="2">  1       -2 0.13032573E+00 0.14518301E+04</pdfrwt>
<totfact> 0.19853433E+01</totfact>
</mgrwt>
</event>
<event>
12    1  0.2406360E-008  0.1779043E+04  0.7818608E-02  0.8717524E-01
         -1   -1    0    0    0  501 -0.00000000000E+00  0.00000000000E+00  0.96822815082E+03  0.96822815082E+03  0.00000000000E+00 0.  1.
          1   -1    0    0  501    0  0.00000000000E+00 -0.00000000000E+00 -0.81721307125E+03  0.81721307125E+03  0.00000000000E+00 0. -1.
         23    2    1    2    0    0 -0.18613118805E+03 -0.45150783761E+03 -0.37735417105E+03  0.62385215175E+03  0.91055973145E+02 0.  0.
        254    2    1    2    0    0  0.18613118805E+03  0.45150783761E+03  0.52836925062E+03  0.11615890703E+04  0.91192705667E+03 0.  0.
        -24    2    4    4    0    0  0.11320631098E+03  0.53662357474E+03  0.73409861801E+03  0.91955855347E+03  0.76854554102E+02 0.  0.
         24    2    4    4    0    0  0.72924877069E+02 -0.85115737136E+02 -0.20572936739E+03  0.24203051684E+03  0.60757485745E+02 0.  0.
         13    1    3    3    0    0 -0.61219569375E+02 -0.20120039140E+03 -0.21334173600E+03  0.29957324562E+03  0.00000000000E+00 0.  1.
        -13    1    3    3    0    0 -0.12491161868E+03 -0.25030744620E+03 -0.16401243506E+03  0.32427890612E+03  0.00000000000E+00 0. -1.
          2    1    6    6  502    0  0.44740240393E+02 -0.73074055817E+02 -0.98716976219E+02  0.13071552371E+03  0.00000000000E+00 0. -1.
          1    1    5    5  503    0  0.73642323855E+02  0.46553923573E+03  0.64568514271E+03  0.79941183090E+03  0.00000000000E+00 0. -1.
         -2    1    5    5    0  503  0.39563987130E+02  0.71084339013E+02  0.88413475296E+02  0.12014672257E+03  0.00000000000E+00 0.  1.
         -1    1    6    6    0  502  0.28184636675E+02 -0.12041681319E+02 -0.10701239117E+03  0.11131499314E+03  0.00000000000E+00 0.  1.
<mgrwt>
<rscale>  0 0.17790432E+04</rscale>
<asrwt>0</asrwt>
<pdfrwt beam="1">  1        1 0.12572509E+00 0.17790432E+04</pdfrwt>
<pdfrwt beam="2">  1       -1 0.14895818E+00 0.17790432E+04</pdfrwt>
<totfact> 0.71795706E+00</totfact>
</mgrwt>
</event>
<event>
11    1  0.2406360E-008  0.3481054E+04  0.7818608E-02  0.8118295E-01
         -1   -1    0    0    0  501 -0.00000000000E+00  0.00000000000E+00  0.15476021861E+04  0.15476021861E+04  0.00000000000E+00 0.  1.
          1   -1    0    0  501    0  0.00000000000E+00 -0.00000000000E+00 -0.19575019421E+04  0.19575019421E+04  0.00000000000E+00 0. -1.
         23    2    1    2    0    0  0.13391202052E+04  0.82872522231E+03 -0.59589686292E+03  0.16861867902E+04  0.90024452558E+02 0.  0.
        254    2    1    2    0    0 -0.13391202052E+04 -0.82872522231E+03  0.18599710691E+03  0.18189173379E+04  0.89097527482E+03 0.  0.
        -24    2    4    4    0    0 -0.11657791933E+04 -0.83065122991E+03  0.17899976607E+03  0.14448220619E+04  0.80294963194E+02 0.  0.
         13    1    3    3    0    0  0.63055221204E+03  0.34685614736E+03 -0.29931229738E+03  0.77941845656E+03  0.00000000000E+00 0. -1.
        -13    1    3    3    0    0  0.70856799319E+03  0.48186907496E+03 -0.29658456554E+03  0.90676833364E+03  0.00000000000E+00 0.  1.
          4    1    4    4  502    0 -0.19053997050E+03 -0.12183842696E+03 -0.57668211705E+02  0.23340031124E+03  0.00000000000E+00 0. -1.
          3    1    5    5  503    0 -0.32000444073E+02 -0.41003362708E+02  0.53222698292E+01  0.52284134595E+02  0.00000000000E+00 0. -1.
         -4    1    5    5    0  503 -0.11337787492E+04 -0.78964786720E+03  0.17367749625E+03  0.13925379273E+04  0.00000000000E+00 0.  1.
         -3    1    4    4    0  502  0.17198958539E+02  0.12376443456E+03  0.64665552535E+02  0.14069496480E+03  0.00000000000E+00 0.  1.
<mgrwt>
<rscale>  0 0.34810540E+04</rscale>
<asrwt>0</asrwt>
<pdfrwt beam="1">  1        1 0.30115415E+00 0.34810540E+04</pdfrwt>
<pdfrwt beam="2">  1       -1 0.23809264E+00 0.34810540E+04</pdfrwt>
<totfact> 0.21718107E-01</totfact>
</mgrwt>
</event>
<event>
12    1  0.2406360E-008  0.1239820E+04  0.7818608E-02  0.9078698E-01
          1   -1    0    0  501    0  0.00000000000E+00  0.00000000000E+00  0.30082327291E+04  0.30082327291E+04  0.00000000000E+00 0. -1.
         -1   -1    0    0    0  501 -0.00000000000E+00 -0.00000000000E+00 -0.12774565768E+03  0.12774565768E+03  0.00000000000E+00 0.  1.
         23    2    1    2    0    0  0.30178874591E+03 -0.29553624065E+02  0.78556952042E+03  0.84685169450E+03  0.89935850540E+02 0.  0.
        254    2    1    2    0    0 -0.30178874591E+03  0.29553624065E+02  0.20949175510E+04  0.22891266923E+04  0.87147668012E+03 0.  0.
        -24    2    4    4    0    0 -0.73212268470E+02 -0.29953045884E+03  0.26461062585E+03  0.41426660295E+03  0.80743439227E+02 0.  0.
         24    2    4    4    0    0 -0.22857647744E+03  0.32908408290E+03  0.18303069251E+04  0.18748600893E+04  0.67330339960E+02 0.  0.
         13    1    3    3    0    0  0.15190576876E+03 -0.22896859445E+02  0.27858618857E+03  0.31813502356E+03  0.00000000000E+00 0.  1.
        -13    1    3    3    0    0  0.14988297715E+03 -0.66567646202E+01  0.50698333185E+03  0.52871667094E+03  0.00000000000E+00 0. -1.
          4    1    6    6  502    0 -0.90151596781E+02  0.13936067751E+03  0.91311368829E+03  0.92807613728E+03  0.00000000000E+00 0. -1.
          3    1    5    5  503    0 -0.19729621192E+02 -0.10107697539E+03  0.41825817337E+02  0.11115400084E+03  0.00000000000E+00 0. -1.
         -4    1    5    5    0  503 -0.53482647278E+02 -0.19845348345E+03  0.22278480851E+03  0.30311260211E+03  0.00000000000E+00 0.  1.
         -3    1    6    6    0  502 -0.13842488066E+03  0.18972340539E+03  0.91719323684E+03  0.94678395205E+03  0.00000000000E+00 0.  1.
<mgrwt>
<rscale>  0 0.12398204E+04</rscale>
<asrwt>0</asrwt>
<pdfrwt beam="1">  1        1 0.46280499E+00 0.12398204E+04</pdfrwt>
<pdfrwt beam="2">  1       -1 0.19653180E-01 0.12398204E+04</pdfrwt>
<totfact> 0.12401248E+01</totfact>
</mgrwt>
</event>
<event>
12    1  0.2406360E-008  0.2117727E+04  0.7818608E-02  0.8553474E-01
         -2   -1    0    0    0  501 -0.00000000000E+00  0.00000000000E+00  0.47724022278E+03  0.47724022278E+03  0.00000000000E+00 0. -1.
          2   -1    0    0  501    0  0.00000000000E+00 -0.00000000000E+00 -0.23493239639E+04  0.23493239639E+04  0.00000000000E+00 0.  1.
         23    2    1    2    0    0  0.17528750574E+03 -0.22673654160E+02  0.36099770961E+03  0.41030883682E+03  0.82426882532E+02 0.  0.
        254    2    1    2    0    0 -0.17528750574E+03  0.22673654160E+02 -0.22330814508E+04  0.24162553499E+04  0.90575788482E+03 0.  0.
        -24    2    4    4    0    0 -0.16559382940E+03  0.33398858240E+03 -0.39447263897E+03  0.54926677571E+03  0.84354244096E+02 0.  0.
         24    2    4    4    0    0 -0.96936763393E+01 -0.31131492824E+03 -0.18386088118E+04  0.18669885742E+04  0.90294083122E+02 0.  0.
         13    1    3    3    0    0  0.20482759322E+02 -0.31716437358E+02  0.48605495447E+02  0.61546486624E+02  0.00000000000E+00 0.  1.
        -13    1    3    3    0    0  0.15480474642E+03  0.90427831983E+01  0.31239221416E+03  0.34876235019E+03  0.00000000000E+00 0. -1.
          4    1    6    6  502    0 -0.12408596166E+02 -0.27789903590E+03 -0.17549850826E+04  0.17768946192E+04  0.00000000000E+00 0. -1.
          3    1    5    5  503    0 -0.14154496302E+03  0.32446645234E+03 -0.34993360045E+03  0.49776197120E+03  0.00000000000E+00 0. -1.
         -4    1    5    5    0  503 -0.24048866380E+02  0.95221300533E+01 -0.44539038528E+02  0.51504804512E+02  0.00000000000E+00 0.  1.
         -3    1    6    6    0  502  0.27149198269E+01 -0.33415892343E+02 -0.83623729186E+02  0.90093955034E+02  0.00000000000E+00 0.  1.
<mgrwt>
<rscale>  0 0.21177270E+04</rscale>
<asrwt>0</asrwt>
<pdfrwt beam="1">  1        2 0.36143446E+00 0.21177270E+04</pdfrwt>
<pdfrwt beam="2">  1       -2 0.73421572E-01 0.21177270E+04</pdfrwt>
<totfact> 0.65462910E+00</totfact>
</mgrwt>
</event>
<event>
12    1  0.2406360E-008  0.1845444E+04  0.7818608E-02  0.8682499E-01
          2   -1    0    0  501    0  0.00000000000E+00  0.00000000000E+00  0.11224726501E+04  0.11224726501E+04  0.00000000000E+00 0. -1.
         -2   -1    0    0    0  501 -0.00000000000E+00 -0.00000000000E+00 -0.75851816232E+03  0.75851816232E+03  0.00000000000E+00 0.  1.
         23    2    1    2    0    0  0.47416593178E+03  0.39649609040E+03 -0.20284237124E+03  0.65645605202E+03  0.88017271560E+02 0.  0.
        254    2    1    2    0    0 -0.47416593178E+03 -0.39649609040E+03  0.56679685898E+03  0.12245347604E+04  0.89229155516E+03 0.  0.
        -24    2    4    4    0    0 -0.61937615392E+03 -0.30560889831E+03  0.70126067962E+03  0.98742932646E+03  0.78908270839E+02 0.  0.
         24    2    4    4    0    0  0.14521022214E+03 -0.90887192096E+02 -0.13446382064E+03  0.23710543390E+03  0.93765544963E+02 0.  0.
         11    1    3    3    0    0  0.21213812591E+03  0.21773130678E+03 -0.13216995939E+03  0.33147911636E+03  0.00000000000E+00 0. -1.
        -11    1    3    3    0    0  0.26202780587E+03  0.17876478362E+03 -0.70672411852E+02  0.32497693566E+03  0.00000000000E+00 0.  1.
          4    1    6    6  502    0  0.99159350169E+02 -0.10165198309E+03 -0.73352203350E+02  0.15983193713E+03  0.00000000000E+00 0. -1.
          1    1    5    5  503    0 -0.27785848392E+03 -0.12991770702E+03  0.25693467248E+03  0.40012419773E+03  0.00000000000E+00 0. -1.
         -2    1    5    5    0  503 -0.34151767000E+03 -0.17569119128E+03  0.44432600714E+03  0.58730512873E+03  0.00000000000E+00 0.  1.
         -3    1    6    6    0  502  0.46050871969E+02  0.10764790992E+02 -0.61111617294E+02  0.77273496766E+02  0.00000000000E+00 0.  1.
<mgrwt>
<rscale>  0 0.18454440E+04</rscale>
<asrwt>0</asrwt>
<pdfrwt beam="1">  1        2 0.17268810E+00 0.18454440E+04</pdfrwt>
<pdfrwt beam="2">  1       -2 0.11669510E+00 0.18454440E+04</pdfrwt>
<totfact> 0.11294781E+01</totfact>
</mgrwt>
</event>
<event>
11    1  0.2406360E-008  0.1409406E+04  0.7818608E-02  0.8947038E-01
         -2   -1    0    0    0  501 -0.00000000000E+00  0.00000000000E+00  0.57373706265E+03  0.57373706265E+03  0.00000000000E+00 0.  1.
          2   -1    0    0  501    0  0.00000000000E+00 -0.00000000000E+00 -0.86556443423E+03  0.86556443423E+03  0.00000000000E+00 0. -1.
         23    2    1    2    0    0  0.12936982658E+03  0.32719122870E+03  0.13374638060E+03  0.38718261648E+03  0.90728341821E+02 0.  0.
        254    2    1    2    0    0 -0.12936982658E+03 -0.32719122870E+03 -0.42557375218E+03  0.10521188804E+04  0.89557270380E+03 0.  0.
        -24    2    4    4    0    0 -0.18164037500E+03 -0.16818348868E+03  0.14288478655E+03  0.29669256297E+03  0.79570742095E+02 0.  0.
         11    1    3    3    0    0  0.59778990292E+02  0.55918447241E+02  0.16128409442E+02  0.83429766950E+02  0.00000000000E+00 0. -1.
        -11    1    3    3    0    0  0.69590836291E+02  0.27127278146E+03  0.11761797116E+03  0.30375284953E+03  0.00000000000E+00 0.  1.
          2    1    4    4  502    0 -0.36824682429E+02  0.47228616819E+02  0.61960989004E+02  0.86172870679E+02  0.00000000000E+00 0. -1.
          3    1    5    5  503    0  0.27272033662E+01 -0.21612318778E+01  0.19119186216E+02  0.19433266400E+02  0.00000000000E+00 0. -1.
         -4    1    5    5    0  503 -0.18436757837E+03 -0.16602225681E+03  0.12376560034E+03  0.27725929657E+03  0.00000000000E+00 0.  1.
         -1    1    4    4    0  502  0.89095230850E+02 -0.20623635684E+03 -0.63041952774E+03  0.66925344676E+03  0.00000000000E+00 0.  1.
<mgrwt>
<rscale>  0 0.14094061E+04</rscale>
<asrwt>0</asrwt>
<pdfrwt beam="1">  1        2 0.13316376E+00 0.14094061E+04</pdfrwt>
<pdfrwt beam="2">  1       -2 0.88267241E-01 0.14094061E+04</pdfrwt>
<totfact> 0.33289801E+01</totfact>
</mgrwt>
</event>
<event>
11    1  0.2406360E-008  0.1169962E+04  0.7818608E-02  0.9139563E-01
          1   -1    0    0  501    0  0.00000000000E+00  0.00000000000E+00  0.72164116893E+03  0.72164116893E+03  0.00000000000E+00 0. -1.
         -1   -1    0    0    0  501 -0.00000000000E+00 -0.00000000000E+00 -0.47420041335E+03  0.47420041335E+03  0.00000000000E+00 0.  1.
         23    2    1    2    0    0  0.96227835267E+02  0.11700449222E+03  0.21461128621E+03  0.27977904666E+03  0.96272858576E+02 0.  0.
        254    2    1    2    0    0 -0.96227835267E+02 -0.11700449222E+03  0.32829469369E+02  0.91606253562E+03  0.90285267216E+03 0.  0.
        -24    2    4    4    0    0 -0.13487488405E+03  0.16046358496E+03 -0.35323591295E+03  0.41795795886E+03  0.77288089218E+02 0.  0.
         11    1    3    3    0    0  0.85416396753E+01  0.85896947242E+02  0.10868037861E+03  0.13879002071E+03  0.00000000000E+00 0. -1.
        -11    1    3    3    0    0  0.87686195591E+02  0.31107544977E+02  0.10593090761E+03  0.14098902595E+03  0.00000000000E+00 0.  1.
          4    1    4    4  502    0  0.84980982162E+01 -0.38783908563E+01  0.10248851149E+03  0.10291333527E+03  0.00000000000E+00 0. -1.
          1    1    5    5  503    0 -0.66642147462E+02  0.76195156005E+02 -0.24343625553E+03  0.26364386609E+03  0.00000000000E+00 0. -1.
         -2    1    5    5    0  503 -0.68232736589E+02  0.84268428955E+02 -0.10979965741E+03  0.15431409277E+03  0.00000000000E+00 0.  1.
         -1    1    4    4    0  502  0.30148950568E+02 -0.27358968632E+03  0.28357687083E+03  0.39519124149E+03  0.00000000000E+00 0.  1.
<mgrwt>
<rscale>  0 0.11699616E+04</rscale>
<asrwt>0</asrwt>
<pdfrwt beam="1">  1        1 0.11102172E+00 0.11699616E+04</pdfrwt>
<pdfrwt beam="2">  1       -1 0.72953910E-01 0.11699616E+04</pdfrwt>
<totfact> 0.48869258E+01</totfact>
</mgrwt>
</event>
<event>
12    1  0.2406360E-008  0.1983248E+04  0.7818608E-02  0.8614493E-01
          2   -1    0    0  501    0  0.00000000000E+00  0.00000000000E+00  0.23247631820E+04  0.23247631820E+04  0.00000000000E+00 0. -1.
         -2   -1    0    0    0  501 -0.00000000000E+00 -0.00000000000E+00 -0.42297542351E+03  0.42297542351E+03  0.00000000000E+00 0.  1.
         23    2    1    2    0    0 -0.45662198479E+03 -0.42626969818E+03  0.14080233078E+04  0.15430342334E+04  0.90639490877E+02 0.  0.
        254    2    1    2    0    0  0.45662198479E+03  0.42626969818E+03  0.49376445067E+03  0.12047043722E+04  0.90404634784E+03 0.  0.
        -24    2    4    4    0    0  0.60411428132E+03 -0.30735701134E+02  0.32455489211E+03  0.69114249933E+03  0.80270344224E+02 0.  0.
         24    2    4    4    0    0 -0.14749229654E+03  0.45700539932E+03  0.16920955856E+03  0.51356187286E+03  0.67126820303E+02 0.  0.
         13    1    3    3    0    0 -0.14372030107E+03 -0.10255983061E+03  0.31870886251E+03  0.36434788710E+03  0.00000000000E+00 0. -1.
        -13    1    3    3    0    0 -0.31290168372E+03 -0.32370986757E+03  0.10893144453E+04  0.11786863463E+04  0.00000000000E+00 0.  1.
          4    1    6    6  502    0 -0.35965955998E+01 -0.16540552364E-02  0.67392860682E+01  0.76389449110E+01  0.00000000000E+00 0. -1.
          3    1    5    5  503    0  0.67843120689E+02 -0.23404889379E+02  0.20541718253E+02  0.74648778023E+02  0.00000000000E+00 0. -1.
         -4    1    5    5    0  503  0.53627116063E+03 -0.73308117554E+01  0.30401317385E+03  0.61649372130E+03  0.00000000000E+00 0.  1.
         -3    1    6    6    0  502 -0.14389570094E+03  0.45700705337E+03  0.16247027250E+03  0.50592292795E+03  0.00000000000E+00 0.  1.
<mgrwt>
<rscale>  0 0.19832475E+04</rscale>
<asrwt>0</asrwt>
<pdfrwt beam="1">  1        2 0.35765587E+00 0.19832475E+04</pdfrwt>
<pdfrwt beam="2">  1       -2 0.65073144E-01 0.19832475E+04</pdfrwt>
<totfact> 0.88946091E+00</totfact>
</mgrwt>
</event>
<event>
12    1  0.2406360E-008  0.1500733E+04  0.7818608E-02  0.8883966E-01
         -2   -1    0    0    0  501 -0.00000000000E+00  0.00000000000E+00  0.70844455892E+03  0.70844455892E+03  0.00000000000E+00 0.  1.
          2   -1    0    0  501    0  0.00000000000E+00 -0.00000000000E+00 -0.79476933684E+03  0.79476933684E+03  0.00000000000E+00 0. -1.
         23    2    1    2    0    0  0.75350602607E+02  0.35454302726E+03 -0.32656035290E+03  0.49648166350E+03  0.92053824559E+02 0.  0.
        254    2    1    2    0    0 -0.75350602607E+02 -0.35454302726E+03  0.24023557497E+03  0.10067322323E+04  0.90797477085E+03 0.  0.
        -24    2    4    4    0    0 -0.35192584180E+03  0.14412314410E+03  0.20293833682E+02  0.38820857494E+03  0.75304576086E+02 0.  0.
         24    2    4    4    0    0  0.27657523919E+03 -0.49866617136E+03  0.21994174129E+03  0.61852365732E+03  0.95054361864E+02 0.  0.
         13    1    3    3    0    0  0.37706132918E+02  0.28279487189E+03 -0.20881098683E+03  0.35354875229E+03  0.00000000000E+00 0. -1.
        -13    1    3    3    0    0  0.37644469688E+02  0.71748155369E+02 -0.11774936607E+03  0.14293291121E+03  0.00000000000E+00 0.  1.
          4    1    6    6  502    0  0.68373952637E+01 -0.53628989125E+02  0.42280056681E+02  0.68632511549E+02  0.00000000000E+00 0. -1.
          1    1    5    5  503    0 -0.15821045008E+03  0.74338563744E+02 -0.27178284291E+02  0.17690513760E+03  0.00000000000E+00 0. -1.
         -2    1    5    5    0  503 -0.19371539172E+03  0.69784580357E+02  0.47472117973E+02  0.21130343734E+03  0.00000000000E+00 0.  1.
         -3    1    6    6    0  502  0.26973784393E+03 -0.44503718223E+03  0.17766168461E+03  0.54989114577E+03  0.00000000000E+00 0.  1.
<mgrwt>
<rscale>  0 0.15007332E+04</rscale>
<asrwt>0</asrwt>
<pdfrwt beam="1">  1        2 0.12227221E+00 0.15007332E+04</pdfrwt>
<pdfrwt beam="2">  1       -2 0.10899147E+00 0.15007332E+04</pdfrwt>
<totfact> 0.22557204E+01</totfact>
</mgrwt>
</event>
<event>
12    1  0.2406360E-008  0.1294759E+04  0.7818608E-02  0.9033732E-01
         -2   -1    0    0    0  501 -0.00000000000E+00  0.00000000000E+00  0.47265562478E+03  0.47265562478E+03  0.00000000000E+00 0. -1.
          2   -1    0    0  501    0  0.00000000000E+00 -0.00000000000E+00 -0.88669210581E+03  0.88669210581E+03  0.00000000000E+00 0.  1.
         23    2    1    2    0    0  0.21375066909E+03 -0.19214850320E+03  0.50551317192E+02  0.30492092782E+03  0.88379526640E+02 0.  0.
        254    2    1    2    0    0 -0.21375066909E+03  0.19214850320E+03 -0.46458779822E+03  0.10544268028E+04  0.90186676639E+03 0.  0.
        -24    2    4    4    0    0 -0.23032929438E+03 -0.27180681133E+03 -0.45200748564E+03  0.58093930408E+03  0.79051764141E+02 0.  0.
         24    2    4    4    0    0  0.16578625287E+02  0.46395531454E+03 -0.12580312581E+02  0.47348749869E+03  0.92210424830E+02 0.  0.
         11    1    3    3    0    0  0.19088728997E+03 -0.12117100907E+03  0.39998404064E+02  0.22960889190E+03  0.00000000000E+00 0. -1.
        -11    1    3    3    0    0  0.22863379119E+02 -0.70977494130E+02  0.10552913128E+02  0.75312035912E+02  0.00000000000E+00 0.  1.
          4    1    6    6  502    0  0.14876727068E+02  0.46562296150E+02  0.24068067018E+02  0.54485193227E+02  0.00000000000E+00 0. -1.
          3    1    5    5  503    0 -0.57005202148E+02 -0.24818961472E+02 -0.61620841249E+02  0.87536860788E+02  0.00000000000E+00 0. -1.
         -4    1    5    5    0  503 -0.17332409223E+03 -0.24698784986E+03 -0.39038664439E+03  0.49340244329E+03  0.00000000000E+00 0.  1.
         -3    1    6    6    0  502  0.17018982191E+01  0.41739301839E+03 -0.36648379599E+02  0.41900230546E+03  0.00000000000E+00 0.  1.
<mgrwt>
<rscale>  0 0.12947587E+04</rscale>
<asrwt>0</asrwt>
<pdfrwt beam="1">  1        2 0.13641417E+00 0.12947587E+04</pdfrwt>
<pdfrwt beam="2">  1       -2 0.72716250E-01 0.12947587E+04</pdfrwt>
<totfact> 0.50212934E+01</totfact>
</mgrwt>
</event>
<event>
12    1  0.2406360E-008  0.1659845E+04  0.7818608E-02  0.8784604E-01
          2   -1    0    0  501    0  0.00000000000E+00  0.00000000000E+00  0.11156145646E+04  0.11156145646E+04  0.00000000000E+00 0. -1.
         -2   -1    0    0    0  501 -0.00000000000E+00 -0.00000000000E+00 -0.61739186224E+03  0.61739186224E+03  0.00000000000E+00 0.  1.
         23    2    1    2    0    0  0.13603172211E+03  0.49266609380E+03  0.45190030143E+03  0.68851405622E+03  0.92807401498E+02 0.  0.
        254    2    1    2    0    0 -0.13603172211E+03 -0.49266609380E+03  0.46322400930E+02  0.10444923706E+04  0.90972195646E+03 0.  0.
        -24    2    4    4    0    0 -0.52511241440E+02  0.20719991382E+03 -0.18773643810E+03  0.29519411980E+03  0.78774129047E+02 0.  0.
         24    2    4    4    0    0 -0.83520480674E+02 -0.69986600762E+03  0.23405883903E+03  0.74929825083E+03  0.99379219443E+02 0.  0.
         11    1    3    3    0    0 -0.98890469793E+01  0.24203606823E+02  0.40475109343E+02  0.48185498957E+02  0.00000000000E+00 0.  1.
        -11    1    3    3    0    0  0.14592076909E+03  0.46846248698E+03  0.41142519209E+03  0.64032855726E+03  0.00000000000E+00 0. -1.
          2    1    6    6  502    0 -0.48689489967E+02 -0.14926798513E+03  0.81470335150E+02  0.17688700723E+03  0.00000000000E+00 0. -1.
          3    1    5    5  503    0 -0.60652370078E+02  0.81052961995E+02 -0.89009561050E+02  0.13479983161E+03  0.00000000000E+00 0. -1.
         -4    1    5    5    0  503  0.81411286373E+01  0.12614695182E+03 -0.98726877053E+02  0.16039428818E+03  0.00000000000E+00 0.  1.
         -1    1    6    6    0  502 -0.34830990708E+02 -0.55059802249E+03  0.15258850388E+03  0.57241124360E+03  0.00000000000E+00 0.  1.
<mgrwt>
<rscale>  0 0.16598450E+04</rscale>
<asrwt>0</asrwt>
<pdfrwt beam="1">  1        2 0.17163301E+00 0.16598450E+04</pdfrwt>
<pdfrwt beam="2">  1       -2 0.94983363E-01 0.16598450E+04</pdfrwt>
<totfact> 0.18968166E+01</totfact>
</mgrwt>
</event>
<event>
12    1  0.2406360E-008  0.1679428E+04  0.7818608E-02  0.8773185E-01
         -1   -1    0    0    0  501 -0.00000000000E+00  0.00000000000E+00  0.11247281249E+04  0.11247281249E+04  0.00000000000E+00 0.  1.
          1   -1    0    0  501    0  0.00000000000E+00 -0.00000000000E+00 -0.62692448787E+03  0.62692448787E+03  0.00000000000E+00 0. -1.
         23    2    1    2    0    0 -0.39239472621E+01  0.33975688001E+03 -0.33155151575E+03  0.48009078306E+03  0.71488583043E+02 0.  0.
        254    2    1    2    0    0  0.39239472621E+01 -0.33975688001E+03  0.82935515273E+03  0.12715618297E+04  0.90199189708E+03 0.  0.
        -24    2    4    4    0    0  0.39949423145E+03 -0.28445072768E+02  0.17798187713E+03  0.44550894540E+03  0.79974425413E+02 0.  0.
         24    2    4    4    0    0 -0.39557028419E+03 -0.31131180724E+03  0.65137327561E+03  0.82605288425E+03  0.68449487541E+02 0.  0.
         11    1    3    3    0    0 -0.26802612164E+02  0.12813272220E+03 -0.15986476167E+03  0.20662312683E+03  0.00000000000E+00 0. -1.
        -11    1    3    3    0    0  0.22878664902E+02  0.21162415781E+03 -0.17168675407E+03  0.27346765622E+03  0.00000000000E+00 0.  1.
          4    1    6    6  502    0 -0.20761135062E+03 -0.20629901825E+03  0.37110242607E+03  0.47262963139E+03  0.00000000000E+00 0. -1.
          3    1    5    5  503    0  0.24652559365E+03  0.12693843361E+02  0.13509831955E+03  0.28140283923E+03  0.00000000000E+00 0. -1.
         -2    1    5    5    0  503  0.15296863781E+03 -0.41138916129E+02  0.42883557576E+02  0.16410610617E+03  0.00000000000E+00 0.  1.
         -3    1    6    6    0  502 -0.18795893357E+03 -0.10501278899E+03  0.28027084954E+03  0.35342325286E+03  0.00000000000E+00 0.  1.
<mgrwt>
<rscale>  0 0.16794280E+04</rscale>
<asrwt>0</asrwt>
<pdfrwt beam="1">  1        1 0.96449922E-01 0.16794280E+04</pdfrwt>
<pdfrwt beam="2">  1       -1 0.17303510E+00 0.16794280E+04</pdfrwt>
<totfact> 0.71584740E+00</totfact>
</mgrwt>
</event>
<event>
11    1  0.2406360E-008  0.1707151E+04  0.7818608E-02  0.8757297E-01
         -1   -1    0    0    0  501 -0.00000000000E+00  0.00000000000E+00  0.46027845845E+03  0.46027845845E+03  0.00000000000E+00 0.  1.
          1   -1    0    0  501    0  0.00000000000E+00 -0.00000000000E+00 -0.15829347597E+04  0.15829347597E+04  0.00000000000E+00 0. -1.
         23    2    1    2    0    0  0.40906563338E+03 -0.33950464349E+03 -0.77586478843E+03  0.94486490069E+03  0.90583747325E+02 0.  0.
        254    2    1    2    0    0 -0.40906563338E+03  0.33950464349E+03 -0.34679151285E+03  0.10983483175E+04  0.89638528422E+03 0.  0.
        -24    2    4    4    0    0 -0.45460237058E+03  0.30213610677E+03 -0.43197867647E+03  0.70135918260E+03  0.85729713323E+02 0.  0.
         13    1    3    3    0    0  0.30458522825E+03 -0.19987703995E+03 -0.50427157269E+03  0.62210353752E+03  0.00000000000E+00 0. -1.
        -13    1    3    3    0    0  0.10448040513E+03 -0.13962760354E+03 -0.27159321573E+03  0.32276136318E+03  0.00000000000E+00 0.  1.
          2    1    4    4  502    0  0.19790330662E+03  0.89726875277E+02  0.91455272560E+02  0.23575558911E+03  0.00000000000E+00 0. -1.
          3    1    5    5  503    0 -0.13986668872E+03  0.12312825705E+03 -0.18831166544E+03  0.26492365247E+03  0.00000000000E+00 0. -1.
         -4    1    5    5    0  503 -0.31473568186E+03  0.17900784972E+03 -0.24366701103E+03  0.43643553013E+03  0.00000000000E+00 0.  1.
         -1    1    4    4    0  502 -0.15236656942E+03 -0.52358338553E+02 -0.62681089416E+01  0.16123354577E+03  0.00000000000E+00 0.  1.
<mgrwt>
<rscale>  0 0.17071506E+04</rscale>
<asrwt>0</asrwt>
<pdfrwt beam="1">  1        1 0.24352843E+00 0.17071506E+04</pdfrwt>
<pdfrwt beam="2">  1       -1 0.70812070E-01 0.17071506E+04</pdfrwt>
<totfact> 0.10984642E+01</totfact>
</mgrwt>
</event>
<event>
11    1  0.2406360E-008  0.2106860E+04  0.7818608E-02  0.8558228E-01
         -2   -1    0    0    0  501 -0.00000000000E+00  0.00000000000E+00  0.12386569818E+04  0.12386569818E+04  0.00000000000E+00 0.  1.
          2   -1    0    0  501    0  0.00000000000E+00 -0.00000000000E+00 -0.89590149091E+03  0.89590149091E+03  0.00000000000E+00 0. -1.
         23    2    1    2    0    0 -0.58336563786E+03 -0.60711836701E+03  0.30356141978E+03  0.90028095600E+03  0.97201261129E+02 0.  0.
        254    2    1    2    0    0  0.58336563786E+03  0.60711836701E+03  0.39194071115E+02  0.12342775167E+04  0.90166325979E+03 0.  0.
        -24    2    4    4    0    0 -0.74528574264E+02  0.51061648937E+03  0.14203068539E+03  0.54107010664E+03  0.79375292804E+02 0.  0.
         11    1    3    3    0    0 -0.54781710985E+03 -0.52953080265E+03  0.26561526734E+03  0.80688160658E+03  0.00000000000E+00 0.  1.
        -11    1    3    3    0    0 -0.35548528016E+02 -0.77587564363E+02  0.37946152442E+02  0.93399349425E+02  0.00000000000E+00 0. -1.
          2    1    4    4  502    0  0.59792196444E+03  0.37129949914E+02 -0.10769786205E+03  0.60867736793E+03  0.00000000000E+00 0. -1.
          1    1    5    5  503    0 -0.88426074899E+02  0.41896167462E+03  0.13060035149E+03  0.44766562000E+03  0.00000000000E+00 0. -1.
         -2    1    5    5    0  503  0.13897500635E+02  0.91654814753E+02  0.11430333896E+02  0.93404486639E+02  0.00000000000E+00 0.  1.
         -1    1    4    4    0  502  0.59972247688E+02  0.59371927725E+02  0.48612477726E+01  0.84530042141E+02  0.00000000000E+00 0.  1.
<mgrwt>
<rscale>  0 0.21068599E+04</rscale>
<asrwt>0</asrwt>
<pdfrwt beam="1">  1        2 0.13783100E+00 0.21068599E+04</pdfrwt>
<pdfrwt beam="2">  1       -2 0.19056261E+00 0.21068599E+04</pdfrwt>
<totfact> 0.41748542E+00</totfact>
</mgrwt>
</event>
<event>
12    1  0.2406360E-008  0.1033516E+04  0.7818608E-02  0.9272530E-01
         -2   -1    0    0    0  501 -0.00000000000E+00  0.00000000000E+00  0.11587145201E+04  0.11587145201E+04  0.00000000000E+00 0.  1.
          2   -1    0    0  501    0  0.00000000000E+00 -0.00000000000E+00 -0.23046129357E+03  0.23046129357E+03  0.00000000000E+00 0. -1.
         23    2    1    2    0    0 -0.81894649789E+02  0.29352929760E+02  0.96877717282E+02  0.15670320910E+03  0.87191028703E+02 0.  0.
        254    2    1    2    0    0  0.81894649789E+02 -0.29352929760E+02  0.83137550922E+03  0.12324726045E+04  0.90566834739E+03 0.  0.
        -24    2    4    4    0    0  0.90048374236E+02 -0.20509442345E+03  0.96434600062E+03  0.99318685619E+03  0.79274776387E+02 0.  0.
         24    2    4    4    0    0 -0.81537244464E+01  0.17574149369E+03 -0.13297049141E+03  0.23928574835E+03  0.92870673258E+02 0.  0.
         13    1    3    3    0    0 -0.14537609335E+02  0.24863938085E+02 -0.98314521035E+01  0.30433779797E+02  0.00000000000E+00 0. -1.
        -13    1    3    3    0    0 -0.67357040454E+02  0.44889916748E+01  0.10670916939E+03  0.12626942930E+03  0.00000000000E+00 0.  1.
          4    1    6    6  502    0 -0.38058254392E+02  0.50174785953E+02 -0.15729226202E+02  0.64910310658E+02  0.00000000000E+00 0. -1.
          1    1    5    5  503    0  0.10212272609E+03 -0.19842777164E+03  0.92323250676E+03  0.94982150601E+03  0.00000000000E+00 0. -1.
         -2    1    5    5    0  503 -0.12074351855E+02 -0.66666518018E+01  0.41113493866E+02  0.43365350187E+02  0.00000000000E+00 0.  1.
         -3    1    6    6    0  502  0.29904529945E+02  0.12556670773E+03 -0.11724126521E+03  0.17437543769E+03  0.00000000000E+00 0.  1.
<mgrwt>
<rscale>  0 0.10335160E+04</rscale>
<asrwt>0</asrwt>
<pdfrwt beam="1">  1        2 0.35455584E-01 0.10335160E+04</pdfrwt>
<pdfrwt beam="2">  1       -2 0.17826377E+00 0.10335160E+04</pdfrwt>
<totfact> 0.27381744E+01</totfact>
</mgrwt>
</event>
<event>
12    1  0.2406360E-008  0.2848682E+04  0.7818608E-02  0.8288312E-01
         -2   -1    0    0    0  501 -0.00000000000E+00  0.00000000000E+00  0.57713279715E+03  0.57713279715E+03  0.00000000000E+00 0.  1.
          2   -1    0    0  501    0  0.00000000000E+00 -0.00000000000E+00 -0.35152162560E+04  0.35152162560E+04  0.00000000000E+00 0. -1.
         23    2    1    2    0    0  0.88165573834E+03  0.81546625074E+03 -0.68125029998E+03  0.13838583932E+04  0.93059304326E+02 0.  0.
        254    2    1    2    0    0 -0.88165573834E+03 -0.81546625074E+03 -0.22568331589E+04  0.27084906600E+04  0.89460812713E+03 0.  0.
        -24    2    4    4    0    0 -0.24174493342E+03  0.17013487515E+03 -0.33466931220E+03  0.45325166719E+03  0.77762694802E+02 0.  0.
         24    2    4    4    0    0 -0.63991080493E+03 -0.98560112589E+03 -0.19221638467E+04  0.22552389928E+04  0.10243848654E+03 0.  0.
         11    1    3    3    0    0  0.62424459631E+03  0.60497956492E+03 -0.53387335556E+03  0.10201481999E+04  0.00000000000E+00 0. -1.
        -11    1    3    3    0    0  0.25741114203E+03  0.21048668583E+03 -0.14737694441E+03  0.36371019328E+03  0.00000000000E+00 0.  1.
          2    1    6    6  502    0 -0.59857557155E+02 -0.12627403924E+03 -0.17945059815E+03  0.22744356950E+03  0.00000000000E+00 0. -1.
          3    1    5    5  503    0 -0.13275356431E+02  0.24160907750E+02 -0.66146199696E+02  0.71661037432E+02  0.00000000000E+00 0. -1.
         -4    1    5    5    0  503 -0.22846957699E+03  0.14597396740E+03 -0.26852311251E+03  0.38159062976E+03  0.00000000000E+00 0.  1.
         -1    1    6    6    0  502 -0.58005324777E+03 -0.85932708665E+03 -0.17427132486E+04  0.20277954233E+04  0.00000000000E+00 0.  1.
<mgrwt>
<rscale>  0 0.28486815E+04</rscale>
<asrwt>0</asrwt>
<pdfrwt beam="1">  1        2 0.54080251E+00 0.28486815E+04</pdfrwt>
<pdfrwt beam="2">  1       -2 0.88789660E-01 0.28486815E+04</pdfrwt>
<totfact> 0.74934227E-01</totfact>
</mgrwt>
</event>
<event>
12    1  0.2406360E-008  0.2428183E+04  0.7818608E-02  0.8429027E-01
          1   -1    0    0  501    0  0.00000000000E+00  0.00000000000E+00  0.73469617922E+03  0.73469617922E+03  0.00000000000E+00 0. -1.
         -1   -1    0    0    0  501 -0.00000000000E+00 -0.00000000000E+00 -0.20062960629E+04  0.20062960629E+04  0.00000000000E+00 0.  1.
         23    2    1    2    0    0  0.42895979360E+03  0.88081087559E+03 -0.97484497347E+03  0.13850690515E+04  0.90880426479E+02 0.  0.
        254    2    1    2    0    0 -0.42895979360E+03 -0.88081087559E+03 -0.29675491019E+03  0.13559231906E+04  0.88917372829E+03 0.  0.
        -24    2    4    4    0    0  0.23240868236E+03 -0.47428990455E+02 -0.42709038580E+01  0.25041714282E+03  0.80169819920E+02 0.  0.
         24    2    4    4    0    0 -0.66136847596E+03 -0.83338188514E+03 -0.29248400633E+03  0.11055060478E+04  0.68286897114E+02 0.  0.
         13    1    3    3    0    0  0.12261244267E+03  0.23864814541E+03 -0.32532419510E+03  0.42169014729E+03  0.00000000000E+00 0. -1.
        -13    1    3    3    0    0  0.30634735093E+03  0.64216273018E+03 -0.64952077837E+03  0.96337890416E+03  0.00000000000E+00 0.  1.
          4    1    6    6  502    0 -0.55788749426E+03 -0.73859430562E+03 -0.26057821648E+03  0.96159295518E+03  0.00000000000E+00 0. -1.
          3    1    5    5  503    0  0.22469115204E+03 -0.25738334250E+02 -0.11010134573E+02  0.22642835228E+03  0.00000000000E+00 0. -1.
         -4    1    5    5    0  503  0.77175303261E+01 -0.21690656206E+02  0.67392307148E+01  0.23988790540E+02  0.00000000000E+00 0.  1.
         -3    1    6    6    0  502 -0.10348098171E+03 -0.94787579515E+02 -0.31905789844E+02  0.14391309263E+03  0.00000000000E+00 0.  1.
<mgrwt>
<rscale>  0 0.24281829E+04</rscale>
<asrwt>0</asrwt>
<pdfrwt beam="1">  1        1 0.11303018E+00 0.24281829E+04</pdfrwt>
<pdfrwt beam="2">  1       -1 0.30866093E+00 0.24281829E+04</pdfrwt>
<totfact> 0.65609015E-01</totfact>
</mgrwt>
</event>
<event>
12    1  0.2406360E-008  0.2058992E+04  0.7818608E-02  0.8579526E-01
         -1   -1    0    0    0  501 -0.00000000000E+00  0.00000000000E+00  0.99393512825E+03  0.99393512825E+03  0.00000000000E+00 0.  1.
          1   -1    0    0  501    0  0.00000000000E+00 -0.00000000000E+00 -0.10663289169E+04  0.10663289169E+04  0.00000000000E+00 0. -1.
         23    2    1    2    0    0 -0.44559933566E+03 -0.66266909313E+03 -0.25749325252E+03  0.84344725357E+03  0.86089485561E+02 0.  0.
        254    2    1    2    0    0  0.44559933566E+03  0.66266909313E+03  0.18509946386E+03  0.12168167916E+04  0.89927314976E+03 0.  0.
        -24    2    4    4    0    0 -0.11507029136E+03  0.23438086852E+03  0.38956750102E+03  0.47555021336E+03  0.78801041173E+02 0.  0.
         24    2    4    4    0    0  0.56066962702E+03  0.42828822460E+03 -0.20446803717E+03  0.74126657824E+03  0.99437054405E+02 0.  0.
         13    1    3    3    0    0 -0.25645066857E+03 -0.35469147314E+03 -0.18310334934E+03  0.47444686011E+03  0.00000000000E+00 0. -1.
        -13    1    3    3    0    0 -0.18914866709E+03 -0.30797761998E+03 -0.74389903185E+02  0.36900039345E+03  0.00000000000E+00 0.  1.
          4    1    6    6  502    0  0.24191723778E+03  0.16038555544E+03 -0.37551596261E+02  0.29267319438E+03  0.00000000000E+00 0. -1.
          1    1    5    5  503    0 -0.73625931323E+02  0.79880317482E+02  0.11815605964E+03  0.16050700082E+03  0.00000000000E+00 0. -1.
         -2    1    5    5    0  503 -0.41444360041E+02  0.15450055104E+03  0.27141144138E+03  0.31504321254E+03  0.00000000000E+00 0.  1.
         -3    1    6    6    0  502  0.31875238925E+03  0.26790266917E+03 -0.16691644090E+03  0.44859338386E+03  0.00000000000E+00 0.  1.
<mgrwt>
<rscale>  0 0.20589918E+04</rscale>
<asrwt>0</asrwt>
<pdfrwt beam="1">  1        1 0.16405060E+00 0.20589918E+04</pdfrwt>
<pdfrwt beam="2">  1       -1 0.15291310E+00 0.20589918E+04</pdfrwt>
<totfact> 0.41103071E+00</totfact>
</mgrwt>
</event>
<event>
12    1  0.2406360E-008  0.3390474E+04  0.7818608E-02  0.8140248E-01
         -2   -1    0    0    0  501 -0.00000000000E+00  0.00000000000E+00  0.16868840713E+04  0.16868840713E+04  0.00000000000E+00 0.  1.
          2   -1    0    0  501    0  0.00000000000E+00 -0.00000000000E+00 -0.17036316688E+04  0.17036316688E+04  0.00000000000E+00 0. -1.
         23    2    1    2    0    0  0.15359433889E+04 -0.25598195010E+03 -0.22665686643E+03  0.15763087966E+04  0.93419668941E+02 0.  0.
        254    2    1    2    0    0 -0.15359433889E+04  0.25598195010E+03  0.20990926888E+03  0.18142069435E+04  0.90699287760E+03 0.  0.
        -24    2    4    4    0    0 -0.14328899061E+04 -0.54733631758E+02  0.59769459424E+02  0.14373628543E+04  0.79185434593E+02 0.  0.
         24    2    4    4    0    0 -0.10305348273E+03  0.31071558186E+03  0.15013980946E+03  0.37684408919E+03  0.11092931111E+03 0.  0.
         13    1    3    3    0    0  0.65418370036E+03 -0.68701103758E+02 -0.11925224772E+03  0.66850374274E+03  0.00000000000E+00 0.  1.
        -13    1    3    3    0    0  0.88175968852E+03 -0.18728084634E+03 -0.10740461872E+03  0.90780505387E+03  0.00000000000E+00 0. -1.
          2    1    6    6  502    0 -0.10198651345E+03  0.13392271306E+03  0.62976934074E+02  0.17972934158E+03  0.00000000000E+00 0. -1.
          3    1    5    5  503    0 -0.91908944677E+02 -0.22249393565E+02 -0.17287118071E+01  0.94579480174E+02  0.00000000000E+00 0. -1.
         -4    1    5    5    0  503 -0.13409809615E+04 -0.32484238193E+02  0.61498171231E+02  0.13427833741E+04  0.00000000000E+00 0.  1.
         -1    1    6    6    0  502 -0.10669692819E+01  0.17679286880E+03  0.87162875382E+02  0.19711474762E+03  0.00000000000E+00 0.  1.
<mgrwt>
<rscale>  0 0.33904744E+04</rscale>
<asrwt>0</asrwt>
<pdfrwt beam="1">  1        2 0.26209718E+00 0.33904744E+04</pdfrwt>
<pdfrwt beam="2">  1       -2 0.25952063E+00 0.33904744E+04</pdfrwt>
<totfact> 0.45460285E-01</totfact>
</mgrwt>
</event>
<event>
12    1  0.2406360E-008  0.2741617E+04  0.7818608E-02  0.8321627E-01
          2   -1    0    0  501    0  0.00000000000E+00  0.00000000000E+00  0.31226516837E+04  0.31226516837E+04  0.00000000000E+00 0. -1.
         -2   -1    0    0    0  501 -0.00000000000E+00 -0.00000000000E+00 -0.60176920632E+03  0.60176920632E+03  0.00000000000E+00 0.  1.
         23    2    1    2    0    0 -0.85168568944E+03  0.85655938148E+03  0.14050534464E+04  0.18552440745E+04  0.93235727896E+02 0.  0.
        254    2    1    2    0    0  0.85168568944E+03 -0.85655938148E+03  0.11158290309E+04  0.18691768155E+04  0.88864225302E+03 0.  0.
        -24    2    4    4    0    0  0.56574056717E+03 -0.81322565818E+03  0.12023543780E+04  0.15599565099E+04  0.80061863603E+02 0.  0.
         24    2    4    4    0    0  0.28594512227E+03 -0.43333723300E+02 -0.86525347054E+02  0.30922030564E+03  0.66993561008E+02 0.  0.
         11    1    3    3    0    0 -0.11819465934E+03  0.16485851572E+03  0.21654462536E+03  0.29671515376E+03  0.00000000000E+00 0.  1.
        -11    1    3    3    0    0 -0.73349103010E+03  0.69170086577E+03  0.11885088211E+04  0.15585289207E+04  0.00000000000E+00 0. -1.
          2    1    6    6  502    0  0.22935643449E+03 -0.55254450203E+02 -0.51058499911E+02  0.24138019538E+03  0.00000000000E+00 0. -1.
          3    1    5    5  503    0  0.38024265574E+03 -0.48358269012E+03  0.76751616166E+03  0.98362480339E+03  0.00000000000E+00 0. -1.
         -4    1    5    5    0  503  0.18549791143E+03 -0.32964296807E+03  0.43483821633E+03  0.57633170650E+03  0.00000000000E+00 0.  1.
         -1    1    6    6    0  502  0.56588687777E+02  0.11920726903E+02 -0.35466847143E+02  0.67840110263E+02  0.00000000000E+00 0.  1.
<mgrwt>
<rscale>  0 0.27416168E+04</rscale>
<asrwt>0</asrwt>
<pdfrwt beam="1">  1        2 0.48040794E+00 0.27416168E+04</pdfrwt>
<pdfrwt beam="2">  1       -2 0.92579880E-01 0.27416168E+04</pdfrwt>
<totfact> 0.12591123E+00</totfact>
</mgrwt>
</event>
<event>
11    1  0.2406360E-008  0.2267258E+04  0.7818608E-02  0.8490944E-01
         -1   -1    0    0    0  501 -0.00000000000E+00  0.00000000000E+00  0.24616942893E+04  0.24616942893E+04  0.00000000000E+00 0.  1.
          1   -1    0    0  501    0  0.00000000000E+00 -0.00000000000E+00 -0.52204478719E+03  0.52204478719E+03  0.00000000000E+00 0. -1.
         23    2    1    2    0    0  0.24779657655E+03 -0.37038136998E+03  0.19079744862E+04  0.19615113668E+04  0.92599674376E+02 0.  0.
        254    2    1    2    0    0 -0.24779657655E+03  0.37038136998E+03  0.31675015959E+02  0.10222277097E+04  0.91943497934E+03 0.  0.
        -24    2    4    4    0    0 -0.38042437122E+03  0.61725080634E+02 -0.33987463919E+03  0.51940327120E+03  0.75711953985E+02 0.  0.
         11    1    3    3    0    0  0.24839719989E+03 -0.35906094189E+03  0.17693038664E+04  0.18223781442E+04  0.00000000000E+00 0.  1.
        -11    1    3    3    0    0 -0.60062333163E+00 -0.11320428086E+02  0.13867061974E+03  0.13913322256E+03  0.00000000000E+00 0. -1.
          2    1    4    4  502    0  0.11425534684E+02  0.70487244087E+02  0.84642914796E+02  0.11074031536E+03  0.00000000000E+00 0. -1.
          1    1    5    5  503    0 -0.13054285429E+03  0.17070510032E+02 -0.70777259270E+02  0.14947327369E+03  0.00000000000E+00 0. -1.
         -2    1    5    5    0  503 -0.24988151693E+03  0.44654570602E+02 -0.26909737992E+03  0.36992999751E+03  0.00000000000E+00 0.  1.
         -1    1    4    4    0  502  0.12120225998E+03  0.23816904526E+03  0.28690674035E+03  0.39208412312E+03  0.00000000000E+00 0.  1.
<mgrwt>
<rscale>  0 0.22672580E+04</rscale>
<asrwt>0</asrwt>
<pdfrwt beam="1">  1        1 0.80314584E-01 0.22672580E+04</pdfrwt>
<pdfrwt beam="2">  1       -1 0.37872219E+00 0.22672580E+04</pdfrwt>
<totfact> 0.37793708E-01</totfact>
</mgrwt>
</event>
<event>
12    1  0.2406360E-008  0.1535997E+04  0.7818608E-02  0.8860862E-01
          2   -1    0    0  501    0  0.00000000000E+00  0.00000000000E+00  0.28531068298E+04  0.28531068298E+04  0.00000000000E+00 0. -1.
         -2   -1    0    0    0  501 -0.00000000000E+00 -0.00000000000E+00 -0.20672962943E+03  0.20672962943E+03  0.00000000000E+00 0.  1.
         23    2    1    2    0    0  0.13763104964E+02  0.19698410583E+03  0.18354442829E+04  0.18482837341E+04  0.91131141889E+02 0.  0.
        254    2    1    2    0    0 -0.13763104964E+02 -0.19698410583E+03  0.81093291740E+03  0.12115527251E+04  0.87821161922E+03 0.  0.
        -24    2    4    4    0    0  0.37656078228E+03 -0.20005826086E+03  0.19570520565E+03  0.47672037819E+03  0.84501248358E+02 0.  0.
         24    2    4    4    0    0 -0.39032388724E+03  0.30741550368E+01  0.61522771175E+03  0.73483234690E+03  0.95452885538E+02 0.  0.
         11    1    3    3    0    0 -0.94355657111E+01  0.60507438975E+02  0.96101965236E+03  0.96296882208E+03  0.00000000000E+00 0.  1.
        -11    1    3    3    0    0  0.23198670676E+02  0.13647666685E+03  0.87442463057E+03  0.88531491203E+03  0.00000000000E+00 0. -1.
          2    1    6    6  502    0 -0.38117750505E+03  0.20503975787E+02  0.57714138266E+03  0.69196017151E+03  0.00000000000E+00 0. -1.
          1    1    5    5  503    0  0.30026865269E+03 -0.19527585311E+03  0.15791203908E+03  0.39144620918E+03  0.00000000000E+00 0. -1.
         -2    1    5    5    0  503  0.76292129589E+02 -0.47824077564E+01  0.37793166568E+02  0.85274169011E+02  0.00000000000E+00 0.  1.
         -1    1    6    6    0  502 -0.91463821917E+01 -0.17429820751E+02  0.38086329089E+02  0.42872175383E+02  0.00000000000E+00 0.  1.
<mgrwt>
<rscale>  0 0.15359970E+04</rscale>
<asrwt>0</asrwt>
<pdfrwt beam="1">  1        2 0.43893948E+00 0.15359970E+04</pdfrwt>
<pdfrwt beam="2">  1       -2 0.31804560E-01 0.15359970E+04</pdfrwt>
<totfact> 0.19110083E+01</totfact>
</mgrwt>
</event>
<event>
12    1  0.2406360E-008  0.1708806E+04  0.7818608E-02  0.8756358E-01
         -1   -1    0    0    0  501 -0.00000000000E+00  0.00000000000E+00  0.10897285240E+04  0.10897285240E+04  0.00000000000E+00 0.  1.
          1   -1    0    0  501    0  0.00000000000E+00 -0.00000000000E+00 -0.66989566713E+03  0.66989566713E+03  0.00000000000E+00 0. -1.
         23    2    1    2    0    0  0.20911750694E+03  0.13538268654E+03  0.69973952946E+03  0.74861647257E+03  0.93448437044E+02 0.  0.
        254    2    1    2    0    0 -0.20911750694E+03 -0.13538268654E+03 -0.27990667254E+03  0.10110077186E+04  0.93900492981E+03 0.  0.
        -24    2    4    4    0    0  0.15542926355E+02  0.38722472482E+03 -0.11975052441E+03  0.41246796468E+03  0.74866973494E+02 0.  0.
         24    2    4    4    0    0 -0.22466043330E+03 -0.52260741135E+03 -0.16015614813E+03  0.59853975393E+03  0.94915902542E+02 0.  0.
         13    1    3    3    0    0  0.21172874506E+03  0.14134344933E+03  0.69603408453E+03  0.74112784253E+03  0.00000000000E+00 0.  1.
        -13    1    3    3    0    0 -0.26112381207E+01 -0.59607627979E+01  0.37054449385E+01  0.74886300381E+01  0.00000000000E+00 0. -1.
          2    1    6    6  502    0 -0.68513872255E+02 -0.24828761287E+03 -0.10481758927E+03  0.27807843572E+03  0.00000000000E+00 0. -1.
          1    1    5    5  503    0 -0.22978985304E+02  0.19827339316E+03 -0.38844431945E+02  0.20334517967E+03  0.00000000000E+00 0. -1.
         -2    1    5    5    0  503  0.38521911659E+02  0.18895133166E+03 -0.80906092464E+02  0.20912278501E+03  0.00000000000E+00 0.  1.
         -1    1    6    6    0  502 -0.15614656104E+03 -0.27431979849E+03 -0.55338558861E+02  0.32046131820E+03  0.00000000000E+00 0.  1.
<mgrwt>
<rscale>  0 0.17088059E+04</rscale>
<asrwt>0</asrwt>
<pdfrwt beam="1">  1        1 0.10306087E+00 0.17088059E+04</pdfrwt>
<pdfrwt beam="2">  1       -1 0.16765054E+00 0.17088059E+04</pdfrwt>
<totfact> 0.70900665E+00</totfact>
</mgrwt>
</event>
<event>
11    1  0.2406360E-008  0.1337806E+04  0.7818608E-02  0.9000111E-01
         -2   -1    0    0    0  501 -0.00000000000E+00  0.00000000000E+00  0.30030702458E+03  0.30030702458E+03  0.00000000000E+00 0. -1.
          2   -1    0    0  501    0  0.00000000000E+00 -0.00000000000E+00 -0.14899116977E+04  0.14899116977E+04  0.00000000000E+00 0.  1.
         23    2    1    2    0    0 -0.61252591475E+00 -0.18874599061E+03  0.58770972379E+02  0.21788280957E+03  0.91615868446E+02 0.  0.
        254    2    1    2    0    0  0.61252591475E+00  0.18874599061E+03 -0.12483756455E+04  0.15723359127E+04  0.93710887624E+03 0.  0.
        -24    2    4    4    0    0  0.22545870888E+03 -0.30533154034E+03 -0.40446924931E+03  0.56076181534E+03  0.82458844071E+02 0.  0.
         11    1    3    3    0    0 -0.14013345797E+02 -0.13073387383E+03  0.80883706004E+02  0.15436934127E+03  0.00000000000E+00 0. -1.
        -11    1    3    3    0    0  0.13400819882E+02 -0.58012116780E+02 -0.22112733625E+02  0.63513468297E+02  0.00000000000E+00 0.  1.
          2    1    4    4  502    0 -0.21075829321E+03  0.47986631556E+03 -0.84156838430E+03  0.99142729659E+03  0.00000000000E+00 0. -1.
          3    1    5    5  503    0  0.86098039363E+02 -0.79648929996E+02 -0.81454258723E+02  0.14279923213E+03  0.00000000000E+00 0. -1.
         -4    1    5    5    0  503  0.13936066952E+03 -0.22568261034E+03 -0.32301499059E+03  0.41796258321E+03  0.00000000000E+00 0.  1.
         -1    1    4    4    0  502 -0.14087889754E+02  0.14211215395E+02 -0.23380118426E+01  0.20146800741E+02  0.00000000000E+00 0.  1.
<mgrwt>
<rscale>  0 0.13378056E+04</rscale>
<asrwt>0</asrwt>
<pdfrwt beam="1">  1        2 0.22921718E+00 0.13378056E+04</pdfrwt>
<pdfrwt beam="2">  1       -2 0.46201082E-01 0.13378056E+04</pdfrwt>
<totfact> 0.55834466E+01</totfact>
</mgrwt>
</event>
<event>
12    1  0.2406360E-008  0.2856020E+04  0.7818608E-02  0.8286084E-01
         -2   -1    0    0    0  501 -0.00000000000E+00  0.00000000000E+00  0.94012274145E+03  0.94012274145E+03  0.00000000000E+00 0.  1.
          2   -1    0    0  501    0  0.00000000000E+00 -0.00000000000E+00 -0.21690924671E+04  0.21690924671E+04  0.00000000000E+00 0. -1.
         23    2    1    2    0    0 -0.72178110311E+03  0.81235340911E+03 -0.12987793355E+04  0.16959017806E+04  0.91482594571E+02 0.  0.
        254    2    1    2    0    0  0.72178110311E+03 -0.81235340911E+03  0.69809609844E+02  0.14133134279E+04  0.90094141975E+03 0.  0.
        -24    2    4    4    0    0 -0.11311161275E+03  0.91228795987E+02  0.67496841394E+02  0.17883017950E+03  0.79419640810E+02 0.  0.
         24    2    4    4    0    0  0.83489271586E+03 -0.90358220510E+03  0.23127684498E+01  0.12344832484E+04  0.10216111478E+03 0.  0.
         13    1    3    3    0    0 -0.21558482902E+03  0.29008943266E+03 -0.47753342610E+03  0.59888802833E+03  0.00000000000E+00 0. -1.
        -13    1    3    3    0    0 -0.50619627409E+03  0.52226397645E+03 -0.82124590937E+03  0.10970137523E+04  0.00000000000E+00 0.  1.
          4    1    6    6  502    0  0.79370977451E+03 -0.87070083592E+03  0.21580336549E+02  0.11783721241E+04  0.00000000000E+00 0. -1.
          1    1    5    5  503    0 -0.79147510704E+02  0.10222446729E+03  0.46369940945E+02  0.13734752122E+03  0.00000000000E+00 0. -1.
         -2    1    5    5    0  503 -0.33964102047E+02 -0.10995671302E+02  0.21126900449E+02  0.41482658279E+02  0.00000000000E+00 0.  1.
         -3    1    6    6    0  502  0.41182941353E+02 -0.32881369174E+02 -0.19267568099E+02  0.56111124367E+02  0.00000000000E+00 0.  1.
<mgrwt>
<rscale>  0 0.28560204E+04</rscale>
<asrwt>0</asrwt>
<pdfrwt beam="1">  1        2 0.33370653E+00 0.28560204E+04</pdfrwt>
<pdfrwt beam="2">  1       -2 0.14463427E+00 0.28560204E+04</pdfrwt>
<totfact> 0.15355939E+00</totfact>
</mgrwt>
</event>
<event>
12    1  0.2406360E-008  0.1932789E+04  0.7818608E-02  0.8638705E-01
          1   -1    0    0  501    0  0.00000000000E+00  0.00000000000E+00  0.26993722099E+04  0.26993722099E+04  0.00000000000E+00 0. -1.
         -1   -1    0    0    0  501 -0.00000000000E+00 -0.00000000000E+00 -0.34597607569E+03  0.34597607569E+03  0.00000000000E+00 0.  1.
         23    2    1    2    0    0 -0.48484289417E+03 -0.36261534055E+03  0.19388889497E+03  0.64245175309E+03  0.92675963562E+02 0.  0.
        254    2    1    2    0    0  0.48484289417E+03  0.36261534055E+03  0.21595072393E+04  0.24028965325E+04  0.86248345630E+03 0.  0.
        -24    2    4    4    0    0  0.28719375821E+03 -0.21871861833E+03  0.44590718495E+03  0.57928885773E+03  0.80151571063E+02 0.  0.
         24    2    4    4    0    0  0.19764913596E+03  0.58133395888E+03  0.17136000543E+04  0.18236076748E+04  0.11002478241E+03 0.  0.
         13    1    3    3    0    0 -0.40329814746E+02 -0.68276059757E+02  0.28346435957E+02  0.84211844326E+02  0.00000000000E+00 0. -1.
        -13    1    3    3    0    0 -0.44451307942E+03 -0.29433928080E+03  0.16554245901E+03  0.55823990876E+03  0.00000000000E+00 0.  1.
          2    1    6    6  502    0  0.30204987463E+02  0.23935818044E+03  0.59883167408E+03  0.64560363513E+03  0.00000000000E+00 0. -1.
          1    1    5    5  503    0  0.14543980792E+03 -0.81904619789E+02  0.25629742372E+03  0.30585858477E+03  0.00000000000E+00 0. -1.
         -2    1    5    5    0  503  0.14175395029E+03 -0.13681399854E+03  0.18960976123E+03  0.27343027296E+03  0.00000000000E+00 0.  1.
         -1    1    6    6    0  502  0.16744414849E+03  0.34197577844E+03  0.11147683803E+04  0.11780040397E+04  0.00000000000E+00 0.  1.
<mgrwt>
<rscale>  0 0.19327889E+04</rscale>
<asrwt>0</asrwt>
<pdfrwt beam="1">  1        1 0.41528802E+00 0.19327889E+04</pdfrwt>
<pdfrwt beam="2">  1       -1 0.53227090E-01 0.19327889E+04</pdfrwt>
<totfact> 0.32668544E+00</totfact>
</mgrwt>
</event>
<event>
12    1  0.2406360E-008  0.2410632E+04  0.7818608E-02  0.8435534E-01
         -1   -1    0    0    0  501 -0.00000000000E+00  0.00000000000E+00  0.97509969242E+03  0.97509969242E+03  0.00000000000E+00 0.  1.
          1   -1    0    0  501    0  0.00000000000E+00 -0.00000000000E+00 -0.14898855493E+04  0.14898855493E+04  0.00000000000E+00 0. -1.
         23    2    1    2    0    0  0.10974650033E+03  0.95940104287E+03  0.15223097408E+03  0.98213781862E+03  0.94476292753E+02 0.  0.
        254    2    1    2    0    0 -0.10974650033E+03 -0.95940104287E+03 -0.66701683095E+03  0.14828474231E+04  0.90632796052E+03 0.  0.
        -24    2    4    4    0    0 -0.79909281695E+02 -0.12565077302E+03  0.21075379911E+03  0.27009395770E+03  0.79749433136E+02 0.  0.
         24    2    4    4    0    0 -0.29837218636E+02 -0.83375026985E+03 -0.87777063005E+03  0.12127534654E+04  0.65268037804E+02 0.  0.
         11    1    3    3    0    0  0.59346896605E+01  0.50379273625E+02  0.30380268473E+02  0.59129116896E+02  0.00000000000E+00 0. -1.
        -11    1    3    3    0    0  0.10381181067E+03  0.90902176925E+03  0.12185070561E+03  0.92300870172E+03  0.00000000000E+00 0.  1.
          4    1    6    6  502    0 -0.14261449582E+02 -0.38289068380E+03 -0.45047568020E+03  0.59138566362E+03  0.00000000000E+00 0. -1.
          3    1    5    5  503    0 -0.89512872539E+02 -0.10543975941E+03  0.20446168031E+03  0.24684950057E+03  0.00000000000E+00 0. -1.
         -4    1    5    5    0  503  0.96035908436E+01 -0.20211013616E+02  0.62921187944E+01  0.23244457133E+02  0.00000000000E+00 0.  1.
         -3    1    6    6    0  502 -0.15575769054E+02 -0.45085958605E+03 -0.42729494986E+03  0.62136780178E+03  0.00000000000E+00 0.  1.
<mgrwt>
<rscale>  0 0.24106322E+04</rscale>
<asrwt>0</asrwt>
<pdfrwt beam="1">  1        1 0.22921316E+00 0.24106322E+04</pdfrwt>
<pdfrwt beam="2">  1       -1 0.15001534E+00 0.24106322E+04</pdfrwt>
<totfact> 0.20762443E+00</totfact>
</mgrwt>
</event>
<event>
11    1  0.2406360E-008  0.2071461E+04  0.7818608E-02  0.8573920E-01
         -1   -1    0    0    0  501 -0.00000000000E+00  0.00000000000E+00  0.13681687696E+04  0.13681687696E+04  0.00000000000E+00 0.  1.
          1   -1    0    0  501    0  0.00000000000E+00 -0.00000000000E+00 -0.78406834750E+03  0.78406834750E+03  0.00000000000E+00 0. -1.
         23    2    1    2    0    0  0.73730235301E+03  0.45784221145E+02 -0.16585007507E+03  0.76239527338E+03  0.89606644979E+02 0.  0.
        254    2    1    2    0    0 -0.73730235301E+03 -0.45784221145E+02  0.74995049720E+03  0.13898418437E+04  0.90748203712E+03 0.  0.
        -24    2    4    4    0    0  0.13623787186E+03  0.18749137730E+03  0.18214401503E+03  0.30509368134E+03  0.78688867636E+02 0.  0.
         13    1    3    3    0    0  0.14234406973E+03  0.77110194149E+01  0.36273388705E+01  0.14259891863E+03  0.00000000000E+00 0.  1.
        -13    1    3    3    0    0  0.59495828328E+03  0.38073201730E+02 -0.16947741394E+03  0.61979635476E+03  0.00000000000E+00 0. -1.
          4    1    4    4  502    0 -0.22975787733E+03  0.77935247098E+01  0.86765498192E+02  0.24571868651E+03  0.00000000000E+00 0. -1.
          1    1    5    5  503    0  0.20423287874E+02  0.27654557450E+02 -0.29444054491E+01  0.34504416511E+02  0.00000000000E+00 0. -1.
         -2    1    5    5    0  503  0.11581458399E+03  0.15983681986E+03  0.18508842048E+03  0.27058926483E+03  0.00000000000E+00 0.  1.
         -3    1    4    4    0  502 -0.64378234754E+03 -0.24106912316E+03  0.48104098397E+03  0.83902947588E+03  0.00000000000E+00 0.  1.
<mgrwt>
<rscale>  0 0.20714612E+04</rscale>
<asrwt>0</asrwt>
<pdfrwt beam="1">  1        1 0.12062590E+00 0.20714612E+04</pdfrwt>
<pdfrwt beam="2">  1       -1 0.21048750E+00 0.20714612E+04</pdfrwt>
<totfact> 0.26854923E+00</totfact>
</mgrwt>
</event>
<event>
11    1  0.2406360E-008  0.1473067E+04  0.7818608E-02  0.8902563E-01
         -1   -1    0    0    0  501 -0.00000000000E+00  0.00000000000E+00  0.33385270731E+03  0.33385270731E+03  0.00000000000E+00 0.  1.
          1   -1    0    0  501    0  0.00000000000E+00 -0.00000000000E+00 -0.16249137195E+04  0.16249137195E+04  0.00000000000E+00 0. -1.
         23    2    1    2    0    0  0.27057091605E+03 -0.27186812763E+03 -0.73641305707E+03  0.83532343170E+03  0.91324397048E+02 0.  0.
        254    2    1    2    0    0 -0.27057091605E+03  0.27186812763E+03 -0.55464795512E+03  0.11234429951E+04  0.89853709423E+03 0.  0.
        -24    2    4    4    0    0  0.11624661926E+03 -0.24061288711E+03 -0.30539985833E+03  0.41339609329E+03  0.78863290225E+02 0.  0.
         13    1    3    3    0    0  0.66080520506E+02 -0.30151630974E+02 -0.19556526607E+03  0.20861814239E+03  0.00000000000E+00 0.  1.
        -13    1    3    3    0    0  0.20449039555E+03 -0.24171649666E+03 -0.54084779100E+03  0.62670528932E+03  0.00000000000E+00 0. -1.
          4    1    4    4  502    0 -0.50197015074E+02  0.15261450965E+03 -0.12025167215E+03  0.20067733687E+03  0.00000000000E+00 0. -1.
          3    1    5    5  503    0  0.82988912054E+02 -0.20577472767E+03 -0.20519692144E+03  0.30221875296E+03  0.00000000000E+00 0. -1.
         -4    1    5    5    0  503  0.33257707202E+02 -0.34838159446E+02 -0.10020293689E+03  0.11117734033E+03  0.00000000000E+00 0.  1.
         -3    1    4    4    0  502 -0.33662052024E+03  0.35986650510E+03 -0.12899642464E+03  0.50936956496E+03  0.00000000000E+00 0.  1.
<mgrwt>
<rscale>  0 0.14730673E+04</rscale>
<asrwt>0</asrwt>
<pdfrwt beam="1">  1        1 0.24998673E+00 0.14730673E+04</pdfrwt>
<pdfrwt beam="2">  1       -1 0.51361954E-01 0.14730673E+04</pdfrwt>
<totfact> 0.19829618E+01</totfact>
</mgrwt>
</event>
<event>
11    1  0.2406360E-008  0.1538175E+04  0.7818608E-02  0.8859457E-01
         -1   -1    0    0    0  501 -0.00000000000E+00  0.00000000000E+00  0.26123680558E+03  0.26123680558E+03  0.00000000000E+00 0.  1.
          1   -1    0    0  501    0  0.00000000000E+00 -0.00000000000E+00 -0.22642112072E+04  0.22642112072E+04  0.00000000000E+00 0. -1.
         23    2    1    2    0    0 -0.12431091797E+03 -0.91299896101E+02 -0.14456171617E+04  0.14565379254E+04  0.88909360708E+02 0.  0.
        254    2    1    2    0    0  0.12431091797E+03  0.91299896101E+02 -0.55735723986E+03  0.10689100874E+04  0.89896207189E+03 0.  0.
        -24    2    4    4    0    0  0.67126497563E+02 -0.24833707424E+03  0.12414846127E+03  0.29691705624E+03  0.81053246287E+02 0.  0.
         11    1    3    3    0    0 -0.11516376582E+03 -0.41017964641E+02 -0.11559824037E+04  0.11624287006E+04  0.00000000000E+00 0. -1.
        -11    1    3    3    0    0 -0.91471521549E+01 -0.50281931460E+02 -0.28963475804E+03  0.29410922476E+03  0.00000000000E+00 0.  1.
          4    1    4    4  502    0  0.28540118921E+02  0.15504721759E+03 -0.19435563505E+03  0.25025645036E+03  0.00000000000E+00 0. -1.
          1    1    5    5  503    0 -0.15438193887E+02 -0.42648200046E+02  0.59988392568E+01  0.45751424787E+02  0.00000000000E+00 0. -1.
         -2    1    5    5    0  503  0.82564691449E+02 -0.20568887419E+03  0.11814962202E+03  0.25116563145E+03  0.00000000000E+00 0.  1.
         -3    1    4    4    0  502  0.28644301487E+02  0.18458975275E+03 -0.48715006609E+03  0.52173658077E+03  0.00000000000E+00 0.  1.
<mgrwt>
<rscale>  0 0.15381746E+04</rscale>
<asrwt>0</asrwt>
<pdfrwt beam="1">  1        1 0.34834018E+00 0.15381746E+04</pdfrwt>
<pdfrwt beam="2">  1       -1 0.40190278E-01 0.15381746E+04</pdfrwt>
<totfact> 0.11482073E+01</totfact>
</mgrwt>
</event>
<event>
12    1  0.2406360E-008  0.2421802E+04  0.7818608E-02  0.8431386E-01
         -2   -1    0    0    0  501 -0.00000000000E+00  0.00000000000E+00  0.90742831880E+03  0.90742831880E+03  0.00000000000E+00 0.  1.
          2   -1    0    0  501    0  0.00000000000E+00 -0.00000000000E+00 -0.16158651909E+04  0.16158651909E+04  0.00000000000E+00 0. -1.
         23    2    1    2    0    0  0.50612131968E+01 -0.25853781376E+03 -0.13565068321E+04  0.13839386139E+04  0.91147597706E+02 0.  0.
        254    2    1    2    0    0 -0.50612131968E+01  0.25853781376E+03  0.64806995998E+03  0.11393548958E+04  0.90070388501E+03 0.  0.
        -24    2    4    4    0    0 -0.87027672112E+02 -0.30507968714E+03  0.97059739293E+02  0.34121246072E+03  0.79736560869E+02 0.  0.
         24    2    4    4    0    0  0.81966458915E+02  0.56361750090E+03  0.55101022069E+03  0.79814243506E+03  0.95057328169E+02 0.  0.
         11    1    3    3    0    0  0.12618521658E+02 -0.11751882997E+03 -0.84758295360E+03  0.85578429859E+03  0.00000000000E+00 0. -1.
        -11    1    3    3    0    0 -0.75573084615E+01 -0.14101898379E+03 -0.50892387851E+03  0.52815431535E+03  0.00000000000E+00 0.  1.
          4    1    6    6  502    0  0.51800112663E+02  0.24888953690E+03  0.18457815648E+03  0.31416293400E+03  0.00000000000E+00 0. -1.
          1    1    5    5  503    0 -0.80242889355E+02 -0.18780546079E+03  0.90999126253E+02  0.22358589708E+03  0.00000000000E+00 0. -1.
         -2    1    5    5    0  503 -0.67847827567E+01 -0.11727422634E+03  0.60606130404E+01  0.11762656363E+03  0.00000000000E+00 0.  1.
         -3    1    6    6    0  502  0.30166346252E+02  0.31472796400E+03  0.36643206421E+03  0.48397950107E+03  0.00000000000E+00 0.  1.
<mgrwt>
<rscale>  0 0.24218025E+04</rscale>
<asrwt>0</asrwt>
<pdfrwt beam="1">  1        2 0.24859464E+00 0.24218025E+04</pdfrwt>
<pdfrwt beam="2">  1       -2 0.13960436E+00 0.24218025E+04</pdfrwt>
<totfact> 0.35491292E+00</totfact>
</mgrwt>
</event>
<event>
12    1  0.2406360E-008  0.2639335E+04  0.7818608E-02  0.8354962E-01
         -4   -1    0    0    0  501 -0.00000000000E+00  0.00000000000E+00  0.21765696216E+04  0.21765696216E+04  0.00000000000E+00 0.  1.
          4   -1    0    0  501    0  0.00000000000E+00 -0.00000000000E+00 -0.80012236388E+03  0.80012236388E+03  0.00000000000E+00 0. -1.
         23    2    1    2    0    0 -0.67330804244E+03 -0.79979123452E+03  0.33407939778E+02  0.10498227395E+04  0.89453648195E+02 0.  0.
        254    2    1    2    0    0  0.67330804244E+03  0.79979123452E+03  0.13430393180E+04  0.19268692460E+04  0.90336080426E+03 0.  0.
        -24    2    4    4    0    0  0.56712779900E+03  0.27617878049E+03  0.21031396542E+03  0.66981481996E+03  0.80692439480E+02 0.  0.
         24    2    4    4    0    0  0.10618024344E+03  0.52361245402E+03  0.11327253525E+04  0.12570544260E+04  0.10805026411E+03 0.  0.
         13    1    3    3    0    0 -0.64115553192E+03 -0.76166975666E+03  0.12319729640E+02  0.99567716156E+03  0.00000000000E+00 0.  1.
        -13    1    3    3    0    0 -0.32152510522E+02 -0.38121477857E+02  0.21088210138E+02  0.54145577970E+02  0.00000000000E+00 0. -1.
          4    1    6    6  502    0  0.12870663519E+03  0.44072687845E+03  0.96084518516E+03  0.10649080003E+04  0.00000000000E+00 0. -1.
          3    1    5    5  503    0  0.46369903154E+03  0.19529193878E+03  0.14789692298E+03  0.52443229595E+03  0.00000000000E+00 0. -1.
         -4    1    5    5    0  503  0.10342876746E+03  0.80886841716E+02  0.62417042441E+02  0.14538252401E+03  0.00000000000E+00 0.  1.
         -3    1    6    6    0  502 -0.22526391755E+02  0.82885575573E+02  0.17188016738E+03  0.19214642568E+03  0.00000000000E+00 0.  1.
<mgrwt>
<rscale>  0 0.26393348E+04</rscale>
<asrwt>0</asrwt>
<pdfrwt beam="1">  1        4 0.12309575E+00 0.26393348E+04</pdfrwt>
<pdfrwt beam="2">  1       -4 0.33485686E+00 0.26393348E+04</pdfrwt>
<totfact> 0.16218711E-02</totfact>
</mgrwt>
</event>
<event>
11    1  0.2986297E-008  0.1755447E+04  0.7818608E-02  0.8730358E-01
          1   -1    0    0  501    0  0.00000000000E+00  0.00000000000E+00  0.19065539984E+04  0.19065539984E+04  0.00000000000E+00 0. -1.
         -1   -1    0    0    0  501 -0.00000000000E+00 -0.00000000000E+00 -0.40407901607E+03  0.40407901607E+03  0.00000000000E+00 0.  1.
         23    2    1    2    0    0  0.37405652394E+03 -0.25348410264E+03  0.11673794055E+04  0.12552064145E+04  0.92714579311E+02 0.  0.
        254    2    1    2    0    0 -0.37405652394E+03  0.25348410264E+03  0.33509557688E+03  0.10554266000E+04  0.89300828046E+03 0.  0.
        -24    2    4    4    0    0 -0.26567020166E+03  0.51076655082E+03  0.36928149904E+03  0.68843293884E+03  0.78153440505E+02 0.  0.
         13    1    3    3    0    0 -0.17305933802E+01 -0.17244261148E+02  0.47935974490E+02  0.50972709819E+02  0.00000000000E+00 0.  1.
        -13    1    3    3    0    0  0.37578711732E+03 -0.23623984149E+03  0.11194434310E+04  0.12042337047E+04  0.00000000000E+00 0. -1.
          4    1    4    4  502    0 -0.10537398525E+03  0.26451713767E+01 -0.72348152112E+01  0.10565517616E+03  0.00000000000E+00 0. -1.
          1    1    5    5  503    0 -0.98610899104E+00  0.14527243125E+02 -0.17357276401E+01  0.14663763303E+02  0.00000000000E+00 0. -1.
         -2    1    5    5    0  503 -0.26468409267E+03  0.49623930769E+03  0.37101722668E+03  0.67376917553E+03  0.00000000000E+00 0.  1.
         -3    1    4    4    0  502 -0.30123370342E+01 -0.25992761956E+03 -0.26951106947E+02  0.26133848501E+03  0.00000000000E+00 0.  1.
<mgrwt>
<rscale>  0 0.17554469E+04</rscale>
<asrwt>0</asrwt>
<pdfrwt beam="1">  1        1 0.29331599E+00 0.17554469E+04</pdfrwt>
<pdfrwt beam="2">  1       -1 0.62166004E-01 0.17554469E+04</pdfrwt>
<totfact> 0.85736153E+00</totfact>
</mgrwt>
</event>
<event>
11    1  0.2406360E-008  0.1914650E+04  0.7818608E-02  0.8647598E-01
         -1   -1    0    0    0  501 -0.00000000000E+00  0.00000000000E+00  0.40515578255E+03  0.40515578255E+03  0.00000000000E+00 0.  1.
          1   -1    0    0  501    0  0.00000000000E+00 -0.00000000000E+00 -0.22620208383E+04  0.22620208383E+04  0.00000000000E+00 0. -1.
         23    2    1    2    0    0  0.29178644650E+03 -0.30124076218E+03 -0.16122714062E+04  0.16681082124E+04  0.85326395488E+02 0.  0.
        254    2    1    2    0    0 -0.29178644650E+03  0.30124076218E+03 -0.24459364952E+03  0.99906840845E+03  0.87317026073E+03 0.  0.
        -24    2    4    4    0    0  0.19363464338E+03  0.31075626586E+03  0.10437762637E+03  0.38920337952E+03  0.80751160101E+02 0.  0.
         11    1    3    3    0    0  0.31747175566E+02 -0.51838273237E+01 -0.16776093271E+03  0.17081711204E+03  0.00000000000E+00 0.  1.
        -11    1    3    3    0    0  0.26003927094E+03 -0.29605693485E+03 -0.14445104735E+04  0.14972911004E+04  0.00000000000E+00 0. -1.
          4    1    4    4  502    0 -0.18777438766E+03  0.43984143979E+02 -0.17810147053E+03  0.26251468414E+03  0.00000000000E+00 0. -1.
          1    1    5    5  503    0  0.63006906127E+02  0.94329053028E+02  0.71970968239E+02  0.13434158230E+03  0.00000000000E+00 0. -1.
         -2    1    5    5    0  503  0.13062773726E+03  0.21642721283E+03  0.32406658129E+02  0.25486179722E+03  0.00000000000E+00 0.  1.
         -3    1    4    4    0  502 -0.29764670223E+03 -0.53499647657E+02 -0.17086980536E+03  0.34735034479E+03  0.00000000000E+00 0.  1.
<mgrwt>
<rscale>  0 0.19146497E+04</rscale>
<asrwt>0</asrwt>
<pdfrwt beam="1">  1        1 0.34800320E+00 0.19146497E+04</pdfrwt>
<pdfrwt beam="2">  1       -1 0.62331659E-01 0.19146497E+04</pdfrwt>
<totfact> 0.48217957E+00</totfact>
</mgrwt>
</event>
<event>
12    1  0.2406360E-008  0.1470774E+04  0.7818608E-02  0.8904124E-01
          2   -1    0    0  501    0  0.00000000000E+00  0.00000000000E+00  0.94724860438E+03  0.94724860438E+03  0.00000000000E+00 0. -1.
         -2   -1    0    0    0  501 -0.00000000000E+00 -0.00000000000E+00 -0.57091012284E+03  0.57091012284E+03  0.00000000000E+00 0.  1.
         23    2    1    2    0    0  0.35479249490E+03 -0.17126624642E+02 -0.17180189566E+03  0.40568335116E+03  0.94297690052E+02 0.  0.
        254    2    1    2    0    0 -0.35479249490E+03  0.17126624642E+02  0.54814037720E+03  0.11124753761E+04  0.90054014542E+03 0.  0.
        -24    2    4    4    0    0 -0.36088298683E+03  0.28842162925E+03  0.66325161836E+03  0.81186268669E+03  0.76123231551E+02 0.  0.
         24    2    4    4    0    0  0.60904919386E+01 -0.27129500460E+03 -0.11511124116E+03  0.30061268937E+03  0.58985740252E+02 0.  0.
         13    1    3    3    0    0  0.16494564202E+03 -0.26293587771E+02 -0.12851736135E+03  0.21074897330E+03  0.00000000000E+00 0.  1.
        -13    1    3    3    0    0  0.18984685288E+03  0.91669631291E+01 -0.43284534307E+02  0.19493437786E+03  0.00000000000E+00 0. -1.
          4    1    6    6  502    0  0.12083622863E+02 -0.16902723401E+03 -0.41503477957E+02  0.17446706985E+03  0.00000000000E+00 0. -1.
          1    1    5    5  503    0 -0.83717092790E+02  0.73862953868E+02  0.10866024527E+03  0.15579260728E+03  0.00000000000E+00 0. -1.
         -2    1    5    5    0  503 -0.27716589404E+03  0.21455867538E+03  0.55459137308E+03  0.65607007941E+03  0.00000000000E+00 0.  1.
         -3    1    6    6    0  502 -0.59931309243E+01 -0.10226777059E+03 -0.73607763204E+02  0.12614561952E+03  0.00000000000E+00 0.  1.
<mgrwt>
<rscale>  0 0.14707737E+04</rscale>
<asrwt>0</asrwt>
<pdfrwt beam="1">  1        2 0.14573055E+00 0.14707737E+04</pdfrwt>
<pdfrwt beam="2">  1       -2 0.87832327E-01 0.14707737E+04</pdfrwt>
<totfact> 0.29518329E+01</totfact>
</mgrwt>
</event>
<event>
12    1  0.2406360E-008  0.1349592E+04  0.7818608E-02  0.8991137E-01
         -1   -1    0    0    0  501 -0.00000000000E+00  0.00000000000E+00  0.10855035633E+04  0.10855035633E+04  0.00000000000E+00 0.  1.
          1   -1    0    0  501    0  0.00000000000E+00 -0.00000000000E+00 -0.41948265591E+03  0.41948265591E+03  0.00000000000E+00 0. -1.
         23    2    1    2    0    0  0.41520744793E+01 -0.29550659855E+03 -0.52618049670E+02  0.31369815144E+03  0.91085023796E+02 0.  0.
        254    2    1    2    0    0 -0.41520744793E+01  0.29550659855E+03  0.71863895704E+03  0.11912880678E+04  0.90298611301E+03 0.  0.
        -24    2    4    4    0    0  0.41168073202E+03  0.73856826954E+01  0.42450297342E+03  0.59673100283E+03  0.79684012638E+02 0.  0.
         24    2    4    4    0    0 -0.41583280650E+03  0.28812091585E+03  0.29413598362E+03  0.59455706493E+03  0.10512631202E+03 0.  0.
         13    1    3    3    0    0  0.26477158879E+02 -0.17450013277E+03  0.76906658001E+01  0.17666488791E+03  0.00000000000E+00 0.  1.
        -13    1    3    3    0    0 -0.22325084400E+02 -0.12100646578E+03 -0.60308715470E+02  0.13703326354E+03  0.00000000000E+00 0. -1.
          2    1    6    6  502    0 -0.27127737342E+03  0.19695366952E+03  0.24959024543E+03  0.41794431672E+03  0.00000000000E+00 0. -1.
          1    1    5    5  503    0  0.40301479908E+03  0.79232332194E+00  0.42516547364E+03  0.58582184667E+03  0.00000000000E+00 0. -1.
         -2    1    5    5    0  503  0.86659329432E+01  0.65933593735E+01 -0.66250022819E+00  0.10909156161E+02  0.00000000000E+00 0.  1.
         -1    1    6    6    0  502 -0.14455543308E+03  0.91167246337E+02  0.44545738194E+02  0.17661274821E+03  0.00000000000E+00 0.  1.
<mgrwt>
<rscale>  0 0.13495924E+04</rscale>
<asrwt>0</asrwt>
<pdfrwt beam="1">  1        1 0.64535794E-01 0.13495924E+04</pdfrwt>
<pdfrwt beam="2">  1       -1 0.16700055E+00 0.13495924E+04</pdfrwt>
<totfact> 0.14268660E+01</totfact>
</mgrwt>
</event>
<event>
11    1  0.2406360E-008  0.1655111E+04  0.7818608E-02  0.8787389E-01
         -1   -1    0    0    0  501 -0.00000000000E+00  0.00000000000E+00  0.13394988498E+04  0.13394988498E+04  0.00000000000E+00 0.  1.
          1   -1    0    0  501    0  0.00000000000E+00 -0.00000000000E+00 -0.51127186658E+03  0.51127186658E+03  0.00000000000E+00 0. -1.
         23    2    1    2    0    0 -0.23015346243E+03 -0.11401109330E+02  0.87916728339E+03  0.91387057710E+03  0.95518154977E+02 0.  0.
        254    2    1    2    0    0  0.23015346243E+03  0.11401109330E+02 -0.50940300181E+02  0.93690013928E+03  0.90668977894E+03 0.  0.
        -24    2    4    4    0    0 -0.16438530297E+03 -0.11294104606E+03 -0.14982801073E+03  0.26151168929E+03  0.78496644012E+02 0.  0.
         13    1    3    3    0    0 -0.36511723464E+02 -0.36614518408E+02  0.13669600361E+03  0.14614898669E+03  0.00000000000E+00 0. -1.
        -13    1    3    3    0    0 -0.19364173897E+03  0.25213409078E+02  0.74247127979E+03  0.76772159041E+03  0.00000000000E+00 0.  1.
          4    1    4    4  502    0 -0.30484298348E+02  0.14399480806E+03  0.18992413879E+03  0.24028103481E+03  0.00000000000E+00 0. -1.
          3    1    5    5  503    0  0.40996885202E+01 -0.18171868634E+02 -0.25846894927E+02  0.31860417966E+02  0.00000000000E+00 0. -1.
         -2    1    5    5    0  503 -0.16848499149E+03 -0.94769177424E+02 -0.12398111580E+03  0.22965127132E+03  0.00000000000E+00 0.  1.
         -3    1    4    4    0  502  0.42502306375E+03 -0.19652652674E+02 -0.91036428243E+02  0.43510741518E+03  0.00000000000E+00 0.  1.
<mgrwt>
<rscale>  0 0.16551110E+04</rscale>
<asrwt>0</asrwt>
<pdfrwt beam="1">  1        1 0.78657211E-01 0.16551110E+04</pdfrwt>
<pdfrwt beam="2">  1       -1 0.20607674E+00 0.16551110E+04</pdfrwt>
<totfact> 0.56107466E+00</totfact>
</mgrwt>
</event>
<event>
12    1  0.2406360E-008  0.1298889E+04  0.7818608E-02  0.9030446E-01
         -2   -1    0    0    0  501 -0.00000000000E+00  0.00000000000E+00  0.18217525050E+03  0.18217525050E+03  0.00000000000E+00 0.  1.
          2   -1    0    0  501    0  0.00000000000E+00 -0.00000000000E+00 -0.23152345023E+04  0.23152345023E+04  0.00000000000E+00 0. -1.
         23    2    1    2    0    0 -0.28317816479E+03 -0.16579955920E+03 -0.63911564607E+03  0.72415008992E+03  0.90802956113E+02 0.  0.
        254    2    1    2    0    0  0.28317816479E+03  0.16579955920E+03 -0.14939436057E+04  0.17732596629E+04  0.89716384682E+03 0.  0.
        -24    2    4    4    0    0  0.71344025180E+02  0.25478260801E+03 -0.14993920434E+04  0.15246546449E+04  0.79944600386E+02 0.  0.
         24    2    4    4    0    0  0.21183413961E+03 -0.88983048810E+02  0.54484376326E+01  0.24860501801E+03  0.94779131813E+02 0.  0.
         13    1    3    3    0    0 -0.51365061919E+02 -0.43244145138E+02 -0.21766011355E+03  0.22778136602E+03  0.00000000000E+00 0. -1.
        -13    1    3    3    0    0 -0.23181310287E+03 -0.12255541406E+03 -0.42145553252E+03  0.49636872391E+03  0.00000000000E+00 0.  1.
          4    1    6    6  502    0  0.16351577974E+03 -0.87183620080E+02  0.39495834193E+02  0.18946850596E+03  0.00000000000E+00 0. -1.
          3    1    5    5  503    0  0.30427723612E+02  0.21717354427E+03 -0.11268375776E+04  0.11479778399E+04  0.00000000000E+00 0. -1.
         -4    1    5    5    0  503  0.40916301568E+02  0.37609063733E+02 -0.37255446576E+03  0.37667680492E+03  0.00000000000E+00 0.  1.
         -3    1    6    6    0  502  0.48318359876E+02 -0.17994287301E+01 -0.34047396560E+02  0.59136512049E+02  0.00000000000E+00 0.  1.
<mgrwt>
<rscale>  0 0.12988894E+04</rscale>
<asrwt>0</asrwt>
<pdfrwt beam="1">  1        2 0.35618992E+00 0.12988894E+04</pdfrwt>
<pdfrwt beam="2">  1       -2 0.28026962E-01 0.12988894E+04</pdfrwt>
<totfact> 0.50845945E+01</totfact>
</mgrwt>
</event>
<event>
11    1  0.2406360E-008  0.1526031E+04  0.7818608E-02  0.8867325E-01
          2   -1    0    0  501    0  0.00000000000E+00  0.00000000000E+00  0.12631888389E+04  0.12631888389E+04  0.00000000000E+00 0. -1.
         -2   -1    0    0    0  501 -0.00000000000E+00 -0.00000000000E+00 -0.46089135556E+03  0.46089135556E+03  0.00000000000E+00 0.  1.
         23    2    1    2    0    0 -0.36986061155E+03 -0.29750034612E+02 -0.10164153906E+03  0.39538004557E+03  0.91172591473E+02 0.  0.
        254    2    1    2    0    0  0.36986061155E+03  0.29750034612E+02  0.90393902241E+03  0.13287001489E+04  0.90036458890E+03 0.  0.
        -24    2    4    4    0    0  0.42348586879E+03 -0.32183663749E+03  0.69017896242E+03  0.87491683250E+03  0.78824877550E+02 0.  0.
         11    1    3    3    0    0 -0.28820318091E+03 -0.31522233483E-01 -0.45108903491E+02  0.29171199436E+03  0.00000000000E+00 0.  1.
        -11    1    3    3    0    0 -0.81657430637E+02 -0.29718512379E+02 -0.56532635567E+02  0.10366805120E+03  0.00000000000E+00 0. -1.
          2    1    4    4  502    0 -0.30248577886E+02  0.10801689817E+03 -0.21645603675E+02  0.11424166890E+03  0.00000000000E+00 0. -1.
          3    1    5    5  503    0  0.11949804474E+03 -0.75932026676E+02  0.23996960932E+03  0.27862316624E+03  0.00000000000E+00 0. -1.
         -4    1    5    5    0  503  0.30398782406E+03 -0.24590461081E+03  0.45020935311E+03  0.59629366626E+03  0.00000000000E+00 0.  1.
         -1    1    4    4    0  502 -0.23376679358E+02  0.24356977393E+03  0.23540566366E+03  0.33954164751E+03  0.00000000000E+00 0.  1.
<mgrwt>
<rscale>  0 0.15260312E+04</rscale>
<asrwt>0</asrwt>
<pdfrwt beam="1">  1        2 0.19433674E+00 0.15260312E+04</pdfrwt>
<pdfrwt beam="2">  1       -2 0.70906363E-01 0.15260312E+04</pdfrwt>
<totfact> 0.30280106E+01</totfact>
</mgrwt>
</event>
<event>
12    1  0.2406360E-008  0.1197238E+04  0.7818608E-02  0.9115278E-01
          1   -1    0    0  501    0  0.00000000000E+00  0.00000000000E+00  0.28672065086E+04  0.28672065086E+04  0.00000000000E+00 0. -1.
         -1   -1    0    0    0  501 -0.00000000000E+00 -0.00000000000E+00 -0.12498042807E+03  0.12498042807E+03  0.00000000000E+00 0.  1.
         23    2    1    2    0    0  0.16533322196E+03  0.17702457697E+03  0.42256011738E+03  0.49587718293E+03  0.93082504361E+02 0.  0.
        254    2    1    2    0    0 -0.16533322196E+03 -0.17702457697E+03  0.23196659631E+04  0.24963097537E+04  0.88996597173E+03 0.  0.
        -24    2    4    4    0    0  0.65608384631E+02 -0.13361138202E+03  0.22182310848E+04  0.22246504188E+04  0.79773924358E+02 0.  0.
         24    2    4    4    0    0 -0.23094160659E+03 -0.43413194943E+02  0.10143487838E+03  0.27165933490E+03  0.91055085188E+02 0.  0.
         13    1    3    3    0    0 -0.24816351824E+01  0.20951305278E+02  0.87030160151E+02  0.89550904417E+02  0.00000000000E+00 0. -1.
        -13    1    3    3    0    0  0.16781485714E+03  0.15607327169E+03  0.33552995723E+03  0.40632627851E+03  0.00000000000E+00 0.  1.
          4    1    6    6  502    0 -0.13709665470E+03  0.20222088738E+02  0.58359511091E+02  0.15036707797E+03  0.00000000000E+00 0. -1.
          1    1    5    5  503    0 -0.93050451134E+01 -0.69954879966E+02  0.92146798169E+03  0.92416638674E+03  0.00000000000E+00 0. -1.
         -2    1    5    5    0  503  0.74913429744E+02 -0.63656502058E+02  0.12967631031E+04  0.13004840321E+04  0.00000000000E+00 0.  1.
         -3    1    6    6    0  502 -0.93844951885E+02 -0.63635283681E+02  0.43075367285E+02  0.12129225693E+03  0.00000000000E+00 0.  1.
<mgrwt>
<rscale>  0 0.11972380E+04</rscale>
<asrwt>0</asrwt>
<pdfrwt beam="1">  1        1 0.44110864E+00 0.11972380E+04</pdfrwt>
<pdfrwt beam="2">  1       -1 0.19227760E-01 0.11972380E+04</pdfrwt>
<totfact> 0.16315166E+01</totfact>
</mgrwt>
</event>
<event>
11    1  0.2406360E-008  0.2063646E+04  0.7818608E-02  0.8577429E-01
          2   -1    0    0  501    0  0.00000000000E+00  0.00000000000E+00  0.13176331573E+04  0.13176331573E+04  0.00000000000E+00 0. -1.
         -2   -1    0    0    0  501 -0.00000000000E+00 -0.00000000000E+00 -0.80800815338E+03  0.80800815338E+03  0.00000000000E+00 0.  1.
         23    2    1    2    0    0 -0.46715492358E+01  0.13392126437E+03  0.10520938387E+04  0.10640824633E+04  0.86100609137E+02 0.  0.
        254    2    1    2    0    0  0.46715492358E+01 -0.13392126437E+03 -0.54246883485E+03  0.10615588473E+04  0.90259515901E+03 0.  0.
        -24    2    4    4    0    0 -0.79840147404E+02 -0.20325066521E+03 -0.75776694370E+03  0.79265085245E+03  0.79995942916E+02 0.  0.
         13    1    3    3    0    0  0.21921431642E+02  0.84372926209E+00  0.10096310387E+03  0.10331896916E+03  0.00000000000E+00 0.  1.
        -13    1    3    3    0    0 -0.26592980878E+02  0.13307753511E+03  0.95113073484E+03  0.96076349418E+03  0.00000000000E+00 0. -1.
          2    1    4    4  502    0  0.33479039866E+02 -0.32500105320E+02  0.52747337305E+02  0.70422897902E+02  0.00000000000E+00 0. -1.
          1    1    5    5  503    0 -0.35985339054E+02 -0.54164340056E+02 -0.35572337397E+03  0.36161836119E+03  0.00000000000E+00 0. -1.
         -2    1    5    5    0  503 -0.43854808350E+02 -0.14908632515E+03 -0.40204356973E+03  0.43103249126E+03  0.00000000000E+00 0.  1.
         -1    1    4    4    0  502  0.51032656774E+02  0.10182950616E+03  0.16255077154E+03  0.19848509695E+03  0.00000000000E+00 0.  1.
<mgrwt>
<rscale>  0 0.20636456E+04</rscale>
<asrwt>0</asrwt>
<pdfrwt beam="1">  1        2 0.20271279E+00 0.20636456E+04</pdfrwt>
<pdfrwt beam="2">  1       -2 0.12430895E+00 0.20636456E+04</pdfrwt>
<totfact> 0.72565394E+00</totfact>
</mgrwt>
</event>
<event>
12    1  0.2406360E-008  0.1395411E+04  0.7818608E-02  0.8957147E-01
         -1   -1    0    0    0  501 -0.00000000000E+00  0.00000000000E+00  0.35405956718E+03  0.35405956718E+03  0.00000000000E+00 0.  1.
          1   -1    0    0  501    0  0.00000000000E+00 -0.00000000000E+00 -0.13748900003E+04  0.13748900003E+04  0.00000000000E+00 0. -1.
         23    2    1    2    0    0  0.52075341327E+02 -0.17352851619E+03  0.16288865055E+03  0.26068559277E+03  0.92737687555E+02 0.  0.
        254    2    1    2    0    0 -0.52075341327E+02  0.17352851619E+03 -0.11837190837E+04  0.14682639747E+04  0.84957886230E+03 0.  0.
        -24    2    4    4    0    0  0.76207511675E+02  0.17322557859E+02  0.11058586364E+03  0.15701697692E+03  0.79482337392E+02 0.  0.
         24    2    4    4    0    0 -0.12828285300E+03  0.15620595833E+03 -0.12943049473E+04  0.13112469978E+04  0.57328882712E+02 0.  0.
         11    1    3    3    0    0  0.77859491719E+02 -0.13685666466E+03  0.13823212577E+03  0.20952319134E+03  0.00000000000E+00 0.  1.
        -11    1    3    3    0    0 -0.25784150392E+02 -0.36671851529E+02  0.24656524781E+02  0.51162401431E+02  0.00000000000E+00 0. -1.
          4    1    6    6  502    0 -0.10829208056E+02  0.12468502376E+02 -0.39903113827E+02  0.43185573885E+02  0.00000000000E+00 0. -1.
          3    1    5    5  503    0  0.38788741352E+02  0.95652868603E+01 -0.67433727450E-01  0.39950791177E+02  0.00000000000E+00 0. -1.
         -4    1    5    5    0  503  0.37418770324E+02  0.77572709983E+01  0.11065329737E+03  0.11706618574E+03  0.00000000000E+00 0.  1.
         -3    1    6    6    0  502 -0.11745364495E+03  0.14373745595E+03 -0.12544018335E+04  0.12680614239E+04  0.00000000000E+00 0.  1.
<mgrwt>
<rscale>  0 0.13954110E+04</rscale>
<asrwt>0</asrwt>
<pdfrwt beam="1">  1        1 0.21152154E+00 0.13954110E+04</pdfrwt>
<pdfrwt beam="2">  1       -1 0.54470702E-01 0.13954110E+04</pdfrwt>
<totfact> 0.26570368E+01</totfact>
</mgrwt>
</event>
<event>
11    1  0.2406360E-008  0.2608890E+04  0.7818608E-02  0.8365188E-01
          1   -1    0    0  501    0  0.00000000000E+00  0.00000000000E+00  0.12159384189E+04  0.12159384189E+04  0.00000000000E+00 0.  1.
         -1   -1    0    0    0  501 -0.00000000000E+00 -0.00000000000E+00 -0.13993936880E+04  0.13993936880E+04  0.00000000000E+00 0. -1.
         23    2    1    2    0    0  0.13414183514E+03 -0.83817183278E+03  0.69393972957E+03  0.11002057169E+04  0.91510753575E+02 0.  0.
        254    2    1    2    0    0 -0.13414183514E+03  0.83817183278E+03 -0.87739499865E+03  0.15151263900E+04  0.89736276995E+03 0.  0.
        -24    2    4    4    0    0 -0.29494691360E+02 -0.16448869943E+03 -0.20142451194E+03  0.27357764625E+03  0.79664455402E+02 0.  0.
         13    1    3    3    0    0  0.20957090314E+02 -0.26078104474E+03  0.16714594114E+03  0.31045727334E+03  0.00000000000E+00 0.  1.
        -13    1    3    3    0    0  0.11318474482E+03 -0.57739078804E+03  0.52679378843E+03  0.78974844356E+03  0.00000000000E+00 0. -1.
          4    1    4    4  502    0  0.26437920310E+02  0.68021616464E+03 -0.35342946277E+03  0.76701067751E+03  0.00000000000E+00 0. -1.
          3    1    5    5  503    0  0.99120658076E+00 -0.12842788287E+03 -0.18145671243E+03  0.22230888888E+03  0.00000000000E+00 0. -1.
         -4    1    5    5    0  503 -0.30485897940E+02 -0.36060816565E+02 -0.19967799511E+02  0.51268757366E+02  0.00000000000E+00 0.  1.
         -3    1    4    4    0  502 -0.13108506409E+03  0.32244436758E+03 -0.32254102394E+03  0.47453806627E+03  0.00000000000E+00 0.  1.
<mgrwt>
<rscale>  0 0.26088898E+04</rscale>
<asrwt>0</asrwt>
<pdfrwt beam="1">  1        1 0.18706745E+00 0.26088898E+04</pdfrwt>
<pdfrwt beam="2">  1       -1 0.21529134E+00 0.26088898E+04</pdfrwt>
<totfact> 0.10837648E+00</totfact>
</mgrwt>
</event>
<event>
11    1  0.2406360E-008  0.1087419E+04  0.7818608E-02  0.9217542E-01
         -3   -1    0    0    0  501 -0.00000000000E+00  0.00000000000E+00  0.19869958900E+03  0.19869958900E+03  0.00000000000E+00 0.  1.
          3   -1    0    0  501    0  0.00000000000E+00 -0.00000000000E+00 -0.14877738978E+04  0.14877738978E+04  0.00000000000E+00 0. -1.
         23    2    1    2    0    0  0.78823698967E+02 -0.47373542860E+01 -0.40827170602E+03  0.42580231619E+03  0.91576244179E+02 0.  0.
        254    2    1    2    0    0 -0.78823698967E+02  0.47373542860E+01 -0.88080260281E+03  0.12606711706E+04  0.89846700402E+03 0.  0.
        -24    2    4    4    0    0  0.37950297168E+02  0.37083538489E+03 -0.72143152196E+03  0.81608134468E+03  0.81032169731E+02 0.  0.
         13    1    3    3    0    0 -0.67673880189E+01  0.23830028267E+02 -0.43728733366E+02  0.50258033284E+02  0.00000000000E+00 0.  1.
        -13    1    3    3    0    0  0.85591086986E+02 -0.28567382553E+02 -0.36454297265E+03  0.37554428291E+03  0.00000000000E+00 0. -1.
          4    1    4    4  502    0  0.18467360716E+01 -0.29482867907E+02 -0.71010997838E+02  0.76910413782E+02  0.00000000000E+00 0. -1.
          3    1    5    5  503    0 -0.12837821370E+02  0.92181140672E+02 -0.24131979164E+03  0.25864534442E+03  0.00000000000E+00 0. -1.
         -4    1    5    5    0  503  0.50788118538E+02  0.27865424422E+03 -0.48011173032E+03  0.55743600026E+03  0.00000000000E+00 0.  1.
         -3    1    4    4    0  502 -0.11862073221E+03 -0.33661516269E+03 -0.88360083022E+02  0.36767941217E+03  0.00000000000E+00 0.  1.
<mgrwt>
<rscale>  0 0.10874191E+04</rscale>
<asrwt>0</asrwt>
<pdfrwt beam="1">  1        3 0.22888829E+00 0.10874191E+04</pdfrwt>
<pdfrwt beam="2">  1       -3 0.30569168E-01 0.10874191E+04</pdfrwt>
<totfact> 0.26881451E+00</totfact>
</mgrwt>
</event>
<event>
12    1  0.2406360E-008  0.2721784E+04  0.7818608E-02  0.8327971E-01
          1   -1    0    0  501    0  0.00000000000E+00  0.00000000000E+00  0.12699825726E+04  0.12699825726E+04  0.00000000000E+00 0. -1.
         -1   -1    0    0    0  501 -0.00000000000E+00 -0.00000000000E+00 -0.14583085640E+04  0.14583085640E+04  0.00000000000E+00 0.  1.
         23    2    1    2    0    0  0.31462757839E+03  0.11100439631E+04  0.30764845612E+03  0.11972975903E+04  0.87668888610E+02 0.  0.
        254    2    1    2    0    0 -0.31462757839E+03 -0.11100439631E+04 -0.49597444757E+03  0.15309935464E+04  0.87564974346E+03 0.  0.
        -24    2    4    4    0    0  0.12048634441E+03 -0.96654165227E+03 -0.34820659033E+03  0.10377449351E+04  0.83348641800E+02 0.  0.
         24    2    4    4    0    0 -0.43511392280E+03 -0.14350231083E+03 -0.14776785725E+03  0.49324861121E+03  0.10743283392E+03 0.  0.
         13    1    3    3    0    0  0.27711812707E+03  0.99970405829E+03  0.24916302167E+03  0.10669043405E+04  0.00000000000E+00 0. -1.
        -13    1    3    3    0    0  0.37509451319E+02  0.11033990481E+03  0.58485434454E+02  0.13039324973E+03  0.00000000000E+00 0.  1.
          2    1    6    6  502    0 -0.25634057435E+03 -0.12984693459E+03 -0.12173704375E+03  0.31207470949E+03  0.00000000000E+00 0. -1.
          1    1    5    5  503    0  0.10271740420E+03 -0.48951707851E+03 -0.17298070211E+03  0.52924489472E+03  0.00000000000E+00 0. -1.
         -2    1    5    5    0  503  0.17768940209E+02 -0.47702457376E+03 -0.17522588822E+03  0.50850004042E+03  0.00000000000E+00 0.  1.
         -1    1    6    6    0  502 -0.17877334845E+03 -0.13655376238E+02 -0.26030813495E+02  0.18117390172E+03  0.00000000000E+00 0.  1.
<mgrwt>
<rscale>  0 0.27217836E+04</rscale>
<asrwt>0</asrwt>
<pdfrwt beam="1">  1        1 0.19538194E+00 0.27217836E+04</pdfrwt>
<pdfrwt beam="2">  1       -1 0.22435516E+00 0.27217836E+04</pdfrwt>
<totfact> 0.85260238E-01</totfact>
</mgrwt>
</event>
<event>
12    1  0.2406360E-008  0.1892813E+04  0.7818608E-02  0.8658442E-01
         -1   -1    0    0    0  501 -0.00000000000E+00  0.00000000000E+00  0.11764479092E+04  0.11764479092E+04  0.00000000000E+00 0.  1.
          1   -1    0    0  501    0  0.00000000000E+00 -0.00000000000E+00 -0.76134744976E+03  0.76134744976E+03  0.00000000000E+00 0. -1.
         23    2    1    2    0    0  0.50996804230E+03 -0.37946564782E+02  0.63584640480E+03  0.82099253092E+03  0.90668293098E+02 0.  0.
        254    2    1    2    0    0 -0.50996804230E+03  0.37946564782E+02 -0.22074594539E+03  0.11168028280E+04  0.96799402803E+03 0.  0.
        -24    2    4    4    0    0  0.10029705259E+03  0.16557445519E+03  0.25279620989E+03  0.32830917214E+03  0.80041175712E+02 0.  0.
         24    2    4    4    0    0 -0.61026509489E+03 -0.12762789041E+03 -0.47354215528E+03  0.78849365587E+03  0.93636040405E+02 0.  0.
         13    1    3    3    0    0  0.46215820285E+03 -0.18094790996E+02  0.60193392408E+03  0.75910610252E+03  0.00000000000E+00 0.  1.
        -13    1    3    3    0    0  0.47809839457E+02 -0.19851773786E+02  0.33912480716E+02  0.61886428396E+02  0.00000000000E+00 0. -1.
          2    1    6    6  502    0 -0.53138049919E+03 -0.12266634212E+03 -0.44692550955E+03  0.70509196386E+03  0.00000000000E+00 0. -1.
          1    1    5    5  503    0  0.11373161523E+02  0.84657443444E+02  0.74961668192E+02  0.11364630760E+03  0.00000000000E+00 0. -1.
         -2    1    5    5    0  503  0.88923891064E+02  0.80917011745E+02  0.17783454170E+03  0.21466286454E+03  0.00000000000E+00 0.  1.
         -1    1    6    6    0  502 -0.78884595702E+02 -0.49615482889E+01 -0.26616645732E+02  0.83401692012E+02  0.00000000000E+00 0.  1.
<mgrwt>
<rscale>  0 0.18928134E+04</rscale>
<asrwt>0</asrwt>
<pdfrwt beam="1">  1        1 0.11713038E+00 0.18928134E+04</pdfrwt>
<pdfrwt beam="2">  1       -1 0.18099199E+00 0.18928134E+04</pdfrwt>
<totfact> 0.45846362E+00</totfact>
</mgrwt>
</event>
<event>
12    1  0.2406360E-008  0.3269601E+04  0.7818608E-02  0.8170674E-01
          1   -1    0    0  501    0  0.00000000000E+00  0.00000000000E+00  0.30532482855E+04  0.30532482855E+04  0.00000000000E+00 0. -1.
         -1   -1    0    0    0  501 -0.00000000000E+00 -0.00000000000E+00 -0.87532129200E+03  0.87532129200E+03  0.00000000000E+00 0.  1.
         23    2    1    2    0    0 -0.33317769284E+03 -0.10652609343E+04 -0.21685385681E+03  0.11407117737E+04  0.91703447923E+02 0.  0.
        254    2    1    2    0    0  0.33317769284E+03  0.10652609343E+04  0.23947808504E+04  0.27878578038E+04  0.88959967395E+03 0.  0.
        -24    2    4    4    0    0 -0.21396729708E+03  0.32776176486E+03  0.30246773309E+03  0.50053626858E+03  0.76420205946E+02 0.  0.
         24    2    4    4    0    0  0.54714498993E+03  0.73749916943E+03  0.20923131173E+04  0.22873215352E+04  0.10388917137E+03 0.  0.
         13    1    3    3    0    0 -0.33342037546E+03 -0.10111992923E+04 -0.19531073561E+03  0.10825153297E+04  0.00000000000E+00 0.  1.
        -13    1    3    3    0    0  0.24268261679E+00 -0.54061642001E+02 -0.21543121202E+02  0.58196444065E+02  0.00000000000E+00 0. -1.
          2    1    6    6  502    0  0.44689136497E+03  0.58287221920E+03  0.17645276440E+04  0.19112848355E+04  0.00000000000E+00 0. -1.
          3    1    5    5  503    0 -0.16683098832E+03  0.23473687456E+03  0.25982287625E+03  0.38786841321E+03  0.00000000000E+00 0. -1.
         -4    1    5    5    0  503 -0.47136308762E+02  0.93024890301E+02  0.42644856846E+02  0.11266785537E+03  0.00000000000E+00 0.  1.
         -1    1    6    6    0  502  0.10025362496E+03  0.15462695023E+03  0.32778547329E+03  0.37603669974E+03  0.00000000000E+00 0.  1.
<mgrwt>
<rscale>  0 0.32696013E+04</rscale>
<asrwt>0</asrwt>
<pdfrwt beam="1">  1        1 0.46973050E+00 0.32696013E+04</pdfrwt>
<pdfrwt beam="2">  1       -1 0.13466482E+00 0.32696013E+04</pdfrwt>
<totfact> 0.21048600E-01</totfact>
</mgrwt>
</event>
<event>
12    1  0.2406360E-008  0.1300044E+04  0.7818608E-02  0.9029530E-01
         -2   -1    0    0    0  501 -0.00000000000E+00  0.00000000000E+00  0.17353544226E+04  0.17353544226E+04  0.00000000000E+00 0.  1.
          2   -1    0    0  501    0  0.00000000000E+00 -0.00000000000E+00 -0.24348264707E+03  0.24348264707E+03  0.00000000000E+00 0. -1.
         23    2    1    2    0    0 -0.27806990372E+03 -0.19696969231E+03  0.41677906496E+03  0.54587952412E+03  0.90331250544E+02 0.  0.
        254    2    1    2    0    0  0.27806990372E+03  0.19696969231E+03  0.10750927106E+04  0.14329575455E+04  0.88398136856E+03 0.  0.
        -24    2    4    4    0    0 -0.14180180275E+03 -0.17523517771E+03  0.73892469365E+03  0.77663069134E+03  0.79563867981E+02 0.  0.
         24    2    4    4    0    0  0.41987170646E+03  0.37220487002E+03  0.33616801693E+03  0.65632685420E+03  0.54104424836E+02 0.  0.
         13    1    3    3    0    0 -0.21162948695E+03 -0.15004927114E+03  0.24978991674E+03  0.36013445548E+03  0.00000000000E+00 0. -1.
        -13    1    3    3    0    0 -0.66440416766E+02 -0.46920421174E+02  0.16698914822E+03  0.18574506865E+03  0.00000000000E+00 0.  1.
          2    1    6    6  502    0  0.14179826134E+03  0.15831459142E+03  0.11571964578E+03  0.24199440736E+03  0.00000000000E+00 0. -1.
          3    1    5    5  503    0 -0.18192602512E+02 -0.23561559971E+01  0.20873309223E+02  0.27788798016E+02  0.00000000000E+00 0. -1.
         -4    1    5    5    0  503 -0.12360920024E+03 -0.17287902171E+03  0.71805138442E+03  0.74884189333E+03  0.00000000000E+00 0.  1.
         -1    1    6    6    0  502  0.27807344512E+03  0.21389027860E+03  0.22044837115E+03  0.41433244684E+03  0.00000000000E+00 0.  1.
<mgrwt>
<rscale>  0 0.13000441E+04</rscale>
<asrwt>0</asrwt>
<pdfrwt beam="1">  1        2 0.37458870E-01 0.13000441E+04</pdfrwt>
<pdfrwt beam="2">  1       -2 0.26697760E+00 0.13000441E+04</pdfrwt>
<totfact> 0.68941465E+00</totfact>
</mgrwt>
</event>
<event>
12    1  0.2406360E-008  0.1179166E+04  0.7818608E-02  0.9131290E-01
         -2   -1    0    0    0  501 -0.00000000000E+00  0.00000000000E+00  0.23848737526E+03  0.23848737526E+03  0.00000000000E+00 0. -1.
          2   -1    0    0  501    0  0.00000000000E+00 -0.00000000000E+00 -0.14575541372E+04  0.14575541372E+04  0.00000000000E+00 0.  1.
         23    2    1    2    0    0  0.74174310860E+01  0.21431669421E+03 -0.39842098179E+03  0.45753356064E+03  0.67904467363E+02 0.  0.
        254    2    1    2    0    0 -0.74174310860E+01 -0.21431669421E+03 -0.82064578020E+03  0.12385079519E+04  0.90247204198E+03 0.  0.
        -24    2    4    4    0    0  0.43501361759E+03 -0.16009726303E+03 -0.42528495629E+03  0.63410074834E+03  0.79677373734E+02 0.  0.
         24    2    4    4    0    0 -0.44243104868E+03 -0.54219431180E+02 -0.39536082391E+03  0.60440720351E+03  0.10155248407E+03 0.  0.
         13    1    3    3    0    0 -0.21256500507E+02  0.14399236230E+03 -0.29781775590E+03  0.33148311411E+03  0.00000000000E+00 0.  1.
        -13    1    3    3    0    0  0.28673931594E+02  0.70324331906E+02 -0.10060322589E+03  0.12605044653E+03  0.00000000000E+00 0. -1.
          4    1    6    6  502    0 -0.12143887261E+03 -0.48072297209E+02 -0.73818967386E+02  0.15002528282E+03  0.00000000000E+00 0. -1.
          1    1    5    5  503    0  0.10282552250E+03 -0.35170967887E+01 -0.10100353539E+03  0.14417757180E+03  0.00000000000E+00 0. -1.
         -2    1    5    5    0  503  0.33218809510E+03 -0.15658016624E+03 -0.32428142089E+03  0.48992317655E+03  0.00000000000E+00 0.  1.
         -3    1    6    6    0  502 -0.32099217607E+03 -0.61471339709E+01 -0.32154185652E+03  0.45438192069E+03  0.00000000000E+00 0.  1.
<mgrwt>
<rscale>  0 0.11791662E+04</rscale>
<asrwt>0</asrwt>
<pdfrwt beam="1">  1        2 0.22423910E+00 0.11791662E+04</pdfrwt>
<pdfrwt beam="2">  1       -2 0.36690365E-01 0.11791662E+04</pdfrwt>
<totfact> 0.92688545E+01</totfact>
</mgrwt>
</event>
<event>
11    1  0.2406360E-008  0.1472901E+04  0.7818608E-02  0.8902676E-01
          2   -1    0    0  501    0  0.00000000000E+00  0.00000000000E+00  0.10264383911E+04  0.10264383911E+04  0.00000000000E+00 0. -1.
         -2   -1    0    0    0  501 -0.00000000000E+00 -0.00000000000E+00 -0.52838941473E+03  0.52838941473E+03  0.00000000000E+00 0.  1.
         23    2    1    2    0    0 -0.19750755759E+03  0.44231095373E+03  0.90886114628E+02  0.50215780009E+03  0.96197480540E+02 0.  0.
        254    2    1    2    0    0  0.19750755759E+03 -0.44231095373E+03  0.40716286170E+03  0.10526700057E+04  0.84123975765E+03 0.  0.
        -24    2    4    4    0    0 -0.26300015355E+03  0.63794162038E+01  0.26674758359E+03  0.38305900317E+03  0.79813212177E+02 0.  0.
         11    1    3    3    0    0 -0.18765855734E+03  0.42250739110E+03  0.63023078413E+02  0.46658347387E+03  0.00000000000E+00 0.  1.
        -11    1    3    3    0    0 -0.98490002543E+01  0.19803562633E+02  0.27863036215E+02  0.35574326222E+02  0.00000000000E+00 0. -1.
          2    1    4    4  502    0  0.41628304514E+03 -0.36685632009E+03  0.85005137695E+02  0.56133858472E+03  0.00000000000E+00 0. -1.
          3    1    5    5  503    0 -0.13821837522E+03 -0.34645076150E+02  0.15563563613E+03  0.21101434024E+03  0.00000000000E+00 0. -1.
         -4    1    5    5    0  503 -0.12478177833E+03  0.41024492354E+02  0.11111194745E+03  0.17204466293E+03  0.00000000000E+00 0.  1.
         -1    1    4    4    0  502  0.44224666007E+02 -0.81834049847E+02  0.55410140419E+02  0.10827241781E+03  0.00000000000E+00 0.  1.
<mgrwt>
<rscale>  0 0.14729008E+04</rscale>
<asrwt>0</asrwt>
<pdfrwt beam="1">  1        2 0.15791360E+00 0.14729008E+04</pdfrwt>
<pdfrwt beam="2">  1       -2 0.81290679E-01 0.14729008E+04</pdfrwt>
<totfact> 0.31279106E+01</totfact>
</mgrwt>
</event>
<event>
12    1  0.2406360E-008  0.1573846E+04  0.7818608E-02  0.8836778E-01
         -2   -1    0    0    0  501 -0.00000000000E+00  0.00000000000E+00  0.80356640350E+03  0.80356640350E+03  0.00000000000E+00 0.  1.
          2   -1    0    0  501    0  0.00000000000E+00 -0.00000000000E+00 -0.77062453037E+03  0.77062453037E+03  0.00000000000E+00 0. -1.
         23    2    1    2    0    0 -0.16725680283E+03 -0.28458261780E+03 -0.40514120992E+03  0.53226544559E+03  0.10101980074E+03 0.  0.
        254    2    1    2    0    0  0.16725680283E+03  0.28458261780E+03  0.43808308305E+03  0.10419254883E+04  0.88584977905E+03 0.  0.
        -24    2    4    4    0    0  0.42316447150E+03  0.31090407393E+03  0.10075337940E+02  0.53120838294E+03  0.79695172646E+02 0.  0.
         24    2    4    4    0    0 -0.25590766867E+03 -0.26321456129E+02  0.42800774511E+03  0.51071710535E+03  0.10705035212E+03 0.  0.
         11    1    3    3    0    0 -0.14956853316E+03 -0.25793647156E+03 -0.40145928861E+03  0.50007152477E+03  0.00000000000E+00 0. -1.
        -11    1    3    3    0    0 -0.17688269672E+02 -0.26646146236E+02 -0.36819213165E+01  0.32193920820E+02  0.00000000000E+00 0.  1.
          2    1    6    6  502    0 -0.24764570294E+03  0.96313926828E+00  0.35978391677E+03  0.43677658887E+03  0.00000000000E+00 0. -1.
          1    1    5    5  503    0  0.38719055226E+03  0.26718263517E+03 -0.11628257299E+02  0.47057231183E+03  0.00000000000E+00 0. -1.
         -2    1    5    5    0  503  0.35973919237E+02  0.43721438761E+02  0.21703595239E+02  0.60636071103E+02  0.00000000000E+00 0.  1.
         -1    1    6    6    0  502 -0.82619657283E+01 -0.27284595397E+02  0.68223828338E+02  0.73940516476E+02  0.00000000000E+00 0.  1.
<mgrwt>
<rscale>  0 0.15738462E+04</rscale>
<asrwt>0</asrwt>
<pdfrwt beam="1">  1        2 0.11855762E+00 0.15738462E+04</pdfrwt>
<pdfrwt beam="2">  1       -2 0.12362560E+00 0.15738462E+04</pdfrwt>
<totfact> 0.17141713E+01</totfact>
</mgrwt>
</event>
<event>
11    1  0.2406360E-008  0.2516016E+04  0.7818608E-02  0.8397302E-01
          1   -1    0    0  501    0  0.00000000000E+00  0.00000000000E+00  0.29899026575E+04  0.29899026575E+04  0.00000000000E+00 0. -1.
         -1   -1    0    0    0  501 -0.00000000000E+00 -0.00000000000E+00 -0.52930963695E+03  0.52930963695E+03  0.00000000000E+00 0.  1.
         23    2    1    2    0    0 -0.66275381516E+02 -0.56563332741E+03 -0.23438702273E+03  0.62275049432E+03  0.92452228112E+02 0.  0.
        254    2    1    2    0    0  0.66275381516E+02  0.56563332741E+03  0.26949800433E+04  0.28964618001E+04  0.89567853536E+03 0.  0.
        -24    2    4    4    0    0  0.17483305295E+03  0.78716702244E+03  0.20105331691E+04  0.21676866588E+04  0.80145549166E+02 0.  0.
         13    1    3    3    0    0  0.11458634425E+02 -0.13837134070E+02 -0.16594305056E+02  0.24456850624E+02  0.00000000000E+00 0. -1.
        -13    1    3    3    0    0 -0.77734015941E+02 -0.55179619334E+03 -0.21779271767E+03  0.59829364370E+03  0.00000000000E+00 0.  1.
          2    1    4    4  502    0 -0.82641927773E+01 -0.46678555804E+02  0.10319463273E+03  0.11356195084E+03  0.00000000000E+00 0. -1.
          1    1    5    5  503    0  0.91628957182E+02  0.27676383250E+03  0.79223482074E+03  0.84417420949E+03  0.00000000000E+00 0. -1.
         -2    1    5    5    0  503  0.83204095764E+02  0.51040318994E+03  0.12182983484E+04  0.13235124493E+04  0.00000000000E+00 0.  1.
         -1    1    4    4    0  502 -0.10029347865E+03 -0.17485513923E+03  0.58125224141E+03  0.61521319047E+03  0.00000000000E+00 0.  1.
<mgrwt>
<rscale>  0 0.25160161E+04</rscale>
<asrwt>0</asrwt>
<pdfrwt beam="1">  1        1 0.45998501E+00 0.25160161E+04</pdfrwt>
<pdfrwt beam="2">  1       -1 0.81432254E-01 0.25160161E+04</pdfrwt>
<totfact> 0.80998551E-01</totfact>
</mgrwt>
</event>
<event>
11    1  0.2406360E-008  0.1373133E+04  0.7818608E-02  0.8973499E-01
         -2   -1    0    0    0  501 -0.00000000000E+00  0.00000000000E+00  0.43097092975E+03  0.43097092975E+03  0.00000000000E+00 0.  1.
          2   -1    0    0  501    0  0.00000000000E+00 -0.00000000000E+00 -0.10937487133E+04  0.10937487133E+04  0.00000000000E+00 0. -1.
         23    2    1    2    0    0  0.14451170734E+03 -0.34089748904E+02  0.19364954693E+03  0.26077919713E+03  0.91977704313E+02 0.  0.
        254    2    1    2    0    0 -0.14451170734E+03  0.34089748904E+02 -0.85642733048E+03  0.12639404459E+04  0.91762298026E+03 0.  0.
        -24    2    4    4    0    0  0.17667170183E+03 -0.35595424211E+03 -0.43759215281E+03  0.59660233814E+03  0.80815499524E+02 0.  0.
         11    1    3    3    0    0  0.52484989031E+02  0.21152225009E+02  0.11349292627E+03  0.12681772356E+03  0.00000000000E+00 0.  1.
        -11    1    3    3    0    0  0.92026718306E+02 -0.55241973913E+02  0.80156620658E+02  0.13396147356E+03  0.00000000000E+00 0. -1.
          2    1    4    4  502    0 -0.60165682495E+02  0.16242719414E+03 -0.13994256468E+03  0.22268009376E+03  0.00000000000E+00 0. -1.
          3    1    5    5  503    0  0.77138871444E+02 -0.22919374969E+03 -0.22945970647E+03  0.33336457112E+03  0.00000000000E+00 0. -1.
         -4    1    5    5    0  503  0.99532830389E+02 -0.12676049242E+03 -0.20813244634E+03  0.26323776702E+03  0.00000000000E+00 0.  1.
         -1    1    4    4    0  502 -0.26101772668E+03  0.22761679688E+03 -0.27889261298E+03  0.44465801402E+03  0.00000000000E+00 0.  1.
<mgrwt>
<rscale>  0 0.13731335E+04</rscale>
<asrwt>0</asrwt>
<pdfrwt beam="1">  1        2 0.16826903E+00 0.13731335E+04</pdfrwt>
<pdfrwt beam="2">  1       -2 0.66303220E-01 0.13731335E+04</pdfrwt>
<totfact> 0.44841338E+01</totfact>
</mgrwt>
</event>
<event>
12    1  0.2406360E-008  0.1299544E+04  0.7818608E-02  0.9029927E-01
          1   -1    0    0  501    0  0.00000000000E+00  0.00000000000E+00  0.40915829617E+03  0.40915829617E+03  0.00000000000E+00 0. -1.
         -1   -1    0    0    0  501 -0.00000000000E+00 -0.00000000000E+00 -0.10318836103E+04  0.10318836103E+04  0.00000000000E+00 0.  1.
         23    2    1    2    0    0  0.30233143161E+03 -0.11628059254E+03 -0.24112279167E+03  0.41412413630E+03  0.91832068838E+02 0.  0.
        254    2    1    2    0    0 -0.30233143161E+03  0.11628059254E+03 -0.38160252245E+03  0.10269177701E+04  0.89666836164E+03 0.  0.
        -24    2    4    4    0    0 -0.28742735488E+02 -0.16454432661E+03 -0.56098162337E+03  0.59049274579E+03  0.77976411868E+02 0.  0.
         24    2    4    4    0    0 -0.27358869612E+03  0.28082491915E+03  0.17937910092E+03  0.43642502436E+03  0.67650056763E+02 0.  0.
         11    1    3    3    0    0  0.41719892344E+02 -0.13645037583E+02 -0.79317764382E+02  0.90653429138E+02  0.00000000000E+00 0.  1.
        -11    1    3    3    0    0  0.26061153927E+03 -0.10263555495E+03 -0.16180502729E+03  0.32347070717E+03  0.00000000000E+00 0. -1.
          4    1    6    6  502    0 -0.15966329834E+02  0.45896182796E+02  0.30060922819E+02  0.57140549212E+02  0.00000000000E+00 0. -1.
          3    1    5    5  503    0 -0.39847928300E+02 -0.33328528458E+02 -0.13634171811E+03  0.14590309214E+03  0.00000000000E+00 0. -1.
         -4    1    5    5    0  503  0.11105192812E+02 -0.13121579815E+03 -0.42463990526E+03  0.44458965365E+03  0.00000000000E+00 0.  1.
         -3    1    6    6    0  502 -0.25762236629E+03  0.23492873635E+03  0.14931817810E+03  0.37928447515E+03  0.00000000000E+00 0.  1.
<mgrwt>
<rscale>  0 0.12995441E+04</rscale>
<asrwt>0</asrwt>
<pdfrwt beam="1">  1        1 0.62947431E-01 0.12995441E+04</pdfrwt>
<pdfrwt beam="2">  1       -1 0.15875132E+00 0.12995441E+04</pdfrwt>
<totfact> 0.17083229E+01</totfact>
</mgrwt>
</event>
<event>
12    1  0.2406360E-008  0.2143951E+04  0.7818608E-02  0.8542126E-01
          1   -1    0    0  501    0  0.00000000000E+00  0.00000000000E+00  0.70212314526E+03  0.70212314526E+03  0.00000000000E+00 0. -1.
         -1   -1    0    0    0  501 -0.00000000000E+00 -0.00000000000E+00 -0.16366529717E+04  0.16366529717E+04  0.00000000000E+00 0.  1.
         23    2    1    2    0    0 -0.25769307146E+03 -0.69171388483E+03 -0.89274303132E+03  0.11618869653E+04  0.90096518259E+02 0.  0.
        254    2    1    2    0    0  0.25769307146E+03  0.69171388483E+03 -0.41786795111E+02  0.11768891517E+04  0.91566812848E+03 0.  0.
        -24    2    4    4    0    0  0.35651815147E+03  0.39725945829E+03  0.36946757667E+03  0.65364922036E+03  0.76359305566E+02 0.  0.
         24    2    4    4    0    0 -0.98825080012E+02  0.29445442654E+03 -0.41125437178E+03  0.52323993130E+03  0.90443693288E+02 0.  0.
         13    1    3    3    0    0 -0.88653260987E+02 -0.26417871242E+03 -0.40519214617E+03  0.49176261356E+03  0.00000000000E+00 0. -1.
        -13    1    3    3    0    0 -0.16903981047E+03 -0.42753517241E+03 -0.48755088515E+03  0.67012435173E+03  0.00000000000E+00 0.  1.
          2    1    6    6  502    0 -0.53422162473E+02  0.20137228397E+03 -0.20416864821E+03  0.29170115034E+03  0.00000000000E+00 0. -1.
          1    1    5    5  503    0  0.20157794377E+03  0.16748423412E+03  0.17867945487E+03  0.31719234494E+03  0.00000000000E+00 0. -1.
         -2    1    5    5    0  503  0.15494020770E+03  0.22977522417E+03  0.19078812179E+03  0.33645687543E+03  0.00000000000E+00 0.  1.
         -1    1    6    6    0  502 -0.45402917539E+02  0.93082142567E+02 -0.20708572357E+03  0.23153878097E+03  0.00000000000E+00 0.  1.
<mgrwt>
<rscale>  0 0.21439514E+04</rscale>
<asrwt>0</asrwt>
<pdfrwt beam="1">  1        1 0.10801895E+00 0.21439514E+04</pdfrwt>
<pdfrwt beam="2">  1       -1 0.25179276E+00 0.21439514E+04</pdfrwt>
<totfact> 0.16860609E+00</totfact>
</mgrwt>
</event>
<event>
12    1  0.2406360E-008  0.1542001E+04  0.7818608E-02  0.8856993E-01
          1   -1    0    0  501    0  0.00000000000E+00  0.00000000000E+00  0.16910984874E+04  0.16910984874E+04  0.00000000000E+00 0. -1.
         -1   -1    0    0    0  501 -0.00000000000E+00 -0.00000000000E+00 -0.35151221745E+03  0.35151221745E+03  0.00000000000E+00 0.  1.
         23    2    1    2    0    0  0.35772158034E+03  0.34441448210E+03  0.36661036113E+03  0.62428805172E+03  0.93521923170E+02 0.  0.
        254    2    1    2    0    0 -0.35772158034E+03 -0.34441448210E+03  0.97297590885E+03  0.14183226532E+04  0.90463858239E+03 0.  0.
        -24    2    4    4    0    0 -0.62639207647E+03 -0.13866539756E+03  0.81217659501E+03  0.10381144502E+04  0.80347148871E+02 0.  0.
         24    2    4    4    0    0  0.26867049614E+03 -0.20574908454E+03  0.16079931384E+03  0.38020820294E+03  0.64694180329E+02 0.  0.
         11    1    3    3    0    0  0.33340729591E+03  0.32322906046E+03  0.30749261962E+03  0.55694628252E+03  0.00000000000E+00 0. -1.
        -11    1    3    3    0    0  0.24314284425E+02  0.21185421634E+02  0.59117741516E+02  0.67341769199E+02  0.00000000000E+00 0.  1.
          4    1    6    6  502    0  0.24602972248E+03 -0.16545399904E+03  0.15191365088E+03  0.33314172280E+03  0.00000000000E+00 0. -1.
          1    1    5    5  503    0 -0.17318640554E+03 -0.69580181600E+02  0.20385681544E+03  0.27639199325E+03  0.00000000000E+00 0. -1.
         -2    1    5    5    0  503 -0.45320567094E+03 -0.69085215958E+02  0.60831977958E+03  0.76172245697E+03  0.00000000000E+00 0.  1.
         -3    1    6    6    0  502  0.22640773654E+02 -0.40295085496E+02  0.88856629575E+01  0.47066480142E+02  0.00000000000E+00 0.  1.
<mgrwt>
<rscale>  0 0.15420010E+04</rscale>
<asrwt>0</asrwt>
<pdfrwt beam="1">  1        1 0.26016899E+00 0.15420010E+04</pdfrwt>
<pdfrwt beam="2">  1       -1 0.54078804E-01 0.15420010E+04</pdfrwt>
<totfact> 0.16087001E+01</totfact>
</mgrwt>
</event>
<event>
12    1  0.2406360E-008  0.1631872E+04  0.7818608E-02  0.8801203E-01
         -2   -1    0    0    0  501 -0.00000000000E+00  0.00000000000E+00  0.26046442997E+03  0.26046442997E+03  0.00000000000E+00 0.  1.
          2   -1    0    0  501    0  0.00000000000E+00 -0.00000000000E+00 -0.25560184370E+04  0.25560184370E+04  0.00000000000E+00 0. -1.
         23    2    1    2    0    0  0.26340889763E+03  0.31759145240E+02  0.54246657164E+02  0.28597131060E+03  0.91891240157E+02 0.  0.
        254    2    1    2    0    0 -0.26340889763E+03 -0.31759145240E+02 -0.23498006642E+04  0.25305115563E+04  0.90085108913E+03 0.  0.
        -24    2    4    4    0    0 -0.29306925059E+01 -0.40016547448E+03 -0.15911061914E+04  0.16428795799E+04  0.85401438774E+02 0.  0.
         24    2    4    4    0    0 -0.26047820513E+03  0.36840632924E+03 -0.75869447278E+03  0.88763197647E+03  0.93279707642E+02 0.  0.
         13    1    3    3    0    0  0.19391890701E+03  0.38465930800E+02  0.22386507802E+00  0.19769729498E+03  0.00000000000E+00 0.  1.
        -13    1    3    3    0    0  0.69489990622E+02 -0.67067855595E+01  0.54022792086E+02  0.88274015622E+02  0.00000000000E+00 0. -1.
          4    1    6    6  502    0 -0.15350190736E+03  0.15129816059E+03 -0.40953578318E+03  0.46278885754E+03  0.00000000000E+00 0. -1.
          1    1    5    5  503    0  0.27105777312E+02 -0.28330901408E+03 -0.10071867561E+04  0.10466249961E+04  0.00000000000E+00 0. -1.
         -2    1    5    5    0  503 -0.30036469818E+02 -0.11685646040E+03 -0.58391943526E+03  0.59625458382E+03  0.00000000000E+00 0.  1.
         -3    1    6    6    0  502 -0.10697629776E+03  0.21710816865E+03 -0.34915868960E+03  0.42484311893E+03  0.00000000000E+00 0.  1.
<mgrwt>
<rscale>  0 0.16318724E+04</rscale>
<asrwt>0</asrwt>
<pdfrwt beam="1">  1        2 0.39323360E+00 0.16318724E+04</pdfrwt>
<pdfrwt beam="2">  1       -2 0.40071451E-01 0.16318724E+04</pdfrwt>
<totfact> 0.18247749E+01</totfact>
</mgrwt>
</event>
<event>
11    1  0.2406360E-008  0.2705712E+04  0.7818608E-02  0.8333154E-01
         -1   -1    0    0    0  501 -0.00000000000E+00  0.00000000000E+00  0.10666025037E+04  0.10666025037E+04  0.00000000000E+00 0.  1.
          1   -1    0    0  501    0  0.00000000000E+00 -0.00000000000E+00 -0.17159339197E+04  0.17159339197E+04  0.00000000000E+00 0. -1.
         23    2    1    2    0    0 -0.46244148158E+03  0.90098654300E+03  0.38983506497E+03  0.10893949494E+04  0.95818074177E+02 0.  0.
        254    2    1    2    0    0  0.46244148158E+03 -0.90098654300E+03 -0.10391664810E+04  0.16931414740E+04  0.87248621846E+03 0.  0.
        -24    2    4    4    0    0  0.28499088810E+03 -0.16648545957E+03 -0.82859776672E+03  0.89548266365E+03  0.79860674590E+02 0.  0.
         13    1    3    3    0    0 -0.42879802447E+03  0.87602340203E+03  0.37527805653E+03  0.10450446720E+04  0.00000000000E+00 0.  1.
        -13    1    3    3    0    0 -0.33643457114E+02  0.24963140973E+02  0.14557008448E+02  0.44350277438E+02  0.00000000000E+00 0. -1.
          2    1    4    4  502    0 -0.22083233534E+02 -0.31116257444E+02 -0.12775814562E+02  0.40238192284E+02  0.00000000000E+00 0. -1.
          3    1    5    5  503    0  0.27960076132E+02 -0.50151882264E+02 -0.14458744831E+03  0.15557155061E+03  0.00000000000E+00 0. -1.
         -4    1    5    5    0  503  0.25703081197E+03 -0.11633357730E+03 -0.68401031841E+03  0.73991111304E+03  0.00000000000E+00 0.  1.
         -1    1    4    4    0  502  0.19953382702E+03 -0.70338482599E+03 -0.19779289968E+03  0.75742061810E+03  0.00000000000E+00 0.  1.
<mgrwt>
<rscale>  0 0.27057120E+04</rscale>
<asrwt>0</asrwt>
<pdfrwt beam="1">  1        1 0.26398983E+00 0.27057120E+04</pdfrwt>
<pdfrwt beam="2">  1       -1 0.16409270E+00 0.27057120E+04</pdfrwt>
<totfact> 0.11042334E+00</totfact>
</mgrwt>
</event>
<event>
11    1  0.2406360E-008  0.1184543E+04  0.7818608E-02  0.9126495E-01
         -2   -1    0    0    0  501 -0.00000000000E+00  0.00000000000E+00  0.51402922946E+03  0.51402922946E+03  0.00000000000E+00 0.  1.
          2   -1    0    0  501    0  0.00000000000E+00 -0.00000000000E+00 -0.68242321123E+03  0.68242321123E+03  0.00000000000E+00 0. -1.
         23    2    1    2    0    0 -0.91020584261E+02  0.16461492262E+03 -0.17932180524E+03  0.27528129472E+03  0.90778091415E+02 0.  0.
        254    2    1    2    0    0  0.91020584261E+02 -0.16461492262E+03  0.10927823478E+02  0.92117114597E+03  0.90169509443E+03 0.  0.
        -24    2    4    4    0    0  0.40486957778E+03 -0.30239057829E+03 -0.12606662289E+03  0.52680935124E+03  0.79220340164E+02 0.  0.
         11    1    3    3    0    0 -0.60023588335E+02  0.14383490576E+03 -0.17981581606E+03  0.23796016259E+03  0.00000000000E+00 0. -1.
        -11    1    3    3    0    0 -0.30996995925E+02  0.20780016865E+02  0.49401082521E+00  0.37321132137E+02  0.00000000000E+00 0.  1.
          4    1    4    4  502    0 -0.32811036451E+03  0.12954715384E+03  0.13527578421E+03  0.37780737706E+03  0.00000000000E+00 0. -1.
          1    1    5    5  503    0  0.36938681688E+03 -0.29763356427E+03 -0.10718177545E+03  0.48633351935E+03  0.00000000000E+00 0. -1.
         -2    1    5    5    0  503  0.35482760907E+02 -0.47570140198E+01 -0.18884847435E+02  0.40475831883E+02  0.00000000000E+00 0.  1.
         -3    1    4    4    0  502  0.14261370989E+02  0.82285018265E+01  0.17186621584E+01  0.16554417671E+02  0.00000000000E+00 0.  1.
<mgrwt>
<rscale>  0 0.11845429E+04</rscale>
<asrwt>0</asrwt>
<pdfrwt beam="1">  1        2 0.10498819E+00 0.11845429E+04</pdfrwt>
<pdfrwt beam="2">  1       -2 0.79081421E-01 0.11845429E+04</pdfrwt>
<totfact> 0.59319301E+01</totfact>
</mgrwt>
</event>
<event>
11    1  0.2406360E-008  0.1893482E+04  0.7818608E-02  0.8658108E-01
          1   -1    0    0  501    0  0.00000000000E+00  0.00000000000E+00  0.14177574577E+04  0.14177574577E+04  0.00000000000E+00 0. -1.
         -1   -1    0    0    0  501 -0.00000000000E+00 -0.00000000000E+00 -0.63220876043E+03  0.63220876043E+03  0.00000000000E+00 0.  1.
         23    2    1    2    0    0  0.61684905538E+03  0.38227633658E+03  0.20930845812E+03  0.76081747692E+03  0.91625585430E+02 0.  0.
        254    2    1    2    0    0 -0.61684905538E+03 -0.38227633658E+03  0.57624023916E+03  0.12891487412E+04  0.89622190842E+03 0.  0.
        -24    2    4    4    0    0 -0.79304179548E+03 -0.31630908910E+03  0.35993998386E+03  0.92979007952E+03  0.77369701895E+02 0.  0.
         13    1    3    3    0    0  0.11880491538E+03  0.38444147973E+02  0.53727985554E+02  0.13593843042E+03  0.00000000000E+00 0. -1.
        -13    1    3    3    0    0  0.49804414000E+03  0.34383218861E+03  0.15558047257E+03  0.62487904650E+03  0.00000000000E+00 0.  1.
          4    1    4    4  502    0  0.31885357884E+01 -0.62900919315E+02  0.16844075633E+03  0.17983042236E+03  0.00000000000E+00 0. -1.
          3    1    5    5  503    0 -0.54983707918E+02 -0.21945573550E+01  0.27363940575E+02  0.61455752068E+02  0.00000000000E+00 0. -1.
         -4    1    5    5    0  503 -0.73805808756E+03 -0.31411453174E+03  0.33257604329E+03  0.86833432746E+03  0.00000000000E+00 0.  1.
         -3    1    4    4    0  502  0.17300420431E+03 -0.30663281721E+01  0.47859498963E+02  0.17952823934E+03  0.00000000000E+00 0.  1.
<mgrwt>
<rscale>  0 0.18934822E+04</rscale>
<asrwt>0</asrwt>
<pdfrwt beam="1">  1        1 0.21811653E+00 0.18934822E+04</pdfrwt>
<pdfrwt beam="2">  1       -1 0.97262886E-01 0.18934822E+04</pdfrwt>
<totfact> 0.70956921E+00</totfact>
</mgrwt>
</event>
<event>
11    1  0.2406360E-008  0.1313006E+04  0.7818608E-02  0.9019315E-01
         -3   -1    0    0    0  501 -0.00000000000E+00  0.00000000000E+00  0.31926128330E+04  0.31926128330E+04  0.00000000000E+00 0.  1.
          3   -1    0    0  501    0  0.00000000000E+00 -0.00000000000E+00 -0.13499787464E+03  0.13499787464E+03  0.00000000000E+00 0. -1.
         23    2    1    2    0    0 -0.65823707037E+02 -0.26427769600E+03  0.28484710155E+03  0.40377111815E+03  0.87850916794E+02 0.  0.
        254    2    1    2    0    0  0.65823707037E+02  0.26427769600E+03  0.27727678568E+04  0.29238395895E+04  0.88680375298E+03 0.  0.
        -24    2    4    4    0    0 -0.16615856884E+03  0.51446065595E+03  0.15583031491E+04  0.16513749797E+04  0.80325478790E+02 0.  0.
         11    1    3    3    0    0 -0.87426404448E+02 -0.20031354647E+03  0.21314631620E+03  0.30528715204E+03  0.00000000000E+00 0. -1.
        -11    1    3    3    0    0  0.21602697411E+02 -0.63964149538E+02  0.71700785346E+02  0.98483966111E+02  0.00000000000E+00 0.  1.
          2    1    4    4  502    0  0.44219880065E+02 -0.38043060688E+02  0.50762864660E+03  0.51096919193E+03  0.00000000000E+00 0. -1.
          3    1    5    5  503    0 -0.14048502420E+02  0.79098121437E+02  0.32164931309E+03  0.33153001952E+03  0.00000000000E+00 0. -1.
         -4    1    5    5    0  503 -0.15211006642E+03  0.43536253451E+03  0.12366538360E+04  0.13198449602E+04  0.00000000000E+00 0.  1.
         -1    1    4    4    0  502  0.18776239581E+03 -0.21213989926E+03  0.70683606107E+03  0.76149541782E+03  0.00000000000E+00 0.  1.
<mgrwt>
<rscale>  0 0.13130056E+04</rscale>
<asrwt>0</asrwt>
<pdfrwt beam="1">  1        3 0.20768906E-01 0.13130056E+04</pdfrwt>
<pdfrwt beam="2">  1       -3 0.49117115E+00 0.13130056E+04</pdfrwt>
<totfact> 0.19026073E-01</totfact>
</mgrwt>
</event>
<event>
11    1  0.2406360E-008  0.1065745E+04  0.7818608E-02  0.9239237E-01
         -1   -1    0    0    0  501 -0.00000000000E+00  0.00000000000E+00  0.11500487117E+04  0.11500487117E+04  0.00000000000E+00 0.  1.
          1   -1    0    0  501    0  0.00000000000E+00 -0.00000000000E+00 -0.24690549532E+03  0.24690549532E+03  0.00000000000E+00 0. -1.
         23    2    1    2    0    0 -0.78714452306E+02 -0.27852269927E+02 -0.62720300102E+01  0.12189396991E+03  0.88583788567E+02 0.  0.
        254    2    1    2    0    0  0.78714452306E+02  0.27852269927E+02  0.90941524637E+03  0.12750602371E+04  0.88981503918E+03 0.  0.
        -24    2    4    4    0    0  0.39301678086E+03  0.22490930996E+03  0.26421089659E+03  0.53031563745E+03  0.79880471372E+02 0.  0.
         11    1    3    3    0    0 -0.14299823529E+02  0.25118450524E+02  0.19192497832E+02  0.34695438932E+02  0.00000000000E+00 0.  1.
        -11    1    3    3    0    0 -0.64414628778E+02 -0.52970720452E+02 -0.25464527842E+02  0.87198530973E+02  0.00000000000E+00 0. -1.
          4    1    4    4  502    0 -0.90139347964E+02 -0.44429690758E+02  0.16188722703E+03  0.19054283967E+03  0.00000000000E+00 0. -1.
          1    1    5    5  503    0  0.13994011428E+03  0.55483383799E+02  0.52601833475E+02  0.15946345772E+03  0.00000000000E+00 0. -1.
         -2    1    5    5    0  503  0.25307666658E+03  0.16942592616E+03  0.21160906311E+03  0.37085217974E+03  0.00000000000E+00 0.  1.
         -3    1    4    4    0  502 -0.22416298059E+03 -0.15262734927E+03  0.48331712275E+03  0.55420175997E+03  0.00000000000E+00 0.  1.
<mgrwt>
<rscale>  0 0.10657455E+04</rscale>
<asrwt>0</asrwt>
<pdfrwt beam="1">  1        1 0.37985461E-01 0.10657455E+04</pdfrwt>
<pdfrwt beam="2">  1       -1 0.17693057E+00 0.10657455E+04</pdfrwt>
<totfact> 0.24730642E+01</totfact>
</mgrwt>
</event>
<event>
12    1  0.2406360E-008  0.1845971E+04  0.7818608E-02  0.8682228E-01
         -1   -1    0    0    0  501 -0.00000000000E+00  0.00000000000E+00  0.35931394274E+03  0.35931394274E+03  0.00000000000E+00 0.  1.
          1   -1    0    0  501    0  0.00000000000E+00 -0.00000000000E+00 -0.23709125972E+04  0.23709125972E+04  0.00000000000E+00 0. -1.
         23    2    1    2    0    0  0.13833531063E+03 -0.44735527794E+02  0.24762581190E+03  0.30098457427E+03  0.90195596440E+02 0.  0.
        254    2    1    2    0    0 -0.13833531063E+03  0.44735527794E+02 -0.22592244663E+04  0.24292419656E+04  0.88089920689E+03 0.  0.
        -24    2    4    4    0    0 -0.21641369080E+03  0.37540129640E+03 -0.17849816435E+04  0.18384811605E+04  0.78054410079E+02 0.  0.
         24    2    4    4    0    0  0.78078380171E+02 -0.33066576860E+03 -0.47424282281E+03  0.59076080512E+03  0.93037572548E+02 0.  0.
         11    1    3    3    0    0  0.15766546199E+02  0.75490180330E+01 -0.24205425135E+01  0.17647398629E+02  0.00000000000E+00 0. -1.
        -11    1    3    3    0    0  0.12256876443E+03 -0.52284545827E+02  0.25004635442E+03  0.28333717565E+03  0.00000000000E+00 0.  1.
          2    1    6    6  502    0  0.64333929467E+02 -0.26541086634E+03 -0.43429546267E+03  0.51302468883E+03  0.00000000000E+00 0. -1.
          3    1    5    5  503    0 -0.74774268199E+02  0.18814148555E+03 -0.93491251384E+03  0.95658236358E+03  0.00000000000E+00 0. -1.
         -2    1    5    5    0  503 -0.14163942260E+03  0.18725981085E+03 -0.85006912967E+03  0.88189879692E+03  0.00000000000E+00 0.  1.
         -1    1    6    6    0  502  0.13744450703E+02 -0.65254902261E+02 -0.39947360144E+02  0.77736116295E+02  0.00000000000E+00 0.  1.
<mgrwt>
<rscale>  0 0.18459707E+04</rscale>
<asrwt>0</asrwt>
<pdfrwt beam="1">  1        1 0.36475579E+00 0.18459707E+04</pdfrwt>
<pdfrwt beam="2">  1       -1 0.55279067E-01 0.18459707E+04</pdfrwt>
<totfact> 0.51765748E+00</totfact>
</mgrwt>
</event>
<event>
11    1  0.2406360E-008  0.2226467E+04  0.7818608E-02  0.8507492E-01
          1   -1    0    0  501    0  0.00000000000E+00  0.00000000000E+00  0.60150535039E+03  0.60150535039E+03  0.00000000000E+00 0. -1.
         -1   -1    0    0    0  501 -0.00000000000E+00 -0.00000000000E+00 -0.20603128355E+04  0.20603128355E+04  0.00000000000E+00 0.  1.
         23    2    1    2    0    0  0.92597643860E+03 -0.78164259699E+02 -0.63014311265E+03  0.11265303190E+04  0.91914095202E+02 0.  0.
        254    2    1    2    0    0 -0.92597643860E+03  0.78164259699E+02 -0.82866437246E+03  0.15352878669E+04  0.89826620537E+03 0.  0.
        -24    2    4    4    0    0 -0.10327973412E+04 -0.89964495482E+02 -0.56006655713E+03  0.11812398544E+04  0.83000522413E+02 0.  0.
         11    1    3    3    0    0  0.19243383210E+03 -0.11686326835E+02 -0.17721771024E+03  0.26186536004E+03  0.00000000000E+00 0. -1.
        -11    1    3    3    0    0  0.73354260650E+03 -0.66477932865E+02 -0.45292540242E+03  0.86466495897E+03  0.00000000000E+00 0.  1.
          4    1    4    4  502    0 -0.23091460565E+02  0.79473257360E+01 -0.28145208000E+02  0.37262961111E+02  0.00000000000E+00 0. -1.
          3    1    5    5  503    0 -0.28175207023E+03  0.12448171143E+02 -0.15312949451E+03  0.32091716709E+03  0.00000000000E+00 0. -1.
         -4    1    5    5    0  503 -0.75104527094E+03 -0.10241266662E+03 -0.40693706262E+03  0.86032268726E+03  0.00000000000E+00 0.  1.
         -3    1    4    4    0  502  0.12991236314E+03  0.16018142945E+03 -0.24045260733E+03  0.31678505143E+03  0.00000000000E+00 0.  1.
<mgrwt>
<rscale>  0 0.22264673E+04</rscale>
<asrwt>0</asrwt>
<pdfrwt beam="1">  1        1 0.92539284E-01 0.22264673E+04</pdfrwt>
<pdfrwt beam="2">  1       -1 0.31697121E+00 0.22264673E+04</pdfrwt>
<totfact> 0.79548659E-01</totfact>
</mgrwt>
</event>
<event>
11    1  0.2406360E-008  0.1520739E+04  0.7818608E-02  0.8870778E-01
         -1   -1    0    0    0  501 -0.00000000000E+00  0.00000000000E+00  0.26046401249E+03  0.26046401249E+03  0.00000000000E+00 0.  1.
          1   -1    0    0  501    0  0.00000000000E+00 -0.00000000000E+00 -0.22197365566E+04  0.22197365566E+04  0.00000000000E+00 0. -1.
         23    2    1    2    0    0 -0.26628547152E+02 -0.33238020212E+03 -0.12129193995E+04  0.12611208303E+04  0.89814256513E+02 0.  0.
        254    2    1    2    0    0  0.26628547152E+02  0.33238020212E+03 -0.74635314458E+03  0.12190797388E+04  0.90439300901E+03 0.  0.
        -24    2    4    4    0    0  0.23931179630E+03  0.31870390820E+03  0.27862899311E+02  0.40766319775E+03  0.81059389945E+02 0.  0.
         11    1    3    3    0    0  0.11345584127E+02 -0.35638195690E+02 -0.66346543297E+02  0.76162110519E+02  0.00000000000E+00 0.  1.
        -11    1    3    3    0    0 -0.37974131278E+02 -0.29674200643E+03 -0.11465728562E+04  0.11849587198E+04  0.00000000000E+00 0. -1.
          2    1    4    4  502    0 -0.15324214877E+02  0.10272402696E+02 -0.25942247202E+03  0.26007762842E+03  0.00000000000E+00 0. -1.
          1    1    5    5  503    0  0.65001533537E+02  0.14729666340E+03  0.26650442490E+02  0.16319237879E+03  0.00000000000E+00 0. -1.
         -2    1    5    5    0  503  0.17431026276E+03  0.17140724480E+03  0.12124568211E+01  0.24447081896E+03  0.00000000000E+00 0.  1.
         -1    1    4    4    0  502 -0.19735903427E+03  0.34038912247E+01 -0.51479357187E+03  0.55133891258E+03  0.00000000000E+00 0.  1.
<mgrwt>
<rscale>  0 0.15207386E+04</rscale>
<asrwt>0</asrwt>
<pdfrwt beam="1">  1        1 0.34149793E+00 0.15207386E+04</pdfrwt>
<pdfrwt beam="2">  1       -1 0.40071387E-01 0.15207386E+04</pdfrwt>
<totfact> 0.12397992E+01</totfact>
</mgrwt>
</event>
<event>
11    1  0.2406360E-008  0.1930869E+04  0.7818608E-02  0.8639642E-01
          2   -1    0    0  501    0  0.00000000000E+00  0.00000000000E+00  0.10746492871E+04  0.10746492871E+04  0.00000000000E+00 0. -1.
         -2   -1    0    0    0  501 -0.00000000000E+00 -0.00000000000E+00 -0.86731926984E+03  0.86731926984E+03  0.00000000000E+00 0.  1.
         23    2    1    2    0    0  0.46128828336E+03 -0.52902470074E+03 -0.19461427113E+03  0.73402898569E+03  0.90938566906E+02 0.  0.
        254    2    1    2    0    0 -0.46128828336E+03  0.52902470074E+03  0.40194428834E+03  0.12079395712E+04  0.89716485796E+03 0.  0.
        -24    2    4    4    0    0 -0.64644829710E+03  0.37060229226E+03  0.34094025789E+02  0.75009434747E+03  0.78978906433E+02 0.  0.
         13    1    3    3    0    0  0.99911463504E+02 -0.79531581861E+02 -0.84482321118E+01  0.12798025503E+03  0.00000000000E+00 0. -1.
        -13    1    3    3    0    0  0.36137681986E+03 -0.44949311888E+03 -0.18616603902E+03  0.60604873066E+03  0.00000000000E+00 0.  1.
          4    1    4    4  502    0  0.14694649323E+03  0.13861849941E+03  0.19888664148E+03  0.28348590162E+03  0.00000000000E+00 0. -1.
          3    1    5    5  503    0 -0.59658889154E+03  0.32407790830E+03  0.14278342112E+02  0.67907927903E+03  0.00000000000E+00 0. -1.
         -4    1    5    5    0  503 -0.49859405555E+02  0.46524383961E+02  0.19815683677E+02  0.71015068435E+02  0.00000000000E+00 0.  1.
         -3    1    4    4    0  502  0.38213520498E+02  0.19803909066E+02  0.16896362107E+03  0.17435932211E+03  0.00000000000E+00 0.  1.
<mgrwt>
<rscale>  0 0.19308693E+04</rscale>
<asrwt>0</asrwt>
<pdfrwt beam="1">  1        2 0.16533066E+00 0.19308693E+04</pdfrwt>
<pdfrwt beam="2">  1       -2 0.13343373E+00 0.19308693E+04</pdfrwt>
<totfact> 0.85784868E+00</totfact>
</mgrwt>
</event>
<event>
12    1  0.2406360E-008  0.1932772E+04  0.7818608E-02  0.8638713E-01
         -1   -1    0    0    0  501 -0.00000000000E+00  0.00000000000E+00  0.64133369143E+03  0.64133369143E+03  0.00000000000E+00 0.  1.
          1   -1    0    0  501    0  0.00000000000E+00 -0.00000000000E+00 -0.14561874068E+04  0.14561874068E+04  0.00000000000E+00 0. -1.
         23    2    1    2    0    0 -0.14703842190E+03  0.60347440560E+03 -0.77698111690E+03  0.99890450139E+03  0.91153119168E+02 0.  0.
        254    2    1    2    0    0  0.14703842190E+03 -0.60347440560E+03 -0.37872598453E+02  0.10986165968E+04  0.90538524252E+03 0.  0.
        -24    2    4    4    0    0 -0.18571295106E+03  0.82282592666E+02 -0.21828727985E+03  0.30880112776E+03  0.80306131232E+02 0.  0.
         24    2    4    4    0    0  0.33275137297E+03 -0.68575699827E+03  0.18041468139E+03  0.78981546907E+03  0.10135522202E+03 0.  0.
         11    1    3    3    0    0 -0.78667089030E+02  0.40547435413E+03 -0.57452127139E+03  0.70758225955E+03  0.00000000000E+00 0. -1.
        -11    1    3    3    0    0 -0.68371332874E+02  0.19800005148E+03 -0.20245984551E+03  0.29132224183E+03  0.00000000000E+00 0.  1.
          4    1    6    6  502    0  0.28704243857E+03 -0.59807013147E+03  0.12063656468E+03  0.67426584107E+03  0.00000000000E+00 0. -1.
          3    1    5    5  503    0 -0.18103912049E+02 -0.11692085512E+01  0.35756925629E+01  0.18490653245E+02  0.00000000000E+00 0. -1.
         -4    1    5    5    0  503 -0.16760903901E+03  0.83451801217E+02 -0.22186297241E+03  0.29031047451E+03  0.00000000000E+00 0.  1.
         -3    1    6    6    0  502  0.45708934400E+02 -0.87686866798E+02  0.59778116712E+02  0.11554962800E+03  0.00000000000E+00 0.  1.
<mgrwt>
<rscale>  0 0.19327721E+04</rscale>
<asrwt>0</asrwt>
<pdfrwt beam="1">  1        1 0.22402883E+00 0.19327721E+04</pdfrwt>
<pdfrwt beam="2">  1       -1 0.98666722E-01 0.19327721E+04</pdfrwt>
<totfact> 0.64344376E+00</totfact>
</mgrwt>
</event>
<event>
12    1  0.2406360E-008  0.1762972E+04  0.7818608E-02  0.8726242E-01
          2   -1    0    0  501    0  0.00000000000E+00  0.00000000000E+00  0.20995803974E+04  0.20995803974E+04  0.00000000000E+00 0. -1.
         -2   -1    0    0    0  501 -0.00000000000E+00 -0.00000000000E+00 -0.37008230672E+03  0.37008230672E+03  0.00000000000E+00 0.  1.
         23    2    1    2    0    0  0.15868580564E+03 -0.37567546521E+02  0.15272773117E+04  0.15386074767E+04  0.90246744961E+02 0.  0.
        254    2    1    2    0    0 -0.15868580564E+03  0.37567546521E+02  0.20222077898E+03  0.93105522745E+03  0.89407946383E+03 0.  0.
        -24    2    4    4    0    0 -0.36511872138E+03 -0.20689202119E+02 -0.22902054554E+03  0.43733785560E+03  0.71233881529E+02 0.  0.
         24    2    4    4    0    0  0.20643291574E+03  0.58256748640E+02  0.43124132452E+03  0.49371737185E+03  0.10853278690E+03 0.  0.
         13    1    3    3    0    0  0.28763922069E+02  0.27007939768E+02  0.24634043095E+03  0.24948025962E+03  0.00000000000E+00 0.  1.
        -13    1    3    3    0    0  0.12992188357E+03 -0.64575486289E+02  0.12809368808E+04  0.12891272171E+04  0.00000000000E+00 0. -1.
          2    1    6    6  502    0  0.11823567074E+03  0.34022854660E+02  0.13040554733E+03  0.17928423035E+03  0.00000000000E+00 0. -1.
          3    1    5    5  503    0 -0.20178649817E+03 -0.16689739515E+02 -0.85190992969E+02  0.21966757506E+03  0.00000000000E+00 0. -1.
         -4    1    5    5    0  503 -0.16333222321E+03 -0.39994626036E+01 -0.14382955257E+03  0.21767028054E+03  0.00000000000E+00 0.  1.
         -1    1    6    6    0  502  0.88197244997E+02  0.24233893980E+02  0.30083577718E+03  0.31443314150E+03  0.00000000000E+00 0.  1.
<mgrwt>
<rscale>  0 0.17629720E+04</rscale>
<asrwt>0</asrwt>
<pdfrwt beam="1">  1        2 0.32301236E+00 0.17629720E+04</pdfrwt>
<pdfrwt beam="2">  1       -2 0.56935741E-01 0.17629720E+04</pdfrwt>
<totfact> 0.16102786E+01</totfact>
</mgrwt>
</event>
<event>
11    1  0.2406360E-008  0.1475938E+04  0.7818608E-02  0.8900613E-01
          1   -1    0    0  501    0  0.00000000000E+00  0.00000000000E+00  0.63800270786E+03  0.63800270786E+03  0.00000000000E+00 0. -1.
         -1   -1    0    0    0  501 -0.00000000000E+00 -0.00000000000E+00 -0.85359890050E+03  0.85359890050E+03  0.00000000000E+00 0.  1.
         23    2    1    2    0    0  0.20604933258E+03 -0.41330717407E+03 -0.74716553659E+02  0.47622346312E+03  0.89034127368E+02 0.  0.
        254    2    1    2    0    0 -0.20604933258E+03  0.41330717407E+03 -0.14087963898E+03  0.10153781452E+04  0.89323376423E+03 0.  0.
        -24    2    4    4    0    0 -0.43823974257E+02  0.54957480680E+03  0.15003536955E+03  0.57685921312E+03  0.79390998628E+02 0.  0.
         13    1    3    3    0    0  0.52932924468E+00 -0.27939732675E+02  0.12896313500E+02  0.30777000395E+02  0.00000000000E+00 0. -1.
        -13    1    3    3    0    0  0.20552000333E+03 -0.38536744140E+03 -0.87612867159E+02  0.44544646272E+03  0.00000000000E+00 0.  1.
          4    1    4    4  502    0 -0.14155021565E+03  0.32115221514E+02 -0.73346376237E+02  0.16262700240E+03  0.00000000000E+00 0. -1.
          1    1    5    5  503    0 -0.27107181010E+02  0.18593314275E+03  0.88391154384E+02  0.20765097883E+03  0.00000000000E+00 0. -1.
         -2    1    5    5    0  503 -0.16716793247E+02  0.36364166405E+03  0.61644215170E+02  0.36920823430E+03  0.00000000000E+00 0.  1.
         -3    1    4    4    0  502 -0.20675142674E+02 -0.16838285424E+03 -0.21756863229E+03  0.27589192972E+03  0.00000000000E+00 0.  1.
<mgrwt>
<rscale>  0 0.14759382E+04</rscale>
<asrwt>0</asrwt>
<pdfrwt beam="1">  1        1 0.98154263E-01 0.14759382E+04</pdfrwt>
<pdfrwt beam="2">  1       -1 0.13132291E+00 0.14759382E+04</pdfrwt>
<totfact> 0.15002803E+01</totfact>
</mgrwt>
</event>
<event>
11    1  0.2406360E-008  0.1526723E+04  0.7818608E-02  0.8866874E-01
          1   -1    0    0  501    0  0.00000000000E+00  0.00000000000E+00  0.80054063734E+03  0.80054063734E+03  0.00000000000E+00 0. -1.
         -1   -1    0    0    0  501 -0.00000000000E+00 -0.00000000000E+00 -0.72790945048E+03  0.72790945048E+03  0.00000000000E+00 0.  1.
         23    2    1    2    0    0 -0.36380001995E+03 -0.24390674213E+03 -0.23879931756E+03  0.50727911335E+03  0.92011039549E+02 0.  0.
        254    2    1    2    0    0  0.36380001995E+03  0.24390674213E+03  0.31143050442E+03  0.10211709745E+04  0.86830884290E+03 0.  0.
        -24    2    4    4    0    0  0.29290000253E+03 -0.28932212623E+03  0.12814973134E+03  0.43893606955E+03  0.82126824438E+02 0.  0.
         13    1    3    3    0    0 -0.27604171419E+03 -0.14364453919E+03 -0.19402569190E+03  0.36671344498E+03  0.00000000000E+00 0.  1.
        -13    1    3    3    0    0 -0.87758305764E+02 -0.10026220295E+03 -0.44773625660E+02  0.14056566837E+03  0.00000000000E+00 0. -1.
          4    1    4    4  502    0  0.24231510803E+02  0.13429187600E+02  0.23793408136E+02  0.36518974056E+02  0.00000000000E+00 0. -1.
          1    1    5    5  503    0  0.38604415260E+02 -0.84926534398E+02  0.35042323952E+02  0.99653306972E+02  0.00000000000E+00 0. -1.
         -2    1    5    5    0  503  0.25429558727E+03 -0.20439559184E+03  0.93107407387E+02  0.33928276257E+03  0.00000000000E+00 0.  1.
         -3    1    4    4    0  502  0.46668506615E+02  0.51979968077E+03  0.15948736495E+03  0.54571593088E+03  0.00000000000E+00 0.  1.
<mgrwt>
<rscale>  0 0.15267234E+04</rscale>
<asrwt>0</asrwt>
<pdfrwt beam="1">  1        1 0.12316010E+00 0.15267234E+04</pdfrwt>
<pdfrwt beam="2">  1       -1 0.11198607E+00 0.15267234E+04</pdfrwt>
<totfact> 0.15597823E+01</totfact>
</mgrwt>
</event>
<event>
11    1  0.2406360E-008  0.2016722E+04  0.7818608E-02  0.8598842E-01
         -1   -1    0    0    0  501 -0.00000000000E+00  0.00000000000E+00  0.22180868128E+04  0.22180868128E+04  0.00000000000E+00 0.  1.
          1   -1    0    0  501    0  0.00000000000E+00 -0.00000000000E+00 -0.45840936826E+03  0.45840936826E+03  0.00000000000E+00 0. -1.
         23    2    1    2    0    0  0.25319180704E+03  0.59121974024E+03  0.13411039731E+04  0.14901041959E+04  0.90574696285E+02 0.  0.
        254    2    1    2    0    0 -0.25319180704E+03 -0.59121974024E+03  0.41857347143E+03  0.11863919851E+04  0.90480678545E+03 0.  0.
        -24    2    4    4    0    0 -0.39913911532E+03 -0.52164967976E+03 -0.18961958377E+02  0.66171190887E+03  0.77927355311E+02 0.  0.
         13    1    3    3    0    0  0.15616398712E+03  0.42256805283E+03  0.10128062708E+04  0.11084798115E+04  0.00000000000E+00 0.  1.
        -13    1    3    3    0    0  0.97027819924E+02  0.16865168741E+03  0.32829770228E+03  0.38162438447E+03  0.00000000000E+00 0. -1.
          4    1    4    4  502    0  0.44924347951E+02  0.19171693349E+02 -0.16183503957E+02  0.51455385190E+02  0.00000000000E+00 0. -1.
          1    1    5    5  503    0 -0.11212819771E+03 -0.18237999332E+03 -0.35515571588E+02  0.21701739679E+03  0.00000000000E+00 0. -1.
         -2    1    5    5    0  503 -0.28701091761E+03 -0.33926968645E+03  0.16553613212E+02  0.44469451208E+03  0.00000000000E+00 0.  1.
         -3    1    4    4    0  502  0.10102296032E+03 -0.88741753826E+02  0.45371893376E+03  0.47322469107E+03  0.00000000000E+00 0.  1.
<mgrwt>
<rscale>  0 0.20167219E+04</rscale>
<asrwt>0</asrwt>
<pdfrwt beam="1">  1        1 0.70524519E-01 0.20167219E+04</pdfrwt>
<pdfrwt beam="2">  1       -1 0.34124412E+00 0.20167219E+04</pdfrwt>
<totfact> 0.82233753E-01</totfact>
</mgrwt>
</event>
<event>
11    1  0.2406360E-008  0.1242571E+04  0.7818608E-02  0.9076390E-01
          1   -1    0    0  501    0  0.00000000000E+00  0.00000000000E+00  0.77697806521E+03  0.77697806521E+03  0.00000000000E+00 0. -1.
         -1   -1    0    0    0  501 -0.00000000000E+00 -0.00000000000E+00 -0.49679060462E+03  0.49679060462E+03  0.00000000000E+00 0.  1.
         23    2    1    2    0    0  0.88433347913E+01  0.25627209257E+03 -0.65503161459E+02  0.27952419872E+03  0.89941778450E+02 0.  0.
        254    2    1    2    0    0 -0.88433347913E+01 -0.25627209257E+03  0.34569062205E+03  0.99424447110E+03  0.89625134429E+03 0.  0.
        -24    2    4    4    0    0 -0.32420094732E+03 -0.14704408698E+02  0.23845997170E+03  0.41119978667E+03  0.83064026973E+02 0.  0.
         13    1    3    3    0    0  0.35428810212E+02  0.78944647616E+02  0.54163255256E+01  0.86699449609E+02  0.00000000000E+00 0. -1.
        -13    1    3    3    0    0 -0.26585475420E+02  0.17732744495E+03 -0.70919486985E+02  0.19282474911E+03  0.00000000000E+00 0.  1.
          4    1    4    4  502    0  0.91673870496E+02 -0.23966828422E+03  0.21497900505E+03  0.33475507107E+03  0.00000000000E+00 0. -1.
          3    1    5    5  503    0 -0.17724223832E+03  0.11673037157E+02  0.84391901806E+02  0.19665468194E+03  0.00000000000E+00 0. -1.
         -4    1    5    5    0  503 -0.14695870900E+03 -0.26377445855E+02  0.15406806989E+03  0.21454510472E+03  0.00000000000E+00 0.  1.
         -3    1    4    4    0  502  0.22368374203E+03 -0.18993996541E+01 -0.10774835470E+03  0.24828961337E+03  0.00000000000E+00 0.  1.
<mgrwt>
<rscale>  0 0.12425706E+04</rscale>
<asrwt>0</asrwt>
<pdfrwt beam="1">  1        1 0.11953509E+00 0.12425706E+04</pdfrwt>
<pdfrwt beam="2">  1       -1 0.76429323E-01 0.12425706E+04</pdfrwt>
<totfact> 0.39294437E+01</totfact>
</mgrwt>
</event>
<event>
11    1  0.2406360E-008  0.2478627E+04  0.7818608E-02  0.8410640E-01
          1   -1    0    0  501    0  0.00000000000E+00  0.00000000000E+00  0.18778104536E+04  0.18778104536E+04  0.00000000000E+00 0. -1.
         -1   -1    0    0    0  501 -0.00000000000E+00 -0.00000000000E+00 -0.81791934163E+03  0.81791934163E+03  0.00000000000E+00 0.  1.
         23    2    1    2    0    0  0.23492588069E+03  0.86875543124E+03  0.10990444220E+04  0.14234347343E+04  0.91332538571E+02 0.  0.
        254    2    1    2    0    0 -0.23492588069E+03 -0.86875543124E+03 -0.39153310022E+02  0.12722950609E+04  0.89848515381E+03 0.  0.
        -24    2    4    4    0    0 -0.36749287824E+03 -0.35060292494E+03  0.23616874004E+03  0.56565244099E+03  0.78826288130E+02 0.  0.
         11    1    3    3    0    0  0.17798274234E+01  0.10916377138E+02  0.16862212155E+01  0.11188316114E+02  0.00000000000E+00 0. -1.
        -11    1    3    3    0    0  0.23314605327E+03  0.85783905411E+03  0.10973582008E+04  0.14122464182E+04  0.00000000000E+00 0.  1.
          2    1    4    4  502    0  0.22257681436E+03 -0.27332609612E+03 -0.27290132765E+03  0.44578327441E+03  0.00000000000E+00 0. -1.
          1    1    5    5  503    0 -0.27818568273E+03 -0.22505601298E+03  0.18813568111E+03  0.40426787847E+03  0.00000000000E+00 0. -1.
         -2    1    5    5    0  503 -0.89307195505E+02 -0.12554691195E+03  0.48033058928E+02  0.16138456252E+03  0.00000000000E+00 0.  1.
         -1    1    4    4    0  502 -0.90009816811E+02 -0.24482641018E+03 -0.24207224069E+01  0.26085934551E+03  0.00000000000E+00 0.  1.
<mgrwt>
<rscale>  0 0.24786266E+04</rscale>
<asrwt>0</asrwt>
<pdfrwt beam="1">  1        1 0.28889391E+00 0.24786266E+04</pdfrwt>
<pdfrwt beam="2">  1       -1 0.12583375E+00 0.24786266E+04</pdfrwt>
<totfact> 0.17669049E+00</totfact>
</mgrwt>
</event>
<event>
11    1  0.2406360E-008  0.1327410E+04  0.7818608E-02  0.9008107E-01
          2   -1    0    0  501    0  0.00000000000E+00  0.00000000000E+00  0.36594966123E+04  0.36594966123E+04  0.00000000000E+00 0. -1.
         -2   -1    0    0    0  501 -0.00000000000E+00 -0.00000000000E+00 -0.12037290842E+03  0.12037290842E+03  0.00000000000E+00 0.  1.
         23    2    1    2    0    0 -0.28201162461E+03 -0.28738582522E+03  0.15745436124E+04  0.16277328519E+04  0.90584108696E+02 0.  0.
        254    2    1    2    0    0  0.28201162461E+03  0.28738582522E+03  0.19645800915E+04  0.21521366689E+04  0.78102249434E+03 0.  0.
        -24    2    4    4    0    0  0.15564845635E+03  0.15225270474E+03  0.18753381393E+04  0.18895859421E+04  0.78959280198E+02 0.  0.
         13    1    3    3    0    0 -0.43436889520E+02 -0.40891197996E+02  0.38931450772E+03  0.39385865404E+03  0.00000000000E+00 0.  1.
        -13    1    3    3    0    0 -0.23857473509E+03 -0.24649462722E+03  0.11852291047E+04  0.12338741978E+04  0.00000000000E+00 0. -1.
          2    1    4    4  502    0  0.16514978633E+03  0.12364912369E+03  0.71094202273E+02  0.21821535994E+03  0.00000000000E+00 0. -1.
          3    1    5    5  503    0  0.16333164145E+03  0.13396705218E+03  0.16749328467E+04  0.16882015393E+04  0.00000000000E+00 0. -1.
         -4    1    5    5    0  503 -0.76831851020E+01  0.18285652555E+02  0.20040529258E+03  0.20138440286E+03  0.00000000000E+00 0.  1.
         -1    1    4    4    0  502 -0.38786618071E+02  0.11483996790E+02  0.18147749944E+02  0.44335366827E+02  0.00000000000E+00 0.  1.
<mgrwt>
<rscale>  0 0.13274099E+04</rscale>
<asrwt>0</asrwt>
<pdfrwt beam="1">  1        2 0.56299939E+00 0.13274099E+04</pdfrwt>
<pdfrwt beam="2">  1       -2 0.18518912E-01 0.13274099E+04</pdfrwt>
<totfact> 0.15309484E+01</totfact>
</mgrwt>
</event>
<event>
11    1  0.2406360E-008  0.1334921E+04  0.7818608E-02  0.9002322E-01
         -1   -1    0    0    0  501 -0.00000000000E+00  0.00000000000E+00  0.11036807900E+04  0.11036807900E+04  0.00000000000E+00 0. -1.
          1   -1    0    0  501    0  0.00000000000E+00 -0.00000000000E+00 -0.40365261140E+03  0.40365261140E+03  0.00000000000E+00 0.  1.
         23    2    1    2    0    0 -0.28387304203E+01  0.29944562407E+03 -0.24667087215E+02  0.31572076588E+03  0.96929854267E+02 0.  0.
        254    2    1    2    0    0  0.28387304203E+01 -0.29944562407E+03  0.72469526581E+03  0.11916126355E+04  0.89726345333E+03 0.  0.
        -24    2    4    4    0    0  0.32913037889E+03  0.14698220888E+03  0.34710238334E+03  0.50679244852E+03  0.80174468000E+02 0.  0.
         13    1    3    3    0    0  0.38744743652E+01  0.28240471911E+03  0.31104081818E+01  0.28244842285E+03  0.00000000000E+00 0.  1.
        -13    1    3    3    0    0 -0.67132047854E+01  0.17040904959E+02 -0.27777495397E+02  0.33272343032E+02  0.00000000000E+00 0. -1.
          2    1    4    4  502    0 -0.29574797952E+03 -0.43039242871E+03  0.38591411700E+03  0.64933367061E+03  0.00000000000E+00 0. -1.
          3    1    5    5  503    0  0.72228438911E+02  0.17575862216E+02  0.11613307999E+03  0.13788673101E+03  0.00000000000E+00 0. -1.
         -4    1    5    5    0  503  0.25690193998E+03  0.12940634666E+03  0.23096930335E+03  0.36890571751E+03  0.00000000000E+00 0.  1.
         -1    1    4    4    0  502 -0.30543668948E+02 -0.16035404239E+02 -0.83212345343E+01  0.35486516398E+02  0.00000000000E+00 0.  1.
<mgrwt>
<rscale>  0 0.13349212E+04</rscale>
<asrwt>0</asrwt>
<pdfrwt beam="1">  1        1 0.62100402E-01 0.13349212E+04</pdfrwt>
<pdfrwt beam="2">  1       -1 0.16979704E+00 0.13349212E+04</pdfrwt>
<totfact> 0.14340608E+01</totfact>
</mgrwt>
</event>
<event>
11    1  0.2406360E-008  0.2542019E+04  0.7818608E-02  0.8388167E-01
          2   -1    0    0  501    0  0.00000000000E+00  0.00000000000E+00  0.19616142306E+04  0.19616142306E+04  0.00000000000E+00 0. -1.
         -2   -1    0    0    0  501 -0.00000000000E+00 -0.00000000000E+00 -0.82353835526E+03  0.82353835526E+03  0.00000000000E+00 0.  1.
         23    2    1    2    0    0  0.72244336357E+02 -0.79432541631E+02  0.17083665737E+04  0.17141937782E+04  0.91734323448E+02 0.  0.
        254    2    1    2    0    0 -0.72244336357E+02  0.79432541631E+02 -0.57029069839E+03  0.10709588077E+04  0.90010694602E+03 0.  0.
        -24    2    4    4    0    0  0.42498862220E+02  0.20139083770E+03 -0.72994276770E+03  0.76291161004E+03  0.82784405651E+02 0.  0.
         11    1    3    3    0    0  0.16605886895E+02 -0.74509144306E+02  0.12685194845E+04  0.12708143257E+04  0.00000000000E+00 0. -1.
        -11    1    3    3    0    0  0.55638449462E+02 -0.49233973258E+01  0.43984708926E+03  0.44337945242E+03  0.00000000000E+00 0.  1.
          2    1    4    4  502    0 -0.54772000162E+02  0.33291961196E+02  0.12139299630E+03  0.13727558499E+03  0.00000000000E+00 0. -1.
          3    1    5    5  503    0  0.20053495703E+02  0.17096265533E+02 -0.36324812995E+02  0.44876686867E+02  0.00000000000E+00 0. -1.
         -4    1    5    5    0  503  0.22445366517E+02  0.18429457217E+03 -0.69361795471E+03  0.71803492318E+03  0.00000000000E+00 0.  1.
         -1    1    4    4    0  502 -0.59971198415E+02 -0.15525025726E+03  0.38259073009E+02  0.17077161265E+03  0.00000000000E+00 0.  1.
<mgrwt>
<rscale>  0 0.25420185E+04</rscale>
<asrwt>0</asrwt>
<pdfrwt beam="1">  1        2 0.30178680E+00 0.25420185E+04</pdfrwt>
<pdfrwt beam="2">  1       -2 0.12669821E+00 0.25420185E+04</pdfrwt>
<totfact> 0.28910471E+00</totfact>
</mgrwt>
</event>
<event>
12    1  0.2406360E-008  0.1675452E+04  0.7818608E-02  0.8775490E-01
          1   -1    0    0  501    0  0.00000000000E+00  0.00000000000E+00  0.28499837076E+04  0.28499837076E+04  0.00000000000E+00 0. -1.
         -1   -1    0    0    0  501 -0.00000000000E+00 -0.00000000000E+00 -0.24624183491E+03  0.24624183491E+03  0.00000000000E+00 0.  1.
         23    2    1    2    0    0 -0.26956100580E+03 -0.52639195564E+03  0.91012617579E+03  0.10892428593E+04  0.91480729554E+02 0.  0.
        254    2    1    2    0    0  0.26956100580E+03  0.52639195564E+03  0.16936156969E+04  0.20069826832E+04  0.89994096202E+03 0.  0.
        -24    2    4    4    0    0  0.85452731958E+02  0.13811517724E+03  0.15255891387E+04  0.15361835886E+04  0.77844884884E+02 0.  0.
         24    2    4    4    0    0  0.18410827384E+03  0.38827677841E+03  0.16802655825E+03  0.47079909469E+03  0.93617039771E+02 0.  0.
         11    1    3    3    0    0 -0.60739098881E+02 -0.15521601263E+03  0.32846970581E+03  0.36833896935E+03  0.00000000000E+00 0.  1.
        -11    1    3    3    0    0 -0.20882190692E+03 -0.37117594301E+03  0.58165646998E+03  0.72090388995E+03  0.00000000000E+00 0. -1.
          2    1    6    6  502    0  0.17759859998E+03  0.28369967643E+03  0.13544478243E+03  0.36107071081E+03  0.00000000000E+00 0. -1.
          3    1    5    5  503    0  0.20457108834E+02  0.79115020262E+02  0.47907118023E+03  0.48599061253E+03  0.00000000000E+00 0. -1.
         -2    1    5    5    0  503  0.64995623123E+02  0.59000156974E+02  0.10465179584E+04  0.10501929760E+04  0.00000000000E+00 0.  1.
         -1    1    6    6    0  502  0.65096738606E+01  0.10457710198E+03  0.32581775820E+02  0.10972838388E+03  0.00000000000E+00 0.  1.
<mgrwt>
<rscale>  0 0.16754524E+04</rscale>
<asrwt>0</asrwt>
<pdfrwt beam="1">  1        1 0.43845901E+00 0.16754524E+04</pdfrwt>
<pdfrwt beam="2">  1       -1 0.37883361E-01 0.16754524E+04</pdfrwt>
<totfact> 0.49390436E+00</totfact>
</mgrwt>
</event>
<event>
11    1  0.2406360E-008  0.1655153E+04  0.7818608E-02  0.8787364E-01
          1   -1    0    0  501    0  0.00000000000E+00  0.00000000000E+00  0.31127840854E+03  0.31127840854E+03  0.00000000000E+00 0. -1.
         -1   -1    0    0    0  501 -0.00000000000E+00 -0.00000000000E+00 -0.22002247866E+04  0.22002247866E+04  0.00000000000E+00 0.  1.
         23    2    1    2    0    0  0.16336257689E+03  0.18376406921E+02 -0.15216603370E+04  0.15332685058E+04  0.91853719342E+02 0.  0.
        254    2    1    2    0    0 -0.16336257689E+03 -0.18376406921E+02 -0.36728604101E+03  0.97823468932E+03  0.89163840631E+03 0.  0.
        -24    2    4    4    0    0 -0.16072309489E+03 -0.68292411298E+02 -0.54589372978E+03  0.57845975747E+03  0.78230174046E+02 0.  0.
         11    1    3    3    0    0  0.30573479622E+02 -0.33827594576E+02 -0.35595394161E+03  0.35886244212E+03  0.00000000000E+00 0. -1.
        -11    1    3    3    0    0  0.13278909727E+03  0.52204001497E+02 -0.11657063954E+04  0.11744060637E+04  0.00000000000E+00 0.  1.
          4    1    4    4  502    0  0.11750544061E+03  0.74900981632E+02  0.22822934571E+03  0.26740665636E+03  0.00000000000E+00 0. -1.
          3    1    5    5  503    0 -0.10076530575E+03 -0.32338969876E+02 -0.20759951679E+03  0.23301719933E+03  0.00000000000E+00 0. -1.
         -4    1    5    5    0  503 -0.59957789137E+02 -0.35953441421E+02 -0.33829421299E+03  0.34544255814E+03  0.00000000000E+00 0.  1.
         -3    1    4    4    0  502 -0.12014492261E+03 -0.24984977256E+02 -0.49621656943E+02  0.13236827549E+03  0.00000000000E+00 0.  1.
<mgrwt>
<rscale>  0 0.16551525E+04</rscale>
<asrwt>0</asrwt>
<pdfrwt beam="1">  1        1 0.47888984E-01 0.16551525E+04</pdfrwt>
<pdfrwt beam="2">  1       -1 0.33849614E+00 0.16551525E+04</pdfrwt>
<totfact> 0.14818175E+00</totfact>
</mgrwt>
</event>
<event>
12    1  0.2406360E-008  0.2416748E+04  0.7818608E-02  0.8433260E-01
          2   -1    0    0  501    0  0.00000000000E+00  0.00000000000E+00  0.45774021257E+03  0.45774021257E+03  0.00000000000E+00 0. -1.
         -2   -1    0    0    0  501 -0.00000000000E+00 -0.00000000000E+00 -0.31899477860E+04  0.31899477860E+04  0.00000000000E+00 0.  1.
         23    2    1    2    0    0 -0.21149690200E+03 -0.81253452507E+03 -0.21010565339E+04  0.22644985604E+04  0.92584433661E+02 0.  0.
        254    2    1    2    0    0  0.21149690200E+03  0.81253452507E+03 -0.63115103954E+03  0.13831894382E+04  0.89995449508E+03 0.  0.
        -24    2    4    4    0    0  0.76934953698E+02  0.90934959830E+03 -0.72778821077E+03  0.11700562954E+04  0.80748842296E+02 0.  0.
         24    2    4    4    0    0  0.13456194830E+03 -0.96815073237E+02  0.96637171230E+02  0.21313314283E+03  0.92773473435E+02 0.  0.
         11    1    3    3    0    0 -0.13920692022E+03 -0.63897337069E+03 -0.17039125229E+04  0.18250981948E+04  0.00000000000E+00 0.  1.
        -11    1    3    3    0    0 -0.72289981782E+02 -0.17356115438E+03 -0.39714401107E+03  0.43940036561E+03  0.00000000000E+00 0. -1.
          2    1    6    6  502    0  0.46501424831E+02 -0.74267337322E+02  0.83952717429E+02  0.12135105549E+03  0.00000000000E+00 0. -1.
          3    1    5    5  503    0  0.65826638384E+02  0.89639077456E+03 -0.70999885983E+03  0.11454029632E+04  0.00000000000E+00 0. -1.
         -4    1    5    5    0  503  0.11108315314E+02  0.12958823744E+02 -0.17789350938E+02  0.24653332203E+02  0.00000000000E+00 0.  1.
         -1    1    6    6    0  502  0.88060523473E+02 -0.22547735914E+02  0.12684453801E+02  0.91782087345E+02  0.00000000000E+00 0.  1.
<mgrwt>
<rscale>  0 0.24167477E+04</rscale>
<asrwt>0</asrwt>
<pdfrwt beam="1">  1        2 0.70421568E-01 0.24167477E+04</pdfrwt>
<pdfrwt beam="2">  1       -2 0.49076122E+00 0.24167477E+04</pdfrwt>
<totfact> 0.11506331E-01</totfact>
</mgrwt>
</event>
<event>
11    1  0.2406360E-008  0.2119287E+04  0.7818608E-02  0.8552795E-01
         -1   -1    0    0    0  501 -0.00000000000E+00  0.00000000000E+00  0.91314014944E+03  0.91314014944E+03  0.00000000000E+00 0.  1.
          1   -1    0    0  501    0  0.00000000000E+00 -0.00000000000E+00 -0.12296511697E+04  0.12296511697E+04  0.00000000000E+00 0. -1.
         23    2    1    2    0    0 -0.82128927566E+03 -0.24586042927E+03 -0.95057741544E+01  0.86223552512E+03  0.91631414036E+02 0.  0.
        254    2    1    2    0    0  0.82128927566E+03  0.24586042927E+03 -0.30700524609E+03  0.12805557940E+04  0.90033743422E+03 0.  0.
        -24    2    4    4    0    0  0.59138935019E+03  0.44080841585E+03  0.98184533844E+02  0.74851733661E+03  0.81145409710E+02 0.  0.
         13    1    3    3    0    0 -0.76634083018E+03 -0.24968370756E+03  0.18671260070E+01  0.80599237464E+03  0.00000000000E+00 0. -1.
        -13    1    3    3    0    0 -0.54948445484E+02  0.38232782848E+01 -0.11372900161E+02  0.56243150481E+02  0.00000000000E+00 0.  1.
          4    1    4    4  502    0  0.23041059979E+03 -0.19904539967E+03 -0.30228376782E+03  0.42904963805E+03  0.00000000000E+00 0. -1.
          3    1    5    5  503    0  0.47034016874E+03  0.36355351852E+03  0.10951355392E+03  0.60447022562E+03  0.00000000000E+00 0. -1.
         -4    1    5    5    0  503  0.12104918144E+03  0.77254897331E+02 -0.11329020077E+02  0.14404711099E+03  0.00000000000E+00 0.  1.
         -3    1    4    4    0  502 -0.51067431757E+00  0.40974130903E+01 -0.10290601211E+03  0.10298881935E+03  0.00000000000E+00 0.  1.
<mgrwt>
<rscale>  0 0.21192865E+04</rscale>
<asrwt>0</asrwt>
<pdfrwt beam="1">  1        1 0.18917710E+00 0.21192865E+04</pdfrwt>
<pdfrwt beam="2">  1       -1 0.14048310E+00 0.21192865E+04</pdfrwt>
<totfact> 0.38776981E+00</totfact>
</mgrwt>
</event>
<event>
11    1  0.2406360E-008  0.1768682E+04  0.7818608E-02  0.8723134E-01
         -1   -1    0    0    0  501 -0.00000000000E+00  0.00000000000E+00  0.11275868730E+04  0.11275868730E+04  0.00000000000E+00 0.  1.
          1   -1    0    0  501    0  0.00000000000E+00 -0.00000000000E+00 -0.69356852576E+03  0.69356852576E+03  0.00000000000E+00 0. -1.
         23    2    1    2    0    0  0.18194006835E+02 -0.59760377520E+03  0.43155348579E+03  0.74315752479E+03  0.92646648768E+02 0.  0.
        254    2    1    2    0    0 -0.18194006835E+02  0.59760377520E+03  0.24648613992E+01  0.10779978739E+04  0.89700169823E+03 0.  0.
        -24    2    4    4    0    0 -0.20818273342E+03  0.13944503644E+03 -0.36519488430E+03  0.45007178045E+03  0.80077058894E+02 0.  0.
         11    1    3    3    0    0  0.34765090718E+02 -0.30549815291E+03  0.26856595103E+03  0.40824674281E+03  0.00000000000E+00 0. -1.
        -11    1    3    3    0    0 -0.16571083883E+02 -0.29210562229E+03  0.16298753476E+03  0.33491078197E+03  0.00000000000E+00 0.  1.
          4    1    4    4  502    0 -0.11133980928E+02  0.79196251397E+02  0.60473714285E+02  0.10026505815E+03  0.00000000000E+00 0. -1.
          3    1    5    5  503    0 -0.16810485763E+02 -0.10204077613E+02 -0.20907639143E+02  0.28702700327E+02  0.00000000000E+00 0. -1.
         -4    1    5    5    0  503 -0.19137224766E+03  0.14964911405E+03 -0.34428724515E+03  0.42136908012E+03  0.00000000000E+00 0.  1.
         -3    1    4    4    0  502  0.20112270751E+03  0.37896248737E+03  0.30718603141E+03  0.52766103533E+03  0.00000000000E+00 0.  1.
<mgrwt>
<rscale>  0 0.17686817E+04</rscale>
<asrwt>0</asrwt>
<pdfrwt beam="1">  1        1 0.10670285E+00 0.17686817E+04</pdfrwt>
<pdfrwt beam="2">  1       -1 0.17347490E+00 0.17686817E+04</pdfrwt>
<totfact> 0.60657064E+00</totfact>
</mgrwt>
</event>
<event>
12    1  0.2406360E-008  0.1882545E+04  0.7818608E-02  0.8663594E-01
         -2   -1    0    0    0  501 -0.00000000000E+00  0.00000000000E+00  0.41015952904E+03  0.41015952904E+03  0.00000000000E+00 0.  1.
          2   -1    0    0  501    0  0.00000000000E+00 -0.00000000000E+00 -0.21601207935E+04  0.21601207935E+04  0.00000000000E+00 0. -1.
         23    2    1    2    0    0 -0.14151090266E+03 -0.43667910984E+03  0.84381338079E+02  0.47548654199E+03  0.90847459287E+02 0.  0.
        254    2    1    2    0    0  0.14151090266E+03  0.43667910984E+03 -0.18343426026E+04  0.20947937806E+04  0.90146226711E+03 0.  0.
        -24    2    4    4    0    0  0.31474129117E+03 -0.11547271781E+03 -0.11143024301E+04  0.11663524116E+04  0.79448180289E+02 0.  0.
         24    2    4    4    0    0 -0.17323038851E+03  0.55215182765E+03 -0.72004017245E+03  0.92844136898E+03  0.93086612436E+02 0.  0.
         13    1    3    3    0    0 -0.30798515641E+02 -0.21091115801E+03  0.67016108781E+02  0.22343505539E+03  0.00000000000E+00 0. -1.
        -13    1    3    3    0    0 -0.11071238702E+03 -0.22576795183E+03  0.17365229298E+02  0.25205148660E+03  0.00000000000E+00 0.  1.
          2    1    6    6  502    0 -0.16850492700E+03  0.43166120766E+03 -0.53751001982E+03  0.70967762402E+03  0.00000000000E+00 0. -1.
          3    1    5    5  503    0  0.91817969051E+02 -0.72173659362E+02 -0.34488841333E+03  0.36412579446E+03  0.00000000000E+00 0. -1.
         -4    1    5    5    0  503  0.22292332212E+03 -0.43299058448E+02 -0.76941401681E+03  0.80222661715E+03  0.00000000000E+00 0.  1.
         -1    1    6    6    0  502 -0.47254615039E+01  0.12049061999E+03 -0.18253015263E+03  0.21876374496E+03  0.00000000000E+00 0.  1.
<mgrwt>
<rscale>  0 0.18825452E+04</rscale>
<asrwt>0</asrwt>
<pdfrwt beam="1">  1        2 0.33232628E+00 0.18825452E+04</pdfrwt>
<pdfrwt beam="2">  1       -2 0.63101465E-01 0.18825452E+04</pdfrwt>
<totfact> 0.11865445E+01</totfact>
</mgrwt>
</event>
<event>
12    1  0.2406360E-008  0.2201757E+04  0.7818608E-02  0.8517697E-01
         -1   -1    0    0    0  501 -0.00000000000E+00  0.00000000000E+00  0.16543268431E+04  0.16543268431E+04  0.00000000000E+00 0.  1.
          1   -1    0    0  501    0  0.00000000000E+00 -0.00000000000E+00 -0.73258423138E+03  0.73258423138E+03  0.00000000000E+00 0. -1.
         23    2    1    2    0    0 -0.81714388318E+03 -0.24294001082E+03  0.72515257075E+03  0.11239208554E+04  0.10299448309E+03 0.  0.
        254    2    1    2    0    0  0.81714388318E+03  0.24294001082E+03  0.19659004097E+03  0.12629902191E+04  0.91090761042E+03 0.  0.
        -24    2    4    4    0    0 -0.20360860375E+01  0.38370824862E+03  0.16557544922E+03  0.42526895490E+03  0.78754611990E+02 0.  0.
         24    2    4    4    0    0  0.81917996922E+03 -0.14076823780E+03  0.31014591746E+02  0.83772126423E+03  0.99717064197E+02 0.  0.
         11    1    3    3    0    0 -0.19092749940E+03 -0.63783989021E+02  0.11716841022E+03  0.23291660232E+03  0.00000000000E+00 0. -1.
        -11    1    3    3    0    0 -0.62621638378E+03 -0.17915602180E+03  0.60798416053E+03  0.89100425303E+03  0.00000000000E+00 0.  1.
          2    1    6    6  502    0  0.39372774778E+03 -0.17520015474E+02  0.20569161115E+02  0.39465374786E+03  0.00000000000E+00 0. -1.
          1    1    5    5  503    0 -0.28585594836E+02  0.16808586918E+03  0.43055409111E+02  0.17585153939E+03  0.00000000000E+00 0. -1.
         -4    1    5    5    0  503  0.26549508798E+02  0.21562237944E+03  0.12252004011E+03  0.24941741552E+03  0.00000000000E+00 0.  1.
         -1    1    6    6    0  502  0.42545222144E+03 -0.12324822233E+03  0.10445430631E+02  0.44306751637E+03  0.00000000000E+00 0.  1.
<mgrwt>
<rscale>  0 0.22017573E+04</rscale>
<asrwt>0</asrwt>
<pdfrwt beam="1">  1        1 0.11270527E+00 0.22017573E+04</pdfrwt>
<pdfrwt beam="2">  1       -1 0.25451182E+00 0.22017573E+04</pdfrwt>
<totfact> 0.15086788E+00</totfact>
</mgrwt>
</event>
<event>
11    1  0.2406360E-008  0.1542506E+04  0.7818608E-02  0.8856669E-01
          1   -1    0    0  501    0  0.00000000000E+00  0.00000000000E+00  0.19435086462E+04  0.19435086462E+04  0.00000000000E+00 0. -1.
         -1   -1    0    0    0  501 -0.00000000000E+00 -0.00000000000E+00 -0.30606039787E+03  0.30606039787E+03  0.00000000000E+00 0.  1.
         23    2    1    2    0    0  0.34300246682E+02 -0.49167804503E+03  0.72071852117E+03  0.87768958130E+03  0.89330887595E+02 0.  0.
        254    2    1    2    0    0 -0.34300246682E+02  0.49167804503E+03  0.91672972716E+03  0.13718794628E+04  0.89372034823E+03 0.  0.
        -24    2    4    4    0    0  0.28539585221E+02 -0.43159138134E+02  0.80196846865E+03  0.80720892847E+03  0.75865739055E+02 0.  0.
         11    1    3    3    0    0  0.98032726892E+01 -0.35642487600E+03  0.45059253328E+03  0.57460284322E+03  0.00000000000E+00 0. -1.
        -11    1    3    3    0    0  0.24496973992E+02 -0.13525316903E+03  0.27012598789E+03  0.30308673808E+03  0.00000000000E+00 0.  1.
          4    1    4    4  502    0 -0.85690925490E+02  0.44425148015E+03  0.60056177969E+02  0.45640887024E+03  0.00000000000E+00 0. -1.
          3    1    5    5  503    0  0.51861760064E+02 -0.38013511875E+02  0.67157136179E+03  0.67464269300E+03  0.00000000000E+00 0. -1.
         -4    1    5    5    0  503 -0.23322174842E+02 -0.51456262583E+01  0.13039710686E+03  0.13256623547E+03  0.00000000000E+00 0.  1.
         -3    1    4    4    0  502  0.22851093587E+02  0.90585703017E+02  0.54705080542E+02  0.10826166407E+03  0.00000000000E+00 0.  1.
<mgrwt>
<rscale>  0 0.15425058E+04</rscale>
<asrwt>0</asrwt>
<pdfrwt beam="1">  1        1 0.29900132E+00 0.15425058E+04</pdfrwt>
<pdfrwt beam="2">  1       -1 0.47086216E-01 0.15425058E+04</pdfrwt>
<totfact> 0.14120005E+01</totfact>
</mgrwt>
</event>
<event>
12    1  0.2406360E-008  0.1035559E+04  0.7818608E-02  0.9270382E-01
          2   -1    0    0  501    0  0.00000000000E+00  0.00000000000E+00  0.28677329481E+03  0.28677329481E+03  0.00000000000E+00 0.  1.
         -2   -1    0    0    0  501 -0.00000000000E+00 -0.00000000000E+00 -0.93486979719E+03  0.93486979719E+03  0.00000000000E+00 0. -1.
         23    2    1    2    0    0 -0.81768963462E+02  0.88221999978E+00 -0.16387971423E+02  0.11773206601E+03  0.83098327676E+02 0.  0.
        254    2    1    2    0    0  0.81768963462E+02 -0.88221999978E+00 -0.63170853096E+03  0.11039110260E+04  0.90159688525E+03 0.  0.
        -24    2    4    4    0    0  0.28801830398E+03 -0.51139129762E+02 -0.77966810198E+03  0.83656760572E+03  0.79957836830E+02 0.  0.
         24    2    4    4    0    0 -0.20624934051E+03  0.50256909762E+02  0.14795957103E+03  0.26734342026E+03  0.67200612026E+02 0.  0.
         13    1    3    3    0    0 -0.97036366356E+01  0.56348718135E+01  0.29909285333E+02  0.31944916550E+02  0.00000000000E+00 0.  1.
        -13    1    3    3    0    0 -0.72065326826E+02 -0.47526518138E+01 -0.46297256755E+02  0.85787149463E+02  0.00000000000E+00 0. -1.
          4    1    6    6  502    0 -0.86914850147E+02 -0.22525936818E+00  0.29508802563E+02  0.91787860562E+02  0.00000000000E+00 0. -1.
          1    1    5    5  503    0  0.33366779343E+02  0.17337600406E+02 -0.69466415021E+02  0.78990614427E+02  0.00000000000E+00 0. -1.
         -2    1    5    5    0  503  0.25465152463E+03 -0.68476730168E+02 -0.71020168696E+03  0.75757699129E+03  0.00000000000E+00 0.  1.
         -3    1    6    6    0  502 -0.11933449037E+03  0.50482169130E+02  0.11845076846E+03  0.17555555970E+03  0.00000000000E+00 0.  1.
<mgrwt>
<rscale>  0 0.10355592E+04</rscale>
<asrwt>0</asrwt>
<pdfrwt beam="1">  1        2 0.44118968E-01 0.10355592E+04</pdfrwt>
<pdfrwt beam="2">  1       -2 0.14382612E+00 0.10355592E+04</pdfrwt>
<totfact> 0.38476584E+01</totfact>
</mgrwt>
</event>
<event>
11    1  0.2406360E-008  0.1896424E+04  0.7818608E-02  0.8656639E-01
         -1   -1    0    0    0  501 -0.00000000000E+00  0.00000000000E+00  0.56130385600E+03  0.56130385600E+03  0.00000000000E+00 0.  1.
          1   -1    0    0  501    0  0.00000000000E+00 -0.00000000000E+00 -0.16018164875E+04  0.16018164875E+04  0.00000000000E+00 0. -1.
         23    2    1    2    0    0 -0.71360778732E+03  0.16766025845E+03 -0.44574642960E+03  0.86258408071E+03  0.89528656947E+02 0.  0.
        254    2    1    2    0    0  0.71360778732E+03 -0.16766025845E+03 -0.59476620195E+03  0.13005362628E+04  0.89459583028E+03 0.  0.
        -24    2    4    4    0    0  0.89778438162E+03 -0.56364153509E+02 -0.53213266401E+03  0.10483496040E+04  0.81719069850E+02 0.  0.
         11    1    3    3    0    0 -0.31353922914E+03  0.10083247685E+03 -0.15813177261E+03  0.36534872944E+03  0.00000000000E+00 0.  1.
        -11    1    3    3    0    0 -0.40006855818E+03  0.66827781596E+02 -0.28761465699E+03  0.49723535127E+03  0.00000000000E+00 0. -1.
          4    1    4    4  502    0 -0.13891519846E+03 -0.28651713730E+02 -0.69025992367E+02  0.15774327461E+03  0.00000000000E+00 0. -1.
          1    1    5    5  503    0  0.77696136951E+03 -0.76498018555E+02 -0.46368115839E+03  0.90803146047E+03  0.00000000000E+00 0. -1.
         -2    1    5    5    0  503  0.12082301211E+03  0.20133865046E+02 -0.68451505618E+02  0.14031814351E+03  0.00000000000E+00 0.  1.
         -3    1    4    4    0  502 -0.45261395843E+02 -0.82644391210E+02  0.63924544316E+01  0.94443384235E+02  0.00000000000E+00 0.  1.
<mgrwt>
<rscale>  0 0.18964238E+04</rscale>
<asrwt>0</asrwt>
<pdfrwt beam="1">  1        1 0.24643330E+00 0.18964238E+04</pdfrwt>
<pdfrwt beam="2">  1       -1 0.86354441E-01 0.18964238E+04</pdfrwt>
<totfact> 0.68877474E+00</totfact>
</mgrwt>
</event>
<event>
11    1  0.2406360E-008  0.1203151E+04  0.7818608E-02  0.9110103E-01
         -2   -1    0    0    0  501 -0.00000000000E+00  0.00000000000E+00  0.73169769817E+03  0.73169769817E+03  0.00000000000E+00 0.  1.
          2   -1    0    0  501    0  0.00000000000E+00 -0.00000000000E+00 -0.49459390544E+03  0.49459390544E+03  0.00000000000E+00 0. -1.
         23    2    1    2    0    0  0.18072624545E+03  0.13020647463E+03  0.18803030305E+03  0.30671150247E+03  0.95398370281E+02 0.  0.
        254    2    1    2    0    0 -0.18072624545E+03 -0.13020647463E+03  0.49073489670E+02  0.91958010113E+03  0.89084434846E+03 0.  0.
        -24    2    4    4    0    0 -0.91677134953E+02  0.34593633549E+03  0.13867979766E+03  0.39200152556E+03  0.79727438632E+02 0.  0.
         13    1    3    3    0    0  0.94580207285E+02  0.22277617568E+02  0.42395576304E+02  0.10601458742E+03  0.00000000000E+00 0. -1.
        -13    1    3    3    0    0  0.86146038166E+02  0.10792885706E+03  0.14563472675E+03  0.20069691506E+03  0.00000000000E+00 0.  1.
          2    1    4    4  502    0 -0.64735758896E+02 -0.43790074988E+03 -0.13564697934E+03  0.46297720055E+03  0.00000000000E+00 0. -1.
          3    1    5    5  503    0 -0.91871321384E+02  0.20319959484E+03  0.97956305429E+02  0.24356898983E+03  0.00000000000E+00 0. -1.
         -4    1    5    5    0  503  0.19418643082E+00  0.14273674066E+03  0.40723492233E+02  0.14843253572E+03  0.00000000000E+00 0.  1.
         -1    1    4    4    0  502 -0.24313351603E+02 -0.38242060239E+02  0.46040671345E+02  0.64601375027E+02  0.00000000000E+00 0.  1.
<mgrwt>
<rscale>  0 0.12031512E+04</rscale>
<asrwt>0</asrwt>
<pdfrwt beam="1">  1        2 0.76091370E-01 0.12031512E+04</pdfrwt>
<pdfrwt beam="2">  1       -2 0.11256888E+00 0.12031512E+04</pdfrwt>
<totfact> 0.38214898E+01</totfact>
</mgrwt>
</event>
<event>
12    1  0.2406360E-008  0.2319081E+04  0.7818608E-02  0.8470436E-01
         -1   -1    0    0    0  501 -0.00000000000E+00  0.00000000000E+00  0.11865883256E+04  0.11865883256E+04  0.00000000000E+00 0.  1.
          1   -1    0    0  501    0  0.00000000000E+00 -0.00000000000E+00 -0.11331090012E+04  0.11331090012E+04  0.00000000000E+00 0. -1.
         23    2    1    2    0    0 -0.79406773243E+03  0.55789656118E+03 -0.13082759289E+03  0.98350712580E+03  0.91532894504E+02 0.  0.
        254    2    1    2    0    0  0.79406773243E+03 -0.55789656118E+03  0.18430691726E+03  0.13361902010E+04  0.89980168746E+03 0.  0.
        -24    2    4    4    0    0  0.92560335092E+03 -0.40458961725E+03 -0.48817688941E+02  0.10142844404E+04  0.77171482224E+02 0.  0.
         24    2    4    4    0    0 -0.13153561849E+03 -0.15330694393E+03  0.23312460620E+03  0.32190576056E+03  0.92041287883E+02 0.  0.
         13    1    3    3    0    0 -0.54189745347E+03  0.36824389880E+03 -0.46074984045E+02  0.65679473448E+03  0.00000000000E+00 0.  1.
        -13    1    3    3    0    0 -0.25217027895E+03  0.18965266239E+03 -0.84752608847E+02  0.32671239132E+03  0.00000000000E+00 0. -1.
          4    1    6    6  502    0 -0.10578932940E+03 -0.16013766879E+03  0.18323164090E+03  0.26534748804E+03  0.00000000000E+00 0. -1.
          3    1    5    5  503    0  0.53591077849E+03 -0.19426104180E+03 -0.38556773997E+02  0.57133557537E+03  0.00000000000E+00 0. -1.
         -4    1    5    5    0  503  0.38969257243E+03 -0.21032857545E+03 -0.10260914944E+02  0.44294886503E+03  0.00000000000E+00 0.  1.
         -3    1    6    6    0  502 -0.25746289093E+02  0.68307248581E+01  0.49892965307E+02  0.56558272527E+02  0.00000000000E+00 0.  1.
<mgrwt>
<rscale>  0 0.23190808E+04</rscale>
<asrwt>0</asrwt>
<pdfrwt beam="1">  1        1 0.17432446E+00 0.23190808E+04</pdfrwt>
<pdfrwt beam="2">  1       -1 0.18255205E+00 0.23190808E+04</pdfrwt>
<totfact> 0.21560381E+00</totfact>
</mgrwt>
</event>
<event>
11    1  0.2406360E-008  0.1838028E+04  0.7818608E-02  0.8686334E-01
          1   -1    0    0  501    0  0.00000000000E+00  0.00000000000E+00  0.91279534665E+03  0.91279534665E+03  0.00000000000E+00 0. -1.
         -1   -1    0    0    0  501 -0.00000000000E+00 -0.00000000000E+00 -0.92527512789E+03  0.92527512789E+03  0.00000000000E+00 0.  1.
         23    2    1    2    0    0 -0.32020812951E+03  0.32601169592E+03  0.50367883264E+03  0.68594457735E+03  0.89502651689E+02 0.  0.
        254    2    1    2    0    0  0.32020812951E+03 -0.32601169592E+03 -0.51615861389E+03  0.11521258972E+04  0.92312377080E+03 0.  0.
        -24    2    4    4    0    0  0.17985709079E+03 -0.17726781962E+03  0.23374045563E+03  0.35438192201E+03  0.84731889319E+02 0.  0.
         13    1    3    3    0    0 -0.26533260741E+03  0.30701291028E+03  0.41915743017E+03  0.58339632403E+03  0.00000000000E+00 0. -1.
        -13    1    3    3    0    0 -0.54875522105E+02  0.18998785648E+02  0.84521402471E+02  0.10254825332E+03  0.00000000000E+00 0.  1.
          4    1    4    4  502    0  0.17490187503E+03 -0.83450326684E+02 -0.60199692500E+03  0.63241989265E+03  0.00000000000E+00 0. -1.
          3    1    5    5  503    0  0.15704923640E+03 -0.17584075142E+03  0.23306823064E+03  0.33151958110E+03  0.00000000000E+00 0. -1.
         -4    1    5    5    0  503  0.22807854394E+02 -0.14270681979E+01  0.67222498846E+00  0.22862340915E+02  0.00000000000E+00 0.  1.
         -3    1    4    4    0  502 -0.34550836309E+02 -0.65293549621E+02 -0.14790214452E+03  0.16532408253E+03  0.00000000000E+00 0.  1.
<mgrwt>
<rscale>  0 0.18380281E+04</rscale>
<asrwt>0</asrwt>
<pdfrwt beam="1">  1        1 0.14043005E+00 0.18380281E+04</pdfrwt>
<pdfrwt beam="2">  1       -1 0.14235002E+00 0.18380281E+04</pdfrwt>
<totfact> 0.67038254E+00</totfact>
</mgrwt>
</event>
<event>
12    1  0.2406360E-008  0.2309407E+04  0.7818608E-02  0.8474221E-01
         -2   -1    0    0    0  501 -0.00000000000E+00  0.00000000000E+00  0.60854009704E+03  0.60854009704E+03  0.00000000000E+00 0.  1.
          2   -1    0    0  501    0  0.00000000000E+00 -0.00000000000E+00 -0.21910473026E+04  0.21910473026E+04  0.00000000000E+00 0. -1.
         23    2    1    2    0    0 -0.31180992253E+03 -0.33325234569E+03  0.37398280920E+03  0.59755666226E+03  0.94489519704E+02 0.  0.
        254    2    1    2    0    0  0.31180992253E+03  0.33325234569E+03 -0.19564900147E+04  0.22020307373E+04  0.90155623052E+03 0.  0.
        -24    2    4    4    0    0  0.16257937070E+03  0.99671775618E+02 -0.18902164282E+04  0.19016486281E+04  0.83563416271E+02 0.  0.
         24    2    4    4    0    0  0.14923055183E+03  0.23358057007E+03 -0.66273586478E+02  0.30038210923E+03  0.94908287146E+02 0.  0.
         13    1    3    3    0    0 -0.45187167364E+02 -0.10776299575E+03  0.95926402382E+02  0.15118405346E+03  0.00000000000E+00 0. -1.
        -13    1    3    3    0    0 -0.26662275517E+03 -0.22548934994E+03  0.27805640682E+03  0.44637260879E+03  0.00000000000E+00 0.  1.
          2    1    6    6  502    0  0.10836983191E+03  0.10466340447E+03 -0.67616758514E+02  0.16513774473E+03  0.00000000000E+00 0. -1.
          3    1    5    5  503    0  0.53981637089E+02  0.68418848456E+02 -0.10920823131E+04  0.10955541678E+04  0.00000000000E+00 0. -1.
         -4    1    5    5    0  503  0.10859773361E+03  0.31252927162E+02 -0.79813411517E+03  0.80609446035E+03  0.00000000000E+00 0.  1.
         -1    1    6    6    0  502  0.40860719925E+02  0.12891716560E+03  0.13431720363E+01  0.13524436450E+03  0.00000000000E+00 0.  1.
<mgrwt>
<rscale>  0 0.23094070E+04</rscale>
<asrwt>0</asrwt>
<pdfrwt beam="1">  1        2 0.33708420E+00 0.23094070E+04</pdfrwt>
<pdfrwt beam="2">  1       -2 0.93621553E-01 0.23094070E+04</pdfrwt>
<totfact> 0.45633554E+00</totfact>
</mgrwt>
</event>
<event>
12    1  0.2406360E-008  0.1333853E+04  0.7818608E-02  0.9003142E-01
          2   -1    0    0  501    0  0.00000000000E+00  0.00000000000E+00  0.30785562827E+03  0.30785562827E+03  0.00000000000E+00 0. -1.
         -2   -1    0    0    0  501 -0.00000000000E+00 -0.00000000000E+00 -0.14448026758E+04  0.14448026758E+04  0.00000000000E+00 0.  1.
         23    2    1    2    0    0  0.26003773373E+03  0.18297596949E+03 -0.56569066165E+03  0.65520780977E+03  0.90507021465E+02 0.  0.
        254    2    1    2    0    0 -0.26003773373E+03 -0.18297596949E+03 -0.57125638592E+03  0.10974504943E+04  0.88145555799E+03 0.  0.
        -24    2    4    4    0    0 -0.55120231524E+02 -0.38030065074E+03  0.60182069998E+02  0.39701636723E+03  0.79581966664E+02 0.  0.
         24    2    4    4    0    0 -0.20491750220E+03  0.19732468126E+03 -0.63143845592E+03  0.70043412712E+03  0.10471499547E+03 0.  0.
         13    1    3    3    0    0  0.24327236714E+03  0.18520928606E+03 -0.55873227624E+03  0.63691889654E+03  0.00000000000E+00 0.  1.
        -13    1    3    3    0    0  0.16765366584E+02 -0.22333165704E+01 -0.69583854085E+01  0.18288913229E+02  0.00000000000E+00 0. -1.
          2    1    6    6  502    0 -0.56370597401E+02  0.12378811227E+03 -0.31796748136E+03  0.34583877775E+03  0.00000000000E+00 0. -1.
          3    1    5    5  503    0 -0.24424201818E+02 -0.31311331961E+03  0.71994126282E+02  0.32221056278E+03  0.00000000000E+00 0. -1.
         -4    1    5    5    0  503 -0.30696029706E+02 -0.67187331135E+02 -0.11812056283E+02  0.74805804443E+02  0.00000000000E+00 0.  1.
         -1    1    6    6    0  502 -0.14854690480E+03  0.73536568982E+02 -0.31347097456E+03  0.35459534937E+03  0.00000000000E+00 0.  1.
<mgrwt>
<rscale>  0 0.13338525E+04</rscale>
<asrwt>0</asrwt>
<pdfrwt beam="1">  1        2 0.47362404E-01 0.13338525E+04</pdfrwt>
<pdfrwt beam="2">  1       -2 0.22227734E+00 0.13338525E+04</pdfrwt>
<totfact> 0.99719791E+00</totfact>
</mgrwt>
</event>
<event>
11    1  0.2406360E-008  0.1804550E+04  0.7818608E-02  0.8703884E-01
         -2   -1    0    0    0  501 -0.00000000000E+00  0.00000000000E+00  0.29829924950E+03  0.29829924950E+03  0.00000000000E+00 0.  1.
          2   -1    0    0  501    0  0.00000000000E+00 -0.00000000000E+00 -0.27291388978E+04  0.27291388978E+04  0.00000000000E+00 0. -1.
         23    2    1    2    0    0  0.55942776041E+03 -0.27341010325E+03 -0.13667045854E+04  0.15046211405E+04  0.91054099630E+02 0.  0.
        254    2    1    2    0    0 -0.55942776041E+03  0.27341010325E+03 -0.10641350629E+04  0.15228170068E+04  0.89379846741E+03 0.  0.
        -24    2    4    4    0    0 -0.73117716691E+03  0.28301281266E+03 -0.10478409251E+04  0.13112093150E+04  0.81135454050E+02 0.  0.
         11    1    3    3    0    0  0.53813132955E+03 -0.28040194887E+03 -0.13220277436E+04  0.14546367023E+04  0.00000000000E+00 0. -1.
        -11    1    3    3    0    0  0.21296430864E+02  0.69918456199E+01 -0.44676841805E+02  0.49984438242E+02  0.00000000000E+00 0.  1.
          4    1    4    4  502    0  0.35659345887E+02  0.39180722842E+02  0.28629408526E+02  0.60219274523E+02  0.00000000000E+00 0. -1.
          1    1    5    5  503    0 -0.49132357139E+02  0.23067210671E+02 -0.11131835240E+03  0.12384611543E+03  0.00000000000E+00 0. -1.
         -2    1    5    5    0  503 -0.68204480977E+03  0.25994560199E+03 -0.93652257269E+03  0.11873631996E+04  0.00000000000E+00 0.  1.
         -3    1    4    4    0  502  0.13609006061E+03 -0.48783432257E+02 -0.44923546308E+02  0.15138841723E+03  0.00000000000E+00 0.  1.
<mgrwt>
<rscale>  0 0.18045499E+04</rscale>
<asrwt>0</asrwt>
<pdfrwt beam="1">  1        2 0.41986751E+00 0.18045499E+04</pdfrwt>
<pdfrwt beam="2">  1       -2 0.45892194E-01 0.18045499E+04</pdfrwt>
<totfact> 0.10863395E+01</totfact>
</mgrwt>
</event>
<event>
12    1  0.2406360E-008  0.2722799E+04  0.7818608E-02  0.8327645E-01
         -1   -1    0    0    0  501 -0.00000000000E+00  0.00000000000E+00  0.11039354854E+04  0.11039354854E+04  0.00000000000E+00 0.  1.
          1   -1    0    0  501    0  0.00000000000E+00 -0.00000000000E+00 -0.16789100341E+04  0.16789100341E+04  0.00000000000E+00 0. -1.
         23    2    1    2    0    0  0.38790737808E+02  0.10838811223E+04 -0.81726252270E+03  0.13612622525E+04  0.93882269560E+02 0.  0.
        254    2    1    2    0    0 -0.38790737808E+02 -0.10838811223E+04  0.24228797395E+03  0.14215832670E+04  0.88650578909E+03 0.  0.
        -24    2    4    4    0    0 -0.86830735512E+02  0.11325864007E+03  0.13791530136E+03  0.21414436912E+03  0.80436834194E+02 0.  0.
         24    2    4    4    0    0  0.48039997704E+02 -0.11971397623E+04  0.10437267259E+03  0.12074388979E+04  0.10753411237E+03 0.  0.
         11    1    3    3    0    0  0.45721089431E+02  0.30826985345E+03 -0.20406392780E+03  0.37250880150E+03  0.00000000000E+00 0. -1.
        -11    1    3    3    0    0 -0.69303516229E+01  0.77561126882E+03 -0.61319859489E+03  0.98875345100E+03  0.00000000000E+00 0.  1.
          2    1    6    6  502    0  0.80148431808E+00 -0.16785883856E+03 -0.22227672356E+02  0.16932602127E+03  0.00000000000E+00 0. -1.
          1    1    5    5  503    0 -0.27922501644E+02  0.79261671654E+02  0.35556289132E+02  0.91248717187E+02  0.00000000000E+00 0. -1.
         -2    1    5    5    0  503 -0.58908233868E+02  0.33996968420E+02  0.10235901223E+03  0.12289565193E+03  0.00000000000E+00 0.  1.
         -1    1    6    6    0  502  0.47238513385E+02 -0.10292809238E+04  0.12660034494E+03  0.10381128766E+04  0.00000000000E+00 0.  1.
<mgrwt>
<rscale>  0 0.27227988E+04</rscale>
<asrwt>0</asrwt>
<pdfrwt beam="1">  1        1 0.25829385E+00 0.27227988E+04</pdfrwt>
<pdfrwt beam="2">  1       -1 0.16983623E+00 0.27227988E+04</pdfrwt>
<totfact> 0.10594325E+00</totfact>
</mgrwt>
</event>
<event>
12    1  0.2406360E-008  0.3169211E+04  0.7818608E-02  0.8196996E-01
         -1   -1    0    0    0  501 -0.00000000000E+00  0.00000000000E+00  0.15516542018E+04  0.15516542018E+04  0.00000000000E+00 0.  1.
          1   -1    0    0  501    0  0.00000000000E+00 -0.00000000000E+00 -0.16182564221E+04  0.16182564221E+04  0.00000000000E+00 0. -1.
         23    2    1    2    0    0 -0.13277058252E+04 -0.40610954945E+03  0.40662295463E+03  0.14496010340E+04  0.90957166044E+02 0.  0.
        254    2    1    2    0    0  0.13277058252E+04  0.40610954945E+03 -0.47322517489E+03  0.17203095899E+04  0.89877432908E+03 0.  0.
        -24    2    4    4    0    0  0.87217334707E+03  0.64725995523E+03 -0.49496853877E+03  0.11961156380E+04  0.77890744987E+02 0.  0.
         24    2    4    4    0    0  0.45553247810E+03 -0.24115040577E+03  0.21743363881E+02  0.52419395188E+03  0.92968642634E+02 0.  0.
         13    1    3    3    0    0 -0.12195189206E+04 -0.34696026259E+03  0.36378138342E+03  0.13190696405E+04  0.00000000000E+00 0. -1.
        -13    1    3    3    0    0 -0.10818690454E+03 -0.59149286862E+02  0.42841571210E+02  0.13053139344E+03  0.00000000000E+00 0.  1.
          4    1    6    6  502    0  0.65813605222E+02 -0.38878034024E+02  0.36833210845E+02  0.84850560300E+02  0.00000000000E+00 0. -1.
          3    1    5    5  503    0  0.35515626962E+03  0.27332455042E+03 -0.16319002892E+03  0.47694158055E+03  0.00000000000E+00 0. -1.
         -4    1    5    5    0  503  0.51701707745E+03  0.37393540480E+03 -0.33177850984E+03  0.71917405747E+03  0.00000000000E+00 0.  1.
         -3    1    6    6    0  502  0.38971887287E+03 -0.20227237175E+03 -0.15089846965E+02  0.43934339158E+03  0.00000000000E+00 0.  1.
<mgrwt>
<rscale>  0 0.31692109E+04</rscale>
<asrwt>0</asrwt>
<pdfrwt beam="1">  1        1 0.24896253E+00 0.31692109E+04</pdfrwt>
<pdfrwt beam="2">  1       -1 0.23871603E+00 0.31692109E+04</pdfrwt>
<totfact> 0.37595288E-01</totfact>
</mgrwt>
</event>
<event>
12    1  0.2406360E-008  0.3069511E+04  0.7818608E-02  0.8224155E-01
          2   -1    0    0  501    0  0.00000000000E+00  0.00000000000E+00  0.78601868198E+03  0.78601868198E+03  0.00000000000E+00 0. -1.
         -2   -1    0    0    0  501 -0.00000000000E+00 -0.00000000000E+00 -0.29967160901E+04  0.29967160901E+04  0.00000000000E+00 0.  1.
         23    2    1    2    0    0 -0.16986305822E+03 -0.91453763385E+03  0.27948481344E+03  0.97616759746E+03  0.97769499885E+02 0.  0.
        254    2    1    2    0    0  0.16986305822E+03  0.91453763385E+03 -0.24901822215E+04  0.28065671746E+04  0.90032175737E+03 0.  0.
        -24    2    4    4    0    0  0.30394423735E+03  0.23808150849E+03 -0.26165567032E+03  0.47320010275E+03  0.79935870091E+02 0.  0.
         24    2    4    4    0    0 -0.13408117913E+03  0.67645612536E+03 -0.22285265512E+04  0.23333670718E+04  0.51967782275E+02 0.  0.
         13    1    3    3    0    0 -0.99948347036E+02 -0.57725681748E+03  0.22433973169E+03  0.62733039191E+03  0.00000000000E+00 0. -1.
        -13    1    3    3    0    0 -0.69914711184E+02 -0.33728081638E+03  0.55145081747E+02  0.34883720555E+03  0.00000000000E+00 0.  1.
          4    1    6    6  502    0 -0.80260724871E+02  0.51871502141E+03 -0.16850790438E+04  0.17649358178E+04  0.00000000000E+00 0. -1.
          1    1    5    5  503    0  0.23457831526E+03  0.14886756807E+03 -0.15670487503E+03  0.31897485273E+03  0.00000000000E+00 0. -1.
         -2    1    5    5    0  503  0.69365922089E+02  0.89213940418E+02 -0.10495079529E+03  0.15422525002E+03  0.00000000000E+00 0.  1.
         -3    1    6    6    0  502 -0.53820454257E+02  0.15774110396E+03 -0.54344750746E+03  0.56843125401E+03  0.00000000000E+00 0.  1.
<mgrwt>
<rscale>  0 0.30695113E+04</rscale>
<asrwt>0</asrwt>
<pdfrwt beam="1">  1        2 0.12092595E+00 0.30695113E+04</pdfrwt>
<pdfrwt beam="2">  1       -2 0.46103324E+00 0.30695113E+04</pdfrwt>
<totfact> 0.87948617E-02</totfact>
</mgrwt>
</event>
<event>
11    1  0.2406360E-008  0.1232980E+04  0.7818608E-02  0.9084469E-01
         -2   -1    0    0    0  501 -0.00000000000E+00  0.00000000000E+00  0.15652967736E+03  0.15652967736E+03  0.00000000000E+00 0.  1.
          2   -1    0    0  501    0  0.00000000000E+00 -0.00000000000E+00 -0.24280361226E+04  0.24280361226E+04  0.00000000000E+00 0. -1.
         23    2    1    2    0    0 -0.24181210266E+03 -0.15438217653E+02 -0.70592242582E+03  0.75194190481E+03  0.91535377768E+02 0.  0.
        254    2    1    2    0    0  0.24181210266E+03  0.15438217653E+02 -0.15655840195E+04  0.18326238952E+04  0.92127389393E+03 0.  0.
        -24    2    4    4    0    0  0.11953912786E+02 -0.42022553249E+03 -0.88456985733E+03  0.98267358947E+03  0.80319093302E+02 0.  0.
         11    1    3    3    0    0 -0.16052213404E+03 -0.19323842804E+02 -0.57915360211E+03  0.60129831303E+03  0.00000000000E+00 0. -1.
        -11    1    3    3    0    0 -0.81289968612E+02  0.38856251511E+01 -0.12676882371E+03  0.15064359178E+03  0.00000000000E+00 0.  1.
          2    1    4    4  502    0  0.20959669012E+03  0.27234043818E+03 -0.44601340883E+03  0.56305243773E+03  0.00000000000E+00 0. -1.
          3    1    5    5  503    0 -0.10785071713E+02 -0.29084262582E+03 -0.53169246401E+03  0.60613746547E+03  0.00000000000E+00 0. -1.
         -4    1    5    5    0  503  0.22738984500E+02 -0.12938290667E+03 -0.35287739332E+03  0.37653612400E+03  0.00000000000E+00 0.  1.
         -1    1    4    4    0  502  0.20261499747E+02  0.16332331196E+03 -0.23500075329E+03  0.28689786798E+03  0.00000000000E+00 0.  1.
<mgrwt>
<rscale>  0 0.12329797E+04</rscale>
<asrwt>0</asrwt>
<pdfrwt beam="1">  1        2 0.37354401E+00 0.12329797E+04</pdfrwt>
<pdfrwt beam="2">  1       -2 0.24081489E-01 0.12329797E+04</pdfrwt>
<totfact> 0.58193052E+01</totfact>
</mgrwt>
</event>
<event>
12    1  0.2406360E-008  0.1909538E+04  0.7818608E-02  0.8650123E-01
          3   -1    0    0  501    0  0.00000000000E+00  0.00000000000E+00  0.10131166475E+04  0.10131166475E+04  0.00000000000E+00 0. -1.
         -3   -1    0    0    0  501 -0.00000000000E+00 -0.00000000000E+00 -0.89978145820E+03  0.89978145820E+03  0.00000000000E+00 0.  1.
         23    2    1    2    0    0 -0.15660673975E+03  0.49723695522E+03 -0.48055568462E+03  0.71499925196E+03  0.92303324545E+02 0.  0.
        254    2    1    2    0    0  0.15660673975E+03 -0.49723695522E+03  0.59389087391E+03  0.11978988537E+04  0.90026942250E+03 0.  0.
        -24    2    4    4    0    0  0.17637447546E+03 -0.61687935825E+03  0.74228036034E+03  0.98439301624E+03  0.80008617368E+02 0.  0.
         24    2    4    4    0    0 -0.19767735703E+02  0.11964240303E+03 -0.14838948643E+03  0.21350583749E+03  0.94128821207E+02 0.  0.
         11    1    3    3    0    0 -0.86171141926E+02  0.36135160957E+03 -0.29436122333E+03  0.47397149834E+03  0.00000000000E+00 0.  1.
        -11    1    3    3    0    0 -0.70435597826E+02  0.13588534565E+03 -0.18619446128E+03  0.24102775362E+03  0.00000000000E+00 0. -1.
          2    1    6    6  502    0 -0.14002358706E+02 -0.10610637181E+02 -0.40955313303E+02  0.44564440515E+02  0.00000000000E+00 0. -1.
          1    1    5    5  503    0  0.30319367608E+02 -0.34019456986E+02  0.57237121318E+02  0.73161981674E+02  0.00000000000E+00 0. -1.
         -2    1    5    5    0  503  0.14605510785E+03 -0.58285990126E+03  0.68504323903E+03  0.91123103457E+03  0.00000000000E+00 0.  1.
         -1    1    6    6    0  502 -0.57653769972E+01  0.13025304021E+03 -0.10743417313E+03  0.16894139698E+03  0.00000000000E+00 0.  1.
<mgrwt>
<rscale>  0 0.19095377E+04</rscale>
<asrwt>0</asrwt>
<pdfrwt beam="1">  1        3 0.15586410E+00 0.19095377E+04</pdfrwt>
<pdfrwt beam="2">  1       -3 0.13842792E+00 0.19095377E+04</pdfrwt>
<totfact> 0.28394357E-01</totfact>
</mgrwt>
</event>
<event>
12    1  0.2406360E-008  0.1502429E+04  0.7818608E-02  0.8882839E-01
         -2   -1    0    0    0  501 -0.00000000000E+00  0.00000000000E+00  0.15085455244E+03  0.15085455244E+03  0.00000000000E+00 0.  1.
          2   -1    0    0  501    0  0.00000000000E+00 -0.00000000000E+00 -0.37408425793E+04  0.37408425793E+04  0.00000000000E+00 0. -1.
         23    2    1    2    0    0 -0.17411646627E+03 -0.11422765295E+03 -0.22367843428E+04  0.22482453955E+04  0.89658584948E+02 0.  0.
        254    2    1    2    0    0  0.17411646627E+03  0.11422765295E+03 -0.13532036841E+04  0.16434517362E+04  0.90907034831E+03 0.  0.
        -24    2    4    4    0    0 -0.13133547306E+03 -0.16575714135E+03  0.72271864274E+00  0.22588278746E+03  0.79360411758E+02 0.  0.
         24    2    4    4    0    0  0.30545193933E+03  0.27998479430E+03 -0.13539264027E+04  0.14175689488E+04  0.68502906786E+02 0.  0.
         13    1    3    3    0    0 -0.95324111772E+01  0.14083254832E+02 -0.12006100348E+03  0.12125943050E+03  0.00000000000E+00 0.  1.
        -13    1    3    3    0    0 -0.16458405509E+03 -0.12831090778E+03 -0.21167233393E+04  0.21269859650E+04  0.00000000000E+00 0. -1.
          2    1    6    6  502    0  0.65460483923E+02  0.31363120721E+02 -0.18851987985E+03  0.20201105266E+03  0.00000000000E+00 0. -1.
          1    1    5    5  503    0 -0.65616972158E+02 -0.41412027118E+02 -0.27714255611E+02  0.82393100374E+02  0.00000000000E+00 0. -1.
         -2    1    5    5    0  503 -0.65718500904E+02 -0.12434511424E+03  0.28436974253E+02  0.14348968709E+03  0.00000000000E+00 0.  1.
         -1    1    6    6    0  502  0.23999145541E+03  0.24862167358E+03 -0.11654065229E+04  0.12155578961E+04  0.00000000000E+00 0.  1.
<mgrwt>
<rscale>  0 0.15024289E+04</rscale>
<asrwt>0</asrwt>
<pdfrwt beam="1">  1        2 0.57551429E+00 0.15024289E+04</pdfrwt>
<pdfrwt beam="2">  1       -2 0.23208391E-01 0.15024289E+04</pdfrwt>
<totfact> 0.87870578E+00</totfact>
</mgrwt>
</event>
<event>
11    1  0.2406360E-008  0.1811062E+04  0.7818608E-02  0.8700439E-01
          1   -1    0    0  501    0  0.00000000000E+00  0.00000000000E+00  0.10566838694E+04  0.10566838694E+04  0.00000000000E+00 0. -1.
         -1   -1    0    0    0  501 -0.00000000000E+00 -0.00000000000E+00 -0.77599932536E+03  0.77599932536E+03  0.00000000000E+00 0.  1.
         23    2    1    2    0    0 -0.40240813772E+03 -0.54462407159E+03  0.16674342268E+03  0.70520892333E+03  0.10473093092E+03 0.  0.
        254    2    1    2    0    0  0.40240813772E+03  0.54462407159E+03  0.11394112137E+03  0.11274742714E+04  0.89424155851E+03 0.  0.
        -24    2    4    4    0    0  0.49119918046E+03  0.72058680698E+03  0.15115184209E+03  0.88870210570E+03  0.80140951108E+02 0.  0.
         11    1    3    3    0    0 -0.35995261204E+03 -0.42004802668E+03  0.14439306570E+03  0.57171285192E+03  0.00000000000E+00 0. -1.
        -11    1    3    3    0    0 -0.42455525677E+02 -0.12457604490E+03  0.22350356982E+02  0.13349607141E+03  0.00000000000E+00 0.  1.
          2    1    4    4  502    0 -0.95917022169E+02 -0.18162880681E+03 -0.60204794133E+02  0.21404138815E+03  0.00000000000E+00 0. -1.
          1    1    5    5  503    0  0.19048737812E+03  0.35023826062E+03  0.67154703519E+02  0.40430438364E+03  0.00000000000E+00 0. -1.
         -2    1    5    5    0  503  0.30071180233E+03  0.37034854635E+03  0.83997138568E+02  0.48439772206E+03  0.00000000000E+00 0.  1.
         -1    1    4    4    0  502  0.71259794255E+01  0.56660714151E+01  0.22994073411E+02  0.24730777588E+02  0.00000000000E+00 0.  1.
<mgrwt>
<rscale>  0 0.18110615E+04</rscale>
<asrwt>0</asrwt>
<pdfrwt beam="1">  1        1 0.16256675E+00 0.18110615E+04</pdfrwt>
<pdfrwt beam="2">  1       -1 0.11938451E+00 0.18110615E+04</pdfrwt>
<totfact> 0.80846696E+00</totfact>
</mgrwt>
</event>
<event>
11    1  0.2406360E-008  0.1979366E+04  0.7818608E-02  0.8616329E-01
          1   -1    0    0  501    0  0.00000000000E+00  0.00000000000E+00  0.85717864891E+03  0.85717864891E+03  0.00000000000E+00 0. -1.
         -1   -1    0    0    0  501 -0.00000000000E+00 -0.00000000000E+00 -0.11426702418E+04  0.11426702418E+04  0.00000000000E+00 0.  1.
         23    2    1    2    0    0  0.40837050150E+03 -0.32507235217E+03 -0.68963842904E+03  0.86964623824E+03  0.90801521110E+02 0.  0.
        254    2    1    2    0    0 -0.40837050150E+03  0.32507235217E+03  0.40414683617E+03  0.11302026524E+04  0.91737934889E+03 0.  0.
        -24    2    4    4    0    0 -0.14463973651E+02 -0.28293114191E+03  0.17675736769E+02  0.29471061531E+03  0.79263342794E+02 0.  0.
         11    1    3    3    0    0  0.32792513557E+03 -0.21141047743E+03 -0.49350508842E+03  0.62910774658E+03  0.00000000000E+00 0.  1.
        -11    1    3    3    0    0  0.80445365931E+02 -0.11366187474E+03 -0.19613334062E+03  0.24053849166E+03  0.00000000000E+00 0. -1.
          2    1    4    4  502    0 -0.23321699325E+03  0.41918373905E+03  0.32691923965E+03  0.58050095803E+03  0.00000000000E+00 0. -1.
          3    1    5    5  503    0 -0.11618901706E+02 -0.24834661040E+03  0.42258630696E+02  0.25218411854E+03  0.00000000000E+00 0. -1.
         -4    1    5    5    0  503 -0.28450719450E+01 -0.34584531510E+02 -0.24582893927E+02  0.42526496775E+02  0.00000000000E+00 0.  1.
         -1    1    4    4    0  502 -0.16068953460E+03  0.18881975503E+03  0.59551859757E+02  0.25499107910E+03  0.00000000000E+00 0.  1.
<mgrwt>
<rscale>  0 0.19793661E+04</rscale>
<asrwt>0</asrwt>
<pdfrwt beam="1">  1        1 0.13187364E+00 0.19793661E+04</pdfrwt>
<pdfrwt beam="2">  1       -1 0.17579542E+00 0.19793661E+04</pdfrwt>
<totfact> 0.40964289E+00</totfact>
</mgrwt>
</event>
<event>
12    1  0.4520069E-008  0.1206947E+04  0.7818608E-02  0.9106797E-01
          1   -1    0    0  501    0  0.00000000000E+00  0.00000000000E+00  0.12991129970E+04  0.12991129970E+04  0.00000000000E+00 0. -1.
         -1   -1    0    0    0  501 -0.00000000000E+00 -0.00000000000E+00 -0.28033001283E+03  0.28033001283E+03  0.00000000000E+00 0.  1.
         23    2    1    2    0    0 -0.13615248500E+03  0.82412382408E+02  0.62683146037E+03  0.65314364221E+03  0.91376351995E+02 0.  0.
        254    2    1    2    0    0  0.13615248500E+03 -0.82412382408E+02  0.39195152376E+03  0.92629936758E+03  0.82406020499E+03 0.  0.
        -24    2    4    4    0    0 -0.43654181266E+02  0.31687343996E+03  0.34237151467E+03  0.47547591563E+03  0.80898873860E+02 0.  0.
         24    2    4    4    0    0  0.17980666627E+03 -0.39928582236E+03  0.49580009082E+02  0.45082345195E+03  0.94994749062E+02 0.  0.
         11    1    3    3    0    0 -0.10255189145E+03  0.88232307686E+02  0.36806432612E+03  0.39213923384E+03  0.00000000000E+00 0. -1.
        -11    1    3    3    0    0 -0.33600593550E+02 -0.58199252779E+01  0.25876713425E+03  0.26100440836E+03  0.00000000000E+00 0.  1.
          2    1    6    6  502    0  0.15197854566E+03 -0.37221664960E+03  0.20963484013E+02  0.40259431223E+03  0.00000000000E+00 0. -1.
          1    1    5    5  503    0 -0.67192674854E+01  0.22828710348E+03  0.27858230128E+03  0.36023360303E+03  0.00000000000E+00 0. -1.
         -2    1    5    5    0  503 -0.36934913781E+02  0.88586336479E+02  0.63789213398E+02  0.11524231260E+03  0.00000000000E+00 0.  1.
         -1    1    6    6    0  502  0.27828120607E+02 -0.27069172769E+02  0.28616525069E+02  0.48229139718E+02  0.00000000000E+00 0.  1.
<mgrwt>
<rscale>  0 0.12069472E+04</rscale>
<asrwt>0</asrwt>
<pdfrwt beam="1">  1        1 0.19986353E+00 0.12069472E+04</pdfrwt>
<pdfrwt beam="2">  1       -1 0.43127695E-01 0.12069472E+04</pdfrwt>
<totfact> 0.47485229E+01</totfact>
</mgrwt>
</event>
<event>
11    1  0.2406360E-008  0.1287060E+04  0.7818608E-02  0.9039890E-01
         -2   -1    0    0    0  501 -0.00000000000E+00  0.00000000000E+00  0.14027853403E+03  0.14027853403E+03  0.00000000000E+00 0.  1.
          2   -1    0    0  501    0  0.00000000000E+00 -0.00000000000E+00 -0.29522022336E+04  0.29522022336E+04  0.00000000000E+00 0. -1.
         23    2    1    2    0    0  0.65622634884E+02  0.16268943115E+03 -0.85477979770E+02  0.21538851278E+03  0.91167676258E+02 0.  0.
        254    2    1    2    0    0 -0.65622634884E+02 -0.16268943115E+03 -0.27264457198E+04  0.28770922549E+04  0.90187548959E+03 0.  0.
        -24    2    4    4    0    0  0.49931286860E+02  0.13275820586E+03 -0.49459244297E+02  0.16961286545E+03  0.78768221063E+02 0.  0.
         13    1    3    3    0    0  0.61974302874E+02  0.13527274283E+03 -0.27725494522E+02  0.15135465707E+03  0.00000000000E+00 0.  1.
        -13    1    3    3    0    0  0.36483320100E+01  0.27416688321E+02 -0.57752485248E+02  0.64033855712E+02  0.00000000000E+00 0. -1.
          2    1    4    4  502    0 -0.10918975201E+03 -0.12098923430E+03 -0.55797681263E+03  0.58129073637E+03  0.00000000000E+00 0. -1.
          1    1    5    5  503    0  0.29016061061E+02  0.14601979629E+01 -0.12422279292E+02  0.31597104304E+02  0.00000000000E+00 0. -1.
         -2    1    5    5    0  503  0.20915225799E+02  0.13129800790E+03 -0.37036965005E+02  0.13801576115E+03  0.00000000000E+00 0.  1.
         -1    1    4    4    0  502 -0.63641697385E+01 -0.17445840272E+03 -0.21190096629E+04  0.21261886531E+04  0.00000000000E+00 0.  1.
<mgrwt>
<rscale>  0 0.12870596E+04</rscale>
<asrwt>0</asrwt>
<pdfrwt beam="1">  1        2 0.45418494E+00 0.12870596E+04</pdfrwt>
<pdfrwt beam="2">  1       -2 0.21581314E-01 0.12870596E+04</pdfrwt>
<totfact> 0.34563127E+01</totfact>
</mgrwt>
</event>
<event>
12    1  0.2406360E-008  0.1429008E+04  0.7818608E-02  0.8933084E-01
          2   -1    0    0  501    0  0.00000000000E+00  0.00000000000E+00  0.18244948971E+04  0.18244948971E+04  0.00000000000E+00 0. -1.
         -2   -1    0    0    0  501 -0.00000000000E+00 -0.00000000000E+00 -0.27981231578E+03  0.27981231578E+03  0.00000000000E+00 0.  1.
         23    2    1    2    0    0  0.30488362364E+02  0.28049641140E+03  0.99548032531E+03  0.10387392160E+04  0.91598601141E+02 0.  0.
        254    2    1    2    0    0 -0.30488362364E+02 -0.28049641140E+03  0.54920225597E+03  0.10655679968E+04  0.86844934271E+03 0.  0.
        -24    2    4    4    0    0  0.59398489069E+02  0.28620444825E+03  0.33024460187E+03  0.44803125269E+03  0.78926165633E+02 0.  0.
         24    2    4    4    0    0 -0.89886851434E+02 -0.56670085965E+03  0.21895765410E+03  0.61753674414E+03  0.64650333943E+02 0.  0.
         13    1    3    3    0    0 -0.24131535321E+02  0.35767590726E+02  0.10225083831E+03  0.11098146458E+03  0.00000000000E+00 0.  1.
        -13    1    3    3    0    0  0.54619897686E+02  0.24472882067E+03  0.89322948699E+03  0.92775775142E+03  0.00000000000E+00 0. -1.
          4    1    6    6  502    0 -0.45904109046E+02 -0.34830696935E+03  0.16593585968E+03  0.38853525150E+03  0.00000000000E+00 0. -1.
          1    1    5    5  503    0 -0.18170705683E+02  0.88897568849E+02  0.10181794486E+03  0.13638125307E+03  0.00000000000E+00 0. -1.
         -2    1    5    5    0  503  0.77569194752E+02  0.19730687941E+03  0.22842665700E+03  0.31164999962E+03  0.00000000000E+00 0.  1.
         -3    1    6    6    0  502 -0.43982742388E+02 -0.21839389030E+03  0.53021794417E+02  0.22900149264E+03  0.00000000000E+00 0.  1.
<mgrwt>
<rscale>  0 0.14290082E+04</rscale>
<asrwt>0</asrwt>
<pdfrwt beam="1">  1        2 0.28069152E+00 0.14290082E+04</pdfrwt>
<pdfrwt beam="2">  1       -2 0.43048050E-01 0.14290082E+04</pdfrwt>
<totfact> 0.41560061E+01</totfact>
</mgrwt>
</event>
<event>
11    1  0.2406360E-008  0.3626460E+04  0.7818608E-02  0.8084457E-01
          2   -1    0    0  501    0  0.00000000000E+00  0.00000000000E+00  0.14510617974E+04  0.14510617974E+04  0.00000000000E+00 0. -1.
         -2   -1    0    0    0  501 -0.00000000000E+00 -0.00000000000E+00 -0.22657914149E+04  0.22657914149E+04  0.00000000000E+00 0.  1.
         23    2    1    2    0    0  0.40227614795E+03 -0.24924290183E+03  0.12749049224E+04  0.13628872351E+04  0.90171675923E+02 0.  0.
        254    2    1    2    0    0 -0.40227614795E+03  0.24924290183E+03 -0.20896345399E+04  0.23539659772E+04  0.97500522469E+03 0.  0.
        -24    2    4    4    0    0 -0.33584070061E+03  0.38699110531E+03 -0.20474293595E+04  0.21120781856E+04  0.79725704626E+02 0.  0.
         13    1    3    3    0    0  0.25783536150E+03 -0.15978163314E+03  0.93344751321E+03  0.98149554449E+03  0.00000000000E+00 0. -1.
        -13    1    3    3    0    0  0.14444078644E+03 -0.89461268683E+02  0.34145740921E+03  0.38139169063E+03  0.00000000000E+00 0.  1.
          2    1    4    4  502    0  0.50869414326E+02 -0.56147989176E+01  0.19448634697E+02  0.54749179650E+02  0.00000000000E+00 0. -1.
          3    1    5    5  503    0 -0.24204934235E+02  0.39491096463E+02 -0.29203784501E+03  0.29568822848E+03  0.00000000000E+00 0. -1.
         -4    1    5    5    0  503 -0.31163576638E+03  0.34750000885E+03 -0.17553915145E+04  0.18163899571E+04  0.00000000000E+00 0.  1.
         -1    1    4    4    0  502 -0.11730486166E+03 -0.13213340457E+03 -0.61653815045E+02  0.18713861195E+03  0.00000000000E+00 0.  1.
<mgrwt>
<rscale>  0 0.36264602E+04</rscale>
<asrwt>0</asrwt>
<pdfrwt beam="1">  1        2 0.22324028E+00 0.36264602E+04</pdfrwt>
<pdfrwt beam="2">  1       -2 0.34858329E+00 0.36264602E+04</pdfrwt>
<totfact> 0.17470027E-01</totfact>
</mgrwt>
</event>
<event>
11    1  0.2406360E-008  0.1591429E+04  0.7818608E-02  0.8825831E-01
          2   -1    0    0  501    0  0.00000000000E+00  0.00000000000E+00  0.64413212631E+03  0.64413212631E+03  0.00000000000E+00 0. -1.
         -2   -1    0    0    0  501 -0.00000000000E+00 -0.00000000000E+00 -0.98296791020E+03  0.98296791020E+03  0.00000000000E+00 0.  1.
         23    2    1    2    0    0 -0.27524304085E+03 -0.28732779037E+03 -0.48728102699E+03  0.63552730247E+03  0.90200677750E+02 0.  0.
        254    2    1    2    0    0  0.27524304085E+03  0.28732779037E+03  0.14844524310E+03  0.99157273404E+03  0.89602706769E+03 0.  0.
        -24    2    4    4    0    0  0.37305924943E+03  0.49954427270E+03 -0.94543902588E+02  0.63561987648E+03  0.79726996009E+02 0.  0.
         11    1    3    3    0    0 -0.20065848357E+03 -0.20834778921E+03 -0.41182269998E+03  0.50325993733E+03  0.00000000000E+00 0.  1.
        -11    1    3    3    0    0 -0.74584557279E+02 -0.78980001155E+02 -0.75458327010E+02  0.13226736514E+03  0.00000000000E+00 0. -1.
          2    1    4    4  502    0  0.22721594118E+02 -0.45160977385E+02  0.26365418665E+02  0.57016839784E+02  0.00000000000E+00 0. -1.
          3    1    5    5  503    0  0.11771833916E+03  0.21501513429E+03 -0.55439899727E+02  0.25132190081E+03  0.00000000000E+00 0. -1.
         -4    1    5    5    0  503  0.25534091028E+03  0.28452913841E+03 -0.39104002861E+02  0.38429797567E+03  0.00000000000E+00 0.  1.
         -1    1    4    4    0  502 -0.12053780270E+03 -0.16705550495E+03  0.21662372702E+03  0.29893601777E+03  0.00000000000E+00 0.  1.
<mgrwt>
<rscale>  0 0.15914286E+04</rscale>
<asrwt>0</asrwt>
<pdfrwt beam="1">  1        2 0.99097251E-01 0.15914286E+04</pdfrwt>
<pdfrwt beam="2">  1       -2 0.15122583E+00 0.15914286E+04</pdfrwt>
<totfact> 0.12784468E+01</totfact>
</mgrwt>
</event>
<event>
12    1  0.2406360E-008  0.1754412E+04  0.7818608E-02  0.8730925E-01
          3   -1    0    0  501    0  0.00000000000E+00  0.00000000000E+00  0.23449651483E+04  0.23449651483E+04  0.00000000000E+00 0. -1.
         -3   -1    0    0    0  501 -0.00000000000E+00 -0.00000000000E+00 -0.32814589797E+03  0.32814589797E+03  0.00000000000E+00 0.  1.
         23    2    1    2    0    0  0.20664467826E+03 -0.96015531930E+02 -0.16064335618E+03  0.29370711560E+03  0.92393595269E+02 0.  0.
        254    2    1    2    0    0 -0.20664467826E+03  0.96015531930E+02  0.21774626065E+04  0.23794039306E+04  0.93182544347E+03 0.  0.
        -24    2    4    4    0    0 -0.41884008218E+02  0.20355686589E+03  0.34805855819E+02  0.22528092960E+03  0.79689283133E+02 0.  0.
         24    2    4    4    0    0 -0.16476067004E+03 -0.10754133396E+03  0.21426567507E+04  0.21541230010E+04  0.10274597590E+03 0.  0.
         11    1    3    3    0    0  0.65520375314E+02 -0.73222326660E+02 -0.37983940444E+02  0.10534328851E+03  0.00000000000E+00 0.  1.
        -11    1    3    3    0    0  0.14112430295E+03 -0.22793205271E+02 -0.12265941573E+03  0.18836382709E+03  0.00000000000E+00 0. -1.
          2    1    6    6  502    0 -0.16710931039E+03 -0.85493283482E+02  0.15933079493E+04  0.16043269132E+04  0.00000000000E+00 0. -1.
          1    1    5    5  503    0  0.13092194239E+02  0.65704824877E+02 -0.15150979852E+02  0.68688294145E+02  0.00000000000E+00 0. -1.
         -2    1    5    5    0  503 -0.54976202457E+02  0.13785204101E+03  0.49956835671E+02  0.15659263545E+03  0.00000000000E+00 0.  1.
         -1    1    6    6    0  502  0.23486403464E+01 -0.22048050478E+02  0.54934880140E+03  0.54979608788E+03  0.00000000000E+00 0.  1.
<mgrwt>
<rscale>  0 0.17544124E+04</rscale>
<asrwt>0</asrwt>
<pdfrwt beam="1">  1        3 0.36076386E+00 0.17544124E+04</pdfrwt>
<pdfrwt beam="2">  1       -3 0.50483986E-01 0.17544124E+04</pdfrwt>
<totfact> 0.17480483E-01</totfact>
</mgrwt>
</event>
<event>
12    1  0.2406360E-008  0.1691564E+04  0.7818608E-02  0.8766191E-01
         -2   -1    0    0    0  501 -0.00000000000E+00  0.00000000000E+00  0.58171577606E+03  0.58171577606E+03  0.00000000000E+00 0. -1.
          2   -1    0    0  501    0  0.00000000000E+00 -0.00000000000E+00 -0.12297188803E+04  0.12297188803E+04  0.00000000000E+00 0.  1.
         23    2    1    2    0    0 -0.58550652143E+03 -0.46893778906E+02 -0.99378040379E+02  0.60346696195E+03  0.96329985526E+02 0.  0.
        254    2    1    2    0    0  0.58550652143E+03  0.46893778906E+02 -0.54862506385E+03  0.12079676944E+04  0.90176470151E+03 0.  0.
        -24    2    4    4    0    0  0.15222440239E+03 -0.40635950334E+03 -0.17572398394E+03  0.47536582120E+03  0.82422271263E+02 0.  0.
         24    2    4    4    0    0  0.43328211904E+03  0.45325328225E+03 -0.37290107991E+03  0.73260187320E+03  0.66920524928E+02 0.  0.
         11    1    3    3    0    0 -0.55361518363E+03 -0.26247535756E+02 -0.10762763786E+03  0.56459048266E+03  0.00000000000E+00 0. -1.
        -11    1    3    3    0    0 -0.31891337806E+02 -0.20646243151E+02  0.82495974842E+01  0.38876479289E+02  0.00000000000E+00 0.  1.
          4    1    6    6  502    0  0.35772021207E+03  0.35162544078E+03 -0.32232147783E+03  0.59623429605E+03  0.00000000000E+00 0. -1.
          3    1    5    5  503    0  0.54931734707E+01 -0.19696545368E+02  0.90951832067E+01  0.22379705355E+02  0.00000000000E+00 0. -1.
         -4    1    5    5    0  503  0.14673122892E+03 -0.38666295797E+03 -0.18481916714E+03  0.45298611585E+03  0.00000000000E+00 0.  1.
         -3    1    6    6    0  502  0.75561906976E+02  0.10162784147E+03 -0.50579602088E+02  0.13636757714E+03  0.00000000000E+00 0.  1.
<mgrwt>
<rscale>  0 0.16915636E+04</rscale>
<asrwt>0</asrwt>
<pdfrwt beam="1">  1        2 0.18918752E+00 0.16915636E+04</pdfrwt>
<pdfrwt beam="2">  1       -2 0.89494735E-01 0.16915636E+04</pdfrwt>
<totfact> 0.18539776E+01</totfact>
</mgrwt>
</event>
<event>
12    1  0.2406360E-008  0.2719839E+04  0.7818608E-02  0.8328597E-01
          2   -1    0    0  501    0  0.00000000000E+00  0.00000000000E+00  0.78087352980E+03  0.78087352980E+03  0.00000000000E+00 0. -1.
         -2   -1    0    0    0  501 -0.00000000000E+00 -0.00000000000E+00 -0.23683487062E+04  0.23683487062E+04  0.00000000000E+00 0.  1.
         23    2    1    2    0    0  0.75319047886E+03 -0.89122422358E+03 -0.10747183109E+04  0.15887963596E+04  0.87623686197E+02 0.  0.
        254    2    1    2    0    0 -0.75319047886E+03  0.89122422358E+03 -0.51275686547E+03  0.15604258764E+04  0.90024041143E+03 0.  0.
        -24    2    4    4    0    0 -0.79493225306E+03  0.34832850417E+03 -0.51655663079E+03  0.10131179040E+04  0.79543075155E+02 0.  0.
         24    2    4    4    0    0  0.41741774207E+02  0.54289571941E+03  0.37997653212E+01  0.54730797236E+03  0.55257945368E+02 0.  0.
         11    1    3    3    0    0  0.33028951756E+03 -0.38258446076E+03 -0.52440708047E+03  0.72833015939E+03  0.00000000000E+00 0.  1.
        -11    1    3    3    0    0  0.42290096129E+03 -0.50863976282E+03 -0.55031123044E+03  0.86046620023E+03  0.00000000000E+00 0. -1.
          2    1    6    6  502    0  0.51261182764E+02  0.51109173667E+03  0.88245121144E+01  0.51373178232E+03  0.00000000000E+00 0. -1.
          3    1    5    5  503    0 -0.76491960918E+03  0.32411248643E+03 -0.47738020136E+03  0.95814548426E+03  0.00000000000E+00 0. -1.
         -4    1    5    5    0  503 -0.30012643885E+02  0.24216017741E+02 -0.39176429432E+02  0.54972419732E+02  0.00000000000E+00 0.  1.
         -1    1    6    6    0  502 -0.95194085575E+01  0.31803982736E+02 -0.50247467933E+01  0.33576190039E+02  0.00000000000E+00 0.  1.
<mgrwt>
<rscale>  0 0.27198388E+04</rscale>
<asrwt>0</asrwt>
<pdfrwt beam="1">  1        2 0.12013439E+00 0.27198388E+04</pdfrwt>
<pdfrwt beam="2">  1       -2 0.36436134E+00 0.27198388E+04</pdfrwt>
<totfact> 0.39300894E-01</totfact>
</mgrwt>
</event>
<event>
11    1  0.2406360E-008  0.1285918E+04  0.7818608E-02  0.9040808E-01
          2   -1    0    0  501    0  0.00000000000E+00  0.00000000000E+00  0.26320890947E+04  0.26320890947E+04  0.00000000000E+00 0. -1.
         -2   -1    0    0    0  501 -0.00000000000E+00 -0.00000000000E+00 -0.15706002031E+03  0.15706002031E+03  0.00000000000E+00 0.  1.
         23    2    1    2    0    0 -0.72159415950E+01 -0.91887732898E+02  0.13028935824E+04  0.13093610521E+04  0.91647434428E+02 0.  0.
        254    2    1    2    0    0  0.72159415950E+01  0.91887732898E+02  0.11721354919E+04  0.14797880629E+04  0.89854085852E+03 0.  0.
        -24    2    4    4    0    0 -0.18213549269E+03 -0.32347344256E+03  0.77388619536E+03  0.86207808707E+03  0.80438666646E+02 0.  0.
         11    1    3    3    0    0 -0.31069272763E+02 -0.36387915121E+02  0.95966092993E+03  0.96085299631E+03  0.00000000000E+00 0. -1.
        -11    1    3    3    0    0  0.23853331168E+02 -0.55499817777E+02  0.34323265250E+03  0.34850805575E+03  0.00000000000E+00 0.  1.
          4    1    4    4  502    0  0.50878327841E+02  0.81606067481E+02  0.15400604163E+03  0.18156545749E+03  0.00000000000E+00 0. -1.
          1    1    5    5  503    0 -0.13264164480E+03 -0.21937878491E+03  0.44477652986E+03  0.51336830709E+03  0.00000000000E+00 0. -1.
         -2    1    5    5    0  503 -0.49493847889E+02 -0.10409465766E+03  0.32910966550E+03  0.34870977998E+03  0.00000000000E+00 0.  1.
         -3    1    4    4    0  502  0.13847310645E+03  0.33375510798E+03  0.24424325494E+03  0.43614451836E+03  0.00000000000E+00 0.  1.
<mgrwt>
<rscale>  0 0.12859175E+04</rscale>
<asrwt>0</asrwt>
<pdfrwt beam="1">  1        2 0.40493675E+00 0.12859175E+04</pdfrwt>
<pdfrwt beam="2">  1       -2 0.24163082E-01 0.12859175E+04</pdfrwt>
<totfact> 0.43903239E+01</totfact>
</mgrwt>
</event>
<event>
11    1  0.2406360E-008  0.1590889E+04  0.7818608E-02  0.8826165E-01
          2   -1    0    0  501    0  0.00000000000E+00  0.00000000000E+00  0.15535840641E+04  0.15535840641E+04  0.00000000000E+00 0. -1.
         -2   -1    0    0    0  501 -0.00000000000E+00 -0.00000000000E+00 -0.40727266252E+03  0.40727266252E+03  0.00000000000E+00 0.  1.
         23    2    1    2    0    0  0.23553142528E+03 -0.47436771614E+03  0.31252936233E+03  0.62163565645E+03  0.90865310460E+02 0.  0.
        254    2    1    2    0    0 -0.23553142528E+03  0.47436771614E+03  0.83378203923E+03  0.13392210702E+04  0.90433445328E+03 0.  0.
        -24    2    4    4    0    0 -0.34919749762E+03  0.37924325216E+03  0.97203909022E+03  0.11032666170E+04  0.81073414605E+02 0.  0.
         13    1    3    3    0    0  0.12665860528E+03 -0.25321617004E+03  0.21918980986E+03  0.35805726331E+03  0.00000000000E+00 0.  1.
        -13    1    3    3    0    0  0.10887282000E+03 -0.22115154610E+03  0.93339552469E+02  0.26357839315E+03  0.00000000000E+00 0. -1.
          2    1    4    4  502    0  0.97303317563E+02  0.17447599566E+02 -0.11817823087E+03  0.15407286780E+03  0.00000000000E+00 0. -1.
          3    1    5    5  503    0 -0.87504402736E+02  0.12765003579E+03  0.23047226826E+03  0.27761307349E+03  0.00000000000E+00 0. -1.
         -4    1    5    5    0  503 -0.26169309489E+03  0.25159321637E+03  0.74156682196E+03  0.82565354348E+03  0.00000000000E+00 0.  1.
         -1    1    4    4    0  502  0.16362754777E+02  0.77676864410E+02 -0.20078820116E+02  0.81881585389E+02  0.00000000000E+00 0.  1.
<mgrwt>
<rscale>  0 0.15908895E+04</rscale>
<asrwt>0</asrwt>
<pdfrwt beam="1">  1        2 0.23901293E+00 0.15908895E+04</pdfrwt>
<pdfrwt beam="2">  1       -2 0.62657333E-01 0.15908895E+04</pdfrwt>
<totfact> 0.26834525E+01</totfact>
</mgrwt>
</event>
<event>
12    1  0.2406360E-008  0.1356099E+04  0.7818608E-02  0.8986224E-01
         -1   -1    0    0    0  501 -0.00000000000E+00  0.00000000000E+00  0.73248022300E+03  0.73248022300E+03  0.00000000000E+00 0.  1.
          1   -1    0    0  501    0  0.00000000000E+00 -0.00000000000E+00 -0.62766363005E+03  0.62766363005E+03  0.00000000000E+00 0. -1.
         23    2    1    2    0    0 -0.25455260477E+03  0.30728794100E+03  0.11808078307E+03  0.42900423603E+03  0.10430079540E+03 0.  0.
        254    2    1    2    0    0  0.25455260477E+03 -0.30728794100E+03 -0.13264190109E+02  0.93113961702E+03  0.84120279385E+03 0.  0.
        -24    2    4    4    0    0  0.40174524999E+03 -0.37718997092E+03  0.25366765590E+03  0.61165356224E+03  0.78110693895E+02 0.  0.
         24    2    4    4    0    0 -0.14719264523E+03  0.69902029915E+02 -0.26693184601E+03  0.31948605478E+03  0.65320442377E+02 0.  0.
         11    1    3    3    0    0 -0.12958851139E+03  0.95504002413E+02  0.12722837148E+02  0.16148085753E+03  0.00000000000E+00 0. -1.
        -11    1    3    3    0    0 -0.12496409337E+03  0.21178393859E+03  0.10535794592E+03  0.26752337850E+03  0.00000000000E+00 0.  1.
          4    1    6    6  502    0 -0.12617962385E+03  0.79454707920E+02 -0.24909568905E+03  0.29031536368E+03  0.00000000000E+00 0. -1.
          1    1    5    5  503    0  0.36999455744E+03 -0.31179400126E+03  0.21855244653E+03  0.53092056245E+03  0.00000000000E+00 0. -1.
         -2    1    5    5    0  503  0.31750692555E+02 -0.65395969657E+02  0.35115209375E+02  0.80732999787E+02  0.00000000000E+00 0.  1.
         -3    1    6    6    0  502 -0.21013021372E+02 -0.95526780055E+01 -0.17836156960E+02  0.29170691102E+02  0.00000000000E+00 0.  1.
<mgrwt>
<rscale>  0 0.13560991E+04</rscale>
<asrwt>0</asrwt>
<pdfrwt beam="1">  1        1 0.96563636E-01 0.13560991E+04</pdfrwt>
<pdfrwt beam="2">  1       -1 0.11268926E+00 0.13560991E+04</pdfrwt>
<totfact> 0.22619291E+01</totfact>
</mgrwt>
</event>
<event>
12    1  0.2406360E-008  0.1708680E+04  0.7818608E-02  0.8756429E-01
          2   -1    0    0  501    0  0.00000000000E+00  0.00000000000E+00  0.34162674521E+04  0.34162674521E+04  0.00000000000E+00 0. -1.
         -2   -1    0    0    0  501 -0.00000000000E+00 -0.00000000000E+00 -0.21365339273E+03  0.21365339273E+03  0.00000000000E+00 0.  1.
         23    2    1    2    0    0 -0.40903169279E+03 -0.19388740399E+03  0.20089158147E+04  0.20614000276E+04  0.93424150204E+02 0.  0.
        254    2    1    2    0    0  0.40903169279E+03  0.19388740399E+03  0.11936982446E+04  0.15685208173E+04  0.91128634568E+03 0.  0.
        -24    2    4    4    0    0  0.72088656280E+01 -0.23902925137E+03  0.20492024547E+02  0.25160649692E+03  0.75491426466E+02 0.  0.
         24    2    4    4    0    0  0.40182282716E+03  0.43291665536E+03  0.11732062201E+04  0.13169143204E+04  0.94721050250E+02 0.  0.
         11    1    3    3    0    0 -0.41034495304E+03 -0.19738398383E+03  0.20047161279E+04  0.20557796991E+04  0.00000000000E+00 0. -1.
        -11    1    3    3    0    0  0.13132602567E+01  0.34965798404E+01  0.41996868031E+01  0.56203284892E+01  0.00000000000E+00 0.  1.
          2    1    6    6  502    0  0.38629737004E+03  0.39115322543E+03  0.10385768231E+04  0.11751035364E+04  0.00000000000E+00 0. -1.
          3    1    5    5  503    0 -0.26339939028E+02 -0.16848231054E+03  0.29178792607E+02  0.17300717699E+03  0.00000000000E+00 0. -1.
         -4    1    5    5    0  503  0.33548804656E+02 -0.70546940833E+02 -0.86867680605E+01  0.78599319933E+02  0.00000000000E+00 0.  1.
         -1    1    6    6    0  502  0.15525457119E+02  0.41763429928E+02  0.13462939704E+03  0.14181078396E+03  0.00000000000E+00 0.  1.
<mgrwt>
<rscale>  0 0.17086803E+04</rscale>
<asrwt>0</asrwt>
<pdfrwt beam="1">  1        2 0.52557957E+00 0.17086803E+04</pdfrwt>
<pdfrwt beam="2">  1       -2 0.32869755E-01 0.17086803E+04</pdfrwt>
<totfact> 0.76974267E+00</totfact>
</mgrwt>
</event>
<event>
12    1  0.2406360E-008  0.2240355E+04  0.7818608E-02  0.8501817E-01
         -2   -1    0    0    0  501 -0.00000000000E+00  0.00000000000E+00  0.32997432762E+03  0.32997432762E+03  0.00000000000E+00 0. -1.
          2   -1    0    0  501    0  0.00000000000E+00 -0.00000000000E+00 -0.38027128579E+04  0.38027128579E+04  0.00000000000E+00 0.  1.
         23    2    1    2    0    0 -0.13426112556E+03  0.18667561150E+02  0.25095490060E+03  0.29967140637E+03  0.91924218727E+02 0.  0.
        254    2    1    2    0    0  0.13426112556E+03 -0.18667561150E+02 -0.37236934308E+04  0.38330157791E+04  0.89874505191E+03 0.  0.
        -24    2    4    4    0    0 -0.34619171911E+03 -0.13488364075E+03 -0.11664616029E+04  0.12268421616E+04  0.80415889927E+02 0.  0.
         24    2    4    4    0    0  0.48045284466E+03  0.11621607960E+03 -0.25572318279E+04  0.26061736176E+04  0.91461412738E+02 0.  0.
         11    1    3    3    0    0 -0.29171501383E+00 -0.23068759582E+02  0.43093401456E+02  0.48880405229E+02  0.00000000000E+00 0.  1.
        -11    1    3    3    0    0 -0.13396941054E+03  0.41736320732E+02  0.20786149914E+03  0.25079100114E+03  0.00000000000E+00 0. -1.
          2    1    6    6  502    0  0.20775344599E+03  0.19917348918E+02 -0.12529648697E+04  0.12702279952E+04  0.00000000000E+00 0. -1.
          1    1    5    5  503    0 -0.18686834400E+03 -0.80163705947E+02 -0.76287627773E+03  0.78951010941E+03  0.00000000000E+00 0. -1.
         -2    1    5    5    0  503 -0.15932337510E+03 -0.54719934800E+02 -0.40358532519E+03  0.43733205214E+03  0.00000000000E+00 0.  1.
         -1    1    6    6    0  502  0.27269939867E+03  0.96298730679E+02 -0.13042669582E+04  0.13359456223E+04  0.00000000000E+00 0.  1.
<mgrwt>
<rscale>  0 0.22403550E+04</rscale>
<asrwt>0</asrwt>
<pdfrwt beam="1">  1        2 0.58503276E+00 0.22403550E+04</pdfrwt>
<pdfrwt beam="2">  1       -2 0.50765280E-01 0.22403550E+04</pdfrwt>
<totfact> 0.16418754E+00</totfact>
</mgrwt>
</event>
<event>
12    1  0.2406360E-008  0.1628801E+04  0.7818608E-02  0.8803047E-01
         -1   -1    0    0    0  501 -0.00000000000E+00  0.00000000000E+00  0.93681345304E+03  0.93681345304E+03  0.00000000000E+00 0.  1.
          1   -1    0    0  501    0  0.00000000000E+00 -0.00000000000E+00 -0.70798323592E+03  0.70798323592E+03  0.00000000000E+00 0. -1.
         23    2    1    2    0    0 -0.21187812122E+03 -0.42538136411E+03  0.40709677288E+03  0.63234626879E+03  0.91062494910E+02 0.  0.
        254    2    1    2    0    0  0.21187812122E+03  0.42538136411E+03 -0.17826655576E+03  0.10124504202E+04  0.87603381512E+03 0.  0.
        -24    2    4    4    0    0 -0.18646260360E+03  0.50821334261E+03 -0.23621341544E+03  0.59602027718E+03  0.79964298487E+02 0.  0.
         24    2    4    4    0    0  0.39834072481E+03 -0.82831978502E+02  0.57946859685E+02  0.41643014299E+03  0.67229128645E+02 0.  0.
         13    1    3    3    0    0 -0.18884873874E+03 -0.40405274174E+03  0.40221015122E+03  0.60057927867E+03  0.00000000000E+00 0.  1.
        -13    1    3    3    0    0 -0.23029382480E+02 -0.21328622371E+02  0.48866216603E+01  0.31766990114E+02  0.00000000000E+00 0. -1.
          4    1    6    6  502    0  0.56806082059E+02  0.97518152923E+01 -0.12561433740E+01  0.57650730755E+02  0.00000000000E+00 0. -1.
          3    1    5    5  503    0 -0.11326695453E+03  0.19453785120E+03 -0.97998358333E+02  0.24551589923E+03  0.00000000000E+00 0. -1.
         -4    1    5    5    0  503 -0.73195649061E+02  0.31367549141E+03 -0.13821505711E+03  0.35050437795E+03  0.00000000000E+00 0.  1.
         -3    1    6    6    0  502  0.34153464275E+03 -0.92583793794E+02  0.59203003059E+02  0.35877941224E+03  0.00000000000E+00 0.  1.
<mgrwt>
<rscale>  0 0.16288011E+04</rscale>
<asrwt>0</asrwt>
<pdfrwt beam="1">  1        1 0.10892050E+00 0.16288011E+04</pdfrwt>
<pdfrwt beam="2">  1       -1 0.14412515E+00 0.16288011E+04</pdfrwt>
<totfact> 0.99534300E+00</totfact>
</mgrwt>
</event>
<event>
11    1  0.2406360E-008  0.2469911E+04  0.7818608E-02  0.8413784E-01
          1   -1    0    0  501    0  0.00000000000E+00  0.00000000000E+00  0.19479431274E+04  0.19479431274E+04  0.00000000000E+00 0. -1.
         -1   -1    0    0    0  501 -0.00000000000E+00 -0.00000000000E+00 -0.78293599314E+03  0.78293599314E+03  0.00000000000E+00 0.  1.
         23    2    1    2    0    0  0.18150645052E+03  0.58537158089E+03 -0.46302853239E+03  0.77267667438E+03  0.83841171454E+02 0.  0.
        254    2    1    2    0    0 -0.18150645052E+03 -0.58537158089E+03  0.16280356666E+04  0.19582024462E+04  0.89913970493E+03 0.  0.
        -24    2    4    4    0    0 -0.48330946262E+02 -0.57619441795E+03  0.74528522275E+03  0.94651053255E+03  0.78078405062E+02 0.  0.
         13    1    3    3    0    0  0.41587748414E+02  0.17687853951E+03 -0.18387810615E+03  0.25850863908E+03  0.00000000000E+00 0. -1.
        -13    1    3    3    0    0  0.13991870210E+03  0.40849304138E+03 -0.27915042623E+03  0.51416803529E+03  0.00000000000E+00 0.  1.
          4    1    4    4  502    0 -0.21630795629E+03 -0.12480890761E+03  0.81795773510E+03  0.85523169480E+03  0.00000000000E+00 0. -1.
          1    1    5    5  503    0  0.18161965974E+02 -0.24430165340E+03  0.31408221708E+03  0.39832247482E+03  0.00000000000E+00 0. -1.
         -2    1    5    5    0  503 -0.66492912237E+02 -0.33189276454E+03  0.43120300568E+03  0.54818805773E+03  0.00000000000E+00 0.  1.
         -3    1    4    4    0  502  0.83132452033E+02  0.11563174467E+03  0.64792708783E+02  0.15646021880E+03  0.00000000000E+00 0.  1.
<mgrwt>
<rscale>  0 0.24699108E+04</rscale>
<asrwt>0</asrwt>
<pdfrwt beam="1">  1        1 0.29968356E+00 0.24699108E+04</pdfrwt>
<pdfrwt beam="2">  1       -1 0.12045169E+00 0.24699108E+04</pdfrwt>
<totfact> 0.17659022E+00</totfact>
</mgrwt>
</event>
<event>
12    1  0.2406360E-008  0.1340570E+04  0.7818608E-02  0.8997998E-01
         -1   -1    0    0    0  501 -0.00000000000E+00  0.00000000000E+00  0.38382090439E+03  0.38382090439E+03  0.00000000000E+00 0.  1.
          1   -1    0    0  501    0  0.00000000000E+00 -0.00000000000E+00 -0.11705502312E+04  0.11705502312E+04  0.00000000000E+00 0. -1.
         23    2    1    2    0    0  0.76769881499E+02  0.21197817766E+03  0.10771886518E+03  0.26697431450E+03  0.94040247638E+02 0.  0.
        254    2    1    2    0    0 -0.76769881499E+02 -0.21197817766E+03 -0.89444819202E+03  0.12873968211E+04  0.89806717139E+03 0.  0.
        -24    2    4    4    0    0 -0.12000194720E+03 -0.18579383613E+03 -0.10622945564E+04  0.10880179634E+04  0.79959660105E+02 0.  0.
         24    2    4    4    0    0  0.43232065696E+02 -0.26184341536E+02  0.16784636437E+03  0.19937885774E+03  0.94999450714E+02 0.  0.
         13    1    3    3    0    0  0.20035239501E+02  0.67062098550E+02  0.84344525958E+02  0.10960262288E+03  0.00000000000E+00 0.  1.
        -13    1    3    3    0    0  0.56734641999E+02  0.14491607911E+03  0.23374339225E+02  0.15737169162E+03  0.00000000000E+00 0. -1.
          4    1    6    6  502    0 -0.66915313640E+01 -0.44035542470E+02  0.35996449037E+02  0.57268227979E+02  0.00000000000E+00 0. -1.
          3    1    5    5  503    0 -0.47191928938E+02 -0.36333847464E+02 -0.43533635820E+03  0.43939159231E+03  0.00000000000E+00 0. -1.
         -4    1    5    5    0  503 -0.72810018257E+02 -0.14945998866E+03 -0.62695819820E+03  0.64862637108E+03  0.00000000000E+00 0.  1.
         -3    1    6    6    0  502  0.49923597060E+02  0.17851200933E+02  0.13184991533E+03  0.14211062976E+03  0.00000000000E+00 0.  1.
<mgrwt>
<rscale>  0 0.13405695E+04</rscale>
<asrwt>0</asrwt>
<pdfrwt beam="1">  1        1 0.18008465E+00 0.13405695E+04</pdfrwt>
<pdfrwt beam="2">  1       -1 0.59049369E-01 0.13405695E+04</pdfrwt>
<totfact> 0.31980754E+01</totfact>
</mgrwt>
</event>
<event>
12    1  0.2406360E-008  0.1526863E+04  0.7818608E-02  0.8866783E-01
         -2   -1    0    0    0  501 -0.00000000000E+00  0.00000000000E+00  0.44717049118E+03  0.44717049118E+03  0.00000000000E+00 0.  1.
          2   -1    0    0  501    0  0.00000000000E+00 -0.00000000000E+00 -0.13033682169E+04  0.13033682169E+04  0.00000000000E+00 0. -1.
         23    2    1    2    0    0  0.10915384717E+03 -0.35228369257E+03  0.59604038239E+02  0.38437460588E+03  0.90403727086E+02 0.  0.
        254    2    1    2    0    0 -0.10915384717E+03  0.35228369257E+03 -0.91580176396E+03  0.13661641022E+04  0.94429503909E+03 0.  0.
        -24    2    4    4    0    0 -0.36271611073E+03  0.23883431087E+02 -0.18066690805E+02  0.37257011775E+03  0.79678680111E+02 0.  0.
         24    2    4    4    0    0  0.25356226356E+03  0.32840026148E+03 -0.89773507315E+03  0.99359398444E+03  0.95708887304E+02 0.  0.
         11    1    3    3    0    0 -0.62697294162E+01 -0.11545855280E+03  0.28502129527E+02  0.11908970699E+03  0.00000000000E+00 0. -1.
        -11    1    3    3    0    0  0.11542357659E+03 -0.23682513977E+03  0.31101908711E+02  0.26528489890E+03  0.00000000000E+00 0.  1.
          2    1    6    6  502    0  0.12814776537E+02 -0.46693123899E+01 -0.44503579262E+02  0.46546638364E+02  0.00000000000E+00 0. -1.
          3    1    5    5  503    0 -0.39159054745E+02  0.17469402948E+02  0.18871768161E+02  0.46848214922E+02  0.00000000000E+00 0. -1.
         -2    1    5    5    0  503 -0.32355705598E+03  0.64140281389E+01 -0.36938458966E+02  0.32572190283E+03  0.00000000000E+00 0.  1.
         -1    1    6    6    0  502  0.24074748702E+03  0.33306957387E+03 -0.85323149389E+03  0.94704734608E+03  0.00000000000E+00 0.  1.
<mgrwt>
<rscale>  0 0.15268632E+04</rscale>
<asrwt>0</asrwt>
<pdfrwt beam="1">  1        2 0.20051819E+00 0.15268632E+04</pdfrwt>
<pdfrwt beam="2">  1       -2 0.68795460E-01 0.15268632E+04</pdfrwt>
<totfact> 0.30637321E+01</totfact>
</mgrwt>
</event>
<event>
12    1  0.2406360E-008  0.1826459E+04  0.7818608E-02  0.8692354E-01
         -2   -1    0    0    0  501 -0.00000000000E+00  0.00000000000E+00  0.58792967979E+03  0.58792967979E+03  0.00000000000E+00 0.  1.
          2   -1    0    0  501    0  0.00000000000E+00 -0.00000000000E+00 -0.14185171342E+04  0.14185171342E+04  0.00000000000E+00 0. -1.
         23    2    1    2    0    0  0.49264103940E+03 -0.29913598704E+03  0.10899466290E+03  0.59358446337E+03  0.91022778279E+02 0.  0.
        254    2    1    2    0    0 -0.49264103940E+03  0.29913598704E+03 -0.93958211733E+03  0.14128623506E+04  0.88384836607E+03 0.  0.
        -24    2    4    4    0    0 -0.21102111798E+03  0.50900138902E+03 -0.89420038360E+03  0.10533330883E+04  0.79397372288E+02 0.  0.
         24    2    4    4    0    0 -0.28161992142E+03 -0.20986540198E+03 -0.45381733731E+02  0.35952926229E+03  0.62036453764E+02 0.  0.
         13    1    3    3    0    0  0.13669456012E+03 -0.78920435991E+02 -0.10823982868E+02  0.15821187246E+03  0.00000000000E+00 0.  1.
        -13    1    3    3    0    0  0.35594647928E+03 -0.22021555105E+03  0.11981864577E+03  0.43537259090E+03  0.00000000000E+00 0. -1.
          2    1    6    6  502    0 -0.19844268390E+03 -0.17481805434E+03 -0.50014145572E+02  0.26915100905E+03  0.00000000000E+00 0. -1.
          3    1    5    5  503    0 -0.19096619492E+03  0.42376284521E+03 -0.79593018844E+03  0.92170922826E+03  0.00000000000E+00 0. -1.
         -4    1    5    5    0  503 -0.20054923055E+02  0.85238543802E+02 -0.98270195164E+02  0.13162386009E+03  0.00000000000E+00 0.  1.
         -1    1    6    6    0  502 -0.83177237525E+02 -0.35047347636E+02  0.46324118403E+01  0.90378253237E+02  0.00000000000E+00 0.  1.
<mgrwt>
<rscale>  0 0.18264592E+04</rscale>
<asrwt>0</asrwt>
<pdfrwt beam="1">  1        2 0.21823340E+00 0.18264592E+04</pdfrwt>
<pdfrwt beam="2">  1       -2 0.90450721E-01 0.18264592E+04</pdfrwt>
<totfact> 0.13899404E+01</totfact>
</mgrwt>
</event>
<event>
12    1  0.2406360E-008  0.2896985E+04  0.7818608E-02  0.8273775E-01
          3   -1    0    0  501    0  0.00000000000E+00  0.00000000000E+00  0.30689855605E+04  0.30689855605E+04  0.00000000000E+00 0. -1.
         -3   -1    0    0    0  501 -0.00000000000E+00 -0.00000000000E+00 -0.68365614077E+03  0.68365614077E+03  0.00000000000E+00 0.  1.
         23    2    1    2    0    0  0.61223713393E+03 -0.44711445577E+03  0.24564371896E+04  0.25719130184E+04  0.76858721336E+02 0.  0.
        254    2    1    2    0    0 -0.61223713393E+03  0.44711445577E+03 -0.71107769933E+02  0.11807286828E+04  0.90239584592E+03 0.  0.
        -24    2    4    4    0    0  0.57674852553E+02  0.40768343669E+02  0.29275142782E+03  0.31138360867E+03  0.79170113022E+02 0.  0.
         24    2    4    4    0    0 -0.66991198648E+03  0.40634611210E+03 -0.36385919775E+03  0.86934507414E+03  0.97304212048E+02 0.  0.
         11    1    3    3    0    0  0.12099223656E+03 -0.53225870988E+02  0.44683509041E+03  0.46597608594E+03  0.00000000000E+00 0.  1.
        -11    1    3    3    0    0  0.49124489737E+03 -0.39388858478E+03  0.20096020992E+04  0.21059369325E+04  0.00000000000E+00 0. -1.
          2    1    6    6  502    0 -0.56812151081E+03  0.35644019056E+03 -0.27321037587E+03  0.72419304745E+03  0.00000000000E+00 0. -1.
          3    1    5    5  503    0  0.51481946397E+02  0.55320693868E+02  0.28274263934E+03  0.29266733688E+03  0.00000000000E+00 0. -1.
         -4    1    5    5    0  503  0.61929061567E+01 -0.14552350199E+02  0.10008788481E+02  0.18716271793E+02  0.00000000000E+00 0.  1.
         -1    1    6    6    0  502 -0.10179047567E+03  0.49905921549E+02 -0.90648821883E+02  0.14515202669E+03  0.00000000000E+00 0.  1.
<mgrwt>
<rscale>  0 0.28969852E+04</rscale>
<asrwt>0</asrwt>
<pdfrwt beam="1">  1        3 0.47215162E+00 0.28969852E+04</pdfrwt>
<pdfrwt beam="2">  1       -3 0.10517787E+00 0.28969852E+04</pdfrwt>
<totfact> 0.81971482E-03</totfact>
</mgrwt>
</event>
<event>
12    1  0.2406360E-008  0.1339882E+04  0.7818608E-02  0.8998523E-01
         -1   -1    0    0    0  501 -0.00000000000E+00  0.00000000000E+00  0.49006545504E+03  0.49006545504E+03  0.00000000000E+00 0.  1.
          1   -1    0    0  501    0  0.00000000000E+00 -0.00000000000E+00 -0.91583819542E+03  0.91583819542E+03  0.00000000000E+00 0. -1.
         23    2    1    2    0    0 -0.31098861049E+03  0.47611211939E+02 -0.40932167833E+03  0.52425007235E+03  0.91176524659E+02 0.  0.
        254    2    1    2    0    0  0.31098861049E+03 -0.47611211939E+02 -0.16451062050E+02  0.88165357812E+03  0.82344498967E+03 0.  0.
        -24    2    4    4    0    0  0.21980099053E+03 -0.58556763992E+02 -0.40442660442E+03  0.47042152164E+03  0.77421958192E+02 0.  0.
         24    2    4    4    0    0  0.91187619962E+02  0.10945552053E+02  0.38797554237E+03  0.41123205648E+03  0.10075611969E+03 0.  0.
         13    1    3    3    0    0 -0.10081840284E+03  0.45769964113E+01 -0.20251754329E+03  0.22627119699E+03  0.00000000000E+00 0. -1.
        -13    1    3    3    0    0 -0.21017020765E+03  0.43034215527E+02 -0.20680413504E+03  0.29797887536E+03  0.00000000000E+00 0.  1.
          4    1    6    6  502    0  0.11252851898E+03  0.10577752316E+02  0.34830195908E+03  0.36618139102E+03  0.00000000000E+00 0. -1.
          1    1    5    5  503    0  0.16291556192E+03 -0.76046358598E+01 -0.29306895913E+03  0.33539338934E+03  0.00000000000E+00 0. -1.
         -2    1    5    5    0  503  0.56885428607E+02 -0.50952128132E+02 -0.11135764529E+03  0.13502813230E+03  0.00000000000E+00 0.  1.
         -3    1    6    6    0  502 -0.21340899018E+02  0.36779973746E+00  0.39673583289E+02  0.45050665462E+02  0.00000000000E+00 0.  1.
<mgrwt>
<rscale>  0 0.13398816E+04</rscale>
<asrwt>0</asrwt>
<pdfrwt beam="1">  1        1 0.14089818E+00 0.13398816E+04</pdfrwt>
<pdfrwt beam="2">  1       -1 0.75394686E-01 0.13398816E+04</pdfrwt>
<totfact> 0.30602856E+01</totfact>
</mgrwt>
</event>
<event>
11    1  0.2406360E-008  0.1373276E+04  0.7818608E-02  0.8973393E-01
          1   -1    0    0  501    0  0.00000000000E+00  0.00000000000E+00  0.14516815658E+04  0.14516815658E+04  0.00000000000E+00 0. -1.
         -1   -1    0    0    0  501 -0.00000000000E+00 -0.00000000000E+00 -0.32477612095E+03  0.32477612095E+03  0.00000000000E+00 0.  1.
         23    2    1    2    0    0 -0.28760547044E+03 -0.23966742173E+03  0.37226877911E+03  0.53583090484E+03  0.91505928831E+02 0.  0.
        254    2    1    2    0    0  0.28760547044E+03  0.23966742173E+03  0.75463666572E+03  0.12406267819E+04  0.91078039893E+03 0.  0.
        -24    2    4    4    0    0 -0.15667583203E+03  0.35263858956E+03  0.76665185739E+02  0.40137312888E+03  0.79508154914E+02 0.  0.
         13    1    3    3    0    0  0.18880615388E+01 -0.24804834412E+02  0.24580285739E+02  0.34971917785E+02  0.00000000000E+00 0. -1.
        -13    1    3    3    0    0 -0.28949353198E+03 -0.21486258732E+03  0.34768849337E+03  0.50085898705E+03  0.00000000000E+00 0.  1.
          2    1    4    4  502    0  0.18877494031E+03 -0.12992414085E+03  0.23943202311E+03  0.33142714759E+03  0.00000000000E+00 0. -1.
          3    1    5    5  503    0 -0.58814373926E+02  0.20211871142E+03  0.69558144718E+02  0.22169672885E+03  0.00000000000E+00 0. -1.
         -4    1    5    5    0  503 -0.97861458100E+02  0.15051987813E+03  0.71070410202E+01  0.17967640003E+03  0.00000000000E+00 0.  1.
         -1    1    4    4    0  502  0.25550636215E+03  0.16952973027E+02  0.43853945687E+03  0.50782650544E+03  0.00000000000E+00 0.  1.
<mgrwt>
<rscale>  0 0.13732757E+04</rscale>
<asrwt>0</asrwt>
<pdfrwt beam="1">  1        1 0.22333562E+00 0.13732757E+04</pdfrwt>
<pdfrwt beam="2">  1       -1 0.49965558E-01 0.13732757E+04</pdfrwt>
<totfact> 0.27754421E+01</totfact>
</mgrwt>
</event>
<event>
12    1  0.2406360E-008  0.1278171E+04  0.7818608E-02  0.9047057E-01
         -1   -1    0    0    0  501 -0.00000000000E+00  0.00000000000E+00  0.33859074592E+03  0.33859074592E+03  0.00000000000E+00 0.  1.
          1   -1    0    0  501    0  0.00000000000E+00 -0.00000000000E+00 -0.12062654317E+04  0.12062654317E+04  0.00000000000E+00 0. -1.
         23    2    1    2    0    0 -0.13403420225E+03 -0.20545928996E+03 -0.45269731054E+03  0.52261808070E+03  0.89532765524E+02 0.  0.
        254    2    1    2    0    0  0.13403420225E+03  0.20545928996E+03 -0.41497737520E+03  0.10222380969E+04  0.90143542064E+03 0.  0.
        -24    2    4    4    0    0  0.96779604629E+02 -0.34493543754E+03 -0.22475460980E+03  0.43082569471E+03  0.82154711676E+02 0.  0.
         24    2    4    4    0    0  0.37254597619E+02  0.55039472750E+03 -0.19022276540E+03  0.59141240218E+03  0.96237559529E+02 0.  0.
         13    1    3    3    0    0 -0.12518588957E+03 -0.17440188489E+03 -0.43662130498E+03  0.48654464169E+03  0.00000000000E+00 0.  1.
        -13    1    3    3    0    0 -0.88483126790E+01 -0.31057405070E+02 -0.16076005561E+02  0.36073439006E+02  0.00000000000E+00 0. -1.
          2    1    6    6  502    0 -0.22831514744E+02  0.60681766926E+02 -0.37655666238E+02  0.74976690395E+02  0.00000000000E+00 0. -1.
          3    1    5    5  503    0  0.14187720570E+02 -0.16199293828E+03 -0.13322911049E+03  0.21022131041E+03  0.00000000000E+00 0. -1.
         -4    1    5    5    0  503  0.82591884059E+02 -0.18294249926E+03 -0.91525499305E+02  0.22060438430E+03  0.00000000000E+00 0.  1.
         -1    1    6    6    0  502  0.60086112363E+02  0.48971296058E+03 -0.15256709917E+03  0.51643571178E+03  0.00000000000E+00 0.  1.
<mgrwt>
<rscale>  0 0.12781711E+04</rscale>
<asrwt>0</asrwt>
<pdfrwt beam="1">  1        1 0.18557930E+00 0.12781711E+04</pdfrwt>
<pdfrwt beam="2">  1       -1 0.52090883E-01 0.12781711E+04</pdfrwt>
<totfact> 0.38608281E+01</totfact>
</mgrwt>
</event>
<event>
11    1  0.2406360E-008  0.1971027E+04  0.7818608E-02  0.8620288E-01
         -2   -1    0    0    0  501 -0.00000000000E+00  0.00000000000E+00  0.28933619196E+03  0.28933619196E+03  0.00000000000E+00 0.  1.
          2   -1    0    0  501    0  0.00000000000E+00 -0.00000000000E+00 -0.33567746464E+04  0.33567746464E+04  0.00000000000E+00 0. -1.
         23    2    1    2    0    0 -0.10998956002E+03  0.70867177493E+03 -0.17652787650E+04  0.19076762842E+04  0.93307552500E+02 0.  0.
        254    2    1    2    0    0  0.10998956002E+03 -0.70867177493E+03 -0.13021596894E+04  0.17384345541E+04  0.90123329627E+03 0.  0.
        -24    2    4    4    0    0 -0.15824678727E+03 -0.24315560095E+03 -0.11361723975E+04  0.11752832456E+04  0.78970238550E+02 0.  0.
         11    1    3    3    0    0 -0.80581870009E+02  0.57338346661E+03 -0.15111479044E+04  0.16182799592E+04  0.00000000000E+00 0.  1.
        -11    1    3    3    0    0 -0.29407690010E+02  0.13528830832E+03 -0.25413086063E+03  0.28939632500E+03  0.00000000000E+00 0. -1.
          4    1    4    4  502    0  0.13044881902E+03 -0.23133359767E+03 -0.97808378925E+02  0.28301697261E+03  0.00000000000E+00 0. -1.
          1    1    5    5  503    0 -0.25713465094E+02 -0.61581321962E+02 -0.40082443812E+03  0.40634181633E+03  0.00000000000E+00 0. -1.
         -2    1    5    5    0  503 -0.13253332218E+03 -0.18157427899E+03 -0.73534795936E+03  0.76894142925E+03  0.00000000000E+00 0.  1.
         -3    1    4    4    0  502  0.13778752827E+03 -0.23418257630E+03 -0.68178913014E+02  0.28013433594E+03  0.00000000000E+00 0.  1.
<mgrwt>
<rscale>  0 0.19710265E+04</rscale>
<asrwt>0</asrwt>
<pdfrwt beam="1">  1        2 0.51642686E+00 0.19710265E+04</pdfrwt>
<pdfrwt beam="2">  1       -2 0.44513261E-01 0.19710265E+04</pdfrwt>
<totfact> 0.45690503E+00</totfact>
</mgrwt>
</event>
<event>
11    1  0.2406360E-008  0.2815457E+04  0.7818608E-02  0.8298485E-01
          1   -1    0    0  501    0  0.00000000000E+00  0.00000000000E+00  0.18895527631E+04  0.18895527631E+04  0.00000000000E+00 0. -1.
         -1   -1    0    0    0  501 -0.00000000000E+00 -0.00000000000E+00 -0.10487666988E+04  0.10487666988E+04  0.00000000000E+00 0.  1.
         23    2    1    2    0    0  0.64391961733E+03  0.45167449902E+02 -0.75641609983E+03  0.99837510332E+03  0.88966053821E+02 0.  0.
        254    2    1    2    0    0 -0.64391961733E+03 -0.45167449902E+02  0.15972021642E+04  0.19399443586E+04  0.89199595787E+03 0.  0.
        -24    2    4    4    0    0 -0.57699846708E+03  0.11532279701E+03  0.43377694164E+03  0.73513615518E+03  0.77692683189E+02 0.  0.
         13    1    3    3    0    0  0.53138647839E+03  0.65277564785E+02 -0.59276524862E+03  0.79875114388E+03  0.00000000000E+00 0.  1.
        -13    1    3    3    0    0  0.11253313895E+03 -0.20110114883E+02 -0.16365085121E+03  0.19962395944E+03  0.00000000000E+00 0. -1.
          2    1    4    4  502    0 -0.90600444073E+02  0.44813353257E+02  0.28479256074E+03  0.30219774941E+03  0.00000000000E+00 0. -1.
          1    1    5    5  503    0 -0.42876858913E+02  0.13860710327E+02  0.10889117719E+02  0.46358572084E+02  0.00000000000E+00 0. -1.
         -2    1    5    5    0  503 -0.53412160817E+03  0.10146208669E+03  0.42288782392E+03  0.68877758309E+03  0.00000000000E+00 0.  1.
         -1    1    4    4    0  502  0.23679293823E+02 -0.20530360017E+03  0.87863266182E+03  0.90261045397E+03  0.00000000000E+00 0.  1.
<mgrwt>
<rscale>  0 0.28154573E+04</rscale>
<asrwt>0</asrwt>
<pdfrwt beam="1">  1        1 0.29070043E+00 0.28154573E+04</pdfrwt>
<pdfrwt beam="2">  1       -1 0.16134872E+00 0.28154573E+04</pdfrwt>
<totfact> 0.87399643E-01</totfact>
</mgrwt>
</event>
<event>
12    1  0.2406360E-008  0.1590276E+04  0.7818608E-02  0.8826544E-01
         -1   -1    0    0    0  501 -0.00000000000E+00  0.00000000000E+00  0.31633187649E+03  0.31633187649E+03  0.00000000000E+00 0.  1.
          1   -1    0    0  501    0  0.00000000000E+00 -0.00000000000E+00 -0.19986750007E+04  0.19986750007E+04  0.00000000000E+00 0. -1.
         23    2    1    2    0    0  0.15973252608E+03  0.33452088730E+03 -0.11450928236E+04  0.12070587539E+04  0.91293793674E+02 0.  0.
        254    2    1    2    0    0 -0.15973252608E+03 -0.33452088730E+03 -0.53725030057E+03  0.11079481233E+04  0.89526110965E+03 0.  0.
        -24    2    4    4    0    0 -0.19784869810E+03 -0.13889546879E+03  0.20987862096E+03  0.32917274441E+03  0.76613324819E+02 0.  0.
         24    2    4    4    0    0  0.38116172019E+02 -0.19562541852E+03 -0.74712892153E+03  0.77877537885E+03  0.92559809707E+02 0.  0.
         11    1    3    3    0    0  0.33251085674E+02  0.13556051822E+02 -0.13415230296E+03  0.13887491360E+03  0.00000000000E+00 0.  1.
        -11    1    3    3    0    0  0.12648144040E+03  0.32096483548E+03 -0.10109405207E+04  0.10681838403E+04  0.00000000000E+00 0. -1.
          4    1    6    6  502    0  0.35742389734E+02 -0.12076580312E+03 -0.60656913415E+03  0.61950626480E+03  0.00000000000E+00 0. -1.
          3    1    5    5  503    0 -0.97479784991E+02 -0.11162224181E+03  0.14002198056E+03  0.20388229053E+03  0.00000000000E+00 0. -1.
         -4    1    5    5    0  503 -0.10036891310E+03 -0.27273226972E+02  0.69856640400E+02  0.12529045389E+03  0.00000000000E+00 0.  1.
         -3    1    6    6    0  502  0.23737822847E+01 -0.74859615401E+02 -0.14055978738E+03  0.15926911404E+03  0.00000000000E+00 0.  1.
<mgrwt>
<rscale>  0 0.15902762E+04</rscale>
<asrwt>0</asrwt>
<pdfrwt beam="1">  1        1 0.30748846E+00 0.15902762E+04</pdfrwt>
<pdfrwt beam="2">  1       -1 0.48666442E-01 0.15902762E+04</pdfrwt>
<totfact> 0.12122928E+01</totfact>
</mgrwt>
</event>
<event>
11    1  0.2406360E-008  0.1297947E+04  0.7818608E-02  0.9031195E-01
          1   -1    0    0  501    0  0.00000000000E+00  0.00000000000E+00  0.10719124018E+04  0.10719124018E+04  0.00000000000E+00 0. -1.
         -1   -1    0    0    0  501 -0.00000000000E+00 -0.00000000000E+00 -0.39291134720E+03  0.39291134720E+03  0.00000000000E+00 0.  1.
         23    2    1    2    0    0 -0.30749815304E+03 -0.10458991668E+03  0.13856067832E+03  0.36829706213E+03  0.10463985668E+03 0.  0.
        254    2    1    2    0    0  0.30749815304E+03  0.10458991668E+03  0.54044037628E+03  0.10965266869E+04  0.89710691107E+03 0.  0.
        -24    2    4    4    0    0 -0.47438333512E+01  0.18696539395E+03  0.67872256470E+03  0.70843621203E+03  0.78987240685E+02 0.  0.
         11    1    3    3    0    0 -0.25557970964E+03 -0.67756493230E+02  0.67490188269E+02  0.27288615918E+03  0.00000000000E+00 0.  1.
        -11    1    3    3    0    0 -0.51918443400E+02 -0.36833423446E+02  0.71070490048E+02  0.95410902959E+02  0.00000000000E+00 0. -1.
          2    1    4    4  502    0  0.58223790898E+01 -0.28480718068E+02  0.23534511883E+02  0.37402201132E+02  0.00000000000E+00 0. -1.
          3    1    5    5  503    0 -0.93590120151E+01  0.11255335443E+03  0.26522226616E+03  0.28826844983E+03  0.00000000000E+00 0. -1.
         -4    1    5    5    0  503  0.46151786639E+01  0.74412039519E+02  0.41350029853E+03  0.42016776219E+03  0.00000000000E+00 0.  1.
         -1    1    4    4    0  502  0.30641960731E+03 -0.53894759210E+02 -0.16181670031E+03  0.35068827370E+03  0.00000000000E+00 0.  1.
<mgrwt>
<rscale>  0 0.12979469E+04</rscale>
<asrwt>0</asrwt>
<pdfrwt beam="1">  1        1 0.16490960E+00 0.12979469E+04</pdfrwt>
<pdfrwt beam="2">  1       -1 0.60447900E-01 0.12979469E+04</pdfrwt>
<totfact> 0.36313838E+01</totfact>
</mgrwt>
</event>
<event>
12    1  0.2406360E-008  0.1588145E+04  0.7818608E-02  0.8827864E-01
          2   -1    0    0  501    0  0.00000000000E+00  0.00000000000E+00  0.90770208565E+03  0.90770208565E+03  0.00000000000E+00 0. -1.
         -2   -1    0    0    0  501 -0.00000000000E+00 -0.00000000000E+00 -0.69466781586E+03  0.69466781586E+03  0.00000000000E+00 0.  1.
         23    2    1    2    0    0  0.22368456024E+03  0.37812127557E+03 -0.22597655871E+03  0.50266566995E+03  0.92719410747E+02 0.  0.
        254    2    1    2    0    0 -0.22368456024E+03 -0.37812127557E+03  0.43901082850E+03  0.10997042316E+04  0.90752873665E+03 0.  0.
        -24    2    4    4    0    0 -0.24202695552E+03  0.48914874531E+02  0.58853139430E+03  0.64383371550E+03  0.84752221145E+02 0.  0.
         24    2    4    4    0    0  0.18342395278E+02 -0.42703615010E+03 -0.14952056580E+03  0.45587051606E+03  0.52585272241E+02 0.  0.
         11    1    3    3    0    0  0.20314997399E+03  0.26978317603E+03 -0.18471271568E+03  0.38493072278E+03  0.00000000000E+00 0.  1.
        -11    1    3    3    0    0  0.20534586250E+02  0.10833809954E+03 -0.41263843024E+02  0.11773494717E+03  0.00000000000E+00 0. -1.
          2    1    6    6  502    0  0.20567671407E+01 -0.20525979910E+03 -0.98687648852E+02  0.22776098756E+03  0.00000000000E+00 0. -1.
          3    1    5    5  503    0 -0.21417524768E+03  0.23084964965E+02  0.43161606729E+03  0.48238613358E+03  0.00000000000E+00 0. -1.
         -4    1    5    5    0  503 -0.27851707844E+02  0.25829909566E+02  0.15691532701E+03  0.16144758192E+03  0.00000000000E+00 0.  1.
         -1    1    6    6    0  502  0.16285628137E+02 -0.22177635100E+03 -0.50832916949E+02  0.22810952850E+03  0.00000000000E+00 0.  1.
<mgrwt>
<rscale>  0 0.15881454E+04</rscale>
<asrwt>0</asrwt>
<pdfrwt beam="1">  1        2 0.13964647E+00 0.15881454E+04</pdfrwt>
<pdfrwt beam="2">  1       -2 0.10687197E+00 0.15881454E+04</pdfrwt>
<totfact> 0.19592376E+01</totfact>
</mgrwt>
</event>
<event>
11    1  0.2406360E-008  0.1401320E+04  0.7818608E-02  0.8952863E-01
         -2   -1    0    0    0  501 -0.00000000000E+00  0.00000000000E+00  0.70370248822E+03  0.70370248822E+03  0.00000000000E+00 0. -1.
          2   -1    0    0  501    0  0.00000000000E+00 -0.00000000000E+00 -0.69763112257E+03  0.69763112257E+03  0.00000000000E+00 0.  1.
         23    2    1    2    0    0  0.16164628876E+02  0.35959764785E+02 -0.40030405573E+03  0.41273674009E+03  0.92487186574E+02 0.  0.
        254    2    1    2    0    0 -0.16164628876E+02 -0.35959764785E+02  0.40637542138E+03  0.98859687070E+03  0.90034903773E+03 0.  0.
        -24    2    4    4    0    0  0.25459029612E+03 -0.33124859808E+03  0.23961980541E+03  0.48818862970E+03  0.79803724329E+02 0.  0.
         11    1    3    3    0    0  0.43780002241E+01 -0.16398732400E+02 -0.28553666709E+03  0.28604068516E+03  0.00000000000E+00 0.  1.
        -11    1    3    3    0    0  0.11786628652E+02  0.52358497185E+02 -0.11476738864E+03  0.12669605494E+03  0.00000000000E+00 0. -1.
          4    1    4    4  502    0 -0.28000311948E+03  0.19261940572E+03  0.48129101404E+02  0.34324975277E+03  0.00000000000E+00 0. -1.
          1    1    5    5  503    0  0.25265756643E+03 -0.30622262522E+03  0.20918594226E+03  0.44873923443E+03  0.00000000000E+00 0. -1.
         -2    1    5    5    0  503  0.19327296873E+01 -0.25025972863E+02  0.30433863146E+02  0.39449395277E+02  0.00000000000E+00 0.  1.
         -3    1    4    4    0  502  0.92481944809E+01  0.10266942758E+03  0.11862651457E+03  0.15715848822E+03  0.00000000000E+00 0.  1.
<mgrwt>
<rscale>  0 0.14013205E+04</rscale>
<asrwt>0</asrwt>
<pdfrwt beam="1">  1        2 0.10732786E+00 0.14013205E+04</pdfrwt>
<pdfrwt beam="2">  1       -2 0.10826192E+00 0.14013205E+04</pdfrwt>
<totfact> 0.27348484E+01</totfact>
</mgrwt>
</event>
<event>
11    1  0.2406360E-008  0.1283632E+04  0.7818608E-02  0.9042647E-01
          2   -1    0    0  501    0  0.00000000000E+00  0.00000000000E+00  0.61404819370E+03  0.61404819370E+03  0.00000000000E+00 0. -1.
         -2   -1    0    0    0  501 -0.00000000000E+00 -0.00000000000E+00 -0.67083950964E+03  0.67083950964E+03  0.00000000000E+00 0.  1.
         23    2    1    2    0    0 -0.27698610971E+03  0.14629802386E+03  0.42473381521E+02  0.32903508614E+03  0.91299961764E+02 0.  0.
        254    2    1    2    0    0  0.27698610971E+03 -0.14629802386E+03 -0.99264697459E+02  0.95585261719E+03  0.89759474646E+03 0.  0.
        -24    2    4    4    0    0  0.22318612663E+03 -0.47260456795E+03 -0.42316853568E+02  0.53041651697E+03  0.79898939998E+02 0.  0.
         13    1    3    3    0    0 -0.27936650757E+03  0.15245138442E+03  0.45984497074E+02  0.32156126031E+03  0.00000000000E+00 0.  1.
        -13    1    3    3    0    0  0.23803978558E+01 -0.61533605612E+01 -0.35111155538E+01  0.74738258329E+01  0.00000000000E+00 0. -1.
          2    1    4    4  502    0 -0.25870167566E+02 -0.38518700106E+01  0.60625007056E+02  0.66026464035E+02  0.00000000000E+00 0. -1.
          3    1    5    5  503    0  0.95649631558E+02 -0.15544073737E+03 -0.47273101687E+02  0.18853493309E+03  0.00000000000E+00 0. -1.
         -4    1    5    5    0  503  0.12753649507E+03 -0.31716383058E+03  0.49562481187E+01  0.34188158388E+03  0.00000000000E+00 0.  1.
         -1    1    4    4    0  502  0.79670150647E+02  0.33015841410E+03 -0.11757285095E+03  0.35940963619E+03  0.00000000000E+00 0.  1.
<mgrwt>
<rscale>  0 0.12836320E+04</rscale>
<asrwt>0</asrwt>
<pdfrwt beam="1">  1        2 0.94468953E-01 0.12836320E+04</pdfrwt>
<pdfrwt beam="2">  1       -2 0.10320608E+00 0.12836320E+04</pdfrwt>
<totfact> 0.36256259E+01</totfact>
</mgrwt>
</event>
<event>
11    1  0.2406360E-008  0.1450346E+04  0.7818608E-02  0.8918161E-01
         -2   -1    0    0    0  501 -0.00000000000E+00  0.00000000000E+00  0.25538300384E+03  0.25538300384E+03  0.00000000000E+00 0.  1.
          2   -1    0    0  501    0  0.00000000000E+00 -0.00000000000E+00 -0.20591648903E+04  0.20591648903E+04  0.00000000000E+00 0. -1.
         23    2    1    2    0    0  0.19073455842E+03  0.35427404372E+03 -0.80613693014E+03  0.90579543138E+03  0.93374747917E+02 0.  0.
        254    2    1    2    0    0 -0.19073455842E+03 -0.35427404372E+03 -0.99764495632E+03  0.14087524628E+04  0.90961435380E+03 0.  0.
        -24    2    4    4    0    0 -0.52163981778E+03 -0.51287933473E+02 -0.57766789155E+03  0.78420328390E+03  0.80845815853E+02 0.  0.
         13    1    3    3    0    0  0.19333738926E+03  0.33959142824E+03 -0.79861597357E+03  0.88909457172E+03  0.00000000000E+00 0. -1.
        -13    1    3    3    0    0 -0.26028308465E+01  0.14682615481E+02 -0.75209565736E+01  0.16700859665E+02  0.00000000000E+00 0.  1.
          4    1    4    4  502    0  0.26180811283E+03 -0.25669152266E+03 -0.27848145731E+03  0.46041931738E+03  0.00000000000E+00 0. -1.
          3    1    5    5  503    0 -0.51341315410E+03 -0.39799754958E+02 -0.56985495781E+03  0.76805713345E+03  0.00000000000E+00 0. -1.
         -4    1    5    5    0  503 -0.82266636781E+01 -0.11488178515E+02 -0.78129337430E+01  0.16146150456E+02  0.00000000000E+00 0.  1.
         -3    1    4    4    0  502  0.69097146534E+02 -0.46294587588E+02 -0.14149560746E+03  0.16412986148E+03  0.00000000000E+00 0.  1.
<mgrwt>
<rscale>  0 0.14503458E+04</rscale>
<asrwt>0</asrwt>
<pdfrwt beam="1">  1        2 0.31679461E+00 0.14503458E+04</pdfrwt>
<pdfrwt beam="2">  1       -2 0.39289692E-01 0.14503458E+04</pdfrwt>
<totfact> 0.36811009E+01</totfact>
</mgrwt>
</event>
<event>
11    1  0.2406360E-008  0.1510831E+04  0.7818608E-02  0.8877282E-01
         -2   -1    0    0    0  501 -0.00000000000E+00  0.00000000000E+00  0.47961351726E+03  0.47961351726E+03  0.00000000000E+00 0.  1.
          2   -1    0    0  501    0  0.00000000000E+00 -0.00000000000E+00 -0.11898180392E+04  0.11898180392E+04  0.00000000000E+00 0. -1.
         23    2    1    2    0    0  0.10575234590E+03 -0.16946975581E+02  0.29092620757E+03  0.32276927588E+03  0.89839793835E+02 0.  0.
        254    2    1    2    0    0 -0.10575234590E+03  0.16946975581E+02 -0.10011307295E+04  0.13466622806E+04  0.89429626060E+03 0.  0.
        -24    2    4    4    0    0 -0.35818297684E+03 -0.17355314857E+03 -0.18050702405E+03  0.44452024036E+03  0.81238648952E+02 0.  0.
         13    1    3    3    0    0 -0.94743685161E+01 -0.11720159906E+02  0.76313910298E+01  0.16892718433E+02  0.00000000000E+00 0. -1.
        -13    1    3    3    0    0  0.11522671442E+03 -0.52268156752E+01  0.28329481654E+03  0.30587655745E+03  0.00000000000E+00 0.  1.
          2    1    4    4  502    0 -0.26164361288E+02  0.46920200109E+02 -0.66543594581E+02  0.85522680966E+02  0.00000000000E+00 0. -1.
          3    1    5    5  503    0 -0.90918206792E+01 -0.23072391678E+02 -0.20089428926E+02  0.31915225450E+02  0.00000000000E+00 0. -1.
         -4    1    5    5    0  503 -0.34909115616E+03 -0.15048075689E+03 -0.16041759512E+03  0.41260501491E+03  0.00000000000E+00 0.  1.
         -1    1    4    4    0  502  0.27859499223E+03  0.14357992404E+03 -0.75408011088E+03  0.81661935925E+03  0.00000000000E+00 0.  1.
<mgrwt>
<rscale>  0 0.15108313E+04</rscale>
<asrwt>0</asrwt>
<pdfrwt beam="1">  1        2 0.18304892E+00 0.15108313E+04</pdfrwt>
<pdfrwt beam="2">  1       -2 0.73786697E-01 0.15108313E+04</pdfrwt>
<totfact> 0.30705050E+01</totfact>
</mgrwt>
</event>
<event>
11    1  0.2406360E-008  0.1430239E+04  0.7818608E-02  0.8932216E-01
          3   -1    0    0  501    0  0.00000000000E+00  0.00000000000E+00  0.42271964852E+03  0.42271964852E+03  0.00000000000E+00 0. -1.
         -3   -1    0    0    0  501 -0.00000000000E+00 -0.00000000000E+00 -0.12097757948E+04  0.12097757948E+04  0.00000000000E+00 0.  1.
         23    2    1    2    0    0 -0.95397171530E+02 -0.36178762151E+03  0.53988952629E+00  0.38438289289E+03  0.88085262383E+02 0.  0.
        254    2    1    2    0    0  0.95397171530E+02  0.36178762151E+03 -0.78759603579E+03  0.12481125504E+04  0.89302100731E+03 0.  0.
        -24    2    4    4    0    0 -0.97503132633E+02 -0.11079279831E+03 -0.67914839146E+03  0.69948077323E+03  0.79050044005E+02 0.  0.
         11    1    3    3    0    0 -0.60499385713E+02 -0.32653815491E+03  0.15844801935E+02  0.33247315686E+03  0.00000000000E+00 0. -1.
        -11    1    3    3    0    0 -0.34897785817E+02 -0.35249466601E+02 -0.15304912409E+02  0.51909736027E+02  0.00000000000E+00 0.  1.
          4    1    4    4  502    0  0.10766381776E+03  0.36453389689E+03 -0.11467288890E+02  0.38027353096E+03  0.00000000000E+00 0. -1.
          1    1    5    5  503    0 -0.10658233531E+03 -0.11498074701E+03 -0.65088157625E+03  0.66949771671E+03  0.00000000000E+00 0. -1.
         -2    1    5    5    0  503  0.90792026777E+01  0.41879487016E+01 -0.28266815213E+02  0.29983056513E+02  0.00000000000E+00 0.  1.
         -3    1    4    4    0  502  0.85236486403E+02  0.10804652293E+03 -0.96980355432E+02  0.16835824622E+03  0.00000000000E+00 0.  1.
<mgrwt>
<rscale>  0 0.14302391E+04</rscale>
<asrwt>0</asrwt>
<pdfrwt beam="1">  1        3 0.65033792E-01 0.14302391E+04</pdfrwt>
<pdfrwt beam="2">  1       -3 0.18611935E+00 0.14302391E+04</pdfrwt>
<totfact> 0.10478218E+00</totfact>
</mgrwt>
</event>
<event>
11    1  0.2406360E-008  0.2264192E+04  0.7818608E-02  0.8492175E-01
         -1   -1    0    0    0  501 -0.00000000000E+00  0.00000000000E+00  0.11820044255E+04  0.11820044255E+04  0.00000000000E+00 0. -1.
          1   -1    0    0  501    0  0.00000000000E+00 -0.00000000000E+00 -0.10842950448E+04  0.10842950448E+04  0.00000000000E+00 0.  1.
         23    2    1    2    0    0 -0.44633366744E+03  0.82445667867E+03  0.21201549117E+03  0.96548924029E+03  0.90974430111E+02 0.  0.
        254    2    1    2    0    0  0.44633366744E+03 -0.82445667867E+03 -0.11430611044E+03  0.13008102300E+04  0.89448242568E+03 0.  0.
        -24    2    4    4    0    0 -0.16916498805E+03 -0.48086577050E+03  0.14594067607E+03  0.53654804434E+03  0.82075821847E+02 0.  0.
         13    1    3    3    0    0 -0.40921030918E+03  0.76818119451E+03  0.17237502065E+03  0.88728156325E+03  0.00000000000E+00 0. -1.
        -13    1    3    3    0    0 -0.37123358267E+02  0.56275484154E+02  0.39640470513E+02  0.78207677042E+02  0.00000000000E+00 0.  1.
          4    1    4    4  502    0  0.52886241247E+03 -0.29375121454E+03 -0.16705808186E+03  0.62760945666E+03  0.00000000000E+00 0. -1.
          3    1    5    5  503    0 -0.16425073492E+03 -0.38493587348E+03  0.10115644069E+03  0.43056539120E+03  0.00000000000E+00 0. -1.
         -4    1    5    5    0  503 -0.49142531322E+01 -0.95929897027E+02  0.44784235380E+02  0.10598265314E+03  0.00000000000E+00 0.  1.
         -3    1    4    4    0  502  0.86636243022E+02 -0.49839693617E+02 -0.93188704644E+02  0.13665272898E+03  0.00000000000E+00 0.  1.
<mgrwt>
<rscale>  0 0.22641922E+04</rscale>
<asrwt>0</asrwt>
<pdfrwt beam="1">  1        1 0.16681462E+00 0.22641922E+04</pdfrwt>
<pdfrwt beam="2">  1       -1 0.18184683E+00 0.22641922E+04</pdfrwt>
<totfact> 0.23848516E+00</totfact>
</mgrwt>
</event>
<event>
12    1  0.2406360E-008  0.1277960E+04  0.7818608E-02  0.9047228E-01
         -2   -1    0    0    0  501 -0.00000000000E+00  0.00000000000E+00  0.16833042281E+03  0.16833042281E+03  0.00000000000E+00 0. -1.
          2   -1    0    0  501    0  0.00000000000E+00 -0.00000000000E+00 -0.24255611608E+04  0.24255611608E+04  0.00000000000E+00 0.  1.
         23    2    1    2    0    0 -0.20614273971E+03  0.14876366951E+03 -0.21817176626E+03  0.34580861008E+03  0.85785877117E+02 0.  0.
        254    2    1    2    0    0  0.20614273971E+03 -0.14876366951E+03 -0.20390589717E+04  0.22480829735E+04  0.91186079375E+03 0.  0.
        -24    2    4    4    0    0 -0.19755722356E+03 -0.36184941703E+03 -0.13873095344E+04  0.14494388393E+04  0.79254952041E+02 0.  0.
         24    2    4    4    0    0  0.40369996328E+03  0.21308574753E+03 -0.65174943727E+03  0.79864413418E+03  0.68380757039E+02 0.  0.
         13    1    3    3    0    0 -0.20159882486E+03  0.13344565547E+03 -0.22321756359E+03  0.32905305020E+03  0.00000000000E+00 0. -1.
        -13    1    3    3    0    0 -0.45439148475E+01  0.15318014040E+02  0.50457973315E+01  0.16755559883E+02  0.00000000000E+00 0.  1.
          4    1    6    6  502    0  0.24312272133E+03  0.91363001171E+02 -0.35134600047E+03  0.43692089405E+03  0.00000000000E+00 0. -1.
          1    1    5    5  503    0 -0.56128274901E+02 -0.73472451345E+02 -0.21749938583E+03  0.23633570865E+03  0.00000000000E+00 0. -1.
         -2    1    5    5    0  503 -0.14142894866E+03 -0.28837696569E+03 -0.11698101486E+04  0.12131031307E+04  0.00000000000E+00 0.  1.
         -3    1    6    6    0  502  0.16057724195E+03  0.12172274636E+03 -0.30040343680E+03  0.36172324013E+03  0.00000000000E+00 0.  1.
<mgrwt>
<rscale>  0 0.12779605E+04</rscale>
<asrwt>0</asrwt>
<pdfrwt beam="1">  1        2 0.37316324E+00 0.12779605E+04</pdfrwt>
<pdfrwt beam="2">  1       -2 0.25896989E-01 0.12779605E+04</pdfrwt>
<totfact> 0.50978776E+01</totfact>
</mgrwt>
</event>
<event>
12    1  0.2406360E-008  0.1202440E+04  0.7818608E-02  0.9110723E-01
         -1   -1    0    0    0  501 -0.00000000000E+00  0.00000000000E+00  0.84770965341E+03  0.84770965341E+03  0.00000000000E+00 0.  1.
          1   -1    0    0  501    0  0.00000000000E+00 -0.00000000000E+00 -0.42640275092E+03  0.42640275092E+03  0.00000000000E+00 0. -1.
         23    2    1    2    0    0  0.13105987117E+03  0.11058812280E+03  0.27931551147E+03  0.34030608222E+03  0.91567744936E+02 0.  0.
        254    2    1    2    0    0 -0.13105987117E+03 -0.11058812280E+03  0.14199139102E+03  0.93380632211E+03  0.90687720743E+03 0.  0.
        -24    2    4    4    0    0 -0.38017319207E+03 -0.37396403094E+03  0.48366092555E+00  0.53925199419E+03  0.80073259556E+02 0.  0.
         24    2    4    4    0    0  0.24911332090E+03  0.26337590814E+03  0.14150773010E+03  0.39455432793E+03  0.64995110365E+02 0.  0.
         13    1    3    3    0    0 -0.54869511687E+01  0.18949981908E+02  0.47998854065E+01  0.20303875181E+02  0.00000000000E+00 0. -1.
        -13    1    3    3    0    0  0.13654682234E+03  0.91638140896E+02  0.27451562606E+03  0.32000220704E+03  0.00000000000E+00 0.  1.
          4    1    6    6  502    0  0.13588291472E+03  0.12796630374E+03  0.10550091585E+03  0.21440612083E+03  0.00000000000E+00 0. -1.
          3    1    5    5  503    0 -0.37061983588E+03 -0.33889249288E+03 -0.64671807120E+01  0.50224397349E+03  0.00000000000E+00 0. -1.
         -2    1    5    5    0  503 -0.95533561944E+01 -0.35071538061E+02  0.69508416376E+01  0.37008020699E+02  0.00000000000E+00 0.  1.
         -3    1    6    6    0  502  0.11323040618E+03  0.13540960440E+03  0.36006814247E+02  0.18014820709E+03  0.00000000000E+00 0.  1.
<mgrwt>
<rscale>  0 0.12024404E+04</rscale>
<asrwt>0</asrwt>
<pdfrwt beam="1">  1        1 0.65600423E-01 0.12024404E+04</pdfrwt>
<pdfrwt beam="2">  1       -1 0.13041687E+00 0.12024404E+04</pdfrwt>
<totfact> 0.27421228E+01</totfact>
</mgrwt>
</event>
<event>
11    1  0.2406360E-008  0.1215751E+04  0.7818608E-02  0.9099181E-01
          2   -1    0    0  501    0  0.00000000000E+00  0.00000000000E+00  0.69748117387E+03  0.69748117387E+03  0.00000000000E+00 0. -1.
         -2   -1    0    0    0  501 -0.00000000000E+00 -0.00000000000E+00 -0.52978108230E+03  0.52978108230E+03  0.00000000000E+00 0.  1.
         23    2    1    2    0    0 -0.14413525854E+03  0.83650084144E+02  0.23980996359E+03  0.30591960784E+03  0.91135495236E+02 0.  0.
        254    2    1    2    0    0  0.14413525854E+03 -0.83650084144E+02 -0.72109872021E+02  0.92134264833E+03  0.90327190406E+03 0.  0.
        -24    2    4    4    0    0 -0.60085331878E+02 -0.20357535918E+03  0.35345125513E+03  0.41990407210E+03  0.79614483866E+02 0.  0.
         11    1    3    3    0    0 -0.88166393069E+02  0.31287158950E+02  0.19710647381E+03  0.21818148684E+03  0.00000000000E+00 0. -1.
        -11    1    3    3    0    0 -0.55968865471E+02  0.52362925195E+02  0.42703489779E+02  0.87738120998E+02  0.00000000000E+00 0.  1.
          2    1    4    4  502    0  0.50778561389E+02 -0.16956605156E+02 -0.13718588762E+03  0.14726152423E+03  0.00000000000E+00 0. -1.
          1    1    5    5  503    0  0.18082997883E+02 -0.35482646313E+02  0.45559418999E+02  0.60511764652E+02  0.00000000000E+00 0. -1.
         -2    1    5    5    0  503 -0.78168329761E+02 -0.16809271287E+03  0.30789183613E+03  0.35939230745E+03  0.00000000000E+00 0.  1.
         -1    1    4    4    0  502  0.15344202903E+03  0.13688188020E+03 -0.28837523952E+03  0.35417705201E+03  0.00000000000E+00 0.  1.
<mgrwt>
<rscale>  0 0.12157505E+04</rscale>
<asrwt>0</asrwt>
<pdfrwt beam="1">  1        2 0.10730480E+00 0.12157505E+04</pdfrwt>
<pdfrwt beam="2">  1       -2 0.81504782E-01 0.12157505E+04</pdfrwt>
<totfact> 0.53802600E+01</totfact>
</mgrwt>
</event>
<event>
12    1  0.2406360E-008  0.1695013E+04  0.7818608E-02  0.8764213E-01
          1   -1    0    0  501    0  0.00000000000E+00  0.00000000000E+00  0.30146662892E+03  0.30146662892E+03  0.00000000000E+00 0. -1.
         -1   -1    0    0    0  501 -0.00000000000E+00 -0.00000000000E+00 -0.23825775575E+04  0.23825775575E+04  0.00000000000E+00 0.  1.
         23    2    1    2    0    0  0.39900537131E+03 -0.19823283013E+03 -0.15430919713E+03  0.48278434032E+03  0.10376824979E+03 0.  0.
        254    2    1    2    0    0 -0.39900537131E+03  0.19823283013E+03 -0.19268017314E+04  0.22012598461E+04  0.96668425891E+03 0.  0.
        -24    2    4    4    0    0 -0.36022734735E+03 -0.29326165312E+03 -0.13794550906E+04  0.14577687802E+04  0.80170633696E+02 0.  0.
         24    2    4    4    0    0 -0.38778023963E+02  0.49149448324E+03 -0.54734664084E+03  0.74349106590E+03  0.10059849722E+03 0.  0.
         13    1    3    3    0    0  0.16382833392E+03 -0.13578907514E+03 -0.90486440929E+02  0.23122757602E+03  0.00000000000E+00 0.  1.
        -13    1    3    3    0    0  0.23517703740E+03 -0.62443754986E+02 -0.63822756203E+02  0.25155676430E+03  0.00000000000E+00 0. -1.
          2    1    6    6  502    0 -0.66371317512E+02  0.28939795285E+03 -0.28911693824E+03  0.41442119984E+03  0.00000000000E+00 0. -1.
          3    1    5    5  503    0 -0.12921326495E+02 -0.31580703059E+02 -0.14500921052E+03  0.14896970370E+03  0.00000000000E+00 0. -1.
         -4    1    5    5    0  503 -0.34730602086E+03 -0.26168095006E+03 -0.12344458801E+04  0.13087990765E+04  0.00000000000E+00 0.  1.
         -1    1    6    6    0  502  0.27593293548E+02  0.20209653040E+03 -0.25822970260E+03  0.32906986607E+03  0.00000000000E+00 0.  1.
<mgrwt>
<rscale>  0 0.16950134E+04</rscale>
<asrwt>0</asrwt>
<pdfrwt beam="1">  1        1 0.46379482E-01 0.16950134E+04</pdfrwt>
<pdfrwt beam="2">  1       -1 0.36655039E+00 0.16950134E+04</pdfrwt>
<totfact> 0.10031809E+00</totfact>
</mgrwt>
</event>
<event>
11    1  0.2406360E-008  0.1813362E+04  0.7818608E-02  0.8699226E-01
         -2   -1    0    0    0  501 -0.00000000000E+00  0.00000000000E+00  0.72786120370E+03  0.72786120370E+03  0.00000000000E+00 0.  1.
          2   -1    0    0  501    0  0.00000000000E+00 -0.00000000000E+00 -0.11294331514E+04  0.11294331514E+04  0.00000000000E+00 0. -1.
         23    2    1    2    0    0 -0.36825750330E+03 -0.25686687290E+03 -0.66312545136E+03  0.80582805965E+03  0.89606463692E+02 0.  0.
        254    2    1    2    0    0  0.36825750330E+03  0.25686687290E+03  0.26155350364E+03  0.10514662955E+04  0.91409898596E+03 0.  0.
        -24    2    4    4    0    0 -0.69712607920E+02  0.48658589637E+03  0.21215722633E+03  0.54094015204E+03  0.77329665459E+02 0.  0.
         13    1    3    3    0    0 -0.84335069706E+01 -0.32082155211E+02 -0.57443141505E+02  0.66333273919E+02  0.00000000000E+00 0.  1.
        -13    1    3    3    0    0 -0.35982399633E+03 -0.22478471769E+03 -0.60568230986E+03  0.73949478573E+03  0.00000000000E+00 0. -1.
          2    1    4    4  502    0  0.18975164054E+03 -0.16485941463E+03  0.17048305727E+02  0.25194236724E+03  0.00000000000E+00 0. -1.
          1    1    5    5  503    0 -0.80505784556E+02  0.30371057405E+03  0.14151679841E+03  0.34459874981E+03  0.00000000000E+00 0. -1.
         -2    1    5    5    0  503  0.10793176635E+02  0.18287532231E+03  0.70640427919E+02  0.19634140223E+03  0.00000000000E+00 0.  1.
         -1    1    4    4    0  502  0.24821847068E+03 -0.64859608838E+02  0.32347971581E+02  0.25858377620E+03  0.00000000000E+00 0.  1.
<mgrwt>
<rscale>  0 0.18133622E+04</rscale>
<asrwt>0</asrwt>
<pdfrwt beam="1">  1        2 0.17375895E+00 0.18133622E+04</pdfrwt>
<pdfrwt beam="2">  1       -2 0.11197865E+00 0.18133622E+04</pdfrwt>
<totfact> 0.12401550E+01</totfact>
</mgrwt>
</event>
<event>
12    1  0.2406360E-008  0.1329640E+04  0.7818608E-02  0.9006385E-01
          1   -1    0    0  501    0  0.00000000000E+00  0.00000000000E+00  0.54612542506E+03  0.54612542506E+03  0.00000000000E+00 0. -1.
         -1   -1    0    0    0  501 -0.00000000000E+00 -0.00000000000E+00 -0.80931130534E+03  0.80931130534E+03  0.00000000000E+00 0.  1.
         23    2    1    2    0    0  0.27860323430E+03  0.11204376151E+01 -0.28709099063E+03  0.41031546529E+03  0.91194992245E+02 0.  0.
        254    2    1    2    0    0 -0.27860323430E+03 -0.11204376151E+01  0.23905110347E+02  0.94512126511E+03  0.90280769487E+03 0.  0.
        -24    2    4    4    0    0 -0.16860830374E+03 -0.43230635439E+03 -0.83361605494E+02  0.47794838662E+03  0.78536353796E+02 0.  0.
         24    2    4    4    0    0 -0.10999493056E+03  0.43118591677E+03  0.10726671584E+03  0.46717287849E+03  0.93403268103E+02 0.  0.
         13    1    3    3    0    0  0.95294369355E+02  0.38893351630E+02 -0.74388155019E+02  0.12699333541E+03  0.00000000000E+00 0. -1.
        -13    1    3    3    0    0  0.18330886494E+03 -0.37772914015E+02 -0.21270283561E+03  0.28332212988E+03  0.00000000000E+00 0.  1.
          4    1    6    6  502    0  0.15811777989E+02  0.67485139070E+02  0.24606094591E+02  0.73550773004E+02  0.00000000000E+00 0. -1.
          1    1    5    5  503    0  0.74317718114E+01 -0.38763323768E+02 -0.85195293085E+01  0.40378321925E+02  0.00000000000E+00 0. -1.
         -2    1    5    5    0  503 -0.17604007555E+03 -0.39354303062E+03 -0.74842076185E+02  0.43757006470E+03  0.00000000000E+00 0.  1.
         -3    1    6    6    0  502 -0.12580670855E+03  0.36370077770E+03  0.82660621250E+02  0.39362210548E+03  0.00000000000E+00 0.  1.
<mgrwt>
<rscale>  0 0.13296398E+04</rscale>
<asrwt>0</asrwt>
<pdfrwt beam="1">  1        1 0.84019297E-01 0.13296398E+04</pdfrwt>
<pdfrwt beam="2">  1       -1 0.12450943E+00 0.13296398E+04</pdfrwt>
<totfact> 0.21714484E+01</totfact>
</mgrwt>
</event>
<event>
11    1  0.2406360E-008  0.1093047E+04  0.7818608E-02  0.9211996E-01
         -2   -1    0    0    0  501 -0.00000000000E+00  0.00000000000E+00  0.27064986113E+03  0.27064986113E+03  0.00000000000E+00 0.  1.
          2   -1    0    0  501    0  0.00000000000E+00 -0.00000000000E+00 -0.11035946524E+04  0.11035946524E+04  0.00000000000E+00 0. -1.
         23    2    1    2    0    0  0.52600340856E+02 -0.38645551279E+02 -0.24597947377E+03  0.27011641299E+03  0.90535631409E+02 0.  0.
        254    2    1    2    0    0 -0.52600340856E+02  0.38645551279E+02 -0.58696531750E+03  0.11041281005E+04  0.93290423087E+03 0.  0.
        -24    2    4    4    0    0  0.10275406622E+03 -0.30753292116E+03  0.54829251154E+02  0.33853377664E+03  0.80398852126E+02 0.  0.
         13    1    3    3    0    0  0.57065580326E+02 -0.81771079914E+01 -0.66476843521E+02  0.87991569355E+02  0.00000000000E+00 0.  1.
        -13    1    3    3    0    0 -0.44652394705E+01 -0.30468443287E+02 -0.17950263025E+03  0.18212484363E+03  0.00000000000E+00 0. -1.
          2    1    4    4  502    0 -0.75601395166E+02  0.89462951153E+02 -0.77233770151E+02  0.14030055535E+03  0.00000000000E+00 0. -1.
          1    1    5    5  503    0  0.29252443331E+01 -0.76077355623E+02 -0.13612287057E+02  0.77340904132E+02  0.00000000000E+00 0. -1.
         -2    1    5    5    0  503  0.99828821883E+02 -0.23145556554E+03  0.68441538211E+02  0.26119287251E+03  0.00000000000E+00 0.  1.
         -1    1    4    4    0  502 -0.79753011906E+02  0.25671552129E+03 -0.56456079850E+03  0.62529376855E+03  0.00000000000E+00 0.  1.
<mgrwt>
<rscale>  0 0.10930466E+04</rscale>
<asrwt>0</asrwt>
<pdfrwt beam="1">  1        2 0.16978379E+00 0.10930466E+04</pdfrwt>
<pdfrwt beam="2">  1       -2 0.41638440E-01 0.10930466E+04</pdfrwt>
<totfact> 0.11757636E+02</totfact>
</mgrwt>
</event>
<event>
11    1  0.2406360E-008  0.1967738E+04  0.7818608E-02  0.8621854E-01
          1   -1    0    0  501    0  0.00000000000E+00  0.00000000000E+00  0.20238521270E+04  0.20238521270E+04  0.00000000000E+00 0.  1.
         -1   -1    0    0    0  501 -0.00000000000E+00 -0.00000000000E+00 -0.47829496855E+03  0.47829496855E+03  0.00000000000E+00 0. -1.
         23    2    1    2    0    0  0.30374863318E+03  0.24937122236E+03  0.14606449172E+04  0.15146809277E+04  0.79533011928E+02 0.  0.
        254    2    1    2    0    0 -0.30374863318E+03 -0.24937122236E+03  0.84912241237E+02  0.98746616782E+03  0.90190360082E+03 0.  0.
        -24    2    4    4    0    0  0.99123797159E+02 -0.17472327795E+03  0.39915473931E+03  0.45444026254E+03  0.82690357829E+02 0.  0.
         11    1    3    3    0    0  0.28528384226E+02  0.23309011537E+02  0.25112055891E+03  0.25380841954E+03  0.00000000000E+00 0. -1.
        -11    1    3    3    0    0  0.27522024895E+03  0.22606221082E+03  0.12095243583E+04  0.12608725082E+04  0.00000000000E+00 0.  1.
          2    1    4    4  502    0 -0.24190233979E+03 -0.42755067042E+02 -0.26578775834E+03  0.36192246440E+03  0.00000000000E+00 0. -1.
          3    1    5    5  503    0  0.11007899909E+03 -0.15469882377E+03  0.37938770810E+03  0.42424538321E+03  0.00000000000E+00 0. -1.
         -4    1    5    5    0  503 -0.10955201935E+02 -0.20024454178E+02  0.19767031212E+02  0.30194879325E+02  0.00000000000E+00 0.  1.
         -1    1    4    4    0  502 -0.16097009055E+03 -0.31892877368E+02 -0.48454739730E+02  0.17110344088E+03  0.00000000000E+00 0.  1.
<mgrwt>
<rscale>  0 0.19677381E+04</rscale>
<asrwt>0</asrwt>
<pdfrwt beam="1">  1        1 0.31136186E+00 0.19677381E+04</pdfrwt>
<pdfrwt beam="2">  1       -1 0.73583842E-01 0.19677381E+04</pdfrwt>
<totfact> 0.49686314E+00</totfact>
</mgrwt>
</event>
<event>
12    1  0.2406360E-008  0.1262057E+04  0.7818608E-02  0.9060207E-01
         -1   -1    0    0    0  501 -0.00000000000E+00  0.00000000000E+00  0.50903410006E+03  0.50903410006E+03  0.00000000000E+00 0.  1.
          1   -1    0    0  501    0  0.00000000000E+00 -0.00000000000E+00 -0.78226032628E+03  0.78226032628E+03  0.00000000000E+00 0. -1.
         23    2    1    2    0    0 -0.18406494618E+02  0.27816809170E+03 -0.18540311525E+03  0.34703288150E+03  0.91330276529E+02 0.  0.
        254    2    1    2    0    0  0.18406494618E+02 -0.27816809170E+03 -0.87823110962E+02  0.94426154484E+03  0.89788678571E+03 0.  0.
        -24    2    4    4    0    0  0.23952084072E+03  0.24095846442E+03  0.55274954940E+02  0.35346699447E+03  0.80326712985E+02 0.  0.
         24    2    4    4    0    0 -0.22111434610E+03 -0.51912655613E+03 -0.14309806590E+03  0.59079455038E+03  0.10088215384E+03 0.  0.
         11    1    3    3    0    0 -0.15968998675E+02  0.53599255330E+02 -0.18692357935E+00  0.55927846651E+02  0.00000000000E+00 0.  1.
        -11    1    3    3    0    0 -0.24374959436E+01  0.22456883637E+03 -0.18521619167E+03  0.29110503485E+03  0.00000000000E+00 0. -1.
          2    1    6    6  502    0 -0.12224972339E+03 -0.28166963195E+03 -0.12942041454E+03  0.33321527596E+03  0.00000000000E+00 0. -1.
          1    1    5    5  503    0  0.20183418589E+03  0.16256107441E+03  0.61178246442E+02  0.26628165416E+03  0.00000000000E+00 0. -1.
         -2    1    5    5    0  503  0.37686654826E+02  0.78397390013E+02 -0.59032915024E+01  0.87185340301E+02  0.00000000000E+00 0.  1.
         -1    1    6    6    0  502 -0.98864622709E+02 -0.23745692418E+03 -0.13677651357E+02  0.25757927442E+03  0.00000000000E+00 0.  1.
<mgrwt>
<rscale>  0 0.12620573E+04</rscale>
<asrwt>0</asrwt>
<pdfrwt beam="1">  1        1 0.12034774E+00 0.12620573E+04</pdfrwt>
<pdfrwt beam="2">  1       -1 0.78312939E-01 0.12620573E+04</pdfrwt>
<totfact> 0.36871541E+01</totfact>
</mgrwt>
</event>
<event>
11    1  0.2406360E-008  0.1773139E+04  0.7818608E-02  0.8720715E-01
          2   -1    0    0  501    0  0.00000000000E+00  0.00000000000E+00  0.36976123889E+04  0.36976123889E+04  0.00000000000E+00 0. -1.
         -2   -1    0    0    0  501 -0.00000000000E+00 -0.00000000000E+00 -0.21257119479E+03  0.21257119479E+03  0.00000000000E+00 0.  1.
         23    2    1    2    0    0  0.27079221142E+02  0.20839138759E+03 -0.65251279346E+02  0.23771054976E+03  0.89935095327E+02 0.  0.
        254    2    1    2    0    0 -0.27079221142E+02 -0.20839138759E+03  0.35502924735E+04  0.36724730340E+04  0.91559886590E+03 0.  0.
        -24    2    4    4    0    0 -0.15093582023E+03  0.27678746396E+03  0.23328824238E+04  0.23554506467E+04  0.80090097860E+02 0.  0.
         11    1    3    3    0    0 -0.37131205372E+01  0.41907406311E+02 -0.53408970589E+02  0.67989235231E+02  0.00000000000E+00 0.  1.
        -11    1    3    3    0    0  0.30792341679E+02  0.16648398128E+03 -0.11842308756E+02  0.16972131453E+03  0.00000000000E+00 0. -1.
          2    1    4    4  502    0  0.12540252392E+02 -0.16728266473E+02  0.46952656332E+02  0.51396933429E+02  0.00000000000E+00 0. -1.
          1    1    5    5  503    0 -0.11212134678E+03  0.22414834654E+03  0.20410137698E+04  0.20563440584E+04  0.00000000000E+00 0. -1.
         -2    1    5    5    0  503 -0.38814473449E+02  0.52639117424E+02  0.29186865398E+03  0.29910658838E+03  0.00000000000E+00 0.  1.
         -1    1    4    4    0  502  0.11131634669E+03 -0.46845058508E+03  0.11704573933E+04  0.12656254538E+04  0.00000000000E+00 0.  1.
<mgrwt>
<rscale>  0 0.17731395E+04</rscale>
<asrwt>0</asrwt>
<pdfrwt beam="1">  1        2 0.56886340E+00 0.17731395E+04</pdfrwt>
<pdfrwt beam="2">  1       -2 0.32703263E-01 0.17731395E+04</pdfrwt>
<totfact> 0.48877771E+00</totfact>
</mgrwt>
</event>
<event>
12    1  0.2406360E-008  0.2855556E+04  0.7818608E-02  0.8286225E-01
          1   -1    0    0  501    0  0.00000000000E+00  0.00000000000E+00  0.21112510978E+04  0.21112510978E+04  0.00000000000E+00 0. -1.
         -1   -1    0    0    0  501 -0.00000000000E+00 -0.00000000000E+00 -0.96556520830E+03  0.96556520830E+03  0.00000000000E+00 0.  1.
         23    2    1    2    0    0 -0.72591008347E+03  0.51043067569E+03  0.15225561945E+04  0.17644330252E+04  0.86957523608E+02 0.  0.
        254    2    1    2    0    0  0.72591008347E+03 -0.51043067569E+03 -0.37687030506E+03  0.13123832809E+04  0.89041210971E+03 0.  0.
        -24    2    4    4    0    0  0.50200137663E+02  0.48341268600E+02 -0.41923607726E+03  0.43206697483E+03  0.77884852121E+02 0.  0.
         24    2    4    4    0    0  0.67570994581E+03 -0.55877194429E+03  0.42365772206E+02  0.88031630604E+03  0.65969109712E+02 0.  0.
         11    1    3    3    0    0 -0.41852024171E+03  0.31859040648E+03  0.82560624669E+03  0.97892017774E+03  0.00000000000E+00 0. -1.
        -11    1    3    3    0    0 -0.30738984176E+03  0.19184026921E+03  0.69694994783E+03  0.78551284743E+03  0.00000000000E+00 0.  1.
          4    1    6    6  502    0  0.90645013342E+02 -0.49904814107E+02  0.13783658662E+02  0.10438868790E+03  0.00000000000E+00 0. -1.
          1    1    5    5  503    0  0.85404568743E+01 -0.14547340822E+02 -0.21953947673E+02  0.27686465051E+02  0.00000000000E+00 0. -1.
         -2    1    5    5    0  503  0.41659680789E+02  0.62888609422E+02 -0.39728212959E+03  0.40438050978E+03  0.00000000000E+00 0.  1.
         -3    1    6    6    0  502  0.58506493246E+03 -0.50886713018E+03  0.28582113544E+02  0.77592761814E+03  0.00000000000E+00 0.  1.
<mgrwt>
<rscale>  0 0.28555564E+04</rscale>
<asrwt>0</asrwt>
<pdfrwt beam="1">  1        1 0.32480786E+00 0.28555564E+04</pdfrwt>
<pdfrwt beam="2">  1       -1 0.14854849E+00 0.28555564E+04</pdfrwt>
<totfact> 0.77260482E-01</totfact>
</mgrwt>
</event>
<event>
11    1  0.2406360E-008  0.2202381E+04  0.7818608E-02  0.8517438E-01
         -1   -1    0    0    0  501 -0.00000000000E+00  0.00000000000E+00  0.87959185487E+03  0.87959185487E+03  0.00000000000E+00 0.  1.
          1   -1    0    0  501    0  0.00000000000E+00 -0.00000000000E+00 -0.13786178639E+04  0.13786178639E+04  0.00000000000E+00 0. -1.
         23    2    1    2    0    0 -0.58540397398E+03  0.65429134942E+03 -0.42877933933E+03  0.98153954702E+03  0.93665243505E+02 0.  0.
        254    2    1    2    0    0  0.58540397398E+03 -0.65429134942E+03 -0.70246669733E+02  0.12766701718E+04  0.92420622711E+03 0.  0.
        -24    2    4    4    0    0 -0.93469647519E+01  0.15403382911E+03 -0.18854751622E+03  0.25731744956E+03  0.82754563116E+02 0.  0.
         11    1    3    3    0    0 -0.57674118311E+03  0.64686451642E+03 -0.40809664155E+03  0.95791803602E+03  0.00000000000E+00 0. -1.
        -11    1    3    3    0    0 -0.86627908719E+01  0.74268330073E+01 -0.20682697783E+02  0.23621510997E+02  0.00000000000E+00 0.  1.
          2    1    4    4  502    0  0.35882551162E+03 -0.54684681059E+03  0.22830037879E+02  0.65446038282E+03  0.00000000000E+00 0. -1.
          1    1    5    5  503    0 -0.15955132898E+02  0.14798068799E+03 -0.19568804158E+03  0.24585902444E+03  0.00000000000E+00 0. -1.
         -2    1    5    5    0  503  0.66081681463E+01  0.60531411238E+01  0.71405253632E+01  0.11458425118E+02  0.00000000000E+00 0.  1.
         -1    1    4    4    0  502  0.23592542712E+03 -0.26147836794E+03  0.95470808606E+02  0.36489233940E+03  0.00000000000E+00 0.  1.
<mgrwt>
<rscale>  0 0.22023815E+04</rscale>
<asrwt>0</asrwt>
<pdfrwt beam="1">  1        1 0.21209506E+00 0.22023815E+04</pdfrwt>
<pdfrwt beam="2">  1       -1 0.13532182E+00 0.22023815E+04</pdfrwt>
<totfact> 0.33196069E+00</totfact>
</mgrwt>
</event>
<event>
11    1  0.2406360E-008  0.1800768E+04  0.7818608E-02  0.8705891E-01
          2   -1    0    0  501    0  0.00000000000E+00  0.00000000000E+00  0.73354049030E+03  0.73354049030E+03  0.00000000000E+00 0. -1.
         -2   -1    0    0    0  501 -0.00000000000E+00 -0.00000000000E+00 -0.11051760452E+04  0.11051760452E+04  0.00000000000E+00 0.  1.
         23    2    1    2    0    0  0.44096453896E+03 -0.42081161952E+03  0.11394297929E+03  0.62963991325E+03  0.10923037164E+03 0.  0.
        254    2    1    2    0    0 -0.44096453896E+03  0.42081161952E+03 -0.48557853416E+03  0.12090766222E+04  0.92441744998E+03 0.  0.
        -24    2    4    4    0    0  0.18427428680E+03  0.25977901156E+03 -0.51676948560E+02  0.33235581626E+03  0.79672667631E+02 0.  0.
         13    1    3    3    0    0  0.11536754725E+03 -0.14778824044E+03  0.78466233251E+02  0.20324365853E+03  0.00000000000E+00 0.  1.
        -13    1    3    3    0    0  0.32559699171E+03 -0.27302337908E+03  0.35476746040E+02  0.42639625473E+03  0.00000000000E+00 0. -1.
          4    1    4    4  502    0 -0.54958362253E+03  0.19219626689E+03 -0.50316617947E+03  0.76951787979E+03  0.00000000000E+00 0. -1.
          3    1    5    5  503    0  0.18816059211E+03  0.22606265016E+03 -0.50257303148E+02  0.29838653913E+03  0.00000000000E+00 0. -1.
         -4    1    5    5    0  503 -0.38863053069E+01  0.33716361410E+02 -0.14196454119E+01  0.33969277130E+02  0.00000000000E+00 0.  1.
         -3    1    4    4    0  502 -0.75655203229E+02 -0.31163658938E+02  0.69264593869E+02  0.10720292616E+03  0.00000000000E+00 0.  1.
<mgrwt>
<rscale>  0 0.18007680E+04</rscale>
<asrwt>0</asrwt>
<pdfrwt beam="1">  1        2 0.11285238E+00 0.18007680E+04</pdfrwt>
<pdfrwt beam="2">  1       -2 0.17002708E+00 0.18007680E+04</pdfrwt>
<totfact> 0.77565401E+00</totfact>
</mgrwt>
</event>
<event>
12    1  0.2406360E-008  0.1175783E+04  0.7818608E-02  0.9134322E-01
         -1   -1    0    0    0  501 -0.00000000000E+00  0.00000000000E+00  0.40726890964E+03  0.40726890964E+03  0.00000000000E+00 0.  1.
          1   -1    0    0  501    0  0.00000000000E+00 -0.00000000000E+00 -0.84861905306E+03  0.84861905306E+03  0.00000000000E+00 0. -1.
         23    2    1    2    0    0  0.16429735116E+03 -0.55140395507E+02 -0.20227467381E+03  0.28143899252E+03  0.90877830259E+02 0.  0.
        254    2    1    2    0    0 -0.16429735116E+03  0.55140395507E+02 -0.23907546961E+03  0.97444897018E+03  0.92863320665E+03 0.  0.
        -24    2    4    4    0    0 -0.36328943181E+03 -0.27366793779E+03  0.81190703307E+02  0.46951042458E+03  0.83515010910E+02 0.  0.
         24    2    4    4    0    0  0.19899208065E+03  0.32880833330E+03 -0.32026617292E+03  0.50493854560E+03  0.68408662502E+02 0.  0.
         13    1    3    3    0    0  0.18576025838E+02 -0.17322150735E+02  0.43668039249E+01  0.25771973509E+02  0.00000000000E+00 0.  1.
        -13    1    3    3    0    0  0.14572132532E+03 -0.37818244771E+02 -0.20664147773E+03  0.25566701901E+03  0.00000000000E+00 0. -1.
          4    1    6    6  502    0  0.99221764688E+02  0.11475368583E+03 -0.15361076076E+03  0.21589264188E+03  0.00000000000E+00 0. -1.
          1    1    5    5  503    0 -0.15065596207E+03 -0.78368671536E+02  0.59665649878E+02  0.17999682597E+03  0.00000000000E+00 0. -1.
         -2    1    5    5    0  503 -0.21263346974E+03 -0.19529926625E+03  0.21525053429E+02  0.28951359861E+03  0.00000000000E+00 0.  1.
         -3    1    6    6    0  502  0.99770315962E+02  0.21405464747E+03 -0.16665541216E+03  0.28904590371E+03  0.00000000000E+00 0.  1.
<mgrwt>
<rscale>  0 0.11757826E+04</rscale>
<asrwt>0</asrwt>
<pdfrwt beam="1">  1        1 0.13055678E+00 0.11757826E+04</pdfrwt>
<pdfrwt beam="2">  1       -1 0.62656756E-01 0.11757826E+04</pdfrwt>
<totfact> 0.51443678E+01</totfact>
</mgrwt>
</event>
<event>
12    1  0.2406360E-008  0.1546713E+04  0.7818608E-02  0.8853970E-01
          2   -1    0    0  501    0  0.00000000000E+00  0.00000000000E+00  0.17334048777E+04  0.17334048777E+04  0.00000000000E+00 0. -1.
         -2   -1    0    0    0  501 -0.00000000000E+00 -0.00000000000E+00 -0.34503188062E+03  0.34503188062E+03  0.00000000000E+00 0.  1.
         23    2    1    2    0    0 -0.20172742466E+03 -0.39447687405E+03  0.13461871389E+03  0.47196865826E+03  0.91248332720E+02 0.  0.
        254    2    1    2    0    0  0.20172742466E+03  0.39447687405E+03  0.12537542832E+04  0.16064681001E+04  0.90140667622E+03 0.  0.
        -24    2    4    4    0    0  0.41078815691E+03 -0.68979548984E+02  0.86557430444E+03  0.96380590759E+03  0.78726507347E+02 0.  0.
         24    2    4    4    0    0 -0.20906073225E+03  0.46345642304E+03  0.38817997879E+03  0.64266219253E+03  0.61909223415E+02 0.  0.
         13    1    3    3    0    0 -0.62414162743E+02 -0.96710928792E+02  0.76291368791E+02  0.13809020389E+03  0.00000000000E+00 0. -1.
        -13    1    3    3    0    0 -0.13931326192E+03 -0.29776594526E+03  0.58327345102E+02  0.33387845437E+03  0.00000000000E+00 0.  1.
          4    1    6    6  502    0 -0.17947574483E+03  0.33559828874E+03  0.29918497188E+03  0.48409647984E+03  0.00000000000E+00 0. -1.
          3    1    5    5  503    0  0.12850696252E+03 -0.12917374445E+02  0.35416251576E+03  0.37697743374E+03  0.00000000000E+00 0. -1.
         -2    1    5    5    0  503  0.28228119438E+03 -0.56062174539E+02  0.51141178868E+03  0.58682847385E+03  0.00000000000E+00 0.  1.
         -3    1    6    6    0  502 -0.29584987416E+02  0.12785813429E+03  0.88995006910E+02  0.15856571269E+03  0.00000000000E+00 0.  1.
<mgrwt>
<rscale>  0 0.15467126E+04</rscale>
<asrwt>0</asrwt>
<pdfrwt beam="1">  1        2 0.26667767E+00 0.15467126E+04</pdfrwt>
<pdfrwt beam="2">  1       -2 0.53081829E-01 0.15467126E+04</pdfrwt>
<totfact> 0.30271956E+01</totfact>
</mgrwt>
</event>
<event>
11    1  0.2406360E-008  0.1540942E+04  0.7818608E-02  0.8857674E-01
          2   -1    0    0  501    0  0.00000000000E+00  0.00000000000E+00  0.74855005921E+03  0.74855005921E+03  0.00000000000E+00 0. -1.
         -2   -1    0    0    0  501 -0.00000000000E+00 -0.00000000000E+00 -0.79303406590E+03  0.79303406590E+03  0.00000000000E+00 0.  1.
         23    2    1    2    0    0 -0.92194825985E+02 -0.22935326566E+03  0.42132632364E+03  0.49660729707E+03  0.89443446368E+02 0.  0.
        254    2    1    2    0    0  0.92194825985E+02  0.22935326566E+03 -0.46581033034E+03  0.10449768280E+04  0.90216101716E+03 0.  0.
        -24    2    4    4    0    0 -0.21199264722E+03 -0.25354721672E+03 -0.24662935725E+03  0.41942540485E+03  0.76580394279E+02 0.  0.
         11    1    3    3    0    0 -0.25069117190E+02 -0.37071221575E+01  0.24774021163E+02  0.35439462693E+02  0.00000000000E+00 0.  1.
        -11    1    3    3    0    0 -0.67125708794E+02 -0.22564614350E+03  0.39655230248E+03  0.46116783438E+03  0.00000000000E+00 0. -1.
          4    1    4    4  502    0  0.11945955204E+03  0.20307035801E+03 -0.22146531145E+02  0.23664028338E+03  0.00000000000E+00 0. -1.
          3    1    5    5  503    0 -0.31583152834E+02 -0.78448207702E+02 -0.88560329689E+02  0.12245223081E+03  0.00000000000E+00 0. -1.
         -2    1    5    5    0  503 -0.18040949439E+03 -0.17509900902E+03 -0.15806902757E+03  0.29697317404E+03  0.00000000000E+00 0.  1.
         -3    1    4    4    0  502  0.18472792116E+03  0.27983012437E+03 -0.19703444194E+03  0.38891113982E+03  0.00000000000E+00 0.  1.
<mgrwt>
<rscale>  0 0.15409422E+04</rscale>
<asrwt>0</asrwt>
<pdfrwt beam="1">  1        2 0.11516155E+00 0.15409422E+04</pdfrwt>
<pdfrwt beam="2">  1       -2 0.12200524E+00 0.15409422E+04</pdfrwt>
<totfact> 0.18448171E+01</totfact>
</mgrwt>
</event>
<event>
12    1  0.2406360E-008  0.1869501E+04  0.7818608E-02  0.8670189E-01
         -2   -1    0    0    0  501 -0.00000000000E+00  0.00000000000E+00  0.51720317581E+03  0.51720317581E+03  0.00000000000E+00 0.  1.
          2   -1    0    0  501    0  0.00000000000E+00 -0.00000000000E+00 -0.16893906578E+04  0.16893906578E+04  0.00000000000E+00 0. -1.
         23    2    1    2    0    0 -0.47644474246E+03 -0.49679327865E+03 -0.30076474013E+03  0.75661095907E+03  0.90540378585E+02 0.  0.
        254    2    1    2    0    0  0.47644474246E+03  0.49679327865E+03 -0.87142274186E+03  0.14499828745E+04  0.93234628068E+03 0.  0.
        -24    2    4    4    0    0  0.66576882071E+03  0.37968718703E+03 -0.29443257842E+03  0.82490516022E+03  0.79796600834E+02 0.  0.
         24    2    4    4    0    0 -0.18932407825E+03  0.11710609162E+03 -0.57699016344E+03  0.62507771432E+03  0.90813308125E+02 0.  0.
         11    1    3    3    0    0 -0.17275332545E+03 -0.21112124385E+03 -0.16157942464E+03  0.31705488725E+03  0.00000000000E+00 0. -1.
        -11    1    3    3    0    0 -0.30369141701E+03 -0.28567203479E+03 -0.13918531548E+03  0.43955607182E+03  0.00000000000E+00 0.  1.
          2    1    6    6  502    0 -0.13382960648E+03  0.62739111676E+02 -0.47111999515E+03  0.49376169306E+03  0.00000000000E+00 0. -1.
          1    1    5    5  503    0  0.65201561912E+03  0.37881400551E+03 -0.27854352858E+03  0.80387244987E+03  0.00000000000E+00 0. -1.
         -2    1    5    5    0  503  0.13753201590E+02  0.87318151779E+00 -0.15889049841E+02  0.21032710353E+02  0.00000000000E+00 0.  1.
         -1    1    6    6    0  502 -0.55494471767E+02  0.54366979945E+02 -0.10587016829E+03  0.13131602125E+03  0.00000000000E+00 0.  1.
<mgrwt>
<rscale>  0 0.18695007E+04</rscale>
<asrwt>0</asrwt>
<pdfrwt beam="1">  1        2 0.25990625E+00 0.18695007E+04</pdfrwt>
<pdfrwt beam="2">  1       -2 0.79569721E-01 0.18695007E+04</pdfrwt>
<totfact> 0.13058000E+01</totfact>
</mgrwt>
</event>
