<event>
12    5  0.5264288E-008  0.2837389E+04  0.7818608E-02  0.8291754E-01
          1   -1    0    0  501    0  0.00000000000E+00  0.00000000000E+00  0.25648007167E+04  0.25648007167E+04  0.00000000000E+00 0. -1.
         -4   -1    0    0    0  501 -0.00000000000E+00 -0.00000000000E+00 -0.78473713242E+03  0.78473713242E+03  0.00000000000E+00 0.  1.
        -24    2    1    2    0    0 -0.49290752951E+02 -0.89638943573E+03  0.18702614341E+04  0.20761035845E+04  0.79904085394E+02 0.  0.
        254    2    1    2    0    0  0.49290752951E+02  0.89638943573E+03 -0.90197849794E+02  0.12734342646E+04  0.89864096026E+03 0.  0.
         23    2    4    4    0    0  0.40316626036E+03  0.21211461520E+03 -0.16831289580E+03  0.49396988475E+03  0.90229555404E+02 0.  0.
         23    2    4    4    0    0 -0.35387550741E+03  0.68427482053E+03  0.78115046003E+02  0.77946437990E+03  0.89458674067E+02 0.  0.
          1    1    3    3  502    0 -0.41298942688E+02 -0.60049730139E+03  0.13357855144E+04  0.14651367008E+04  0.00000000000E+00 0. -1.
         -2    1    3    3    0  502 -0.79918102635E+01 -0.29589213434E+03  0.53447591970E+03  0.61096688367E+03  0.00000000000E+00 0.  1.
         13    1    5    5    0    0  0.19359498859E+03  0.59392994705E+02 -0.99796907539E+02  0.22575643996E+03  0.00000000000E+00 0. -1.
        -13    1    5    5    0    0  0.20957127177E+03  0.15272162050E+03 -0.68515988258E+02  0.26821344479E+03  0.00000000000E+00 0.  1.
          1    1    6    6  503    0 -0.28050433857E+03  0.60290424461E+03  0.80883060866E+02  0.66986437557E+03  0.00000000000E+00 0. -1.
         -1    1    6    6    0  503 -0.73371168841E+02  0.81370575920E+02 -0.27680148630E+01  0.10960000433E+03  0.00000000000E+00 0.  1.
<mgrwt>
<rscale>  0 0.28373892E+04</rscale>
<asrwt>0</asrwt>
<pdfrwt beam="1">  1        1 0.39458472E+00 0.28373892E+04</pdfrwt>
<pdfrwt beam="2">  1       -4 0.12072879E+00 0.28373892E+04</pdfrwt>
<totfact> 0.27070929E-01</totfact>
</mgrwt>
</event>
<event>
12    5  0.5264288E-008  0.1898723E+04  0.7818608E-02  0.8655492E-01
          1   -1    0    0  501    0  0.00000000000E+00  0.00000000000E+00  0.30724375629E+04  0.30724375629E+04  0.00000000000E+00 0. -1.
         -2   -1    0    0    0  501 -0.00000000000E+00 -0.00000000000E+00 -0.29334603148E+03  0.29334603148E+03  0.00000000000E+00 0.  1.
        -24    2    1    2    0    0  0.28530679508E+03  0.57420098080E+03  0.44888059305E+03  0.78668999862E+03  0.79250447625E+02 0.  0.
        254    2    1    2    0    0 -0.28530679508E+03 -0.57420098080E+03  0.23302109384E+04  0.25790935958E+04  0.90040769919E+03 0.  0.
         23    2    4    4    0    0 -0.26985518388E+03  0.18383082977E+03  0.80376513509E+03  0.87222417582E+03  0.90116736831E+02 0.  0.
         23    2    4    4    0    0 -0.15451611208E+02 -0.75803181056E+03  0.15264458033E+04  0.17068694200E+04  0.92279186692E+02 0.  0.
          1    1    3    3  502    0  0.10366957184E+03  0.13089996710E+03  0.11748706965E+03  0.20417001016E+03  0.00000000000E+00 0. -1.
         -2    1    3    3    0  502  0.18163722324E+03  0.44330101370E+03  0.33139352340E+03  0.58251998847E+03  0.00000000000E+00 0.  1.
         13    1    5    5    0    0 -0.24852716528E+03  0.13275054651E+03  0.63758951941E+03  0.69707162813E+03  0.00000000000E+00 0. -1.
        -13    1    5    5    0    0 -0.21328018592E+02  0.51080283260E+02  0.16617561568E+03  0.17515254769E+03  0.00000000000E+00 0.  1.
          3    1    6    6  503    0  0.17653426258E+02 -0.60865625497E+03  0.11697724141E+04  0.13187651728E+04  0.00000000000E+00 0. -1.
         -3    1    6    6    0  503 -0.33105037466E+02 -0.14937555559E+03  0.35667338922E+03  0.38810424719E+03  0.00000000000E+00 0.  1.
<mgrwt>
<rscale>  0 0.18987231E+04</rscale>
<asrwt>0</asrwt>
<pdfrwt beam="1">  1        1 0.47268268E+00 0.18987231E+04</pdfrwt>
<pdfrwt beam="2">  1       -2 0.45130161E-01 0.18987231E+04</pdfrwt>
<totfact> 0.20299168E+00</totfact>
</mgrwt>
</event>
<event>
12    5  0.5264288E-008  0.1692275E+04  0.7818608E-02  0.8765782E-01
         -2   -1    0    0    0  501 -0.00000000000E+00  0.00000000000E+00  0.24329612069E+03  0.24329612069E+03  0.00000000000E+00 0.  1.
          1   -1    0    0  501    0  0.00000000000E+00 -0.00000000000E+00 -0.29427053157E+04  0.29427053157E+04  0.00000000000E+00 0. -1.
        -24    2    1    2    0    0  0.13849816540E+03  0.57676185786E+03 -0.12194072031E+04  0.13584368122E+04  0.80997920892E+02 0.  0.
        254    2    1    2    0    0 -0.13849816540E+03 -0.57676185786E+03 -0.14800019919E+04  0.18275646242E+04  0.89316884024E+03 0.  0.
         23    2    4    4    0    0  0.36404887344E+03 -0.16011322096E+03 -0.65064935031E+03  0.76805990529E+03  0.91671234755E+02 0.  0.
         23    2    4    4    0    0 -0.50254703884E+03 -0.41664863690E+03 -0.82935264161E+03  0.10595047189E+04  0.92600391165E+02 0.  0.
          1    1    3    3  502    0  0.12511442562E+03  0.48299224083E+03 -0.10826010110E+04  0.11920402985E+04  0.00000000000E+00 0. -1.
         -2    1    3    3    0  502  0.13383739779E+02  0.93769617033E+02 -0.13680619208E+03  0.16639651367E+03  0.00000000000E+00 0.  1.
         13    1    5    5    0    0  0.34372653417E+03 -0.16877958183E+03 -0.63286748270E+03  0.73969975543E+03  0.00000000000E+00 0. -1.
        -13    1    5    5    0    0  0.20322339274E+02  0.86663608686E+01 -0.17781867609E+02  0.28360149858E+02  0.00000000000E+00 0.  1.
          1    1    6    6  503    0 -0.47608756317E+03 -0.38012393911E+03 -0.73302824698E+03  0.95314426388E+03  0.00000000000E+00 0. -1.
         -1    1    6    6    0  503 -0.26459475668E+02 -0.36524697787E+02 -0.96324394633E+02  0.10636045507E+03  0.00000000000E+00 0.  1.
<mgrwt>
<rscale>  0 0.16922751E+04</rscale>
<asrwt>0</asrwt>
<pdfrwt beam="1">  1        1 0.45272390E+00 0.16922751E+04</pdfrwt>
<pdfrwt beam="2">  1       -2 0.37430172E-01 0.16922751E+04</pdfrwt>
<totfact> 0.37179161E+00</totfact>
</mgrwt>
</event>
<event>
12    5  0.5264288E-008  0.1506220E+04  0.7818608E-02  0.8880327E-01
         -2   -1    0    0    0  501 -0.00000000000E+00  0.00000000000E+00  0.15723494217E+04  0.15723494217E+04  0.00000000000E+00 0.  1.
          1   -1    0    0  501    0  0.00000000000E+00 -0.00000000000E+00 -0.36071807458E+03  0.36071807458E+03  0.00000000000E+00 0. -1.
        -24    2    1    2    0    0 -0.37061676567E+03 -0.10879370570E+03  0.31736916270E+02  0.39565123242E+03  0.79622914182E+02 0.  0.
        254    2    1    2    0    0  0.37061676567E+03  0.10879370570E+03  0.11798944309E+04  0.15374162639E+04  0.90681036777E+03 0.  0.
         23    2    4    4    0    0 -0.71410704886E+02 -0.27834185438E+03  0.12390718806E+03  0.32574528886E+03  0.90461733829E+02 0.  0.
         23    2    4    4    0    0  0.44202747056E+03  0.38713556008E+03  0.10559872428E+04  0.12116709751E+04  0.88177481070E+02 0.  0.
          3    1    3    3  502    0 -0.26366851226E+03 -0.42552972799E+02  0.54616761060E+01  0.26713605102E+03  0.00000000000E+00 0. -1.
         -4    1    3    3    0  502 -0.10694825341E+03 -0.66240732898E+02  0.26275240164E+02  0.12851518139E+03  0.00000000000E+00 0.  1.
         13    1    5    5    0    0 -0.80730113853E+02 -0.19371734093E+03  0.11713022670E+03  0.24033986242E+03  0.00000000000E+00 0. -1.
        -13    1    5    5    0    0  0.93194089666E+01 -0.84624513445E+02  0.67769613589E+01  0.85405426435E+02  0.00000000000E+00 0.  1.
          4    1    6    6  503    0  0.22703164122E+03  0.21840919358E+03  0.48020460654E+03  0.57431908039E+03  0.00000000000E+00 0. -1.
         -4    1    6    6    0  503  0.21499582934E+03  0.16872636650E+03  0.57578263629E+03  0.63735189467E+03  0.00000000000E+00 0.  1.
<mgrwt>
<rscale>  0 0.15062202E+04</rscale>
<asrwt>0</asrwt>
<pdfrwt beam="1">  1        1 0.55495089E-01 0.15062202E+04</pdfrwt>
<pdfrwt beam="2">  1       -2 0.24189991E+00 0.15062202E+04</pdfrwt>
<totfact> 0.41930675E+00</totfact>
</mgrwt>
</event>
<event>
12    5  0.5264288E-008  0.2358976E+04  0.7818608E-02  0.8455024E-01
          1   -1    0    0  501    0  0.00000000000E+00  0.00000000000E+00  0.67361518837E+03  0.67361518837E+03  0.00000000000E+00 0. -1.
         -2   -1    0    0    0  501 -0.00000000000E+00 -0.00000000000E+00 -0.20652629513E+04  0.20652629513E+04  0.00000000000E+00 0.  1.
        -24    2    1    2    0    0  0.99224839475E+03 -0.14279128984E+03 -0.66516157177E+03  0.12057399791E+04  0.80142069485E+02 0.  0.
        254    2    1    2    0    0 -0.99224839475E+03  0.14279128984E+03 -0.72648619112E+03  0.15331381605E+04  0.90431421754E+03 0.  0.
         23    2    4    4    0    0 -0.78573945840E+03  0.33244111214E+03 -0.12833060590E+03  0.86750396991E+03  0.90503060005E+02 0.  0.
         23    2    4    4    0    0 -0.20650893635E+03 -0.18964982230E+03 -0.59815558523E+03  0.66563419062E+03  0.81644201855E+02 0.  0.
          3    1    3    3  502    0  0.95292212182E+02 -0.30972643645E+02 -0.87447655119E+02  0.13299249130E+03  0.00000000000E+00 0. -1.
         -4    1    3    3    0  502  0.89695618257E+03 -0.11181864620E+03 -0.57771391666E+03  0.10727474878E+04  0.00000000000E+00 0.  1.
         13    1    5    5    0    0 -0.51442570359E+03  0.23651624898E+03 -0.12443825454E+03  0.57970563197E+03  0.00000000000E+00 0. -1.
        -13    1    5    5    0    0 -0.27131375481E+03  0.95924863164E+02 -0.38923513594E+01  0.28779833794E+03  0.00000000000E+00 0.  1.
          1    1    6    6  503    0 -0.97703821228E+02 -0.14264773563E+03 -0.33366593431E+03  0.37580230026E+03  0.00000000000E+00 0. -1.
         -1    1    6    6    0  503 -0.10880511512E+03 -0.47002086671E+02 -0.26448965092E+03  0.28983189036E+03  0.00000000000E+00 0.  1.
<mgrwt>
<rscale>  0 0.23589765E+04</rscale>
<asrwt>0</asrwt>
<pdfrwt beam="1">  1        1 0.10363311E+00 0.23589765E+04</pdfrwt>
<pdfrwt beam="2">  1       -2 0.31773276E+00 0.23589765E+04</pdfrwt>
<totfact> 0.56305222E-01</totfact>
</mgrwt>
</event>
<event>
12    5  0.5264288E-008  0.1487890E+04  0.7818608E-02  0.8892546E-01
          1   -1    0    0  501    0  0.00000000000E+00  0.00000000000E+00  0.14807484830E+04  0.14807484830E+04  0.00000000000E+00 0. -1.
         -2   -1    0    0    0  501 -0.00000000000E+00 -0.00000000000E+00 -0.37376664688E+03  0.37376664688E+03  0.00000000000E+00 0.  1.
        -24    2    1    2    0    0  0.39239462270E+03  0.21797754347E+03  0.55411420362E+03  0.71753434175E+03  0.79531324392E+02 0.  0.
        254    2    1    2    0    0 -0.39239462270E+03 -0.21797754347E+03  0.55286763252E+03  0.11369807882E+04  0.88632665771E+03 0.  0.
         23    2    4    4    0    0 -0.56889672733E+03 -0.19063023795E+03  0.67043807578E+03  0.90460508267E+03  0.94020041260E+02 0.  0.
         23    2    4    4    0    0  0.17650210463E+03 -0.27347305519E+02 -0.11757044326E+03  0.23237570548E+03  0.90965879936E+02 0.  0.
          1    1    3    3  502    0  0.28216800515E+03  0.12613361469E+03  0.33674771605E+03  0.45708587393E+03  0.00000000000E+00 0. -1.
         -2    1    3    3    0  502  0.11022661755E+03  0.91843928775E+02  0.21736648758E+03  0.26044846782E+03  0.00000000000E+00 0.  1.
         13    1    5    5    0    0 -0.39459135330E+02  0.68449912985E+01  0.27166682146E+02  0.48393242149E+02  0.00000000000E+00 0.  1.
        -13    1    5    5    0    0 -0.52943759200E+03 -0.19747522925E+03  0.64327139363E+03  0.85621184053E+03  0.00000000000E+00 0. -1.
          2    1    6    6  503    0  0.61439037461E+02 -0.13444087740E+02 -0.95567517492E+02  0.11440563456E+03  0.00000000000E+00 0. -1.
         -2    1    6    6    0  503  0.11506306717E+03 -0.13903217779E+02 -0.22002925763E+02  0.11797007092E+03  0.00000000000E+00 0.  1.
<mgrwt>
<rscale>  0 0.14878903E+04</rscale>
<asrwt>0</asrwt>
<pdfrwt beam="1">  1        1 0.22780746E+00 0.14878903E+04</pdfrwt>
<pdfrwt beam="2">  1       -2 0.57502562E-01 0.14878903E+04</pdfrwt>
<totfact> 0.16236495E+01</totfact>
</mgrwt>
</event>
<event>
12    5  0.5264288E-008  0.2447528E+04  0.7818608E-02  0.8421921E-01
          1   -1    0    0  501    0  0.00000000000E+00  0.00000000000E+00  0.17357071261E+04  0.17357071261E+04  0.00000000000E+00 0. -1.
         -2   -1    0    0    0  501 -0.00000000000E+00 -0.00000000000E+00 -0.86281711782E+03  0.86281711782E+03  0.00000000000E+00 0.  1.
        -24    2    1    2    0    0  0.54863285458E+03  0.46477074503E+03  0.12011434515E+04  0.14024531614E+04  0.84376680454E+02 0.  0.
        254    2    1    2    0    0 -0.54863285458E+03 -0.46477074503E+03 -0.32825344324E+03  0.11960710825E+04  0.89767803633E+03 0.  0.
         23    2    4    4    0    0 -0.35562463589E+03 -0.66933341206E+03 -0.43839011580E+03  0.88033610319E+03  0.91266986377E+02 0.  0.
         23    2    4    4    0    0 -0.19300821869E+03  0.20456266703E+03  0.11013667256E+03  0.31573497934E+03  0.91980613760E+02 0.  0.
          3    1    3    3  502    0  0.54550875649E+03  0.46824865711E+03  0.11964700598E+04  0.13958428323E+04  0.00000000000E+00 0. -1.
         -4    1    3    3    0  502  0.31240980960E+01 -0.34779120878E+01  0.46733917089E+01  0.66103291498E+01  0.00000000000E+00 0.  1.
         13    1    5    5    0    0 -0.28014455195E+03 -0.43659260217E+03 -0.29803848925E+03  0.59826500092E+03  0.00000000000E+00 0. -1.
        -13    1    5    5    0    0 -0.75480083942E+02 -0.23274080989E+03 -0.14035162655E+03  0.28207110227E+03  0.00000000000E+00 0.  1.
          3    1    6    6  503    0 -0.42708707395E+02  0.61541756827E+02  0.73701568243E+02  0.10508730981E+03  0.00000000000E+00 0. -1.
         -3    1    6    6    0  503 -0.15029951130E+03  0.14302091021E+03  0.36435104319E+02  0.21064766953E+03  0.00000000000E+00 0.  1.
<mgrwt>
<rscale>  0 0.24475276E+04</rscale>
<asrwt>0</asrwt>
<pdfrwt beam="1">  1        1 0.26703187E+00 0.24475276E+04</pdfrwt>
<pdfrwt beam="2">  1       -2 0.13274109E+00 0.24475276E+04</pdfrwt>
<totfact> 0.14549587E+00</totfact>
</mgrwt>
</event>
<event>
12    5  0.5264288E-008  0.3181492E+04  0.7818608E-02  0.8193722E-01
         -2   -1    0    0    0  501 -0.00000000000E+00  0.00000000000E+00  0.13057421723E+04  0.13057421723E+04  0.00000000000E+00 0.  1.
          1   -1    0    0  501    0  0.00000000000E+00 -0.00000000000E+00 -0.19379579481E+04  0.19379579481E+04  0.00000000000E+00 0. -1.
        -24    2    1    2    0    0 -0.52658457730E+03 -0.11395079920E+04 -0.10542097002E+04  0.16412759212E+04  0.81601327922E+02 0.  0.
        254    2    1    2    0    0  0.52658457730E+03  0.11395079920E+04  0.42199392440E+03  0.16024241992E+04  0.90217219024E+03 0.  0.
         23    2    4    4    0    0  0.30514733753E+03  0.12956122799E+02  0.31035438516E+03  0.44533557361E+03  0.93387204790E+02 0.  0.
         23    2    4    4    0    0  0.22143723978E+03  0.11265518692E+04  0.11163953924E+03  0.11570886255E+04  0.90758665783E+02 0.  0.
          3    1    3    3  502    0 -0.52307790871E+03 -0.11226371137E+04 -0.10495744871E+04  0.16234319178E+04  0.00000000000E+00 0. -1.
         -4    1    3    3    0  502 -0.35066685944E+01 -0.16870878317E+02 -0.46352131149E+01  0.17844003487E+02  0.00000000000E+00 0.  1.
         13    1    5    5    0    0  0.13826195219E+02 -0.10905648267E+02 -0.17905772231E+01  0.17700367373E+02  0.00000000000E+00 0.  1.
        -13    1    5    5    0    0  0.29132114231E+03  0.23861771065E+02  0.31214496238E+03  0.42763520623E+03  0.00000000000E+00 0. -1.
          2    1    6    6  503    0  0.19450809400E+03  0.10773708391E+04  0.96635623261E+02  0.10990449341E+04  0.00000000000E+00 0. -1.
         -2    1    6    6    0  503  0.26929145781E+02  0.49181030131E+02  0.15003915982E+02  0.58043691406E+02  0.00000000000E+00 0.  1.
<mgrwt>
<rscale>  0 0.31814924E+04</rscale>
<asrwt>0</asrwt>
<pdfrwt beam="1">  1        1 0.29814738E+00 0.31814924E+04</pdfrwt>
<pdfrwt beam="2">  1       -2 0.20088341E+00 0.31814924E+04</pdfrwt>
<totfact> 0.31744430E-01</totfact>
</mgrwt>
</event>
<event>
12    5  0.5264288E-008  0.2926695E+04  0.7818608E-02  0.8264979E-01
          1   -1    0    0  501    0  0.00000000000E+00  0.00000000000E+00  0.17797887267E+04  0.17797887267E+04  0.00000000000E+00 0. -1.
         -2   -1    0    0    0  501 -0.00000000000E+00 -0.00000000000E+00 -0.12031687247E+04  0.12031687247E+04  0.00000000000E+00 0.  1.
        -24    2    1    2    0    0  0.83912448850E+03 -0.10233148512E+04  0.23984931340E+03  0.13461379470E+04  0.57065641946E+02 0.  0.
        254    2    1    2    0    0 -0.83912448850E+03  0.10233148512E+04  0.33677068862E+03  0.16368195043E+04  0.90247459863E+03 0.  0.
         23    2    4    4    0    0  0.52782415508E+02  0.59935301764E+03  0.95115369818E+02  0.61600766719E+03  0.91697815250E+02 0.  0.
         23    2    4    4    0    0 -0.89190690401E+03  0.42396183354E+03  0.24165531880E+03  0.10208118371E+04  0.91749397813E+02 0.  0.
          3    1    3    3  502    0  0.71395797978E+03 -0.86102520390E+03  0.22261980539E+03  0.11404648072E+04  0.00000000000E+00 0. -1.
         -4    1    3    3    0  502  0.12516650872E+03 -0.16228964729E+03  0.17229508007E+02  0.20567313988E+03  0.00000000000E+00 0.  1.
         13    1    5    5    0    0  0.28287802242E+02  0.42529434973E+02  0.38490599690E+01  0.51222727938E+02  0.00000000000E+00 0. -1.
        -13    1    5    5    0    0  0.24494613266E+02  0.55682358267E+03  0.91266309849E+02  0.56478493926E+03  0.00000000000E+00 0.  1.
          2    1    6    6  503    0 -0.30179657366E+03  0.17989208407E+03  0.11580467862E+03  0.36993655858E+03  0.00000000000E+00 0. -1.
         -2    1    6    6    0  503 -0.59011033035E+03  0.24406974947E+03  0.12585064018E+03  0.65087527855E+03  0.00000000000E+00 0.  1.
<mgrwt>
<rscale>  0 0.29266952E+04</rscale>
<asrwt>0</asrwt>
<pdfrwt beam="1">  1        1 0.27381365E+00 0.29266952E+04</pdfrwt>
<pdfrwt beam="2">  1       -2 0.18510288E+00 0.29266952E+04</pdfrwt>
<totfact> 0.52941207E-01</totfact>
</mgrwt>
</event>
<event>
12    5  0.5264288E-008  0.1880213E+04  0.7818608E-02  0.8664769E-01
         -2   -1    0    0    0  501 -0.00000000000E+00  0.00000000000E+00  0.66721218973E+03  0.66721218973E+03  0.00000000000E+00 0.  1.
          1   -1    0    0  501    0  0.00000000000E+00 -0.00000000000E+00 -0.13246161133E+04  0.13246161133E+04  0.00000000000E+00 0. -1.
        -24    2    1    2    0    0 -0.62020941926E+02 -0.24870924188E+03 -0.96845017509E+03  0.10044541759E+04  0.73003874344E+02 0.  0.
        254    2    1    2    0    0  0.62020941926E+02  0.24870924188E+03  0.31104625151E+03  0.98737412710E+03  0.90136286370E+03 0.  0.
         23    2    4    4    0    0 -0.13801589219E+03  0.15065487152E+03  0.58251943175E+03  0.62409701982E+03  0.91776494648E+02 0.  0.
         23    2    4    4    0    0  0.20003683412E+03  0.98054370358E+02 -0.27147318024E+03  0.36327710729E+03  0.92968675047E+02 0.  0.
          3    1    3    3  502    0 -0.74880662060E+02 -0.22815890596E+03 -0.83602651968E+03  0.86982983481E+03  0.00000000000E+00 0. -1.
         -4    1    3    3    0  502  0.12859720135E+02 -0.20550335917E+02 -0.13242365541E+03  0.13462434111E+03  0.00000000000E+00 0.  1.
         13    1    5    5    0    0 -0.37745703961E+02  0.10724915148E+03  0.32678813801E+03  0.34600232052E+03  0.00000000000E+00 0.  1.
        -13    1    5    5    0    0 -0.10027018823E+03  0.43405720037E+02  0.25573129374E+03  0.27809469929E+03  0.00000000000E+00 0. -1.
          1    1    6    6  503    0  0.17221645774E+03  0.64344405903E+02 -0.25938357314E+03  0.31792852798E+03  0.00000000000E+00 0. -1.
         -1    1    6    6    0  503  0.27820376379E+02  0.33709964455E+02 -0.12089607095E+02  0.45348579307E+02  0.00000000000E+00 0.  1.
<mgrwt>
<rscale>  0 0.18802128E+04</rscale>
<asrwt>0</asrwt>
<pdfrwt beam="1">  1        1 0.20378709E+00 0.18802128E+04</pdfrwt>
<pdfrwt beam="2">  1       -2 0.10264803E+00 0.18802128E+04</pdfrwt>
<totfact> 0.55439016E+00</totfact>
</mgrwt>
</event>
<event>
12    5  0.5264288E-008  0.2066088E+04  0.7818608E-02  0.8576331E-01
          1   -1    0    0  501    0  0.00000000000E+00  0.00000000000E+00  0.14760707164E+04  0.14760707164E+04  0.00000000000E+00 0. -1.
         -2   -1    0    0    0  501 -0.00000000000E+00 -0.00000000000E+00 -0.72298727162E+03  0.72298727162E+03  0.00000000000E+00 0.  1.
        -24    2    1    2    0    0  0.25250628380E+03  0.64662552026E+03  0.81665990951E+03  0.10744921658E+04  0.75604363505E+02 0.  0.
        254    2    1    2    0    0 -0.25250628380E+03 -0.64662552026E+03 -0.63576464749E+02  0.11245658222E+04  0.88245245467E+03 0.  0.
         23    2    4    4    0    0 -0.25677702942E+02  0.20190321770E+03 -0.90018445879E+02  0.24122838468E+03  0.93078242533E+02 0.  0.
         23    2    4    4    0    0 -0.22682858085E+03 -0.84852873796E+03  0.26441981130E+02  0.88333743751E+03  0.90186617097E+02 0.  0.
          1    1    3    3  502    0  0.15444503754E+03  0.31853466657E+03  0.45414803828E+03  0.57581945444E+03  0.00000000000E+00 0. -1.
         -2    1    3    3    0  502  0.98061246254E+02  0.32809085369E+03  0.36251187123E+03  0.49867271138E+03  0.00000000000E+00 0.  1.
         13    1    5    5    0    0  0.20520893319E+02  0.10345482868E+03 -0.94644789257E+01  0.10589421609E+03  0.00000000000E+00 0.  1.
        -13    1    5    5    0    0 -0.46198596261E+02  0.98448389013E+02 -0.80553966954E+02  0.13533416859E+03  0.00000000000E+00 0. -1.
          2    1    6    6  503    0 -0.14240426376E+02 -0.53528881946E+02  0.24086816498E+02  0.60401205905E+02  0.00000000000E+00 0. -1.
         -2    1    6    6    0  503 -0.21258815448E+03 -0.79499985602E+03  0.23551646321E+01  0.82293623161E+03  0.00000000000E+00 0.  1.
<mgrwt>
<rscale>  0 0.20660884E+04</rscale>
<asrwt>0</asrwt>
<pdfrwt beam="1">  1        1 0.22708780E+00 0.20660884E+04</pdfrwt>
<pdfrwt beam="2">  1       -2 0.11122881E+00 0.20660884E+04</pdfrwt>
<totfact> 0.35194577E+00</totfact>
</mgrwt>
</event>
<event>
12    5  0.5264288E-008  0.2165929E+04  0.7818608E-02  0.8532745E-01
         -2   -1    0    0    0  501 -0.00000000000E+00  0.00000000000E+00  0.32463091765E+03  0.32463091765E+03  0.00000000000E+00 0.  1.
          1   -1    0    0  501    0  0.00000000000E+00 -0.00000000000E+00 -0.36127542961E+04  0.36127542961E+04  0.00000000000E+00 0. -1.
        -24    2    1    2    0    0  0.33539948017E+03  0.25799096602E+03  0.70915153078E+02  0.43650146246E+03  0.80326944086E+02 0.  0.
        254    2    1    2    0    0 -0.33539948017E+03 -0.25799096602E+03 -0.33590385315E+04  0.35008837513E+04  0.89106398979E+03 0.  0.
         23    2    4    4    0    0 -0.31755513387E+03 -0.56845384595E+03 -0.20698768268E+04  0.21716502297E+04  0.87713193501E+02 0.  0.
         23    2    4    4    0    0 -0.17844346305E+02  0.31046287993E+03 -0.12891617047E+04  0.13292335215E+04  0.90654471959E+02 0.  0.
          3    1    3    3  502    0 -0.97958002668E+00  0.82924595371E+00 -0.60157673145E+01  0.61511529214E+01  0.00000000000E+00 0. -1.
         -4    1    3    3    0  502  0.33637906020E+03  0.25716172007E+03  0.76930920392E+02  0.43035030954E+03  0.00000000000E+00 0.  1.
         13    1    5    5    0    0 -0.28062726560E+03 -0.53375389862E+03 -0.18416141335E+04  0.19378306178E+04  0.00000000000E+00 0. -1.
        -13    1    5    5    0    0 -0.36927868266E+02 -0.34699947328E+02 -0.22826269329E+03  0.23381961198E+03  0.00000000000E+00 0.  1.
          2    1    6    6  503    0 -0.13832432659E+02  0.31581805993E+03 -0.12419832531E+04  0.12815829213E+04  0.00000000000E+00 0. -1.
         -2    1    6    6    0  503 -0.40119136459E+01 -0.53551799986E+01 -0.47178451640E+02  0.47650600239E+02  0.00000000000E+00 0.  1.
<mgrwt>
<rscale>  0 0.21659287E+04</rscale>
<asrwt>0</asrwt>
<pdfrwt beam="1">  1        1 0.55580835E+00 0.21659287E+04</pdfrwt>
<pdfrwt beam="2">  1       -2 0.49943219E-01 0.21659287E+04</pdfrwt>
<totfact> 0.62145865E-01</totfact>
</mgrwt>
</event>
<event>
12    5  0.5264288E-008  0.1368948E+04  0.7818608E-02  0.8976607E-01
         -2   -1    0    0    0  501 -0.00000000000E+00  0.00000000000E+00  0.89197250253E+03  0.89197250253E+03  0.00000000000E+00 0.  1.
          1   -1    0    0  501    0  0.00000000000E+00 -0.00000000000E+00 -0.52524568286E+03  0.52524568286E+03  0.00000000000E+00 0. -1.
        -24    2    1    2    0    0  0.32169960353E+03  0.34990196784E+01  0.43863947711E+03  0.54993171645E+03  0.80730563121E+02 0.  0.
        254    2    1    2    0    0 -0.32169960353E+03 -0.34990196784E+01 -0.71912657448E+02  0.86728646894E+03  0.80219169209E+03 0.  0.
         23    2    4    4    0    0  0.82305057112E+02  0.16853665861E+03  0.24297567898E+03  0.31910814810E+03  0.87258821259E+02 0.  0.
         23    2    4    4    0    0 -0.40400466065E+03 -0.17203567829E+03 -0.31488833642E+03  0.54817832084E+03  0.92351321556E+02 0.  0.
          3    1    3    3  502    0  0.79798999775E+02 -0.21768517487E+02  0.70381906934E+02  0.10860645258E+03  0.00000000000E+00 0. -1.
         -4    1    3    3    0  502  0.24190060376E+03  0.25267537166E+02  0.36825757018E+03  0.44132526386E+03  0.00000000000E+00 0.  1.
         13    1    5    5    0    0 -0.17608514721E+02  0.12633063158E+02  0.26863242438E+02  0.34515038313E+02  0.00000000000E+00 0.  1.
        -13    1    5    5    0    0  0.99913571833E+02  0.15590359546E+03  0.21611243654E+03  0.28459310979E+03  0.00000000000E+00 0. -1.
          2    1    6    6  503    0 -0.23439043845E+03 -0.10208765630E+03 -0.23784904454E+03  0.34918896775E+03  0.00000000000E+00 0. -1.
         -2    1    6    6    0  503 -0.16961422219E+03 -0.69948021992E+02 -0.77039291886E+02  0.19898935309E+03  0.00000000000E+00 0.  1.
<mgrwt>
<rscale>  0 0.13689481E+04</rscale>
<asrwt>0</asrwt>
<pdfrwt beam="1">  1        1 0.80807028E-01 0.13689481E+04</pdfrwt>
<pdfrwt beam="2">  1       -2 0.13722654E+00 0.13689481E+04</pdfrwt>
<totfact> 0.13376048E+01</totfact>
</mgrwt>
</event>
<event>
12    5  0.5264288E-008  0.1306146E+04  0.7818608E-02  0.9024706E-01
         -2   -1    0    0    0  501 -0.00000000000E+00  0.00000000000E+00  0.20933288747E+03  0.20933288747E+03  0.00000000000E+00 0.  1.
          1   -1    0    0  501    0  0.00000000000E+00 -0.00000000000E+00 -0.20374440331E+04  0.20374440331E+04  0.00000000000E+00 0. -1.
        -24    2    1    2    0    0 -0.40570473484E+02  0.23857733073E+03 -0.86998157297E+03  0.90664035188E+03  0.81016568040E+02 0.  0.
        254    2    1    2    0    0  0.40570473484E+02 -0.23857733073E+03 -0.95812957266E+03  0.13401365687E+04  0.90520088306E+03 0.  0.
         23    2    4    4    0    0 -0.80821224018E+02 -0.42298407046E+03 -0.10029898982E+04  0.10956676888E+04  0.95138605184E+02 0.  0.
         23    2    4    4    0    0  0.12139169750E+03  0.18440673973E+03  0.44860325576E+02  0.24446887990E+03  0.94925205009E+02 0.  0.
          3    1    3    3  502    0 -0.22182421774E+02  0.22271638101E+03 -0.83183906878E+03  0.86142375318E+03  0.00000000000E+00 0. -1.
         -4    1    3    3    0  502 -0.18388051710E+02  0.15860949720E+02 -0.38142504193E+02  0.45216598698E+02  0.00000000000E+00 0.  1.
         13    1    5    5    0    0 -0.96052333154E+02 -0.40939368298E+03 -0.95152792981E+03  0.10403050704E+04  0.00000000000E+00 0. -1.
        -13    1    5    5    0    0  0.15231109136E+02 -0.13590387474E+02 -0.51461968428E+02  0.55362618360E+02  0.00000000000E+00 0.  1.
          3    1    6    6  503    0  0.91295387042E+02  0.18834169602E+03  0.45142419859E+02  0.21411510976E+03  0.00000000000E+00 0. -1.
         -3    1    6    6    0  503  0.30096310460E+02 -0.39349562931E+01 -0.28209428277E+00  0.30353770136E+02  0.00000000000E+00 0.  1.
<mgrwt>
<rscale>  0 0.13061455E+04</rscale>
<asrwt>0</asrwt>
<pdfrwt beam="1">  1        1 0.31345292E+00 0.13061455E+04</pdfrwt>
<pdfrwt beam="2">  1       -2 0.32205060E-01 0.13061455E+04</pdfrwt>
<totfact> 0.21778914E+01</totfact>
</mgrwt>
</event>
<event>
12    5  0.5264288E-008  0.2149031E+04  0.7818608E-02  0.8539947E-01
         -2   -1    0    0    0  501 -0.00000000000E+00  0.00000000000E+00  0.21339330800E+04  0.21339330800E+04  0.00000000000E+00 0.  1.
          1   -1    0    0  501    0  0.00000000000E+00 -0.00000000000E+00 -0.54105875612E+03  0.54105875612E+03  0.00000000000E+00 0. -1.
        -24    2    1    2    0    0 -0.86174163847E+02 -0.42244866543E+03  0.16263880458E+04  0.16844439085E+04  0.79525744360E+02 0.  0.
        254    2    1    2    0    0  0.86174163847E+02  0.42244866543E+03 -0.33513721879E+02  0.99054792762E+03  0.89116393886E+03 0.  0.
         23    2    4    4    0    0 -0.27225106310E+03  0.66606749008E+01 -0.26288478137E+03  0.38922113442E+03  0.90662435723E+02 0.  0.
         23    2    4    4    0    0  0.35842522694E+03  0.41578799053E+03  0.22937105949E+03  0.60132679321E+03  0.87375814258E+02 0.  0.
          3    1    3    3  502    0 -0.27742258568E+02 -0.59785294481E+02  0.35435316817E+03  0.36043041234E+03  0.00000000000E+00 0. -1.
         -4    1    3    3    0  502 -0.58431905279E+02 -0.36266337095E+03  0.12720348776E+04  0.13240134962E+04  0.00000000000E+00 0.  1.
         13    1    5    5    0    0 -0.27396808867E+03 -0.53243024341E+01 -0.25730745922E+03  0.37589092883E+03  0.00000000000E+00 0. -1.
        -13    1    5    5    0    0  0.17170255760E+01  0.11984977335E+02 -0.55773221541E+01  0.13330205586E+02  0.00000000000E+00 0.  1.
          2    1    6    6  503    0  0.12570654317E+02  0.60658887502E+00 -0.32855564614E+01  0.13007081967E+02  0.00000000000E+00 0.  1.
         -2    1    6    6    0  503  0.34585457263E+03  0.41518140166E+03  0.23265661595E+03  0.58831971124E+03  0.00000000000E+00 0. -1.
<mgrwt>
<rscale>  0 0.21490306E+04</rscale>
<asrwt>0</asrwt>
<pdfrwt beam="1">  1        1 0.83239810E-01 0.21490306E+04</pdfrwt>
<pdfrwt beam="2">  1       -2 0.32829739E+00 0.21490306E+04</pdfrwt>
<totfact> 0.67806963E-01</totfact>
</mgrwt>
</event>
<event>
12    5  0.5264288E-008  0.4326770E+04  0.7818608E-02  0.7941687E-01
          1   -1    0    0  501    0  0.00000000000E+00  0.00000000000E+00  0.16284708512E+04  0.16284708512E+04  0.00000000000E+00 0. -1.
         -2   -1    0    0    0  501 -0.00000000000E+00 -0.00000000000E+00 -0.28740051794E+04  0.28740051794E+04  0.00000000000E+00 0.  1.
        -24    2    1    2    0    0  0.93781787516E+03 -0.14791985511E+04 -0.17433292847E+04  0.24724815708E+04  0.80233425355E+02 0.  0.
        254    2    1    2    0    0 -0.93781787516E+03  0.14791985511E+04  0.49779495656E+03  0.20299944597E+04  0.89752268347E+03 0.  0.
         23    2    4    4    0    0  0.28398882622E+01 -0.74129449877E+02 -0.53088219292E+02  0.12952257162E+03  0.91948339983E+02 0.  0.
         23    2    4    4    0    0 -0.94065776342E+03  0.15533280010E+04  0.55088317586E+03  0.19004718881E+04  0.10322895767E+03 0.  0.
          1    1    3    3  502    0  0.44835576304E+03 -0.66627145575E+03 -0.84637914276E+03  0.11667468433E+04  0.00000000000E+00 0. -1.
         -2    1    3    3    0  502  0.48946211211E+03 -0.81292709532E+03 -0.89695014196E+03  0.13057347275E+04  0.00000000000E+00 0.  1.
         13    1    5    5    0    0  0.36224181544E+02 -0.14818702649E+02  0.57457174011E+01  0.39557534620E+02  0.00000000000E+00 0. -1.
        -13    1    5    5    0    0 -0.33384293282E+02 -0.59310747229E+02 -0.58833936694E+02  0.89965036996E+02  0.00000000000E+00 0.  1.
          3    1    6    6  503    0 -0.59688946749E+02  0.59321553897E+02  0.33079448268E+02  0.90421607033E+02  0.00000000000E+00 0. -1.
         -3    1    6    6    0  503 -0.88096881667E+03  0.14940064471E+04  0.51780372759E+03  0.18100502811E+04  0.00000000000E+00 0.  1.
<mgrwt>
<rscale>  0 0.43267695E+04</rscale>
<asrwt>0</asrwt>
<pdfrwt beam="1">  1        1 0.25053398E+00 0.43267695E+04</pdfrwt>
<pdfrwt beam="2">  1       -2 0.44215464E+00 0.43267695E+04</pdfrwt>
<totfact> 0.13968959E-02</totfact>
</mgrwt>
</event>
<event>
12    5  0.5264288E-008  0.2515175E+04  0.7818608E-02  0.8397599E-01
         -2   -1    0    0    0  501 -0.00000000000E+00  0.00000000000E+00  0.13832273040E+04  0.13832273040E+04  0.00000000000E+00 0.  1.
          1   -1    0    0  501    0  0.00000000000E+00 -0.00000000000E+00 -0.11433596372E+04  0.11433596372E+04  0.00000000000E+00 0. -1.
        -24    2    1    2    0    0 -0.33678421972E+03 -0.96462747324E+03 -0.31040070748E+03  0.10710958965E+04  0.83474831519E+02 0.  0.
        254    2    1    2    0    0  0.33678421972E+03  0.96462747324E+03  0.55026837428E+03  0.14554910448E+04  0.87848114661E+03 0.  0.
         23    2    4    4    0    0  0.56567316742E+03  0.36253397679E+03  0.40086556324E+03  0.78805065652E+03  0.94411973750E+02 0.  0.
         23    2    4    4    0    0 -0.22888894770E+03  0.60209349645E+03  0.14940281104E+03  0.66744038827E+03  0.90822591373E+02 0.  0.
          3    1    3    3  502    0 -0.31006902044E+03 -0.79945657904E+03 -0.24953607588E+03  0.89305199870E+03  0.00000000000E+00 0. -1.
         -4    1    3    3    0  502 -0.26715199283E+02 -0.16517089419E+03 -0.60864631601E+02  0.17804389779E+03  0.00000000000E+00 0.  1.
         13    1    5    5    0    0  0.42893080777E+03  0.28735218869E+03  0.35071514832E+03  0.62414263871E+03  0.00000000000E+00 0. -1.
        -13    1    5    5    0    0  0.13674235966E+03  0.75181788100E+02  0.50150414913E+02  0.16390801781E+03  0.00000000000E+00 0.  1.
          2    1    6    6  503    0 -0.21635857126E+03  0.59988384056E+03  0.14784298956E+03  0.65462141967E+03  0.00000000000E+00 0. -1.
         -2    1    6    6    0  503 -0.12530376442E+02  0.22096558810E+01  0.15598214744E+01  0.12818968598E+02  0.00000000000E+00 0.  1.
<mgrwt>
<rscale>  0 0.25151750E+04</rscale>
<asrwt>0</asrwt>
<pdfrwt beam="1">  1        1 0.17590148E+00 0.25151750E+04</pdfrwt>
<pdfrwt beam="2">  1       -2 0.21280420E+00 0.25151750E+04</pdfrwt>
<totfact> 0.10059846E+00</totfact>
</mgrwt>
</event>
<event>
12    5  0.5264288E-008  0.1572616E+04  0.7818608E-02  0.8837550E-01
         -2   -1    0    0    0  501 -0.00000000000E+00  0.00000000000E+00  0.23598909767E+03  0.23598909767E+03  0.00000000000E+00 0.  1.
          1   -1    0    0  501    0  0.00000000000E+00 -0.00000000000E+00 -0.26199517597E+04  0.26199517597E+04  0.00000000000E+00 0. -1.
        -24    2    1    2    0    0 -0.43411988925E+03  0.22211899007E+03 -0.44479435583E+03  0.66479193459E+03  0.79431563783E+02 0.  0.
        254    2    1    2    0    0  0.43411988925E+03 -0.22211899007E+03 -0.19391683062E+04  0.21911489228E+04  0.89608200409E+03 0.  0.
         23    2    4    4    0    0  0.91442366397E+02 -0.25834767935E+03 -0.17752658213E+04  0.17986441038E+04  0.91905635703E+02 0.  0.
         23    2    4    4    0    0  0.34267752286E+03  0.36228689281E+02 -0.16390248487E+03  0.39250481900E+03  0.91954368018E+02 0.  0.
          3    1    3    3  502    0 -0.11541968844E+03  0.21992498341E+02 -0.96943702423E+02  0.15232680625E+03  0.00000000000E+00 0. -1.
         -4    1    3    3    0  502 -0.31870020081E+03  0.20012649173E+03 -0.34785065341E+03  0.51246512834E+03  0.00000000000E+00 0.  1.
         13    1    5    5    0    0 -0.10296770201E+02 -0.10602305299E+02 -0.36594885496E+02  0.39466669466E+02  0.00000000000E+00 0. -1.
        -13    1    5    5    0    0  0.10173913660E+03 -0.24774537405E+03 -0.17386709358E+04  0.17591774343E+04  0.00000000000E+00 0.  1.
          1    1    6    6  503    0  0.39044222042E+02 -0.25689293700E+02 -0.19897201517E+02  0.50796552185E+02  0.00000000000E+00 0. -1.
         -1    1    6    6    0  503  0.30363330082E+03  0.61917982980E+02 -0.14400528335E+03  0.34170826682E+03  0.00000000000E+00 0.  1.
<mgrwt>
<rscale>  0 0.15726157E+04</rscale>
<asrwt>0</asrwt>
<pdfrwt beam="1">  1        1 0.40306951E+00 0.15726157E+04</pdfrwt>
<pdfrwt beam="2">  1       -2 0.36306015E-01 0.15726157E+04</pdfrwt>
<totfact> 0.67557182E+00</totfact>
</mgrwt>
</event>
<event>
12    5  0.5264288E-008  0.1729121E+04  0.7818608E-02  0.8744928E-01
          3   -1    0    0  501    0  0.00000000000E+00  0.00000000000E+00  0.59667285214E+03  0.59667285214E+03  0.00000000000E+00 0. -1.
         -4   -1    0    0    0  501 -0.00000000000E+00 -0.00000000000E+00 -0.12527213167E+04  0.12527213167E+04  0.00000000000E+00 0.  1.
        -24    2    1    2    0    0 -0.89720311349E+02 -0.22128221996E+03 -0.85343393015E+03  0.88979338366E+03  0.79794970603E+02 0.  0.
        254    2    1    2    0    0  0.89720311349E+02  0.22128221996E+03  0.19738546555E+03  0.95960078521E+03  0.90821643336E+03 0.  0.
         23    2    4    4    0    0  0.34535384443E+03  0.57071746697E+02  0.43301930316E+03  0.56430128229E+03  0.91672013999E+02 0.  0.
         23    2    4    4    0    0 -0.25563353308E+03  0.16421047326E+03 -0.23563383761E+03  0.39529950293E+03  0.91786757360E+02 0.  0.
          1    1    3    3  502    0 -0.53759860164E+01 -0.24578664790E+02 -0.30778910186E+02  0.39753657703E+02  0.00000000000E+00 0. -1.
         -2    1    3    3    0  502 -0.84344325332E+02 -0.19670355517E+03 -0.82265501996E+03  0.85003972596E+03  0.00000000000E+00 0.  1.
         13    1    5    5    0    0  0.32094544489E+03  0.32474369026E+02  0.41378003460E+03  0.52466606548E+03  0.00000000000E+00 0.  1.
        -13    1    5    5    0    0  0.24408399535E+02  0.24597377671E+02  0.19239268564E+02  0.39635216803E+02  0.00000000000E+00 0. -1.
          2    1    6    6  503    0 -0.16315019421E+03  0.59834227026E+02 -0.98671915146E+02  0.19983560101E+03  0.00000000000E+00 0. -1.
         -2    1    6    6    0  503 -0.92483338867E+02  0.10437624624E+03 -0.13696192246E+03  0.19546390191E+03  0.00000000000E+00 0.  1.
<mgrwt>
<rscale>  0 0.17291209E+04</rscale>
<asrwt>0</asrwt>
<pdfrwt beam="1">  1        3 0.91795823E-01 0.17291209E+04</pdfrwt>
<pdfrwt beam="2">  1       -4 0.19272636E+00 0.17291209E+04</pdfrwt>
<totfact> 0.34065735E-01</totfact>
</mgrwt>
</event>
<event>
12    5  0.5264288E-008  0.1840270E+04  0.7818608E-02  0.8685173E-01
          1   -1    0    0  501    0  0.00000000000E+00  0.00000000000E+00  0.54043979170E+03  0.54043979170E+03  0.00000000000E+00 0. -1.
         -2   -1    0    0    0  501 -0.00000000000E+00 -0.00000000000E+00 -0.15665917119E+04  0.15665917119E+04  0.00000000000E+00 0.  1.
        -24    2    1    2    0    0 -0.23039404150E+03 -0.55578683970E+03 -0.84788442254E+01  0.60670742328E+03  0.77727608479E+02 0.  0.
        254    2    1    2    0    0  0.23039404150E+03  0.55578683970E+03 -0.10176730760E+04  0.15003240804E+04  0.92376048354E+03 0.  0.
         23    2    4    4    0    0  0.37089851541E+03 -0.12216537232E+03 -0.42517282817E+03  0.58436367506E+03  0.90658060787E+02 0.  0.
         23    2    4    4    0    0 -0.14050447392E+03  0.67795221202E+03 -0.59250024785E+03  0.91596040531E+03  0.92553829826E+02 0.  0.
          3    1    3    3  502    0 -0.18307318972E+03 -0.46006683424E+03  0.22069395350E+02  0.49564538026E+03  0.00000000000E+00 0. -1.
         -4    1    3    3    0  502 -0.47320851775E+02 -0.95720005459E+02 -0.30548239575E+02  0.11106204302E+03  0.00000000000E+00 0.  1.
         13    1    5    5    0    0  0.27887608901E+03 -0.82353098122E+02 -0.25453195560E+03  0.38644588523E+03  0.00000000000E+00 0.  1.
        -13    1    5    5    0    0  0.92022426400E+02 -0.39812274199E+02 -0.17064087257E+03  0.19791778983E+03  0.00000000000E+00 0. -1.
          2    1    6    6  503    0 -0.73593838756E+02  0.23766615095E+03 -0.26253661202E+03  0.36169977199E+03  0.00000000000E+00 0. -1.
         -2    1    6    6    0  503 -0.66910635162E+02  0.44028606107E+03 -0.32996363583E+03  0.55426063332E+03  0.00000000000E+00 0.  1.
<mgrwt>
<rscale>  0 0.18402701E+04</rscale>
<asrwt>0</asrwt>
<pdfrwt beam="1">  1        1 0.83144582E-01 0.18402701E+04</pdfrwt>
<pdfrwt beam="2">  1       -2 0.24101411E+00 0.18402701E+04</pdfrwt>
<totfact> 0.23888539E+00</totfact>
</mgrwt>
</event>
<event>
12    5  0.5264288E-008  0.2141124E+04  0.7818608E-02  0.8543341E-01
          1   -1    0    0  501    0  0.00000000000E+00  0.00000000000E+00  0.13399592938E+04  0.13399592938E+04  0.00000000000E+00 0. -1.
         -2   -1    0    0    0  501 -0.00000000000E+00 -0.00000000000E+00 -0.85532702568E+03  0.85532702568E+03  0.00000000000E+00 0.  1.
        -24    2    1    2    0    0  0.28458156430E+03 -0.18501430080E+03  0.10509613197E+04  0.11073897886E+04  0.81089396521E+02 0.  0.
        254    2    1    2    0    0 -0.28458156430E+03  0.18501430080E+03 -0.56632905155E+03  0.10878965309E+04  0.86462321795E+03 0.  0.
         23    2    4    4    0    0  0.41993310430E+02  0.45594444019E+03 -0.42365778490E+03  0.63068625436E+03  0.92900280229E+02 0.  0.
         23    2    4    4    0    0 -0.32657487473E+03 -0.27093013939E+03 -0.14267126665E+03  0.45721027651E+03  0.92907789691E+02 0.  0.
          1    1    3    3  502    0  0.20641325125E+03 -0.15551012589E+03  0.68804718824E+03  0.73498215134E+03  0.00000000000E+00 0. -1.
         -2    1    3    3    0  502  0.78168313053E+02 -0.29504174914E+02  0.36291413143E+03  0.37240763727E+03  0.00000000000E+00 0.  1.
         13    1    5    5    0    0  0.51961411124E+02  0.12319393803E+03 -0.10717897894E+03  0.17135947053E+03  0.00000000000E+00 0.  1.
        -13    1    5    5    0    0 -0.99681006942E+01  0.33275050216E+03 -0.31647880596E+03  0.45932678383E+03  0.00000000000E+00 0. -1.
          3    1    6    6  503    0 -0.18502277728E+03 -0.19323889188E+03 -0.53773257450E+02  0.27288506860E+03  0.00000000000E+00 0. -1.
         -3    1    6    6    0  503 -0.14155209745E+03 -0.77691247508E+02 -0.88898009195E+02  0.18432520791E+03  0.00000000000E+00 0.  1.
<mgrwt>
<rscale>  0 0.21411244E+04</rscale>
<asrwt>0</asrwt>
<pdfrwt beam="1">  1        1 0.20614758E+00 0.21411244E+04</pdfrwt>
<pdfrwt beam="2">  1       -2 0.13158877E+00 0.21411244E+04</pdfrwt>
<totfact> 0.28689993E+00</totfact>
</mgrwt>
</event>
<event>
12    5  0.5264288E-008  0.1387065E+04  0.7818608E-02  0.8963235E-01
         -2   -1    0    0    0  501 -0.00000000000E+00  0.00000000000E+00  0.39592767269E+03  0.39592767269E+03  0.00000000000E+00 0.  1.
          1   -1    0    0  501    0  0.00000000000E+00 -0.00000000000E+00 -0.12148367108E+04  0.12148367108E+04  0.00000000000E+00 0. -1.
        -24    2    1    2    0    0  0.25276900120E+02 -0.33687206554E+03 -0.50972148386E+03  0.61626604454E+03  0.76460030868E+02 0.  0.
        254    2    1    2    0    0 -0.25276900120E+02  0.33687206554E+03 -0.30918755430E+03  0.99449833900E+03  0.88278439742E+03 0.  0.
         23    2    4    4    0    0 -0.29630519975E+03  0.21032996340E+03 -0.50157068774E+03  0.62734568045E+03  0.99769650047E+02 0.  0.
         23    2    4    4    0    0  0.27102829963E+03  0.12654210214E+03  0.19238313344E+03  0.36715265856E+03  0.91217113712E+02 0.  0.
          1    1    3    3  502    0  0.22767295929E+02 -0.15723511505E+03 -0.30496496759E+03  0.34386750737E+03  0.00000000000E+00 0. -1.
         -2    1    3    3    0  502  0.25096041905E+01 -0.17963695049E+03 -0.20475651626E+03  0.27239853716E+03  0.00000000000E+00 0.  1.
         13    1    5    5    0    0 -0.11471767011E+03  0.25352725654E+02 -0.14923012688E+03  0.18992771073E+03  0.00000000000E+00 0. -1.
        -13    1    5    5    0    0 -0.18158752964E+03  0.18497723774E+03 -0.35234056087E+03  0.43741796972E+03  0.00000000000E+00 0.  1.
          2    1    6    6  503    0  0.16260214195E+03  0.12175342952E+03  0.11088129334E+03  0.23142604732E+03  0.00000000000E+00 0. -1.
         -2    1    6    6    0  503  0.10842615769E+03  0.47886726146E+01  0.81501840105E+02  0.13572661123E+03  0.00000000000E+00 0.  1.
<mgrwt>
<rscale>  0 0.13870652E+04</rscale>
<asrwt>0</asrwt>
<pdfrwt beam="1">  1        1 0.18689795E+00 0.13870652E+04</pdfrwt>
<pdfrwt beam="2">  1       -2 0.60911951E-01 0.13870652E+04</pdfrwt>
<totfact> 0.22379525E+01</totfact>
</mgrwt>
</event>
<event>
12    5  0.5264288E-008  0.1773993E+04  0.7818608E-02  0.8720253E-01
         -2   -1    0    0    0  501 -0.00000000000E+00  0.00000000000E+00  0.21209461795E+04  0.21209461795E+04  0.00000000000E+00 0.  1.
          1   -1    0    0  501    0  0.00000000000E+00 -0.00000000000E+00 -0.37094882539E+03  0.37094882539E+03  0.00000000000E+00 0. -1.
        -24    2    1    2    0    0  0.16318808604E+03 -0.57836932400E+02  0.15451240596E+04  0.15568087101E+04  0.79180413739E+02 0.  0.
        254    2    1    2    0    0 -0.16318808604E+03  0.57836932400E+02  0.20487329449E+03  0.93508629484E+03  0.89578895384E+03 0.  0.
         23    2    4    4    0    0 -0.19245812558E+03  0.33415802950E+03  0.41595383351E+03  0.57422998283E+03  0.89558711410E+02 0.  0.
         23    2    4    4    0    0  0.29270039546E+02 -0.27632109710E+03 -0.21108053902E+03  0.36085631201E+03  0.91935847444E+02 0.  0.
          3    1    3    3  502    0  0.34608458376E+02  0.17857712910E+02  0.23350037953E+03  0.23672572852E+03  0.00000000000E+00 0. -1.
         -4    1    3    3    0  502  0.12857962766E+03 -0.75694645310E+02  0.13116236801E+04  0.13200829816E+04  0.00000000000E+00 0.  1.
         13    1    5    5    0    0 -0.13952053560E+03  0.29129271223E+03  0.37430350503E+03  0.49438905523E+03  0.00000000000E+00 0. -1.
        -13    1    5    5    0    0 -0.52937589986E+02  0.42865317266E+02  0.41650328481E+02  0.79840927602E+02  0.00000000000E+00 0.  1.
          2    1    6    6  503    0 -0.11731756296E+02 -0.22886991366E+03 -0.17635982909E+03  0.28917444701E+03  0.00000000000E+00 0. -1.
         -2    1    6    6    0  503  0.41001795842E+02 -0.47451183437E+02 -0.34720709933E+02  0.71681865001E+02  0.00000000000E+00 0.  1.
<mgrwt>
<rscale>  0 0.17739927E+04</rscale>
<asrwt>0</asrwt>
<pdfrwt beam="1">  1        1 0.57069051E-01 0.17739927E+04</pdfrwt>
<pdfrwt beam="2">  1       -2 0.32629940E+00 0.17739927E+04</pdfrwt>
<totfact> 0.12039327E+00</totfact>
</mgrwt>
</event>
<event>
12    5  0.5264288E-008  0.1379842E+04  0.7818608E-02  0.8968540E-01
          1   -1    0    0  501    0  0.00000000000E+00  0.00000000000E+00  0.81750463692E+03  0.81750463692E+03  0.00000000000E+00 0. -1.
         -2   -1    0    0    0  501 -0.00000000000E+00 -0.00000000000E+00 -0.58224876534E+03  0.58224876534E+03  0.00000000000E+00 0.  1.
        -24    2    1    2    0    0  0.39636257661E+03 -0.27761872338E+02  0.99088984258E+02  0.41732390682E+03  0.80415189504E+02 0.  0.
        254    2    1    2    0    0 -0.39636257661E+03  0.27761872338E+02  0.13616688732E+03  0.98242949545E+03  0.88811726626E+03 0.  0.
         23    2    4    4    0    0 -0.39455224204E+03  0.40769109003E+03  0.18610381207E+02  0.57466832573E+03  0.89520063215E+02 0.  0.
         23    2    4    4    0    0 -0.18103345701E+01 -0.37992921770E+03  0.11755650611E+03  0.40776116971E+03  0.90000842362E+02 0.  0.
          1    1    3    3  502    0  0.21314673068E+03  0.22473870397E+02  0.67727861902E+02  0.22477470260E+03  0.00000000000E+00 0. -1.
         -2    1    3    3    0  502  0.18321584593E+03 -0.50235742735E+02  0.31361122356E+02  0.19254920421E+03  0.00000000000E+00 0.  1.
         13    1    5    5    0    0 -0.19704739798E+03  0.26112261857E+03  0.29677058506E+02  0.32847134849E+03  0.00000000000E+00 0. -1.
        -13    1    5    5    0    0 -0.19750484406E+03  0.14656847146E+03 -0.11066677299E+02  0.24619697724E+03  0.00000000000E+00 0.  1.
          1    1    6    6  503    0 -0.20619789080E+02 -0.16474293572E+02  0.55031410359E+01  0.26960389679E+02  0.00000000000E+00 0. -1.
         -1    1    6    6    0  503  0.18809454510E+02 -0.36345492412E+03  0.11205336508E+03  0.38080078003E+03  0.00000000000E+00 0.  1.
<mgrwt>
<rscale>  0 0.13798421E+04</rscale>
<asrwt>0</asrwt>
<pdfrwt beam="1">  1        1 0.12576995E+00 0.13798421E+04</pdfrwt>
<pdfrwt beam="2">  1       -2 0.89576732E-01 0.13798421E+04</pdfrwt>
<totfact> 0.19517735E+01</totfact>
</mgrwt>
</event>
<event>
12    5  0.5264288E-008  0.2021371E+04  0.7818608E-02  0.8596694E-01
         -2   -1    0    0    0  501 -0.00000000000E+00  0.00000000000E+00  0.70763086216E+03  0.70763086216E+03  0.00000000000E+00 0.  1.
          1   -1    0    0  501    0  0.00000000000E+00 -0.00000000000E+00 -0.14435283227E+04  0.14435283227E+04  0.00000000000E+00 0. -1.
        -24    2    1    2    0    0  0.38989224897E+03 -0.43790331119E+03  0.29327029296E+03  0.66031088250E+03  0.78915911317E+02 0.  0.
        254    2    1    2    0    0 -0.38989224897E+03  0.43790331119E+03 -0.10291677535E+04  0.14908483024E+04  0.90535469296E+03 0.  0.
         23    2    4    4    0    0  0.49753648363E+02  0.23598594226E+03 -0.95875331145E+03  0.99285828795E+03  0.91623562755E+02 0.  0.
         23    2    4    4    0    0 -0.43964589734E+03  0.20191736892E+03 -0.70414442091E+02  0.49799001445E+03  0.94745564091E+02 0.  0.
          1    1    3    3  502    0  0.15066970741E+03 -0.17595655765E+03  0.73609396268E+02  0.24306462953E+03  0.00000000000E+00 0. -1.
         -2    1    3    3    0  502  0.23922254156E+03 -0.26194675354E+03  0.21966089669E+03  0.41724625297E+03  0.00000000000E+00 0.  1.
         13    1    5    5    0    0  0.59593125335E+02  0.16257523433E+03 -0.52474414495E+03  0.55257439776E+03  0.00000000000E+00 0. -1.
        -13    1    5    5    0    0 -0.98394769723E+01  0.73410707932E+02 -0.43400916650E+03  0.44028389018E+03  0.00000000000E+00 0.  1.
          1    1    6    6  503    0 -0.36248456024E+03  0.14451501065E+03 -0.88483203629E+02  0.40013612939E+03  0.00000000000E+00 0. -1.
         -1    1    6    6    0  503 -0.77161337096E+02  0.57402358271E+02  0.18068761538E+02  0.97853885058E+02  0.00000000000E+00 0.  1.
<mgrwt>
<rscale>  0 0.20213710E+04</rscale>
<asrwt>0</asrwt>
<pdfrwt beam="1">  1        1 0.22208128E+00 0.20213710E+04</pdfrwt>
<pdfrwt beam="2">  1       -2 0.10886629E+00 0.20213710E+04</pdfrwt>
<totfact> 0.39210749E+00</totfact>
</mgrwt>
</event>
<event>
12    5  0.5264288E-008  0.2400985E+04  0.7818608E-02  0.8439135E-01
         -2   -1    0    0    0  501 -0.00000000000E+00  0.00000000000E+00  0.21017109196E+04  0.21017109196E+04  0.00000000000E+00 0.  1.
          1   -1    0    0  501    0  0.00000000000E+00 -0.00000000000E+00 -0.68571868663E+03  0.68571868663E+03  0.00000000000E+00 0. -1.
        -24    2    1    2    0    0 -0.16450623861E+03  0.63611117388E+03 -0.31031128031E+03  0.73120302877E+03  0.81639760711E+02 0.  0.
        254    2    1    2    0    0  0.16450623861E+03 -0.63611117388E+03  0.17263035133E+04  0.20562265774E+04  0.90346233446E+03 0.  0.
         23    2    4    4    0    0 -0.27759712959E+03  0.88589078207E+01  0.25076661701E+03  0.38390200214E+03  0.85779976920E+02 0.  0.
         23    2    4    4    0    0  0.44210336820E+03 -0.64497008170E+03  0.14755368963E+04  0.16723245753E+04  0.89546404026E+02 0.  0.
          1    1    3    3  502    0 -0.17306375862E+03  0.62141452632E+03 -0.30140837261E+03  0.71200708224E+03  0.00000000000E+00 0. -1.
         -2    1    3    3    0  502  0.85575200098E+01  0.14696647551E+02 -0.89029076992E+01  0.19195946537E+02  0.00000000000E+00 0.  1.
         13    1    5    5    0    0 -0.26921652353E+03  0.21835821208E+02  0.21596324236E+03  0.34582432199E+03  0.00000000000E+00 0.  1.
        -13    1    5    5    0    0 -0.83806060563E+01 -0.12976913387E+02  0.34803374643E+02  0.38077680149E+02  0.00000000000E+00 0. -1.
          1    1    6    6  503    0  0.47216304944E+02 -0.65093089807E+02  0.10103240601E+03  0.12912798634E+03  0.00000000000E+00 0. -1.
         -1    1    6    6    0  503  0.39488706325E+03 -0.57987699189E+03  0.13745044902E+04  0.15431965890E+04  0.00000000000E+00 0.  1.
<mgrwt>
<rscale>  0 0.24009852E+04</rscale>
<asrwt>0</asrwt>
<pdfrwt beam="1">  1        1 0.10549518E+00 0.24009852E+04</pdfrwt>
<pdfrwt beam="2">  1       -2 0.32334014E+00 0.24009852E+04</pdfrwt>
<totfact> 0.50428314E-01</totfact>
</mgrwt>
</event>
<event>
12    5  0.5264288E-008  0.2423420E+04  0.7818608E-02  0.8430787E-01
         -2   -1    0    0    0  501 -0.00000000000E+00  0.00000000000E+00  0.22441859606E+04  0.22441859606E+04  0.00000000000E+00 0.  1.
          1   -1    0    0  501    0  0.00000000000E+00 -0.00000000000E+00 -0.65424200061E+03  0.65424200061E+03  0.00000000000E+00 0. -1.
        -24    2    1    2    0    0 -0.10117889270E+04 -0.13217563583E+03  0.98179083097E+03  0.14182380744E+04  0.79364780419E+02 0.  0.
        254    2    1    2    0    0  0.10117889270E+04  0.13217563583E+03  0.60815312902E+03  0.14801898868E+04  0.88313342195E+03 0.  0.
         23    2    4    4    0    0  0.76909641649E+03  0.16531536491E+03 -0.27623358749E+02  0.79266883971E+03  0.93393638782E+02 0.  0.
         23    2    4    4    0    0  0.24269251056E+03 -0.33139729081E+02  0.63577648776E+03  0.68752104706E+03  0.92062758145E+02 0.  0.
          1    1    3    3  502    0 -0.70089783794E+03 -0.68286151431E+02  0.63649911896E+03  0.94923753937E+03  0.00000000000E+00 0. -1.
         -2    1    3    3    0  502 -0.31089108911E+03 -0.63889484398E+02  0.34529171201E+03  0.46900053506E+03  0.00000000000E+00 0.  1.
         13    1    5    5    0    0  0.12573046108E+03  0.54025061682E+02  0.18647452614E+02  0.13811076577E+03  0.00000000000E+00 0.  1.
        -13    1    5    5    0    0  0.64336595541E+03  0.11129030323E+03 -0.46270811362E+02  0.65455807393E+03  0.00000000000E+00 0. -1.
          4    1    6    6  503    0  0.11031069373E+03 -0.47217030998E+02  0.21538048363E+03  0.24654948772E+03  0.00000000000E+00 0.  1.
         -4    1    6    6    0  503  0.13238181683E+03  0.14077301917E+02  0.42039600414E+03  0.44097155935E+03  0.00000000000E+00 0. -1.
<mgrwt>
<rscale>  0 0.24234197E+04</rscale>
<asrwt>0</asrwt>
<pdfrwt beam="1">  1        1 0.10065262E+00 0.24234197E+04</pdfrwt>
<pdfrwt beam="2">  1       -2 0.34525938E+00 0.24234197E+04</pdfrwt>
<totfact> 0.39425051E-01</totfact>
</mgrwt>
</event>
<event>
12    5  0.5264288E-008  0.1448080E+04  0.7818608E-02  0.8919733E-01
          1   -1    0    0  501    0  0.00000000000E+00  0.00000000000E+00  0.26187362849E+04  0.26187362849E+04  0.00000000000E+00 0. -1.
         -2   -1    0    0    0  501 -0.00000000000E+00 -0.00000000000E+00 -0.20018571924E+03  0.20018571924E+03  0.00000000000E+00 0.  1.
        -24    2    1    2    0    0 -0.18601633634E+03 -0.71382397348E+02 -0.23087463497E+02  0.21606772640E+03  0.80341193573E+02 0.  0.
        254    2    1    2    0    0  0.18601633634E+03  0.71382397348E+02  0.24416380292E+04  0.26028542778E+04  0.87952066583E+03 0.  0.
         23    2    4    4    0    0  0.46081137417E+03  0.23448309697E+03  0.18743871656E+04  0.19464562096E+04  0.89638629341E+02 0.  0.
         23    2    4    4    0    0 -0.27479503782E+03 -0.16310069962E+03  0.56725086363E+03  0.65639806823E+03  0.83490901656E+02 0.  0.
          1    1    3    3  502    0 -0.39618515782E+02 -0.40703819891E+02  0.20307022421E+02  0.60322490881E+02  0.00000000000E+00 0. -1.
         -2    1    3    3    0  502 -0.14639782056E+03 -0.30678577458E+02 -0.43394485918E+02  0.15574523552E+03  0.00000000000E+00 0.  1.
         13    1    5    5    0    0  0.16907597712E+03  0.74880291714E+02  0.83240929386E+03  0.85270098900E+03  0.00000000000E+00 0.  1.
        -13    1    5    5    0    0  0.29173539704E+03  0.15960280526E+03  0.10419778717E+04  0.10937552206E+04  0.00000000000E+00 0. -1.
          1    1    6    6  503    0 -0.11412312996E+03 -0.81813713893E+02  0.32935982877E+03  0.35804394895E+03  0.00000000000E+00 0. -1.
         -1    1    6    6    0  503 -0.16067190786E+03 -0.81286985732E+02  0.23789103486E+03  0.29835411928E+03  0.00000000000E+00 0.  1.
<mgrwt>
<rscale>  0 0.14480796E+04</rscale>
<asrwt>0</asrwt>
<pdfrwt beam="1">  1        1 0.40288248E+00 0.14480796E+04</pdfrwt>
<pdfrwt beam="2">  1       -2 0.30797805E-01 0.14480796E+04</pdfrwt>
<totfact> 0.93582098E+00</totfact>
</mgrwt>
</event>
<event>
12    5  0.5264288E-008  0.2005091E+04  0.7818608E-02  0.8604244E-01
          1   -1    0    0  501    0  0.00000000000E+00  0.00000000000E+00  0.10143605186E+04  0.10143605186E+04  0.00000000000E+00 0. -1.
         -2   -1    0    0    0  501 -0.00000000000E+00 -0.00000000000E+00 -0.99086782644E+03  0.99086782644E+03  0.00000000000E+00 0.  1.
        -24    2    1    2    0    0  0.24276367213E+03 -0.69582667853E+02 -0.74959109927E+03  0.79489579588E+03  0.78718244617E+02 0.  0.
        254    2    1    2    0    0 -0.24276367213E+03  0.69582667853E+02  0.77308379143E+03  0.12103325492E+04  0.89636509459E+03 0.  0.
         23    2    4    4    0    0 -0.22570428981E+03 -0.18812909187E+02  0.95605628777E+03  0.98684941191E+03  0.92367658967E+02 0.  0.
         23    2    4    4    0    0 -0.17059382319E+02  0.88395577040E+02 -0.18297249634E+03  0.22348313724E+03  0.91438381711E+02 0.  0.
          1    1    3    3  502    0  0.49462550819E+02 -0.47306070206E+02 -0.15993731946E+03  0.17396653233E+03  0.00000000000E+00 0. -1.
         -2    1    3    3    0  502  0.19330112131E+03 -0.22276597647E+02 -0.58965377980E+03  0.62092926356E+03  0.00000000000E+00 0.  1.
         13    1    5    5    0    0 -0.21225856514E+03 -0.38956559353E+02  0.90450071194E+03  0.92988862231E+03  0.00000000000E+00 0.  1.
        -13    1    5    5    0    0 -0.13445724666E+02  0.20143650166E+02  0.51555575826E+02  0.56960789606E+02  0.00000000000E+00 0. -1.
          2    1    6    6  503    0 -0.52502712227E+02  0.39889123655E+02 -0.74521615459E+02  0.99504513203E+02  0.00000000000E+00 0. -1.
         -2    1    6    6    0  503  0.35443329908E+02  0.48506453385E+02 -0.10845088088E+03  0.12397862404E+03  0.00000000000E+00 0.  1.
<mgrwt>
<rscale>  0 0.20050907E+04</rscale>
<asrwt>0</asrwt>
<pdfrwt beam="1">  1        1 0.15605546E+00 0.20050907E+04</pdfrwt>
<pdfrwt beam="2">  1       -2 0.15244120E+00 0.20050907E+04</pdfrwt>
<totfact> 0.34401470E+00</totfact>
</mgrwt>
</event>
<event>
12    5  0.5264288E-008  0.3309225E+04  0.7818608E-02  0.8160552E-01
          1   -1    0    0  501    0  0.00000000000E+00  0.00000000000E+00  0.19099668772E+04  0.19099668772E+04  0.00000000000E+00 0. -1.
         -2   -1    0    0    0  501 -0.00000000000E+00 -0.00000000000E+00 -0.14333977928E+04  0.14333977928E+04  0.00000000000E+00 0.  1.
        -24    2    1    2    0    0  0.44062845841E+02 -0.15320613066E+04  0.24096848532E+03  0.15536326099E+04  0.80963536563E+02 0.  0.
        254    2    1    2    0    0 -0.44062845841E+02  0.15320613066E+04  0.23560059902E+03  0.17897320601E+04  0.89357698225E+03 0.  0.
         23    2    4    4    0    0 -0.17071793840E+03  0.64233252168E+03  0.51360056358E+03  0.84476276474E+03  0.90016147943E+02 0.  0.
         23    2    4    4    0    0  0.12665509256E+03  0.88972878489E+03 -0.27799996457E+03  0.94496929535E+03  0.89577707747E+02 0.  0.
          3    1    3    3  502    0 -0.67481660932E+01 -0.13788556108E+02  0.58225317806E+01  0.16418401308E+02  0.00000000000E+00 0. -1.
         -4    1    3    3    0  502  0.50811011934E+02 -0.15182727505E+04  0.23514595354E+03  0.15372142086E+04  0.00000000000E+00 0.  1.
         13    1    5    5    0    0 -0.17798869389E+03  0.63022748493E+03  0.51039453453E+03  0.83028262585E+03  0.00000000000E+00 0.  1.
        -13    1    5    5    0    0  0.72707554924E+01  0.12105036745E+02  0.32060290560E+01  0.14480138892E+02  0.00000000000E+00 0. -1.
          2    1    6    6  503    0  0.97427865679E+02  0.37818450974E+03 -0.10944767933E+03  0.40557922399E+03  0.00000000000E+00 0. -1.
         -2    1    6    6    0  503  0.29227226882E+02  0.51154427514E+03 -0.16855228524E+03  0.53939007136E+03  0.00000000000E+00 0.  1.
<mgrwt>
<rscale>  0 0.33092249E+04</rscale>
<asrwt>0</asrwt>
<pdfrwt beam="1">  1        1 0.29384106E+00 0.33092249E+04</pdfrwt>
<pdfrwt beam="2">  1       -2 0.22052274E+00 0.33092249E+04</pdfrwt>
<totfact> 0.24519482E-01</totfact>
</mgrwt>
</event>
<event>
12    5  0.5264288E-008  0.2154579E+04  0.7818608E-02  0.8537575E-01
          1   -1    0    0  501    0  0.00000000000E+00  0.00000000000E+00  0.15374417329E+04  0.15374417329E+04  0.00000000000E+00 0. -1.
         -2   -1    0    0    0  501 -0.00000000000E+00 -0.00000000000E+00 -0.75485995463E+03  0.75485995463E+03  0.00000000000E+00 0.  1.
        -24    2    1    2    0    0 -0.61601348005E+03  0.41980814801E+03 -0.17603758194E+03  0.77031061692E+03  0.81717363760E+02 0.  0.
        254    2    1    2    0    0  0.61601348005E+03 -0.41980814801E+03  0.95861936023E+03  0.15219910706E+04  0.91749346185E+03 0.  0.
         23    2    4    4    0    0  0.35414202239E+03 -0.45267351863E+03  0.65367380299E+02  0.58587732346E+03  0.93002458284E+02 0.  0.
         23    2    4    4    0    0  0.26187145766E+03  0.32865370618E+02  0.89325197993E+03  0.93611374717E+03  0.93557763307E+02 0.  0.
          1    1    3    3  502    0 -0.37249594990E+02  0.47552398060E+01 -0.12421113873E+02  0.39552859598E+02  0.00000000000E+00 0. -1.
         -2    1    3    3    0  502 -0.57876388506E+03  0.41505290820E+03 -0.16361646807E+03  0.73075775732E+03  0.00000000000E+00 0.  1.
         13    1    5    5    0    0  0.30283131396E+03 -0.32739603637E+03  0.36594200422E+02  0.44747525613E+03  0.00000000000E+00 0. -1.
        -13    1    5    5    0    0  0.51310708430E+02 -0.12527748225E+03  0.28773179877E+02  0.13840206732E+03  0.00000000000E+00 0.  1.
          3    1    6    6  503    0  0.23821318894E+03  0.51881050197E+02  0.71824165880E+03  0.75849076935E+03  0.00000000000E+00 0.  1.
         -3    1    6    6    0  503  0.23658268723E+02 -0.19015679579E+02  0.17501032113E+03  0.17762297783E+03  0.00000000000E+00 0. -1.
<mgrwt>
<rscale>  0 0.21545795E+04</rscale>
<asrwt>0</asrwt>
<pdfrwt beam="1">  1        1 0.23652950E+00 0.21545795E+04</pdfrwt>
<pdfrwt beam="2">  1       -2 0.11613230E+00 0.21545795E+04</pdfrwt>
<totfact> 0.28508798E+00</totfact>
</mgrwt>
</event>
<event>
12    5  0.5264288E-008  0.1370430E+04  0.7818608E-02  0.8975505E-01
          1   -1    0    0  501    0  0.00000000000E+00  0.00000000000E+00  0.83735401952E+03  0.83735401952E+03  0.00000000000E+00 0. -1.
         -2   -1    0    0    0  501 -0.00000000000E+00 -0.00000000000E+00 -0.56071835706E+03  0.56071835706E+03  0.00000000000E+00 0.  1.
        -24    2    1    2    0    0 -0.12899197477E+03  0.13888604845E+03 -0.25721755638E+03  0.32831683561E+03  0.75516946593E+02 0.  0.
        254    2    1    2    0    0  0.12899197477E+03 -0.13888604845E+03  0.53385321884E+03  0.10697555410E+04  0.90744112435E+03 0.  0.
         23    2    4    4    0    0  0.10684989075E+03  0.36728218177E+02 -0.23338379456E+03  0.27707366379E+03  0.97652232102E+02 0.  0.
         23    2    4    4    0    0  0.22142084015E+02 -0.17561426663E+03  0.76723701341E+03  0.79268187719E+03  0.91440041268E+02 0.  0.
          3    1    3    3  502    0 -0.19102040423E+02  0.51360463375E+02 -0.33747524319E+02  0.64355889739E+02  0.00000000000E+00 0. -1.
         -4    1    3    3    0  502 -0.10988993435E+03  0.87525585076E+02 -0.22347003206E+03  0.26396094587E+03  0.00000000000E+00 0.  1.
         13    1    5    5    0    0  0.57898249703E+02 -0.28099412746E+02 -0.13447939632E+03  0.14908552025E+03  0.00000000000E+00 0.  1.
        -13    1    5    5    0    0  0.48951641052E+02  0.64827630922E+02 -0.98904398247E+02  0.12798814353E+03  0.00000000000E+00 0. -1.
          4    1    6    6  503    0 -0.62410986403E+01 -0.35952123535E+02  0.52884774455E+02  0.64251893887E+02  0.00000000000E+00 0. -1.
         -4    1    6    6    0  503  0.28383182656E+02 -0.13966214309E+03  0.71435223895E+03  0.72842998330E+03  0.00000000000E+00 0.  1.
<mgrwt>
<rscale>  0 0.13704303E+04</rscale>
<asrwt>0</asrwt>
<pdfrwt beam="1">  1        1 0.12882370E+00 0.13704303E+04</pdfrwt>
<pdfrwt beam="2">  1       -2 0.86264362E-01 0.13704303E+04</pdfrwt>
<totfact> 0.20481285E+01</totfact>
</mgrwt>
</event>
<event>
12    5  0.5264288E-008  0.1710663E+04  0.7818608E-02  0.8755306E-01
          1   -1    0    0  501    0  0.00000000000E+00  0.00000000000E+00  0.12205754018E+04  0.12205754018E+04  0.00000000000E+00 0. -1.
         -2   -1    0    0    0  501 -0.00000000000E+00 -0.00000000000E+00 -0.59938256882E+03  0.59938256882E+03  0.00000000000E+00 0.  1.
        -24    2    1    2    0    0  0.41114745299E+03 -0.44647021115E+03  0.33435333160E+03  0.69751588542E+03  0.79739466494E+02 0.  0.
        254    2    1    2    0    0 -0.41114745299E+03  0.44647021115E+03  0.28683950141E+03  0.11224420852E+04  0.89956737246E+03 0.  0.
         23    2    4    4    0    0 -0.34748896951E+03  0.14309726346E+03  0.57243588803E+03  0.69064082811E+03  0.89869331833E+02 0.  0.
         23    2    4    4    0    0 -0.63658483483E+02  0.30337294769E+03 -0.28559638663E+03  0.43180125713E+03  0.93805552565E+02 0.  0.
          3    1    3    3  502    0  0.26995187554E+03 -0.26385921304E+03  0.16910953594E+03  0.41363478403E+03  0.00000000000E+00 0. -1.
         -4    1    3    3    0  502  0.14119557745E+03 -0.18261099812E+03  0.16524379566E+03  0.28388110140E+03  0.00000000000E+00 0.  1.
         13    1    5    5    0    0 -0.86856363815E+01  0.26437574476E+02  0.35219338352E+02  0.44886383431E+02  0.00000000000E+00 0.  1.
        -13    1    5    5    0    0 -0.33880333313E+03  0.11665968898E+03  0.53721654968E+03  0.64575444468E+03  0.00000000000E+00 0. -1.
          3    1    6    6  503    0 -0.53469856949E+02  0.30707380132E+03 -0.28213896516E+03  0.42042328756E+03  0.00000000000E+00 0. -1.
         -3    1    6    6    0  503 -0.10188626534E+02 -0.37008536338E+01 -0.34574214702E+01  0.11377969568E+02  0.00000000000E+00 0.  1.
<mgrwt>
<rscale>  0 0.17106626E+04</rscale>
<asrwt>0</asrwt>
<pdfrwt beam="1">  1        1 0.18778083E+00 0.17106626E+04</pdfrwt>
<pdfrwt beam="2">  1       -2 0.92212703E-01 0.17106626E+04</pdfrwt>
<totfact> 0.85997646E+00</totfact>
</mgrwt>
</event>
<event>
12    5  0.5264288E-008  0.1948756E+04  0.7818608E-02  0.8630961E-01
          1   -1    0    0  501    0  0.00000000000E+00  0.00000000000E+00  0.68672816010E+03  0.68672816010E+03  0.00000000000E+00 0. -1.
         -4   -1    0    0    0  501 -0.00000000000E+00 -0.00000000000E+00 -0.13825155169E+04  0.13825155169E+04  0.00000000000E+00 0.  1.
        -24    2    1    2    0    0  0.47960793107E+02  0.27521749329E+03  0.47576509361E+03  0.55916383705E+03  0.90922307947E+02 0.  0.
        254    2    1    2    0    0 -0.47960793107E+02 -0.27521749329E+03 -0.11715524504E+04  0.15100798399E+04  0.91091222007E+03 0.  0.
         23    2    4    4    0    0 -0.35635592301E+03  0.14350486523E+03 -0.69674247139E+03  0.80007230462E+03  0.84157180189E+02 0.  0.
         23    2    4    4    0    0  0.30839512991E+03 -0.41872235852E+03 -0.47480997897E+03  0.71000753528E+03  0.90720528872E+02 0.  0.
          3    1    3    3  502    0  0.14638010175E+02  0.24602789971E+03  0.42893165884E+03  0.49469825827E+03  0.00000000000E+00 0. -1.
         -4    1    3    3    0  502  0.33322782932E+02  0.29189593576E+02  0.46833434762E+02  0.64465578777E+02  0.00000000000E+00 0.  1.
         13    1    5    5    0    0 -0.26977444008E+03  0.11675920729E+03 -0.45288456142E+03  0.53992164893E+03  0.00000000000E+00 0. -1.
        -13    1    5    5    0    0 -0.86581482939E+02  0.26745657938E+02 -0.24385790996E+03  0.26015065569E+03  0.00000000000E+00 0.  1.
          4    1    6    6  503    0  0.29228404702E+03 -0.41424255046E+03 -0.43958796974E+03  0.67101746467E+03  0.00000000000E+00 0. -1.
         -4    1    6    6    0  503  0.16111082892E+02 -0.44798080535E+01 -0.35222009233E+02  0.38990070615E+02  0.00000000000E+00 0.  1.
<mgrwt>
<rscale>  0 0.19487558E+04</rscale>
<asrwt>0</asrwt>
<pdfrwt beam="1">  1        1 0.10565049E+00 0.19487558E+04</pdfrwt>
<pdfrwt beam="2">  1       -4 0.21269470E+00 0.19487558E+04</pdfrwt>
<totfact> 0.13637665E+00</totfact>
</mgrwt>
</event>
<event>
12    5  0.5264288E-008  0.1417901E+04  0.7818608E-02  0.8940962E-01
         -2   -1    0    0    0  501 -0.00000000000E+00  0.00000000000E+00  0.17162090222E+04  0.17162090222E+04  0.00000000000E+00 0.  1.
          1   -1    0    0  501    0  0.00000000000E+00 -0.00000000000E+00 -0.29286114567E+03  0.29286114567E+03  0.00000000000E+00 0. -1.
        -24    2    1    2    0    0  0.38792777143E+03 -0.10953984030E+03  0.57324585046E+03  0.70504217197E+03  0.77373940911E+02 0.  0.
        254    2    1    2    0    0 -0.38792777143E+03  0.10953984030E+03  0.85010202604E+03  0.13040279959E+04  0.90295549550E+03 0.  0.
         23    2    4    4    0    0  0.17942709164E+03 -0.17664286535E+03  0.51463460420E+03  0.57990524691E+03  0.89691339954E+02 0.  0.
         23    2    4    4    0    0 -0.56735486306E+03  0.28618270564E+03  0.33546742184E+03  0.72412274895E+03  0.89572779217E+02 0.  0.
          3    1    3    3  502    0  0.14436785318E+03 -0.68028316097E+02  0.27279850044E+03  0.31605213283E+03  0.00000000000E+00 0. -1.
         -4    1    3    3    0  502  0.24355991825E+03 -0.41511524199E+02  0.30044735001E+03  0.38899003914E+03  0.00000000000E+00 0.  1.
         13    1    5    5    0    0  0.21873242396E+02 -0.78898103897E+02  0.15782729740E+03  0.17779990252E+03  0.00000000000E+00 0. -1.
        -13    1    5    5    0    0  0.15755384924E+03 -0.97744761451E+02  0.35680730680E+03  0.40210534439E+03  0.00000000000E+00 0.  1.
          3    1    6    6  503    0 -0.44600807738E+03  0.23506192978E+03  0.22433488606E+03  0.55181831885E+03  0.00000000000E+00 0. -1.
         -3    1    6    6    0  503 -0.12134678569E+03  0.51120775860E+02  0.11113253578E+03  0.17230443010E+03  0.00000000000E+00 0.  1.
<mgrwt>
<rscale>  0 0.14179012E+04</rscale>
<asrwt>0</asrwt>
<pdfrwt beam="1">  1        1 0.45055562E-01 0.14179012E+04</pdfrwt>
<pdfrwt beam="2">  1       -2 0.26403215E+00 0.14179012E+04</pdfrwt>
<totfact> 0.40622268E+00</totfact>
</mgrwt>
</event>
<event>
12    5  0.5264288E-008  0.1157453E+04  0.7818608E-02  0.9150935E-01
         -2   -1    0    0    0  501 -0.00000000000E+00  0.00000000000E+00  0.15183030247E+03  0.15183030247E+03  0.00000000000E+00 0.  1.
          1   -1    0    0  501    0  0.00000000000E+00 -0.00000000000E+00 -0.22059140237E+04  0.22059140237E+04  0.00000000000E+00 0. -1.
        -24    2    1    2    0    0 -0.27995911287E+01  0.23839797031E+03 -0.52498500665E+03  0.58201081497E+03  0.79283677891E+02 0.  0.
        254    2    1    2    0    0  0.27995911287E+01 -0.23839797031E+03 -0.15290987146E+04  0.17757335112E+04  0.87077275676E+03 0.  0.
         23    2    4    4    0    0  0.26269555288E+03  0.12197832316E+03 -0.11335043680E+04  0.11735241483E+04  0.91864625482E+02 0.  0.
         23    2    4    4    0    0 -0.25989596175E+03 -0.36037629347E+03 -0.39559434654E+03  0.60220936292E+03  0.93510672873E+02 0.  0.
          3    1    3    3  502    0 -0.10970974650E+02  0.86862744915E+02 -0.28431720230E+03  0.29749247093E+03  0.00000000000E+00 0. -1.
         -2    1    3    3    0  502  0.81713835212E+01  0.15153522539E+03 -0.24066780435E+03  0.28451834404E+03  0.00000000000E+00 0.  1.
         13    1    5    5    0    0  0.46303308883E+02  0.20190470878E+02 -0.92377128418E+02  0.10528620699E+03  0.00000000000E+00 0. -1.
        -13    1    5    5    0    0  0.21639224400E+03  0.10178785229E+03 -0.10411272396E+04  0.10682379413E+04  0.00000000000E+00 0.  1.
          4    1    6    6  503    0 -0.14952407572E+03 -0.24554293826E+03 -0.20120993119E+03  0.35090485912E+03  0.00000000000E+00 0. -1.
         -4    1    6    6    0  503 -0.11037188603E+03 -0.11483335522E+03 -0.19438441535E+03  0.25130450380E+03  0.00000000000E+00 0.  1.
<mgrwt>
<rscale>  0 0.11574534E+04</rscale>
<asrwt>0</asrwt>
<pdfrwt beam="1">  1        1 0.33937137E+00 0.11574534E+04</pdfrwt>
<pdfrwt beam="2">  1       -2 0.23358509E-01 0.11574534E+04</pdfrwt>
<totfact> 0.30630759E+01</totfact>
</mgrwt>
</event>
<event>
12    5  0.5264288E-008  0.1635291E+04  0.7818608E-02  0.8799156E-01
         -2   -1    0    0    0  501 -0.00000000000E+00  0.00000000000E+00  0.76099667981E+03  0.76099667981E+03  0.00000000000E+00 0.  1.
          1   -1    0    0  501    0  0.00000000000E+00 -0.00000000000E+00 -0.87851179987E+03  0.87851179987E+03  0.00000000000E+00 0. -1.
        -24    2    1    2    0    0  0.36729096355E+03  0.24116325045E+02 -0.47510023492E+03  0.60600870322E+03  0.77730728202E+02 0.  0.
        254    2    1    2    0    0 -0.36729096355E+03 -0.24116325045E+02  0.35758511487E+03  0.10334997765E+04  0.89708997572E+03 0.  0.
         23    2    4    4    0    0 -0.42271091433E+03 -0.34186377195E+03  0.41906971473E+03  0.69268567649E+03  0.92944418576E+02 0.  0.
         23    2    4    4    0    0  0.55419950777E+02  0.31774744691E+03 -0.61484599858E+02  0.34081409998E+03  0.91318583899E+02 0.  0.
          1    1    3    3  502    0  0.25164001857E+03 -0.40710085857E+01 -0.36834715367E+03  0.44611534122E+03  0.00000000000E+00 0. -1.
         -2    1    3    3    0  502  0.11565094498E+03  0.28187333631E+02 -0.10675308126E+03  0.15989336200E+03  0.00000000000E+00 0.  1.
         13    1    5    5    0    0 -0.43533780391E+02 -0.47681697979E+02  0.90094526349E+02  0.11084113873E+03  0.00000000000E+00 0. -1.
        -13    1    5    5    0    0 -0.37917713394E+03 -0.29418207397E+03  0.32897518838E+03  0.58184453776E+03  0.00000000000E+00 0.  1.
          1    1    6    6  503    0 -0.25055839880E+02  0.84460030989E+02 -0.23023333251E+02  0.91056937247E+02  0.00000000000E+00 0. -1.
         -1    1    6    6    0  503  0.80475790657E+02  0.23328741592E+03 -0.38461266607E+02  0.24975716273E+03  0.00000000000E+00 0.  1.
<mgrwt>
<rscale>  0 0.16352915E+04</rscale>
<asrwt>0</asrwt>
<pdfrwt beam="1">  1        1 0.13515566E+00 0.16352915E+04</pdfrwt>
<pdfrwt beam="2">  1       -2 0.11707641E+00 0.16352915E+04</pdfrwt>
<totfact> 0.89682419E+00</totfact>
</mgrwt>
</event>
<event>
12    5  0.5264288E-008  0.1258762E+04  0.7818608E-02  0.9062922E-01
          1   -1    0    0  501    0  0.00000000000E+00  0.00000000000E+00  0.45114562355E+04  0.45114562355E+04  0.00000000000E+00 0. -1.
         -2   -1    0    0    0  501 -0.00000000000E+00 -0.00000000000E+00 -0.87803203481E+02  0.87803203481E+02  0.00000000000E+00 0.  1.
        -24    2    1    2    0    0 -0.19334766088E+02  0.61608158245E+02  0.21403791991E+04  0.21428949554E+04  0.81278999482E+02 0.  0.
        254    2    1    2    0    0  0.19334766088E+02 -0.61608158245E+02  0.22832738329E+04  0.24563644835E+04  0.90344766399E+03 0.  0.
         23    2    4    4    0    0 -0.26310844850E+03  0.29730020299E+02  0.18526568610E+03  0.33552717723E+03  0.90250664451E+02 0.  0.
         23    2    4    4    0    0  0.28244321458E+03 -0.91338178544E+02  0.20980081468E+04  0.21208373063E+04  0.90531008077E+02 0.  0.
          1    1    3    3  502    0 -0.13659778553E+02  0.20687517916E+02  0.17773176112E+04  0.17774904934E+04  0.00000000000E+00 0. -1.
         -2    1    3    3    0  502 -0.56749875352E+01  0.40920640329E+02  0.36306158789E+03  0.36540446206E+03  0.00000000000E+00 0.  1.
         13    1    5    5    0    0 -0.23787338205E+03  0.53735566422E+02  0.15196909005E+03  0.28734275929E+03  0.00000000000E+00 0. -1.
        -13    1    5    5    0    0 -0.25235066448E+02 -0.24005546123E+02  0.33296596048E+02  0.48184417934E+02  0.00000000000E+00 0.  1.
          3    1    6    6  503    0  0.14769336720E+03 -0.83010716233E+02  0.95837384791E+03  0.97323406336E+03  0.00000000000E+00 0. -1.
         -3    1    6    6    0  503  0.13474984738E+03 -0.83274623115E+01  0.11396342989E+04  0.11476032429E+04  0.00000000000E+00 0.  1.
<mgrwt>
<rscale>  0 0.12587618E+04</rscale>
<asrwt>0</asrwt>
<pdfrwt beam="1">  1        1 0.69407001E+00 0.12587618E+04</pdfrwt>
<pdfrwt beam="2">  1       -2 0.13508189E-01 0.12587618E+04</pdfrwt>
<totfact> 0.11893175E+00</totfact>
</mgrwt>
</event>
<event>
12    5  0.5264288E-008  0.2025219E+04  0.7818608E-02  0.8594920E-01
         -2   -1    0    0    0  501 -0.00000000000E+00  0.00000000000E+00  0.10671056104E+04  0.10671056104E+04  0.00000000000E+00 0.  1.
          1   -1    0    0  501    0  0.00000000000E+00 -0.00000000000E+00 -0.96089649360E+03  0.96089649360E+03  0.00000000000E+00 0. -1.
        -24    2    1    2    0    0  0.37542872159E+03 -0.46505146740E+03 -0.49948306402E+03  0.78556221249E+03  0.10200522595E+03 0.  0.
        254    2    1    2    0    0 -0.37542872159E+03  0.46505146740E+03  0.60569218079E+03  0.12424398915E+04  0.90530341530E+03 0.  0.
         23    2    4    4    0    0 -0.57762533428E+03  0.35554982284E+02  0.43438419907E+03  0.72937383772E+03  0.91549872647E+02 0.  0.
         23    2    4    4    0    0  0.20219661269E+03  0.42949648512E+03  0.17130798172E+03  0.51306605377E+03  0.92410226785E+02 0.  0.
          3    1    3    3  502    0  0.31061230353E+03 -0.32621093912E+03 -0.40365066797E+03  0.60483670660E+03  0.00000000000E+00 0. -1.
         -4    1    3    3    0  502  0.64816418064E+02 -0.13884052829E+03 -0.95832396048E+02  0.18072550589E+03  0.00000000000E+00 0.  1.
         13    1    5    5    0    0 -0.39974710232E+03  0.36217377051E+02  0.34975317692E+03  0.53238776186E+03  0.00000000000E+00 0. -1.
        -13    1    5    5    0    0 -0.17787823196E+03 -0.66239476729E+00  0.84631022151E+02  0.19698607586E+03  0.00000000000E+00 0.  1.
          2    1    6    6  503    0  0.79563518776E+02  0.11836481551E+03  0.13447577158E+02  0.14325299439E+03  0.00000000000E+00 0. -1.
         -2    1    6    6    0  503  0.12263309391E+03  0.31113166961E+03  0.15786040456E+03  0.36981305937E+03  0.00000000000E+00 0.  1.
<mgrwt>
<rscale>  0 0.20252190E+04</rscale>
<asrwt>0</asrwt>
<pdfrwt beam="1">  1        1 0.14783023E+00 0.20252190E+04</pdfrwt>
<pdfrwt beam="2">  1       -2 0.16417009E+00 0.20252190E+04</pdfrwt>
<totfact> 0.30939394E+00</totfact>
</mgrwt>
</event>
<event>
12    5  0.5264288E-008  0.1598486E+04  0.7818608E-02  0.8821478E-01
         -2   -1    0    0    0  501 -0.00000000000E+00  0.00000000000E+00  0.27376544928E+04  0.27376544928E+04  0.00000000000E+00 0.  1.
          1   -1    0    0  501    0  0.00000000000E+00 -0.00000000000E+00 -0.23333465903E+03  0.23333465903E+03  0.00000000000E+00 0. -1.
        -24    2    1    2    0    0 -0.19960586418E+03  0.34116460741E+02 -0.77545814972E+02  0.23028746319E+03  0.77540495061E+02 0.  0.
        254    2    1    2    0    0  0.19960586418E+03 -0.34116460741E+02  0.25818656487E+04  0.27407016886E+04  0.89688855719E+03 0.  0.
         23    2    4    4    0    0  0.32616982811E+03 -0.39770736934E+03  0.15537853522E+04  0.16391195037E+04  0.88915229899E+02 0.  0.
         23    2    4    4    0    0 -0.12656396393E+03  0.36359090860E+03  0.10280802965E+04  0.11015821849E+04  0.91199936252E+02 0.  0.
          1    1    3    3  502    0 -0.15801996660E+03  0.63120717919E+01 -0.29395792749E+02  0.16085479392E+03  0.00000000000E+00 0. -1.
         -2    1    3    3    0  502 -0.41585897580E+02  0.27804388949E+02 -0.48150022223E+02  0.69432669273E+02  0.00000000000E+00 0.  1.
         13    1    5    5    0    0  0.32183394459E+03 -0.35986256946E+03  0.14652762384E+04  0.15427613593E+04  0.00000000000E+00 0.  1.
        -13    1    5    5    0    0  0.43358835186E+01 -0.37844799884E+02  0.88509113815E+02  0.96358144401E+02  0.00000000000E+00 0. -1.
          4    1    6    6  503    0 -0.18600810714E+01  0.42584108159E+02  0.20459438427E+03  0.20898738776E+03  0.00000000000E+00 0. -1.
         -4    1    6    6    0  503 -0.12470388286E+03  0.32100680044E+03  0.82348591222E+03  0.89259479718E+03  0.00000000000E+00 0.  1.
<mgrwt>
<rscale>  0 0.15984864E+04</rscale>
<asrwt>0</asrwt>
<pdfrwt beam="1">  1        1 0.35897642E-01 0.15984864E+04</pdfrwt>
<pdfrwt beam="2">  1       -2 0.42117759E+00 0.15984864E+04</pdfrwt>
<totfact> 0.55315478E-01</totfact>
</mgrwt>
</event>
<event>
12    5  0.5264288E-008  0.2392441E+04  0.7818608E-02  0.8442339E-01
         -2   -1    0    0    0  501 -0.00000000000E+00  0.00000000000E+00  0.15733597186E+04  0.15733597186E+04  0.00000000000E+00 0.  1.
          1   -1    0    0  501    0  0.00000000000E+00 -0.00000000000E+00 -0.90948253961E+03  0.90948253961E+03  0.00000000000E+00 0. -1.
        -24    2    1    2    0    0  0.30809596357E+03 -0.75978834738E+03 -0.34803265495E+03  0.89456595734E+03  0.83186943326E+02 0.  0.
        254    2    1    2    0    0 -0.30809596357E+03  0.75978834738E+03  0.10119098340E+04  0.15882763009E+04  0.90909770670E+03 0.  0.
         23    2    4    4    0    0 -0.11759640351E+03  0.62009345863E+03  0.10416100528E+03  0.64587275034E+03  0.89203604540E+02 0.  0.
         23    2    4    4    0    0 -0.19049956006E+03  0.13969488875E+03  0.90774882870E+03  0.94240355056E+03  0.91168918909E+02 0.  0.
          1    1    3    3  502    0  0.20264387765E+03 -0.41677005605E+03 -0.16671842097E+03  0.49250061183E+03  0.00000000000E+00 0. -1.
         -2    1    3    3    0  502  0.10545208592E+03 -0.34301829133E+03 -0.18131423398E+03  0.40206534550E+03  0.00000000000E+00 0.  1.
         13    1    5    5    0    0  0.40354765548E+01  0.25458799903E+02 -0.11123060601E+02  0.28074152537E+02  0.00000000000E+00 0.  1.
        -13    1    5    5    0    0 -0.12163188006E+03  0.59463465873E+03  0.11528406588E+03  0.61779859781E+03  0.00000000000E+00 0. -1.
          1    1    6    6  503    0 -0.18636267608E+03  0.14521337035E+03  0.79296012040E+03  0.82740783324E+03  0.00000000000E+00 0. -1.
         -1    1    6    6    0  503 -0.41368839785E+01 -0.55184816027E+01  0.11478870829E+03  0.11499571731E+03  0.00000000000E+00 0.  1.
<mgrwt>
<rscale>  0 0.23924408E+04</rscale>
<asrwt>0</asrwt>
<pdfrwt beam="1">  1        1 0.13992039E+00 0.23924408E+04</pdfrwt>
<pdfrwt beam="2">  1       -2 0.24205534E+00 0.23924408E+04</pdfrwt>
<totfact> 0.10108079E+00</totfact>
</mgrwt>
</event>
<event>
12    5  0.5264288E-008  0.1457888E+04  0.7818608E-02  0.8912950E-01
         -2   -1    0    0    0  501 -0.00000000000E+00  0.00000000000E+00  0.50682728640E+03  0.50682728640E+03  0.00000000000E+00 0.  1.
          1   -1    0    0  501    0  0.00000000000E+00 -0.00000000000E+00 -0.10484026705E+04  0.10484026705E+04  0.00000000000E+00 0. -1.
        -24    2    1    2    0    0 -0.33834554102E+03  0.18559700437E+03 -0.74997113039E+02  0.40091862158E+03  0.78658890199E+02 0.  0.
        254    2    1    2    0    0  0.33834554102E+03 -0.18559700437E+03 -0.46657827111E+03  0.11543113354E+04  0.98275908683E+03 0.  0.
         23    2    4    4    0    0 -0.10064485669E+03 -0.48583728048E+03 -0.31149272630E+03  0.59280920929E+03  0.90707165083E+02 0.  0.
         23    2    4    4    0    0  0.43899039771E+03  0.30024027611E+03 -0.15508554481E+03  0.56150212608E+03  0.91522230656E+02 0.  0.
          1    1    3    3  502    0 -0.32347678750E+03  0.19298602331E+03 -0.67374269811E+02  0.38264883311E+03  0.00000000000E+00 0. -1.
         -2    1    3    3    0  502 -0.14868753512E+02 -0.73890189384E+01 -0.76228432276E+01  0.18269788470E+02  0.00000000000E+00 0.  1.
         13    1    5    5    0    0 -0.22555743314E+02 -0.28991623599E+03 -0.21037698883E+03  0.35891316899E+03  0.00000000000E+00 0. -1.
        -13    1    5    5    0    0 -0.78089113380E+02 -0.19592104449E+03 -0.10111573747E+03  0.23389604029E+03  0.00000000000E+00 0.  1.
          1    1    6    6  503    0  0.41691889633E+03  0.25342405673E+03 -0.14079069313E+03  0.50780620114E+03  0.00000000000E+00 0. -1.
         -1    1    6    6    0  503  0.22071501377E+02  0.46816219384E+02 -0.14294851685E+02  0.53695924940E+02  0.00000000000E+00 0.  1.
<mgrwt>
<rscale>  0 0.14578876E+04</rscale>
<asrwt>0</asrwt>
<pdfrwt beam="1">  1        1 0.16129272E+00 0.14578876E+04</pdfrwt>
<pdfrwt beam="2">  1       -2 0.77973429E-01 0.14578876E+04</pdfrwt>
<totfact> 0.17294667E+01</totfact>
</mgrwt>
</event>
<event>
12    5  0.5264288E-008  0.2830628E+04  0.7818608E-02  0.8293822E-01
          1   -1    0    0  501    0  0.00000000000E+00  0.00000000000E+00  0.16070722758E+04  0.16070722758E+04  0.00000000000E+00 0. -1.
         -2   -1    0    0    0  501 -0.00000000000E+00 -0.00000000000E+00 -0.12464361981E+04  0.12464361981E+04  0.00000000000E+00 0.  1.
        -24    2    1    2    0    0 -0.94666977736E+03 -0.34507319341E+03 -0.62523435602E+03  0.11882444408E+04  0.75813422269E+02 0.  0.
        254    2    1    2    0    0  0.94666977736E+03  0.34507319341E+03  0.98587043377E+03  0.16652640331E+04  0.88651261221E+03 0.  0.
         23    2    4    4    0    0 -0.14034715911E+03 -0.46322747335E+02  0.19836059670E+03  0.26360653469E+03  0.91095317211E+02 0.  0.
         23    2    4    4    0    0  0.10870169365E+04  0.39139594074E+03  0.78750983707E+03  0.14016574984E+04  0.98363594890E+02 0.  0.
          3    1    3    3  502    0 -0.51424088812E+02 -0.63429867671E+01 -0.47039855213E+02  0.69981557354E+02  0.00000000000E+00 0. -1.
         -4    1    3    3    0  502 -0.89524568855E+03 -0.33873020664E+03 -0.57819450080E+03  0.11182628835E+04  0.00000000000E+00 0.  1.
         13    1    5    5    0    0 -0.60022348277E+02 -0.56764975381E+02  0.55965918578E+02  0.99785413589E+02  0.00000000000E+00 0.  1.
        -13    1    5    5    0    0 -0.80324810830E+02  0.10442228046E+02  0.14239467812E+03  0.16382112110E+03  0.00000000000E+00 0. -1.
          4    1    6    6  503    0  0.47236034098E+03  0.13145109903E+03  0.29471769262E+03  0.57206835388E+03  0.00000000000E+00 0. -1.
         -4    1    6    6    0  503  0.61465659549E+03  0.25994484171E+03  0.49279214445E+03  0.82958914454E+03  0.00000000000E+00 0.  1.
<mgrwt>
<rscale>  0 0.28306275E+04</rscale>
<asrwt>0</asrwt>
<pdfrwt beam="1">  1        1 0.24724189E+00 0.28306275E+04</pdfrwt>
<pdfrwt beam="2">  1       -2 0.19175942E+00 0.28306275E+04</pdfrwt>
<totfact> 0.63139024E-01</totfact>
</mgrwt>
</event>
<event>
12    5  0.5264288E-008  0.1479820E+04  0.7818608E-02  0.8897984E-01
         -4   -1    0    0    0  501 -0.00000000000E+00  0.00000000000E+00  0.14367492370E+04  0.14367492370E+04  0.00000000000E+00 0.  1.
          3   -1    0    0  501    0  0.00000000000E+00 -0.00000000000E+00 -0.38104543055E+03  0.38104543055E+03  0.00000000000E+00 0. -1.
        -24    2    1    2    0    0  0.13280522344E+01 -0.16341503364E+03  0.94881493354E+03  0.96607331440E+03  0.79634375410E+02 0.  0.
        254    2    1    2    0    0 -0.13280522344E+01  0.16341503364E+03  0.10688887293E+03  0.85172135317E+03  0.82903425463E+03 0.  0.
         23    2    4    4    0    0 -0.18057113161E+02  0.14104417657E+03  0.45896852418E+03  0.48865750077E+03  0.88963631831E+02 0.  0.
         23    2    4    4    0    0  0.16729060927E+02  0.22370857066E+02 -0.35207965125E+03  0.36306385240E+03  0.84112801460E+02 0.  0.
          3    1    3    3  502    0 -0.25546964067E+01 -0.40638092524E+02  0.93486248409E+02  0.10196891526E+03  0.00000000000E+00 0. -1.
         -4    1    3    3    0  502  0.38827486411E+01 -0.12277694112E+03  0.85532868513E+03  0.86410439914E+03  0.00000000000E+00 0.  1.
         13    1    5    5    0    0  0.17657126278E+02  0.16093593904E+02  0.20976305924E+02  0.31792818110E+02  0.00000000000E+00 0.  1.
        -13    1    5    5    0    0 -0.35714239440E+02  0.12495058267E+03  0.43799221826E+03  0.45686468266E+03  0.00000000000E+00 0. -1.
          4    1    6    6  503    0  0.30682356022E+02  0.41323597470E+02 -0.31477864576E+03  0.31895868464E+03  0.00000000000E+00 0. -1.
         -4    1    6    6    0  503 -0.13953295095E+02 -0.18952740404E+02 -0.37301005491E+02  0.44105167764E+02  0.00000000000E+00 0.  1.
<mgrwt>
<rscale>  0 0.14798199E+04</rscale>
<asrwt>0</asrwt>
<pdfrwt beam="1">  1        3 0.58622374E-01 0.14798199E+04</pdfrwt>
<pdfrwt beam="2">  1       -4 0.22103834E+00 0.14798199E+04</pdfrwt>
<totfact> 0.60686645E-01</totfact>
</mgrwt>
</event>
<event>
12    5  0.5264288E-008  0.2305237E+04  0.7818608E-02  0.8475859E-01
         -2   -1    0    0    0  501 -0.00000000000E+00  0.00000000000E+00  0.12961841904E+04  0.12961841904E+04  0.00000000000E+00 0.  1.
          1   -1    0    0  501    0  0.00000000000E+00 -0.00000000000E+00 -0.10249540855E+04  0.10249540855E+04  0.00000000000E+00 0. -1.
        -24    2    1    2    0    0 -0.36255133093E+03  0.74864319143E+02  0.10208525234E+04  0.10888158268E+04  0.79573213289E+02 0.  0.
        254    2    1    2    0    0  0.36255133093E+03 -0.74864319143E+02 -0.74962241853E+03  0.12323224491E+04  0.90533790066E+03 0.  0.
         23    2    4    4    0    0  0.64006664940E+03 -0.55250317883E+02 -0.34720606629E+03  0.73573379943E+03  0.89522387446E+02 0.  0.
         23    2    4    4    0    0 -0.27751531847E+03 -0.19614001260E+02 -0.40241635224E+03  0.49658864968E+03  0.85216814116E+02 0.  0.
          1    1    3    3  502    0 -0.80364384155E+02  0.45246256206E+02  0.31001195339E+03  0.32343943665E+03  0.00000000000E+00 0. -1.
         -2    1    3    3    0  502 -0.28218694678E+03  0.29618062936E+02  0.71084057002E+03  0.76537639013E+03  0.00000000000E+00 0.  1.
         13    1    5    5    0    0  0.40325256133E+03 -0.13294986152E+02 -0.17420713992E+03  0.43947413175E+03  0.00000000000E+00 0. -1.
        -13    1    5    5    0    0  0.23681408807E+03 -0.41955331731E+02 -0.17299892638E+03  0.29625966768E+03  0.00000000000E+00 0.  1.
          4    1    6    6  503    0 -0.12047901212E+02 -0.10968914942E+02 -0.65877851840E+02  0.67862805584E+02  0.00000000000E+00 0. -1.
         -4    1    6    6    0  503 -0.26546741726E+03 -0.86450863174E+01 -0.33653850040E+03  0.42872584409E+03  0.00000000000E+00 0.  1.
<mgrwt>
<rscale>  0 0.23052369E+04</rscale>
<asrwt>0</asrwt>
<pdfrwt beam="1">  1        1 0.15768524E+00 0.23052369E+04</pdfrwt>
<pdfrwt beam="2">  1       -2 0.19941295E+00 0.23052369E+04</pdfrwt>
<totfact> 0.15380366E+00</totfact>
</mgrwt>
</event>
<event>
12    5  0.5264288E-008  0.1497387E+04  0.7818608E-02  0.8886192E-01
         -2   -1    0    0    0  501 -0.00000000000E+00  0.00000000000E+00  0.60269295088E+03  0.60269295088E+03  0.00000000000E+00 0.  1.
          1   -1    0    0  501    0  0.00000000000E+00 -0.00000000000E+00 -0.93006251057E+03  0.93006251057E+03  0.00000000000E+00 0. -1.
        -24    2    1    2    0    0  0.45179826042E+03  0.17959001169E+02  0.60925654718E+02  0.46318140497E+03  0.79880439792E+02 0.  0.
        254    2    1    2    0    0 -0.45179826042E+03 -0.17959001169E+02 -0.38829521441E+03  0.10695740565E+04  0.88812797216E+03 0.  0.
         23    2    4    4    0    0 -0.34110815410E+03 -0.40539968065E+03 -0.56669831594E+02  0.54029792684E+03  0.89480199316E+02 0.  0.
         23    2    4    4    0    0 -0.11069010632E+03  0.38744067948E+03 -0.33162538282E+03  0.52927612965E+03  0.88290696760E+02 0.  0.
          1    1    3    3  502    0  0.26223301494E+03  0.23132587439E+02 -0.23675034618E+01  0.26326199080E+03  0.00000000000E+00 0. -1.
         -2    1    3    3    0  502  0.18956524548E+03 -0.51735862701E+01  0.63293158180E+02  0.19991941417E+03  0.00000000000E+00 0.  1.
         13    1    5    5    0    0 -0.26732580024E+03 -0.33814823339E+03 -0.78405384448E+02  0.43812636936E+03  0.00000000000E+00 0.  1.
        -13    1    5    5    0    0 -0.73782353864E+02 -0.67251447256E+02  0.21735552853E+02  0.10217155748E+03  0.00000000000E+00 0. -1.
          2    1    6    6  503    0 -0.17912755797E+00 -0.48887191481E+01 -0.34837443083E+01  0.60056753156E+01  0.00000000000E+00 0. -1.
         -2    1    6    6    0  503 -0.11051097876E+03  0.39232939863E+03 -0.32814163851E+03  0.52327045433E+03  0.00000000000E+00 0.  1.
<mgrwt>
<rscale>  0 0.14973872E+04</rscale>
<asrwt>0</asrwt>
<pdfrwt beam="1">  1        1 0.14308654E+00 0.14973872E+04</pdfrwt>
<pdfrwt beam="2">  1       -2 0.92721992E-01 0.14973872E+04</pdfrwt>
<totfact> 0.14385660E+01</totfact>
</mgrwt>
</event>
<event>
12    5  0.5264288E-008  0.1411340E+04  0.7818608E-02  0.8945651E-01
         -2   -1    0    0    0  501 -0.00000000000E+00  0.00000000000E+00  0.37757958712E+03  0.37757958712E+03  0.00000000000E+00 0.  1.
          1   -1    0    0  501    0  0.00000000000E+00 -0.00000000000E+00 -0.13188484101E+04  0.13188484101E+04  0.00000000000E+00 0. -1.
        -24    2    1    2    0    0  0.10930521711E+03  0.18865688651E+03 -0.68593388740E+03  0.72417041784E+03  0.79865166867E+02 0.  0.
        254    2    1    2    0    0 -0.10930521711E+03 -0.18865688651E+03 -0.25533493559E+03  0.97225757940E+03  0.91244168035E+03 0.  0.
         23    2    4    4    0    0 -0.89345666740E+02  0.10646046503E+03  0.29638839615E+03  0.33967140290E+03  0.90631682089E+02 0.  0.
         23    2    4    4    0    0 -0.19959550371E+02 -0.29511735154E+03 -0.55172333174E+03  0.63258617649E+03  0.90961536233E+02 0.  0.
          1    1    3    3  502    0  0.10738371618E+03  0.18207752999E+03 -0.56835143857E+03  0.60638836330E+03  0.00000000000E+00 0. -1.
         -2    1    3    3    0  502  0.19215009285E+01  0.65793565218E+01 -0.11758244883E+03  0.11778205453E+03  0.00000000000E+00 0.  1.
         13    1    5    5    0    0 -0.10546430779E+02  0.56705279212E+02  0.50306006792E+02  0.76533719444E+02  0.00000000000E+00 0.  1.
        -13    1    5    5    0    0 -0.78799235961E+02  0.49755185820E+02  0.24608238936E+03  0.26313768346E+03  0.00000000000E+00 0. -1.
          2    1    6    6  503    0  0.74072532971E+01 -0.26292645400E+03 -0.50631432733E+03  0.57056058896E+03  0.00000000000E+00 0. -1.
         -2    1    6    6    0  503 -0.27366803668E+02 -0.32190897539E+02 -0.45409004410E+02  0.62025587533E+02  0.00000000000E+00 0.  1.
<mgrwt>
<rscale>  0 0.14113401E+04</rscale>
<asrwt>0</asrwt>
<pdfrwt beam="1">  1        1 0.20289975E+00 0.14113401E+04</pdfrwt>
<pdfrwt beam="2">  1       -2 0.58089168E-01 0.14113401E+04</pdfrwt>
<totfact> 0.20781039E+01</totfact>
</mgrwt>
</event>
<event>
12    5  0.5264288E-008  0.1240081E+04  0.7818608E-02  0.9078479E-01
          1   -1    0    0  501    0  0.00000000000E+00  0.00000000000E+00  0.53656312807E+03  0.53656312807E+03  0.00000000000E+00 0. -1.
         -2   -1    0    0    0  501 -0.00000000000E+00 -0.00000000000E+00 -0.71650547883E+03  0.71650547883E+03  0.00000000000E+00 0.  1.
        -24    2    1    2    0    0  0.51704177936E+02  0.20849254894E+03 -0.24510637997E+03  0.33567055732E+03  0.80343764972E+02 0.  0.
        254    2    1    2    0    0 -0.51704177936E+02 -0.20849254894E+03  0.65164029207E+02  0.91739804958E+03  0.88951130723E+03 0.  0.
         23    2    4    4    0    0  0.22362505497E+03 -0.38613508985E+03  0.26104599972E+03  0.52488851104E+03  0.90854071021E+02 0.  0.
         23    2    4    4    0    0 -0.27532923291E+03  0.17764254092E+03 -0.19588197051E+03  0.39250953854E+03  0.91273942809E+02 0.  0.
          3    1    3    3  502    0  0.54428502479E+02  0.19166224873E+03 -0.18047176485E+03  0.26882510556E+03  0.00000000000E+00 0. -1.
         -4    1    3    3    0  502 -0.27243245422E+01  0.16830300208E+02 -0.64634615122E+02  0.66845451762E+02  0.00000000000E+00 0.  1.
         13    1    5    5    0    0  0.16337171717E+03 -0.33064795192E+03  0.18285102287E+03  0.41164655063E+03  0.00000000000E+00 0.  1.
        -13    1    5    5    0    0  0.60253337801E+02 -0.55487137931E+02  0.78194976850E+02  0.11324196041E+03  0.00000000000E+00 0. -1.
          4    1    6    6  503    0 -0.12692753641E+03  0.53252701704E+02 -0.12611677090E+03  0.18668660809E+03  0.00000000000E+00 0. -1.
         -4    1    6    6    0  503 -0.14840169649E+03  0.12438983921E+03 -0.69765199619E+02  0.20582293045E+03  0.00000000000E+00 0.  1.
<mgrwt>
<rscale>  0 0.12400813E+04</rscale>
<asrwt>0</asrwt>
<pdfrwt beam="1">  1        1 0.82548174E-01 0.12400813E+04</pdfrwt>
<pdfrwt beam="2">  1       -2 0.11023161E+00 0.12400813E+04</pdfrwt>
<totfact> 0.22664617E+01</totfact>
</mgrwt>
</event>
<event>
12    5  0.5264288E-008  0.2557827E+04  0.7818608E-02  0.8382669E-01
          1   -1    0    0  501    0  0.00000000000E+00  0.00000000000E+00  0.29597291069E+04  0.29597291069E+04  0.00000000000E+00 0. -1.
         -2   -1    0    0    0  501 -0.00000000000E+00 -0.00000000000E+00 -0.55262499372E+03  0.55262499372E+03  0.00000000000E+00 0.  1.
        -24    2    1    2    0    0  0.64363125263E+03  0.24003991311E+03  0.22755327015E+04  0.23783195655E+04  0.80464467421E+02 0.  0.
        254    2    1    2    0    0 -0.64363125263E+03 -0.24003991311E+03  0.13157141167E+03  0.11340345352E+04  0.89266059695E+03 0.  0.
         23    2    4    4    0    0 -0.51219698280E+03  0.26938850002E+03  0.70773995450E+01  0.58599086232E+03  0.91756678245E+02 0.  0.
         23    2    4    4    0    0 -0.13143426983E+03 -0.50942841313E+03  0.12449401212E+03  0.54804367285E+03  0.89782141350E+02 0.  0.
          1    1    3    3  502    0  0.19089691632E+03  0.74917238686E+02  0.81163517348E+03  0.83714149350E+03  0.00000000000E+00 0. -1.
         -2    1    3    3    0  502  0.45273433632E+03  0.16512267442E+03  0.14638975280E+04  0.15411780720E+04  0.00000000000E+00 0.  1.
         13    1    5    5    0    0 -0.33170136423E+03  0.16775785125E+03  0.48153477069E+02  0.37481628705E+03  0.00000000000E+00 0.  1.
        -13    1    5    5    0    0 -0.18049561858E+03  0.10163064877E+03 -0.41076077524E+02  0.21117457527E+03  0.00000000000E+00 0. -1.
          3    1    6    6  503    0 -0.12286766757E+03 -0.34536296347E+03  0.11192617128E+03  0.38327471621E+03  0.00000000000E+00 0. -1.
         -3    1    6    6    0  503 -0.85666022512E+01 -0.16406544966E+03  0.12567840840E+02  0.16476895664E+03  0.00000000000E+00 0.  1.
<mgrwt>
<rscale>  0 0.25578274E+04</rscale>
<asrwt>0</asrwt>
<pdfrwt beam="1">  1        1 0.45534293E+00 0.25578274E+04</pdfrwt>
<pdfrwt beam="2">  1       -2 0.85019232E-01 0.25578274E+04</pdfrwt>
<totfact> 0.59859320E-01</totfact>
</mgrwt>
</event>
<event>
12    5  0.5264288E-008  0.2304934E+04  0.7818608E-02  0.8475978E-01
         -2   -1    0    0    0  501 -0.00000000000E+00  0.00000000000E+00  0.13578402029E+04  0.13578402029E+04  0.00000000000E+00 0.  1.
          1   -1    0    0  501    0  0.00000000000E+00 -0.00000000000E+00 -0.97815658156E+03  0.97815658156E+03  0.00000000000E+00 0. -1.
        -24    2    1    2    0    0 -0.79458602312E+03 -0.36507468099E+02 -0.33523291846E+03  0.86663481245E+03  0.77298416293E+02 0.  0.
        254    2    1    2    0    0  0.79458602312E+03  0.36507468099E+02  0.71491653975E+03  0.14693619720E+04  0.10075808665E+04 0.  0.
         23    2    4    4    0    0  0.48179125581E+03 -0.53025005248E+02  0.94125902252E+03  0.10625948702E+04  0.90580600896E+02 0.  0.
         23    2    4    4    0    0  0.31279476730E+03  0.89532473347E+02 -0.22634248276E+03  0.40676710181E+03  0.91498226073E+02 0.  0.
          3    1    3    3  502    0 -0.38897228222E+03 -0.21826976606E+02 -0.12253113680E+03  0.40839898718E+03  0.00000000000E+00 0. -1.
         -4    1    3    3    0  502 -0.40561374090E+03 -0.14680491493E+02 -0.21270178167E+03  0.45823582527E+03  0.00000000000E+00 0.  1.
         13    1    5    5    0    0  0.20879834281E+03 -0.22575424653E+02  0.31320314248E+03  0.37709760834E+03  0.00000000000E+00 0. -1.
        -13    1    5    5    0    0  0.27299291300E+03 -0.30449580595E+02  0.62805588004E+03  0.68549726182E+03  0.00000000000E+00 0.  1.
          4    1    6    6  503    0  0.29400597988E+03  0.61947340951E+02 -0.18206180193E+03  0.35131679291E+03  0.00000000000E+00 0. -1.
         -4    1    6    6    0  503  0.18788787422E+02  0.27585132396E+02 -0.44280680835E+02  0.55450308902E+02  0.00000000000E+00 0.  1.
<mgrwt>
<rscale>  0 0.23049341E+04</rscale>
<asrwt>0</asrwt>
<pdfrwt beam="1">  1        1 0.15048563E+00 0.23049341E+04</pdfrwt>
<pdfrwt beam="2">  1       -2 0.20889849E+00 0.23049341E+04</pdfrwt>
<totfact> 0.14513058E+00</totfact>
</mgrwt>
</event>
<event>
12    5  0.5264288E-008  0.1870668E+04  0.7818608E-02  0.8669596E-01
          1   -1    0    0  501    0  0.00000000000E+00  0.00000000000E+00  0.34216836302E+04  0.34216836302E+04  0.00000000000E+00 0. -1.
         -2   -1    0    0    0  501 -0.00000000000E+00 -0.00000000000E+00 -0.25567805804E+03  0.25567805804E+03  0.00000000000E+00 0.  1.
        -24    2    1    2    0    0  0.14849041709E+03 -0.33332080315E+03  0.25264587165E+04  0.25539187562E+04  0.79719541079E+02 0.  0.
        254    2    1    2    0    0 -0.14849041709E+03  0.33332080315E+03  0.63954685568E+03  0.11234429321E+04  0.84849966367E+03 0.  0.
         23    2    4    4    0    0 -0.38638553767E+01 -0.25033501845E+03  0.40652704261E+02  0.26956739914E+03  0.91276445354E+02 0.  0.
         23    2    4    4    0    0 -0.14462656171E+03  0.58365582160E+03  0.59889415142E+03  0.85387553294E+03  0.94118333542E+02 0.  0.
          1    1    3    3  502    0  0.10145815598E+03 -0.13910507386E+03  0.10559388567E+04  0.10698835676E+04  0.00000000000E+00 0. -1.
         -2    1    3    3    0  502  0.47032261108E+02 -0.19421572928E+03  0.14705198597E+04  0.14840351886E+04  0.00000000000E+00 0.  1.
         13    1    5    5    0    0  0.72048639691E+00  0.77727299612E+01 -0.16426881507E+01  0.79770205001E+01  0.00000000000E+00 0. -1.
        -13    1    5    5    0    0 -0.45843417737E+01 -0.25810774841E+03  0.42295392411E+02  0.26159037864E+03  0.00000000000E+00 0.  1.
          1    1    6    6  503    0 -0.18212529597E+02  0.10280798577E+03  0.58995846935E+02  0.11992367626E+03  0.00000000000E+00 0. -1.
         -1    1    6    6    0  503 -0.12641403211E+03  0.48084783583E+03  0.53989830449E+03  0.73395185668E+03  0.00000000000E+00 0.  1.
<mgrwt>
<rscale>  0 0.18706677E+04</rscale>
<asrwt>0</asrwt>
<pdfrwt beam="1">  1        1 0.52641283E+00 0.18706677E+04</pdfrwt>
<pdfrwt beam="2">  1       -2 0.39335088E-01 0.18706677E+04</pdfrwt>
<totfact> 0.14567984E+00</totfact>
</mgrwt>
</event>
<event>
12    5  0.5264288E-008  0.1153901E+04  0.7818608E-02  0.9154193E-01
          1   -1    0    0  501    0  0.00000000000E+00  0.00000000000E+00  0.12916430894E+04  0.12916430894E+04  0.00000000000E+00 0. -1.
         -2   -1    0    0    0  501 -0.00000000000E+00 -0.00000000000E+00 -0.25771178921E+03  0.25771178921E+03  0.00000000000E+00 0.  1.
        -24    2    1    2    0    0  0.25707574838E+02  0.76111294713E+02 -0.92801439257E+02  0.14523854623E+03  0.77642253941E+02 0.  0.
        254    2    1    2    0    0 -0.25707574838E+02 -0.76111294713E+02  0.11267327394E+04  0.14041163323E+04  0.83400371707E+03 0.  0.
         23    2    4    4    0    0 -0.28686728156E+03  0.14289060818E+03  0.95098178133E+03  0.10076608365E+04  0.91123267442E+02 0.  0.
         23    2    4    4    0    0  0.26115970672E+03 -0.21900190289E+03  0.17575095809E+03  0.39645549584E+03  0.10060981577E+03 0.  0.
          1    1    3    3  502    0 -0.19197392523E+01 -0.15712394570E+02 -0.12702747060E+02  0.20295923847E+02  0.00000000000E+00 0. -1.
         -2    1    3    3    0  502  0.27627314090E+02  0.91823689283E+02 -0.80098692197E+02  0.12494262239E+03  0.00000000000E+00 0.  1.
         13    1    5    5    0    0 -0.27934896786E+03  0.11137688509E+03  0.85289244542E+03  0.90435954124E+03  0.00000000000E+00 0.  1.
        -13    1    5    5    0    0 -0.75183136942E+01  0.31513723093E+02  0.98089335909E+02  0.10330129526E+03  0.00000000000E+00 0. -1.
          1    1    6    6  503    0  0.33871563198E+01 -0.43043703781E+02  0.24337485763E+02  0.49563559964E+02  0.00000000000E+00 0. -1.
         -1    1    6    6    0  503  0.25777255040E+03 -0.17595819911E+03  0.15141347233E+03  0.34689193588E+03  0.00000000000E+00 0.  1.
<mgrwt>
<rscale>  0 0.11539006E+04</rscale>
<asrwt>0</asrwt>
<pdfrwt beam="1">  1        1 0.19871432E+00 0.11539006E+04</pdfrwt>
<pdfrwt beam="2">  1       -2 0.39647968E-01 0.11539006E+04</pdfrwt>
<totfact> 0.48051355E+01</totfact>
</mgrwt>
</event>
<event>
12    5  0.5264288E-008  0.1396532E+04  0.7818608E-02  0.8956332E-01
         -2   -1    0    0    0  501 -0.00000000000E+00  0.00000000000E+00  0.26942113715E+03  0.26942113715E+03  0.00000000000E+00 0.  1.
          1   -1    0    0  501    0  0.00000000000E+00 -0.00000000000E+00 -0.18097156038E+04  0.18097156038E+04  0.00000000000E+00 0. -1.
        -24    2    1    2    0    0 -0.31539060011E+03 -0.20971044460E+03 -0.64264118689E+03  0.75014363821E+03  0.79234346433E+02 0.  0.
        254    2    1    2    0    0  0.31539060011E+03  0.20971044460E+03 -0.89765327979E+03  0.13289931028E+04  0.90387585170E+03 0.  0.
         23    2    4    4    0    0 -0.15317915954E+03  0.31206265528E+03 -0.67052343032E+02  0.36567703418E+03  0.91524427767E+02 0.  0.
         23    2    4    4    0    0  0.46856975965E+03 -0.10235221068E+03 -0.83060093676E+03  0.96331606860E+03  0.89701377767E+02 0.  0.
          3    1    3    3  502    0 -0.86968076783E+02 -0.43776073255E+02 -0.10712337617E+03  0.14475914027E+03  0.00000000000E+00 0. -1.
         -2    1    3    3    0  502 -0.22842252333E+03 -0.16593437134E+03 -0.53551781071E+03  0.60538449794E+03  0.00000000000E+00 0.  1.
         13    1    5    5    0    0 -0.16297379258E+02 -0.24253367889E+01 -0.37558687445E+01  0.16899508255E+02  0.00000000000E+00 0.  1.
        -13    1    5    5    0    0 -0.13688178028E+03  0.31448799207E+03 -0.63296474287E+02  0.34877752592E+03  0.00000000000E+00 0. -1.
          1    1    6    6  503    0  0.19372831149E+02  0.12371481013E+02 -0.56567897036E+02  0.61059701148E+02  0.00000000000E+00 0.  1.
         -1    1    6    6    0  503  0.44919692850E+03 -0.11472369170E+03 -0.77403303973E+03  0.90225636745E+03  0.00000000000E+00 0. -1.
<mgrwt>
<rscale>  0 0.13965323E+04</rscale>
<asrwt>0</asrwt>
<pdfrwt beam="1">  1        1 0.27841778E+00 0.13965323E+04</pdfrwt>
<pdfrwt beam="2">  1       -2 0.41449406E-01 0.13965323E+04</pdfrwt>
<totfact> 0.18949555E+01</totfact>
</mgrwt>
</event>
<event>
12    5  0.5264288E-008  0.1309192E+04  0.7818608E-02  0.9022307E-01
          1   -1    0    0  501    0  0.00000000000E+00  0.00000000000E+00  0.74861815072E+03  0.74861815072E+03  0.00000000000E+00 0. -1.
         -2   -1    0    0    0  501 -0.00000000000E+00 -0.00000000000E+00 -0.57238242751E+03  0.57238242751E+03  0.00000000000E+00 0.  1.
        -24    2    1    2    0    0 -0.31563128712E+03 -0.68260461223E+02  0.14061176447E+03  0.36111234511E+03  0.79673442892E+02 0.  0.
        254    2    1    2    0    0  0.31563128712E+03  0.68260461223E+02  0.35623958732E+02  0.95988823313E+03  0.90323515968E+03 0.  0.
         23    2    4    4    0    0  0.26412925279E+03  0.46340496345E+03 -0.44872247743E+02  0.54359120253E+03  0.94707204140E+02 0.  0.
         23    2    4    4    0    0  0.51502034337E+02 -0.39514450223E+03  0.80496206475E+02  0.41629703060E+03  0.89621098215E+02 0.  0.
          3    1    3    3  502    0 -0.18122962119E+03 -0.65808649330E+02  0.50607509063E+02  0.19933909275E+03  0.00000000000E+00 0. -1.
         -2    1    3    3    0  502 -0.13440166594E+03 -0.24518118926E+01  0.90004255410E+02  0.16177325236E+03  0.00000000000E+00 0.  1.
         13    1    5    5    0    0  0.12520425391E+03  0.13168194873E+03 -0.52940010625E+01  0.18178082205E+03  0.00000000000E+00 0.  1.
        -13    1    5    5    0    0  0.13892499888E+03  0.33172301472E+03 -0.39578246681E+02  0.36181038048E+03  0.00000000000E+00 0. -1.
          3    1    6    6  503    0  0.67449223386E+02 -0.17243042324E+03  0.35684273222E+02  0.18856037746E+03  0.00000000000E+00 0. -1.
         -3    1    6    6    0  503 -0.15947189049E+02 -0.22271407899E+03  0.44811933253E+02  0.22773665314E+03  0.00000000000E+00 0.  1.
<mgrwt>
<rscale>  0 0.13091919E+04</rscale>
<asrwt>0</asrwt>
<pdfrwt beam="1">  1        1 0.11517202E+00 0.13091919E+04</pdfrwt>
<pdfrwt beam="2">  1       -2 0.88058835E-01 0.13091919E+04</pdfrwt>
<totfact> 0.23478092E+01</totfact>
</mgrwt>
</event>
<event>
12    5  0.5264288E-008  0.1217243E+04  0.7818608E-02  0.9097896E-01
         -2   -1    0    0    0  501 -0.00000000000E+00  0.00000000000E+00  0.17740774892E+03  0.17740774892E+03  0.00000000000E+00 0.  1.
          1   -1    0    0  501    0  0.00000000000E+00 -0.00000000000E+00 -0.20879604442E+04  0.20879604442E+04  0.00000000000E+00 0. -1.
        -24    2    1    2    0    0 -0.25324426979E+02 -0.26029448827E+03 -0.53105692820E+03  0.59824246087E+03  0.86475625265E+02 0.  0.
        254    2    1    2    0    0  0.25324426979E+02  0.26029448827E+03 -0.13794957671E+04  0.16671257323E+04  0.89883540680E+03 0.  0.
         23    2    4    4    0    0 -0.25338917001E+02 -0.11502719482E+03 -0.12455073421E+04  0.12543998496E+04  0.91417325123E+02 0.  0.
         23    2    4    4    0    0  0.50663343981E+02  0.37532168310E+03 -0.13398842505E+03  0.41272588266E+03  0.94639399520E+02 0.  0.
          3    1    3    3  502    0 -0.16613718425E+02 -0.18287906081E+03 -0.27562455329E+03  0.33119429478E+03  0.00000000000E+00 0. -1.
         -4    1    3    3    0  502 -0.87107085548E+01 -0.77415427461E+02 -0.25543237492E+03  0.26704816608E+03  0.00000000000E+00 0.  1.
         13    1    5    5    0    0 -0.22573327225E+02 -0.11186440462E+03 -0.72922959621E+03  0.73810500886E+03  0.00000000000E+00 0. -1.
        -13    1    5    5    0    0 -0.27655897765E+01 -0.31627902070E+01 -0.51627774585E+03  0.51629484076E+03  0.00000000000E+00 0.  1.
          1    1    6    6  503    0  0.63347923044E+02  0.18680876132E+03 -0.98499048541E+02  0.22048250548E+03  0.00000000000E+00 0. -1.
         -1    1    6    6    0  503 -0.12684579063E+02  0.18851292178E+03 -0.35489376509E+02  0.19224337717E+03  0.00000000000E+00 0.  1.
<mgrwt>
<rscale>  0 0.12172434E+04</rscale>
<asrwt>0</asrwt>
<pdfrwt beam="1">  1        1 0.32122469E+00 0.12172434E+04</pdfrwt>
<pdfrwt beam="2">  1       -2 0.27293499E-01 0.12172434E+04</pdfrwt>
<totfact> 0.27603111E+01</totfact>
</mgrwt>
</event>
<event>
12    5  0.5264288E-008  0.1273502E+04  0.7818608E-02  0.9050846E-01
          1   -1    0    0  501    0  0.00000000000E+00  0.00000000000E+00  0.42051798584E+03  0.42051798584E+03  0.00000000000E+00 0. -1.
         -2   -1    0    0    0  501 -0.00000000000E+00 -0.00000000000E+00 -0.96417286522E+03  0.96417286522E+03  0.00000000000E+00 0.  1.
        -24    2    1    2    0    0  0.22711108166E+03 -0.21788810231E+03 -0.21252024624E+03  0.38840842631E+03  0.81495901919E+02 0.  0.
        254    2    1    2    0    0 -0.22711108166E+03  0.21788810231E+03 -0.33113463315E+03  0.99628242475E+03  0.88536650945E+03 0.  0.
         23    2    4    4    0    0 -0.40538239909E+03 -0.10659796331E+03 -0.42485011836E+03  0.60372558627E+03  0.91043644286E+02 0.  0.
         23    2    4    4    0    0  0.17827131744E+03  0.32448606562E+03  0.93715485217E+02  0.39255683848E+03  0.90809745413E+02 0.  0.
          3    1    3    3  502    0  0.22055739782E+03 -0.21535245016E+03 -0.18391480952E+03  0.35895250477E+03  0.00000000000E+00 0. -1.
         -4    1    3    3    0  502  0.65536838389E+01 -0.25356521452E+01 -0.28605436720E+02  0.29455921537E+02  0.00000000000E+00 0.  1.
         13    1    5    5    0    0 -0.39007436409E+03 -0.97357097787E+02 -0.42606264037E+03  0.58580354004E+03  0.00000000000E+00 0.  1.
        -13    1    5    5    0    0 -0.15308035006E+02 -0.92408655259E+01  0.12125220028E+01  0.17922046229E+02  0.00000000000E+00 0. -1.
          3    1    6    6  503    0  0.16833669251E+03  0.31337693809E+03  0.67024660933E+02  0.36198708892E+03  0.00000000000E+00 0. -1.
         -3    1    6    6    0  503  0.99346249317E+01  0.11109127530E+02  0.26690824284E+02  0.30569749557E+02  0.00000000000E+00 0.  1.
<mgrwt>
<rscale>  0 0.12735023E+04</rscale>
<asrwt>0</asrwt>
<pdfrwt beam="1">  1        1 0.64695075E-01 0.12735023E+04</pdfrwt>
<pdfrwt beam="2">  1       -2 0.14833429E+00 0.12735023E+04</pdfrwt>
<totfact> 0.14883283E+01</totfact>
</mgrwt>
</event>
<event>
12    5  0.5264288E-008  0.1720890E+04  0.7818608E-02  0.8749539E-01
         -2   -1    0    0    0  501 -0.00000000000E+00  0.00000000000E+00  0.80189198070E+03  0.80189198070E+03  0.00000000000E+00 0.  1.
          1   -1    0    0  501    0  0.00000000000E+00 -0.00000000000E+00 -0.92327400187E+03  0.92327400187E+03  0.00000000000E+00 0. -1.
        -24    2    1    2    0    0  0.47904667749E+03  0.23056945356E+02 -0.44010183947E+03  0.65548932933E+03  0.77196436513E+02 0.  0.
        254    2    1    2    0    0 -0.47904667749E+03 -0.23056945356E+02  0.31871981830E+03  0.10696766532E+04  0.90144798961E+03 0.  0.
         23    2    4    4    0    0 -0.40367419100E+02  0.68131184407E+01  0.55421723463E+03  0.56273704541E+03  0.88545423411E+02 0.  0.
         23    2    4    4    0    0 -0.43867925839E+03 -0.29870063796E+02 -0.23549741633E+03  0.50693960783E+03  0.90537398000E+02 0.  0.
          3    1    3    3  502    0  0.32624287569E+03 -0.20102265399E+02 -0.30330040194E+03  0.44590318325E+03  0.00000000000E+00 0. -1.
         -4    1    3    3    0  502  0.15280380180E+03  0.43159210754E+02 -0.13680143753E+03  0.20958614608E+03  0.00000000000E+00 0.  1.
         13    1    5    5    0    0  0.12960883334E+02 -0.78603800486E+01  0.17394538003E+02  0.23072494960E+02  0.00000000000E+00 0. -1.
        -13    1    5    5    0    0 -0.53328302434E+02  0.14673498489E+02  0.53682269663E+03  0.53966455045E+03  0.00000000000E+00 0.  1.
          2    1    6    6  503    0 -0.18510962605E+03 -0.56936936494E+02 -0.10989645239E+03  0.22267603967E+03  0.00000000000E+00 0.  1.
         -2    1    6    6    0  503 -0.25356963234E+03  0.27066872698E+02 -0.12560096394E+03  0.28426356817E+03  0.00000000000E+00 0. -1.
<mgrwt>
<rscale>  0 0.17208905E+04</rscale>
<asrwt>0</asrwt>
<pdfrwt beam="1">  1        1 0.14204215E+00 0.17208905E+04</pdfrwt>
<pdfrwt beam="2">  1       -2 0.12336800E+00 0.17208905E+04</pdfrwt>
<totfact> 0.71852268E+00</totfact>
</mgrwt>
</event>
<event>
12    5  0.5264288E-008  0.2370460E+04  0.7818608E-02  0.8450646E-01
         -2   -1    0    0    0  501 -0.00000000000E+00  0.00000000000E+00  0.53257945299E+03  0.53257945299E+03  0.00000000000E+00 0.  1.
          1   -1    0    0  501    0  0.00000000000E+00 -0.00000000000E+00 -0.26376731319E+04  0.26376731319E+04  0.00000000000E+00 0. -1.
        -24    2    1    2    0    0  0.24902487833E+03  0.62154788548E+03  0.11654019068E+03  0.68496027715E+03  0.85169250656E+02 0.  0.
        254    2    1    2    0    0 -0.24902487833E+03 -0.62154788548E+03 -0.22216338696E+04  0.24852923077E+04  0.89032895067E+03 0.  0.
         23    2    4    4    0    0 -0.17964103564E+03  0.41880193098E+02 -0.51715132826E+02  0.21329202845E+03  0.93777300970E+02 0.  0.
         23    2    4    4    0    0 -0.69383842690E+02 -0.66342807858E+03 -0.21699187367E+04  0.22720002793E+04  0.92124979478E+02 0.  0.
          3    1    3    3  502    0  0.11000826856E+03  0.18283089405E+03  0.16611148107E+02  0.21402075883E+03  0.00000000000E+00 0. -1.
         -4    1    3    3    0  502  0.13901660977E+03  0.43871699143E+03  0.99929042572E+02  0.47093951832E+03  0.00000000000E+00 0.  1.
         13    1    5    5    0    0 -0.96767360162E+01  0.33655042825E+02 -0.19580915970E+02  0.40121233751E+02  0.00000000000E+00 0.  1.
        -13    1    5    5    0    0 -0.16996429962E+03  0.82251502736E+01 -0.32134216856E+02  0.17317079470E+03  0.00000000000E+00 0. -1.
          2    1    6    6  503    0 -0.87941316185E+02 -0.55598791007E+03 -0.17596828171E+04  0.18475226245E+04  0.00000000000E+00 0. -1.
         -2    1    6    6    0  503  0.18557473495E+02 -0.10744016850E+03 -0.41023591963E+03  0.42447765476E+03  0.00000000000E+00 0.  1.
<mgrwt>
<rscale>  0 0.23704603E+04</rscale>
<asrwt>0</asrwt>
<pdfrwt beam="1">  1        1 0.40579587E+00 0.23704603E+04</pdfrwt>
<pdfrwt beam="2">  1       -2 0.81935300E-01 0.23704603E+04</pdfrwt>
<totfact> 0.11229198E+00</totfact>
</mgrwt>
</event>
<event>
12    5  0.5264288E-008  0.1368809E+04  0.7818608E-02  0.8976710E-01
         -2   -1    0    0    0  501 -0.00000000000E+00  0.00000000000E+00  0.62568634024E+03  0.62568634024E+03  0.00000000000E+00 0.  1.
          1   -1    0    0  501    0  0.00000000000E+00 -0.00000000000E+00 -0.74863363785E+03  0.74863363785E+03  0.00000000000E+00 0. -1.
        -24    2    1    2    0    0 -0.26059827896E+03  0.11945799599E+03 -0.29723714389E+03  0.42093538044E+03  0.81578177204E+02 0.  0.
        254    2    1    2    0    0  0.26059827896E+03 -0.11945799599E+03  0.17428984627E+03  0.95338459765E+03  0.89240325231E+03 0.  0.
         23    2    4    4    0    0 -0.26641751611E+03 -0.25595416593E+03  0.26761975397E+02  0.38255108260E+03  0.95594453424E+02 0.  0.
         23    2    4    4    0    0  0.52701579507E+03  0.13649616994E+03  0.14752787088E+03  0.57083351505E+03  0.87804194437E+02 0.  0.
          3    1    3    3  502    0 -0.16180189400E+03  0.69838438327E+02 -0.23604013605E+03  0.29457122432E+03  0.00000000000E+00 0. -1.
         -4    1    3    3    0  502 -0.98796384953E+02  0.49619557664E+02 -0.61197007836E+02  0.12636415612E+03  0.00000000000E+00 0.  1.
         13    1    5    5    0    0 -0.22084855374E+03 -0.15545154826E+03  0.52541964849E+01  0.27012381259E+03  0.00000000000E+00 0. -1.
        -13    1    5    5    0    0 -0.45568962375E+02 -0.10050261766E+03  0.21507778912E+02  0.11242727002E+03  0.00000000000E+00 0.  1.
          4    1    6    6  503    0  0.48285914114E+03  0.14508328523E+03  0.14926628969E+03  0.52581606582E+03  0.00000000000E+00 0. -1.
         -4    1    6    6    0  503  0.44156653930E+02 -0.85871152969E+01 -0.17384188126E+01  0.45017449233E+02  0.00000000000E+00 0.  1.
<mgrwt>
<rscale>  0 0.13688095E+04</rscale>
<asrwt>0</asrwt>
<pdfrwt beam="1">  1        1 0.11517441E+00 0.13688095E+04</pdfrwt>
<pdfrwt beam="2">  1       -2 0.96259437E-01 0.13688095E+04</pdfrwt>
<totfact> 0.19003778E+01</totfact>
</mgrwt>
</event>
<event>
12    5  0.5264288E-008  0.1448131E+04  0.7818608E-02  0.8919698E-01
          1   -1    0    0  501    0  0.00000000000E+00  0.00000000000E+00  0.11097379359E+04  0.11097379359E+04  0.00000000000E+00 0. -1.
         -2   -1    0    0    0  501 -0.00000000000E+00 -0.00000000000E+00 -0.47242736651E+03  0.47242736651E+03  0.00000000000E+00 0.  1.
        -24    2    1    2    0    0 -0.58628126196E+02  0.35667383510E+03 -0.74851268357E+02  0.37760819636E+03  0.79572330354E+02 0.  0.
        254    2    1    2    0    0  0.58628126196E+02 -0.35667383510E+03  0.71216183775E+03  0.12045571061E+04  0.90173713285E+03 0.  0.
         23    2    4    4    0    0  0.12993655410E+03 -0.49027381420E+03  0.84068915361E+03  0.98599739366E+03  0.90447146593E+02 0.  0.
         23    2    4    4    0    0 -0.71308427907E+02  0.13359997910E+03 -0.12852731586E+03  0.21855971239E+03  0.91187886538E+02 0.  0.
          3    1    3    3  502    0 -0.18139252564E+01  0.15424812030E+03  0.51813612746E+00  0.15425965579E+03  0.00000000000E+00 0. -1.
         -4    1    3    3    0  502 -0.56814200939E+02  0.20242571480E+03 -0.75369404485E+02  0.22334854057E+03  0.00000000000E+00 0.  1.
         13    1    5    5    0    0  0.34389559291E+02 -0.25176145813E+03  0.48059689922E+03  0.54363577249E+03  0.00000000000E+00 0.  1.
        -13    1    5    5    0    0  0.95546994812E+02 -0.23851235607E+03  0.36009225439E+03  0.44236162117E+03  0.00000000000E+00 0. -1.
          2    1    6    6  503    0 -0.70359956790E+02  0.12304652928E+03 -0.68177613877E+02  0.15728686824E+03  0.00000000000E+00 0. -1.
         -2    1    6    6    0  503 -0.94847111650E+00  0.10553449822E+02 -0.60349701983E+02  0.61272844149E+02  0.00000000000E+00 0.  1.
<mgrwt>
<rscale>  0 0.14481306E+04</rscale>
<asrwt>0</asrwt>
<pdfrwt beam="1">  1        1 0.17072891E+00 0.14481306E+04</pdfrwt>
<pdfrwt beam="2">  1       -2 0.72681133E-01 0.14481306E+04</pdfrwt>
<totfact> 0.18176702E+01</totfact>
</mgrwt>
</event>
<event>
12    5  0.5264288E-008  0.2293548E+04  0.7818608E-02  0.8480469E-01
         -2   -1    0    0    0  501 -0.00000000000E+00  0.00000000000E+00  0.13704251122E+04  0.13704251122E+04  0.00000000000E+00 0.  1.
          1   -1    0    0  501    0  0.00000000000E+00 -0.00000000000E+00 -0.95962268609E+03  0.95962268609E+03  0.00000000000E+00 0. -1.
        -24    2    1    2    0    0  0.89131420904E+03  0.39002867267E+03  0.27544197753E+03  0.10141954886E+04  0.78490899875E+02 0.  0.
        254    2    1    2    0    0 -0.89131420904E+03 -0.39002867267E+03  0.13536044860E+03  0.13158523097E+04  0.87554638096E+03 0.  0.
         23    2    4    4    0    0  0.13774873960E+03 -0.11822239848E+02 -0.10302079149E+03  0.19011727946E+03  0.80105030130E+02 0.  0.
         23    2    4    4    0    0 -0.10290629486E+04 -0.37820643282E+03  0.23838124008E+03  0.11257350303E+04  0.91886259308E+02 0.  0.
          1    1    3    3  502    0  0.81339564435E+03  0.37422884830E+03  0.26658851186E+03  0.93419973228E+03  0.00000000000E+00 0. -1.
         -2    1    3    3    0  502  0.77918564687E+02  0.15799824371E+02  0.88534656710E+01  0.79995756309E+02  0.00000000000E+00 0.  1.
         13    1    5    5    0    0  0.80666561462E+02 -0.35273137127E+02 -0.92164298613E+02  0.12745801771E+03  0.00000000000E+00 0.  1.
        -13    1    5    5    0    0  0.57082178142E+02  0.23450897279E+02 -0.10856492873E+02  0.62659261742E+02  0.00000000000E+00 0. -1.
          2    1    6    6  503    0 -0.76291945569E+02 -0.39454269222E+02  0.42132850620E+02  0.95667535872E+02  0.00000000000E+00 0. -1.
         -2    1    6    6    0  503 -0.95277100307E+03 -0.33875216360E+03  0.19624838946E+03  0.10300674944E+04  0.00000000000E+00 0.  1.
<mgrwt>
<rscale>  0 0.22935484E+04</rscale>
<asrwt>0</asrwt>
<pdfrwt beam="1">  1        1 0.14763426E+00 0.22935484E+04</pdfrwt>
<pdfrwt beam="2">  1       -2 0.21083463E+00 0.22935484E+04</pdfrwt>
<totfact> 0.14601394E+00</totfact>
</mgrwt>
</event>
<event>
12    5  0.5264288E-008  0.1441659E+04  0.7818608E-02  0.8924204E-01
         -2   -1    0    0    0  501 -0.00000000000E+00  0.00000000000E+00  0.85168753691E+03  0.85168753691E+03  0.00000000000E+00 0.  1.
          1   -1    0    0  501    0  0.00000000000E+00 -0.00000000000E+00 -0.61007725038E+03  0.61007725038E+03  0.00000000000E+00 0. -1.
        -24    2    1    2    0    0  0.39796951637E+03 -0.28626061362E+02  0.24528098577E+03  0.47532491324E+03  0.81066786180E+02 0.  0.
        254    2    1    2    0    0 -0.39796951637E+03  0.28626061362E+02 -0.36706992363E+01  0.98643987406E+03  0.90213688748E+03 0.  0.
         23    2    4    4    0    0 -0.19276565926E+03 -0.24267135916E+03  0.35785533549E+03  0.48216883255E+03  0.91533349115E+02 0.  0.
         23    2    4    4    0    0 -0.20520385710E+03  0.27129742052E+03 -0.36152603473E+03  0.50427104151E+03  0.88754133232E+02 0.  0.
          1    1    3    3  502    0  0.17352299263E+03  0.25009160585E+02  0.88940624010E+02  0.19658616860E+03  0.00000000000E+00 0. -1.
         -2    1    3    3    0  502  0.22444652374E+03 -0.53635221947E+02  0.15634036176E+03  0.27873874464E+03  0.00000000000E+00 0.  1.
         13    1    5    5    0    0 -0.96627639271E+02 -0.52343833594E+02  0.12462049263E+03  0.16615367817E+03  0.00000000000E+00 0. -1.
        -13    1    5    5    0    0 -0.96138019993E+02 -0.19032752556E+03  0.23323484286E+03  0.31601515438E+03  0.00000000000E+00 0.  1.
          3    1    6    6  503    0 -0.40633807505E+02  0.12445420785E+03 -0.13963532406E+03  0.19141050099E+03  0.00000000000E+00 0. -1.
         -3    1    6    6    0  503 -0.16457004960E+03  0.14684321267E+03 -0.22189071067E+03  0.31286054052E+03  0.00000000000E+00 0.  1.
<mgrwt>
<rscale>  0 0.14416590E+04</rscale>
<asrwt>0</asrwt>
<pdfrwt beam="1">  1        1 0.93858038E-01 0.14416590E+04</pdfrwt>
<pdfrwt beam="2">  1       -2 0.13102885E+00 0.14416590E+04</pdfrwt>
<totfact> 0.12099030E+01</totfact>
</mgrwt>
</event>
<event>
12    5  0.5264288E-008  0.1721664E+04  0.7818608E-02  0.8749104E-01
         -2   -1    0    0    0  501 -0.00000000000E+00  0.00000000000E+00  0.77354754155E+03  0.77354754155E+03  0.00000000000E+00 0.  1.
          1   -1    0    0  501    0  0.00000000000E+00 -0.00000000000E+00 -0.95796490369E+03  0.95796490369E+03  0.00000000000E+00 0. -1.
        -24    2    1    2    0    0 -0.49666739624E+03  0.41297583845E+02 -0.40947848839E+03  0.64996367568E+03  0.79975960945E+02 0.  0.
        254    2    1    2    0    0  0.49666739624E+03 -0.41297583845E+02  0.22506112625E+03  0.10815487696E+04  0.93311909072E+03 0.  0.
         23    2    4    4    0    0 -0.52560923709E+02  0.31093244157E+03  0.26551187355E+03  0.42230316328E+03  0.91661184791E+02 0.  0.
         23    2    4    4    0    0  0.54922831995E+03 -0.35223002542E+03 -0.40450747295E+02  0.65924560628E+03  0.85151442738E+02 0.  0.
          3    1    3    3  502    0 -0.46623271929E+03  0.31331574866E+02 -0.35526946916E+03  0.58700171366E+03  0.00000000000E+00 0. -1.
         -4    1    3    3    0  502 -0.30434676954E+02  0.99660089786E+01 -0.54209019224E+02  0.62961962021E+02  0.00000000000E+00 0.  1.
         13    1    5    5    0    0 -0.26452581133E+02  0.19589863186E+02  0.11412726116E+02  0.34838945243E+02  0.00000000000E+00 0. -1.
        -13    1    5    5    0    0 -0.26108342577E+02  0.29134257839E+03  0.25409914743E+03  0.38746421804E+03  0.00000000000E+00 0.  1.
          3    1    6    6  503    0  0.74912528368E+02 -0.18402731012E+02 -0.15588383381E+02  0.78699079484E+02  0.00000000000E+00 0. -1.
         -3    1    6    6    0  503  0.47431579158E+03 -0.33382729441E+03 -0.24862363915E+02  0.58054652680E+03  0.00000000000E+00 0.  1.
<mgrwt>
<rscale>  0 0.17216636E+04</rscale>
<asrwt>0</asrwt>
<pdfrwt beam="1">  1        1 0.14737922E+00 0.17216636E+04</pdfrwt>
<pdfrwt beam="2">  1       -2 0.11900731E+00 0.17216636E+04</pdfrwt>
<totfact> 0.73713538E+00</totfact>
</mgrwt>
</event>
<event>
12    5  0.5264288E-008  0.2492173E+04  0.7818608E-02  0.8405779E-01
          1   -1    0    0  501    0  0.00000000000E+00  0.00000000000E+00  0.25980785904E+04  0.25980785904E+04  0.00000000000E+00 0. -1.
         -2   -1    0    0    0  501 -0.00000000000E+00 -0.00000000000E+00 -0.59764597387E+03  0.59764597387E+03  0.00000000000E+00 0.  1.
        -24    2    1    2    0    0 -0.38213915181E+03 -0.54056163167E+03  0.19645319735E+04  0.20745798106E+04  0.79109460121E+02 0.  0.
        254    2    1    2    0    0  0.38213915181E+03  0.54056163167E+03  0.35900642961E+02  0.11211447536E+04  0.90412360514E+03 0.  0.
         23    2    4    4    0    0  0.23686241617E+03  0.28970166219E+03 -0.42255949365E+03  0.57150744681E+03  0.89629118167E+02 0.  0.
         23    2    4    4    0    0  0.14527673564E+03  0.25085996948E+03  0.45846013661E+03  0.54963730678E+03  0.88766085544E+02 0.  0.
          1    1    3    3  502    0 -0.35662559240E+03 -0.52217398300E+03  0.19057017486E+04  0.20078711703E+04  0.00000000000E+00 0. -1.
         -2    1    3    3    0  502 -0.25513559401E+02 -0.18387648669E+02  0.58830224921E+02  0.66708640379E+02  0.00000000000E+00 0.  1.
         13    1    5    5    0    0  0.31679657531E+02  0.37580010102E+01 -0.47106008344E+02  0.56891996757E+02  0.00000000000E+00 0.  1.
        -13    1    5    5    0    0  0.20518275864E+03  0.28594366118E+03 -0.37545348530E+03  0.51461545005E+03  0.00000000000E+00 0. -1.
          3    1    6    6  503    0  0.37595764291E+02  0.47793142195E+02  0.17156944475E+03  0.18202664724E+03  0.00000000000E+00 0. -1.
         -3    1    6    6    0  503  0.10768097135E+03  0.20306682728E+03  0.28689069185E+03  0.36761065954E+03  0.00000000000E+00 0.  1.
<mgrwt>
<rscale>  0 0.24921727E+04</rscale>
<asrwt>0</asrwt>
<pdfrwt beam="1">  1        1 0.39970439E+00 0.24921727E+04</pdfrwt>
<pdfrwt beam="2">  1       -2 0.91945536E-01 0.24921727E+04</pdfrwt>
<totfact> 0.90964403E-01</totfact>
</mgrwt>
</event>
<event>
12    5  0.5264288E-008  0.1710547E+04  0.7818608E-02  0.8755372E-01
         -2   -1    0    0    0  501 -0.00000000000E+00  0.00000000000E+00  0.10258094266E+04  0.10258094266E+04  0.00000000000E+00 0.  1.
          1   -1    0    0  501    0  0.00000000000E+00 -0.00000000000E+00 -0.71308836473E+03  0.71308836473E+03  0.00000000000E+00 0. -1.
        -24    2    1    2    0    0  0.29226214937E+03  0.34917944680E+03 -0.30235753911E+03  0.55276153255E+03  0.82351565782E+02 0.  0.
        254    2    1    2    0    0 -0.29226214937E+03 -0.34917944680E+03  0.61507860095E+03  0.11861362588E+04  0.90623070405E+03 0.  0.
         23    2    4    4    0    0  0.23074480411E+03  0.14576365777E+03  0.13835266376E+03  0.31860864965E+03  0.88768257345E+02 0.  0.
         23    2    4    4    0    0 -0.52300695348E+03 -0.49494310457E+03  0.47672593718E+03  0.86752760910E+03  0.82653392095E+02 0.  0.
          3    1    3    3  502    0  0.25918269170E+03  0.26285580472E+03 -0.25693501091E+03  0.44976042688E+03  0.00000000000E+00 0. -1.
         -4    1    3    3    0  502  0.33079457670E+02  0.86323642079E+02 -0.45422528194E+02  0.10300110567E+03  0.00000000000E+00 0.  1.
         13    1    5    5    0    0  0.19851302315E+03  0.11806875648E+03  0.14892110040E+03  0.27481838687E+03  0.00000000000E+00 0. -1.
        -13    1    5    5    0    0  0.32231780958E+02  0.27694901288E+02 -0.10568436642E+02  0.43790262778E+02  0.00000000000E+00 0.  1.
          3    1    6    6  503    0 -0.95580865821E+02 -0.10835181682E+03  0.60601206661E+02  0.15667904891E+03  0.00000000000E+00 0. -1.
         -3    1    6    6    0  503 -0.42742608766E+03 -0.38659128775E+03  0.41612473052E+03  0.71084856020E+03  0.00000000000E+00 0.  1.
<mgrwt>
<rscale>  0 0.17105470E+04</rscale>
<asrwt>0</asrwt>
<pdfrwt beam="1">  1        1 0.10970590E+00 0.17105470E+04</pdfrwt>
<pdfrwt beam="2">  1       -2 0.15781683E+00 0.17105470E+04</pdfrwt>
<totfact> 0.57623006E+00</totfact>
</mgrwt>
</event>
<event>
12    5  0.5264288E-008  0.1227559E+04  0.7818608E-02  0.9089071E-01
         -2   -1    0    0    0  501 -0.00000000000E+00  0.00000000000E+00  0.79473861205E+03  0.79473861205E+03  0.00000000000E+00 0.  1.
          1   -1    0    0  501    0  0.00000000000E+00 -0.00000000000E+00 -0.47402384604E+03  0.47402384604E+03  0.00000000000E+00 0. -1.
        -24    2    1    2    0    0  0.83301488507E+02  0.14349999666E+03 -0.17164162849E+03  0.25170925040E+03  0.79782899667E+02 0.  0.
        254    2    1    2    0    0 -0.83301488507E+02 -0.14349999666E+03  0.49235639451E+03  0.10170532077E+04  0.87432889752E+03 0.  0.
         23    2    4    4    0    0 -0.18899699900E+03 -0.47950097068E+03  0.24398117347E+03  0.57718516742E+03  0.89302060254E+02 0.  0.
         23    2    4    4    0    0  0.10569551050E+03  0.33600097402E+03  0.24837522104E+03  0.43986804027E+03  0.87894521696E+02 0.  0.
          3    1    3    3  502    0  0.39487879104E+02  0.10701349229E+03 -0.15474331973E+03  0.19224119000E+03  0.00000000000E+00 0. -1.
         -4    1    3    3    0  502  0.43813609403E+02  0.36486504366E+02 -0.16898308756E+02  0.59468060407E+02  0.00000000000E+00 0.  1.
         13    1    5    5    0    0 -0.93433313840E+02 -0.12909542198E+03  0.86353669102E+02  0.18125222282E+03  0.00000000000E+00 0. -1.
        -13    1    5    5    0    0 -0.95563685162E+02 -0.35040554871E+03  0.15762750437E+03  0.39593294460E+03  0.00000000000E+00 0.  1.
          4    1    6    6  503    0 -0.14094448889E+02  0.22389315398E+02  0.26604170052E+02  0.37519552205E+02  0.00000000000E+00 0. -1.
         -4    1    6    6    0  503  0.11978995938E+03  0.31361165862E+03  0.22177105099E+03  0.40234848807E+03  0.00000000000E+00 0.  1.
<mgrwt>
<rscale>  0 0.12275586E+04</rscale>
<asrwt>0</asrwt>
<pdfrwt beam="1">  1        1 0.72926746E-01 0.12275586E+04</pdfrwt>
<pdfrwt beam="2">  1       -2 0.12226748E+00 0.12275586E+04</pdfrwt>
<totfact> 0.20867709E+01</totfact>
</mgrwt>
</event>
<event>
12    5  0.5264288E-008  0.2095040E+04  0.7818608E-02  0.8563431E-01
         -2   -1    0    0    0  501 -0.00000000000E+00  0.00000000000E+00  0.68344125232E+03  0.68344125232E+03  0.00000000000E+00 0.  1.
          1   -1    0    0  501    0  0.00000000000E+00 -0.00000000000E+00 -0.16055485394E+04  0.16055485394E+04  0.00000000000E+00 0. -1.
        -24    2    1    2    0    0 -0.75303581412E+02  0.59108998966E+03  0.28775836252E+03  0.66632323004E+03  0.78254497925E+02 0.  0.
        254    2    1    2    0    0  0.75303581412E+02 -0.59108998966E+03 -0.12098656496E+04  0.16226665617E+04  0.90233800490E+03 0.  0.
         23    2    4    4    0    0  0.33025260794E+03 -0.68207928159E+03 -0.10406515233E+04  0.12905622345E+04  0.91084338972E+02 0.  0.
         23    2    4    4    0    0 -0.25494902653E+03  0.90989291933E+02 -0.16921412633E+03  0.33210432719E+03  0.91552204860E+02 0.  0.
          3    1    3    3  502    0 -0.28157395747E+01  0.15724830015E+03  0.43411946971E+02  0.16315499817E+03  0.00000000000E+00 0. -1.
         -4    1    3    3    0  502 -0.72487841838E+02  0.43384168951E+03  0.24434641554E+03  0.50316823187E+03  0.00000000000E+00 0.  1.
         13    1    5    5    0    0  0.29729563181E+03 -0.57948126834E+03 -0.93639764324E+03  0.11406242937E+04  0.00000000000E+00 0. -1.
        -13    1    5    5    0    0  0.32956976127E+02 -0.10259801325E+03 -0.10425388004E+03  0.14993794083E+03  0.00000000000E+00 0.  1.
          4    1    6    6  503    0 -0.10710384544E+03  0.65191537144E+02 -0.33546766848E+02  0.12979428258E+03  0.00000000000E+00 0. -1.
         -4    1    6    6    0  503 -0.14784518108E+03  0.25797754789E+02 -0.13566735948E+03  0.20231004461E+03  0.00000000000E+00 0.  1.
<mgrwt>
<rscale>  0 0.20950400E+04</rscale>
<asrwt>0</asrwt>
<pdfrwt beam="1">  1        1 0.24700746E+00 0.20950400E+04</pdfrwt>
<pdfrwt beam="2">  1       -2 0.10514481E+00 0.20950400E+04</pdfrwt>
<totfact> 0.32735454E+00</totfact>
</mgrwt>
</event>
<event>
12    5  0.5264288E-008  0.1418743E+04  0.7818608E-02  0.8940362E-01
          3   -1    0    0  501    0  0.00000000000E+00  0.00000000000E+00  0.46821034773E+03  0.46821034773E+03  0.00000000000E+00 0. -1.
         -4   -1    0    0    0  501 -0.00000000000E+00 -0.00000000000E+00 -0.10747478230E+04  0.10747478230E+04  0.00000000000E+00 0.  1.
        -24    2    1    2    0    0 -0.25717269650E+03  0.70526603120E+02 -0.54293685110E+03  0.61015308793E+03  0.79966048146E+02 0.  0.
        254    2    1    2    0    0  0.25717269650E+03 -0.70526603120E+02 -0.63600624149E+02  0.93280508278E+03  0.89161005238E+03 0.  0.
         23    2    4    4    0    0 -0.13416951764E+03 -0.22372912868E+03 -0.32797462376E+03  0.42847622691E+03  0.89265562880E+02 0.  0.
         23    2    4    4    0    0  0.39134221414E+03  0.15320252556E+03  0.26437399961E+03  0.50432885586E+03  0.88511246644E+02 0.  0.
          3    1    3    3  502    0 -0.64386193076E+02  0.40189917322E+02 -0.95358499142E+02  0.12187721145E+03  0.00000000000E+00 0. -1.
         -4    1    3    3    0  502 -0.19278650342E+03  0.30336685799E+02 -0.44757835196E+03  0.48827587647E+03  0.00000000000E+00 0.  1.
         13    1    5    5    0    0 -0.12944604053E+03 -0.17254132192E+03 -0.21596419980E+03  0.30523322357E+03  0.00000000000E+00 0. -1.
        -13    1    5    5    0    0 -0.47234771167E+01 -0.51187806760E+02 -0.11201042396E+03  0.12324300334E+03  0.00000000000E+00 0.  1.
          1    1    6    6  503    0  0.31944736707E+03  0.14020985507E+03  0.17947537243E+03  0.39232235865E+03  0.00000000000E+00 0. -1.
         -1    1    6    6    0  503  0.71894847072E+02  0.12992670487E+02  0.84898627180E+02  0.11200649722E+03  0.00000000000E+00 0.  1.
<mgrwt>
<rscale>  0 0.14187432E+04</rscale>
<asrwt>0</asrwt>
<pdfrwt beam="1">  1        3 0.72032361E-01 0.14187432E+04</pdfrwt>
<pdfrwt beam="2">  1       -4 0.16534582E+00 0.14187432E+04</pdfrwt>
<totfact> 0.93174146E-01</totfact>
</mgrwt>
</event>
<event>
12    5  0.5264288E-008  0.1595883E+04  0.7818608E-02  0.8823081E-01
          1   -1    0    0  501    0  0.00000000000E+00  0.00000000000E+00  0.12590485134E+04  0.12590485134E+04  0.00000000000E+00 0. -1.
         -2   -1    0    0    0  501 -0.00000000000E+00 -0.00000000000E+00 -0.50570754775E+03  0.50570754775E+03  0.00000000000E+00 0.  1.
        -24    2    1    2    0    0 -0.35613835387E+02 -0.47098235717E+03 -0.45555827425E+02  0.48084543406E+03  0.77744916287E+02 0.  0.
        254    2    1    2    0    0  0.35613835387E+02  0.47098235717E+03  0.79889679312E+03  0.12839106271E+04  0.88718526047E+03 0.  0.
         23    2    4    4    0    0 -0.21853650464E+03  0.58273582123E+03  0.76408363559E+03  0.98970401802E+03  0.91383805451E+02 0.  0.
         23    2    4    4    0    0  0.25415034003E+03 -0.11175346407E+03  0.34813157534E+02  0.29420660912E+03  0.90908420101E+02 0.  0.
          3    1    3    3  502    0 -0.50661169860E+02 -0.17245604529E+03 -0.19883086981E+02  0.18083964952E+03  0.00000000000E+00 0. -1.
         -4    1    3    3    0  502  0.15047334474E+02 -0.29852631187E+03 -0.25672740444E+02  0.30000578454E+03  0.00000000000E+00 0.  1.
         13    1    5    5    0    0 -0.13721438013E+03  0.46561228165E+03  0.61377719463E+03  0.78252477762E+03  0.00000000000E+00 0. -1.
        -13    1    5    5    0    0 -0.81322124510E+02  0.11712353958E+03  0.15030644096E+03  0.20717924040E+03  0.00000000000E+00 0.  1.
          4    1    6    6  503    0  0.18249504350E+03 -0.11396864165E+03  0.15216690844E+01  0.21516414120E+03  0.00000000000E+00 0. -1.
         -4    1    6    6    0  503  0.71655296533E+02  0.22151775756E+01  0.33291488450E+02  0.79042467927E+02  0.00000000000E+00 0.  1.
<mgrwt>
<rscale>  0 0.15958826E+04</rscale>
<asrwt>0</asrwt>
<pdfrwt beam="1">  1        1 0.19369977E+00 0.15958826E+04</pdfrwt>
<pdfrwt beam="2">  1       -2 0.77801161E-01 0.15958826E+04</pdfrwt>
<totfact> 0.11993041E+01</totfact>
</mgrwt>
</event>
<event>
12    5  0.5264288E-008  0.1183437E+04  0.7818608E-02  0.9127479E-01
         -2   -1    0    0    0  501 -0.00000000000E+00  0.00000000000E+00  0.20964848928E+03  0.20964848928E+03  0.00000000000E+00 0.  1.
          1   -1    0    0  501    0  0.00000000000E+00 -0.00000000000E+00 -0.16700847269E+04  0.16700847269E+04  0.00000000000E+00 0. -1.
        -24    2    1    2    0    0 -0.38239353380E+02  0.17431481507E+03 -0.66538246847E+03  0.69353873237E+03  0.80088957125E+02 0.  0.
        254    2    1    2    0    0  0.38239353380E+02 -0.17431481507E+03 -0.79505376917E+03  0.11861944838E+04  0.86203187569E+03 0.  0.
         23    2    4    4    0    0  0.11237123738E+03  0.13123190856E+03 -0.83387161740E+03  0.85654464648E+03  0.92074688659E+02 0.  0.
         23    2    4    4    0    0 -0.74131884005E+02 -0.30554672363E+03  0.38817848225E+02  0.32964983735E+03  0.91147426626E+02 0.  0.
          1    1    3    3  502    0 -0.34328591624E+02  0.18285204812E+03 -0.62667858864E+03  0.65371199864E+03  0.00000000000E+00 0. -1.
         -2    1    3    3    0  502 -0.39107617552E+01 -0.85372330582E+01 -0.38703879833E+02  0.39826733734E+02  0.00000000000E+00 0.  1.
         13    1    5    5    0    0  0.42927334107E+02 -0.46300816264E+01 -0.17952441422E+03  0.18464346446E+03  0.00000000000E+00 0. -1.
        -13    1    5    5    0    0  0.69443903278E+02  0.13586199019E+03 -0.65434720318E+03  0.67190118201E+03  0.00000000000E+00 0.  1.
          4    1    6    6  503    0 -0.71629951368E+02 -0.17142721080E+03  0.56865686881E+02  0.19429833988E+03  0.00000000000E+00 0. -1.
         -4    1    6    6    0  503 -0.25019326366E+01 -0.13411951283E+03 -0.18047838656E+02  0.13535149748E+03  0.00000000000E+00 0.  1.
<mgrwt>
<rscale>  0 0.11834369E+04</rscale>
<asrwt>0</asrwt>
<pdfrwt beam="1">  1        1 0.25693611E+00 0.11834369E+04</pdfrwt>
<pdfrwt beam="2">  1       -2 0.32253614E-01 0.11834369E+04</pdfrwt>
<totfact> 0.38893845E+01</totfact>
</mgrwt>
</event>
<event>
12    5  0.5264288E-008  0.1337654E+04  0.7818608E-02  0.9000227E-01
         -2   -1    0    0    0  501 -0.00000000000E+00  0.00000000000E+00  0.17451316826E+04  0.17451316826E+04  0.00000000000E+00 0.  1.
          1   -1    0    0  501    0  0.00000000000E+00 -0.00000000000E+00 -0.25633013492E+03  0.25633013492E+03  0.00000000000E+00 0. -1.
        -24    2    1    2    0    0  0.53033617931E+02  0.84422050231E+02  0.92088081683E+03  0.93204726680E+03  0.10368694004E+03 0.  0.
        254    2    1    2    0    0 -0.53033617931E+02 -0.84422050231E+02  0.56792073089E+03  0.10694145508E+04  0.90065191814E+03 0.  0.
         23    2    4    4    0    0 -0.23607270354E+03 -0.10175666155E+03 -0.15763321934E+03  0.31527347050E+03  0.92002118643E+02 0.  0.
         23    2    4    4    0    0  0.18303908560E+03  0.17334611322E+02  0.72555395023E+03  0.75414108028E+03  0.92176128466E+02 0.  0.
          1    1    3    3  502    0 -0.24166452371E+02  0.40225578945E+01  0.31850356371E+03  0.31944439029E+03  0.00000000000E+00 0. -1.
         -2    1    3    3    0  502  0.77200070302E+02  0.80399492337E+02  0.60237725312E+03  0.61260287650E+03  0.00000000000E+00 0.  1.
         13    1    5    5    0    0 -0.15070993493E+03 -0.11023698105E+03 -0.11702300792E+03  0.22036347442E+03  0.00000000000E+00 0.  1.
        -13    1    5    5    0    0 -0.85362768608E+02  0.84803194986E+01 -0.40610211423E+02  0.94909996075E+02  0.00000000000E+00 0. -1.
          3    1    6    6  503    0 -0.99654603815E+01 -0.48435495974E+01  0.49628854249E+02  0.50850698593E+02  0.00000000000E+00 0. -1.
         -3    1    6    6    0  503  0.19300454599E+03  0.22178160920E+02  0.67592509598E+03  0.70329038169E+03  0.00000000000E+00 0.  1.
<mgrwt>
<rscale>  0 0.13376544E+04</rscale>
<asrwt>0</asrwt>
<pdfrwt beam="1">  1        1 0.39435407E-01 0.13376544E+04</pdfrwt>
<pdfrwt beam="2">  1       -2 0.26848179E+00 0.13376544E+04</pdfrwt>
<totfact> 0.45695938E+00</totfact>
</mgrwt>
</event>
<event>
12    5  0.5264288E-008  0.1901503E+04  0.7818608E-02  0.8654109E-01
          1   -1    0    0  501    0  0.00000000000E+00  0.00000000000E+00  0.89121347295E+03  0.89121347295E+03  0.00000000000E+00 0. -1.
         -2   -1    0    0    0  501 -0.00000000000E+00 -0.00000000000E+00 -0.10142670997E+04  0.10142670997E+04  0.00000000000E+00 0.  1.
        -24    2    1    2    0    0 -0.26259459417E+02  0.67948291103E+03 -0.26869146237E+03  0.73548419306E+03  0.79720202611E+02 0.  0.
        254    2    1    2    0    0  0.26259459417E+02 -0.67948291103E+03  0.14563783561E+03  0.11699963796E+04  0.94090093183E+03 0.  0.
         23    2    4    4    0    0  0.18442697311E+03  0.15034268703E+03 -0.11539559688E+03  0.28106333905E+03  0.95206222635E+02 0.  0.
         23    2    4    4    0    0 -0.15816751369E+03 -0.82982559805E+03  0.26103343249E+03  0.88893304055E+03  0.91847766070E+02 0.  0.
          3    1    3    3  502    0 -0.93315471675E+01  0.29406973723E+03 -0.74120832671E+02  0.30341058974E+03  0.00000000000E+00 0. -1.
         -4    1    3    3    0  502 -0.16927912249E+02  0.38541317379E+03 -0.19457062970E+03  0.43207360332E+03  0.00000000000E+00 0.  1.
         13    1    5    5    0    0  0.11363376107E+03  0.86314364488E+02 -0.11860969554E+03  0.18555608599E+03  0.00000000000E+00 0. -1.
        -13    1    5    5    0    0  0.70793212034E+02  0.64028322538E+02  0.32140986597E+01  0.95507253061E+02  0.00000000000E+00 0.  1.
          2    1    6    6  503    0  0.28036636402E+01 -0.16857471189E+03  0.65077125445E+02  0.18072168181E+03  0.00000000000E+00 0. -1.
         -2    1    6    6    0  503 -0.16097117733E+03 -0.66125088616E+03  0.19595630704E+03  0.70821135874E+03  0.00000000000E+00 0.  1.
<mgrwt>
<rscale>  0 0.19015031E+04</rscale>
<asrwt>0</asrwt>
<pdfrwt beam="1">  1        1 0.13710976E+00 0.19015031E+04</pdfrwt>
<pdfrwt beam="2">  1       -2 0.15604109E+00 0.19015031E+04</pdfrwt>
<totfact> 0.40885373E+00</totfact>
</mgrwt>
</event>
<event>
12    5  0.5264288E-008  0.1398141E+04  0.7818608E-02  0.8955165E-01
          1   -1    0    0  501    0  0.00000000000E+00  0.00000000000E+00  0.11120277803E+04  0.11120277803E+04  0.00000000000E+00 0. -1.
         -2   -1    0    0    0  501 -0.00000000000E+00 -0.00000000000E+00 -0.43946687620E+03  0.43946687620E+03  0.00000000000E+00 0.  1.
        -24    2    1    2    0    0 -0.44538708525E+02 -0.19131582225E+03 -0.18311844697E+03  0.27978195424E+03  0.78486533231E+02 0.  0.
        254    2    1    2    0    0  0.44538708525E+02  0.19131582225E+03  0.85567935112E+03  0.12717127023E+04  0.92004380595E+03 0.  0.
         23    2    4    4    0    0  0.52575475945E+02  0.53812773724E+03  0.67643578049E+03  0.87084444425E+03  0.91973032380E+02 0.  0.
         23    2    4    4    0    0 -0.80367674202E+01 -0.34681191500E+03  0.17924357063E+03  0.40086825806E+03  0.90686320306E+02 0.  0.
          3    1    3    3  502    0  0.88395591159E+01 -0.30184056522E+02 -0.67312263699E+02  0.74297751768E+02  0.00000000000E+00 0. -1.
         -4    1    3    3    0  502 -0.53378267640E+02 -0.16113176573E+03 -0.11580618327E+03  0.20548420247E+03  0.00000000000E+00 0.  1.
         13    1    5    5    0    0 -0.90728810110E+01  0.68626582345E+01  0.28505430810E+02  0.30691575938E+02  0.00000000000E+00 0. -1.
        -13    1    5    5    0    0  0.61648356956E+02  0.53126507901E+03  0.64793034968E+03  0.84015286831E+03  0.00000000000E+00 0.  1.
          4    1    6    6  503    0 -0.72252105241E+01  0.36240874212E+01  0.31448233784E+01  0.86733840475E+01  0.00000000000E+00 0. -1.
         -4    1    6    6    0  503 -0.81155689618E+00 -0.35043600242E+03  0.17609874725E+03  0.39219487401E+03  0.00000000000E+00 0.  1.
<mgrwt>
<rscale>  0 0.13981407E+04</rscale>
<asrwt>0</asrwt>
<pdfrwt beam="1">  1        1 0.17108120E+00 0.13981407E+04</pdfrwt>
<pdfrwt beam="2">  1       -2 0.67610289E-01 0.13981407E+04</pdfrwt>
<totfact> 0.21291288E+01</totfact>
</mgrwt>
</event>
<event>
12    5  0.5264288E-008  0.1890728E+04  0.7818608E-02  0.8659485E-01
          1   -1    0    0  501    0  0.00000000000E+00  0.00000000000E+00  0.18888204142E+04  0.18888204142E+04  0.00000000000E+00 0. -1.
         -2   -1    0    0    0  501 -0.00000000000E+00 -0.00000000000E+00 -0.47315944337E+03  0.47315944337E+03  0.00000000000E+00 0.  1.
        -24    2    1    2    0    0  0.16680316581E+03  0.69148587193E+03  0.43872602461E+03  0.83962907272E+03  0.80749290287E+02 0.  0.
        254    2    1    2    0    0 -0.16680316581E+03 -0.69148587193E+03  0.97693494619E+03  0.15223507848E+04  0.92583692719E+03 0.  0.
         23    2    4    4    0    0 -0.39642016147E+03 -0.79436388807E+03  0.67438476835E+03  0.11183380912E+04  0.87876842316E+02 0.  0.
         23    2    4    4    0    0  0.22961699567E+03  0.10287801615E+03  0.30255017784E+03  0.40401269359E+03  0.91552146700E+02 0.  0.
          3    1    3    3  502    0 -0.85127029368E+01  0.32892568716E+02  0.15183833903E+02  0.37214728267E+02  0.00000000000E+00 0. -1.
         -4    1    3    3    0  502  0.17531586875E+03  0.65859330321E+03  0.42354219071E+03  0.80241434445E+03  0.00000000000E+00 0.  1.
         13    1    5    5    0    0 -0.14965842641E+03 -0.36910544448E+03  0.26326328886E+03  0.47743484686E+03  0.00000000000E+00 0.  1.
        -13    1    5    5    0    0 -0.24676173506E+03 -0.42525844360E+03  0.41112147949E+03  0.64090324436E+03  0.00000000000E+00 0. -1.
          1    1    6    6  503    0  0.29685680144E+02 -0.16211761088E+02  0.52274715572E+02  0.62263204955E+02  0.00000000000E+00 0. -1.
         -1    1    6    6    0  503  0.19993131552E+03  0.11908977723E+03  0.25027546227E+03  0.34174948864E+03  0.00000000000E+00 0.  1.
<mgrwt>
<rscale>  0 0.18907281E+04</rscale>
<asrwt>0</asrwt>
<pdfrwt beam="1">  1        1 0.29058775E+00 0.18907281E+04</pdfrwt>
<pdfrwt beam="2">  1       -2 0.72793761E-01 0.18907281E+04</pdfrwt>
<totfact> 0.49724688E+00</totfact>
</mgrwt>
</event>
<event>
12    5  0.5264288E-008  0.1037016E+04  0.7818608E-02  0.9268853E-01
         -2   -1    0    0    0  501 -0.00000000000E+00  0.00000000000E+00  0.27547847720E+03  0.27547847720E+03  0.00000000000E+00 0.  1.
          1   -1    0    0  501    0  0.00000000000E+00 -0.00000000000E+00 -0.97593999160E+03  0.97593999160E+03  0.00000000000E+00 0. -1.
        -24    2    1    2    0    0  0.12429570316E+02 -0.10124566786E+03 -0.13254197214E+03  0.18463165662E+03  0.78206743753E+02 0.  0.
        254    2    1    2    0    0 -0.12429570316E+02  0.10124566786E+03 -0.56791954226E+03  0.10667868122E+04  0.89727159584E+03 0.  0.
         23    2    4    4    0    0 -0.97204008298E+02  0.37456375956E+03  0.28574688108E+02  0.39875665532E+03  0.91889760897E+02 0.  0.
         23    2    4    4    0    0  0.84774437982E+02 -0.27331809170E+03 -0.59649423037E+03  0.66803015687E+03  0.92571264621E+02 0.  0.
          3    1    3    3  502    0 -0.22126473516E+02 -0.16825795579E+02 -0.66320194302E+02  0.71910057707E+02  0.00000000000E+00 0. -1.
         -4    1    3    3    0  502  0.34556043833E+02 -0.84419872279E+02 -0.66221777837E+02  0.11272159891E+03  0.00000000000E+00 0.  1.
         13    1    5    5    0    0 -0.76925111441E+02  0.14910528573E+03  0.38614698097E+02  0.17216548409E+03  0.00000000000E+00 0. -1.
        -13    1    5    5    0    0 -0.20278896857E+02  0.22545847383E+03 -0.10040009988E+02  0.22659117123E+03  0.00000000000E+00 0.  1.
          2    1    6    6  503    0  0.39215422450E+02 -0.17914156016E+03 -0.46594783294E+03  0.50073638869E+03  0.00000000000E+00 0. -1.
         -2    1    6    6    0  503  0.45559015532E+02 -0.94176531545E+02 -0.13054639742E+03  0.16729376818E+03  0.00000000000E+00 0.  1.
<mgrwt>
<rscale>  0 0.10370158E+04</rscale>
<asrwt>0</asrwt>
<pdfrwt beam="1">  1        1 0.15014462E+00 0.10370158E+04</pdfrwt>
<pdfrwt beam="2">  1       -2 0.42381304E-01 0.10370158E+04</pdfrwt>
<totfact> 0.73122148E+01</totfact>
</mgrwt>
</event>
<event>
12    5  0.5264288E-008  0.1406840E+04  0.7818608E-02  0.8948883E-01
          1   -1    0    0  501    0  0.00000000000E+00  0.00000000000E+00  0.10496495167E+04  0.10496495167E+04  0.00000000000E+00 0. -1.
         -2   -1    0    0    0  501 -0.00000000000E+00 -0.00000000000E+00 -0.47139482953E+03  0.47139482953E+03  0.00000000000E+00 0.  1.
        -24    2    1    2    0    0  0.29396917499E+03  0.26067350018E+03  0.25921501115E+03  0.47770783814E+03  0.81509552029E+02 0.  0.
        254    2    1    2    0    0 -0.29396917499E+03 -0.26067350018E+03  0.31903967598E+03  0.10433365080E+04  0.91235749826E+03 0.  0.
         23    2    4    4    0    0 -0.17408491343E+03 -0.46200351123E+03 -0.13793084099E+03  0.52131326684E+03  0.94814575913E+02 0.  0.
         23    2    4    4    0    0 -0.11988426156E+03  0.20133001105E+03  0.45697051697E+03  0.52202324121E+03  0.93702729221E+02 0.  0.
          1    1    3    3  502    0  0.24232522981E+03  0.25020557121E+03  0.21930019432E+03  0.41160286697E+03  0.00000000000E+00 0. -1.
         -2    1    3    3    0  502  0.51643945184E+02  0.10467928969E+02  0.39914816824E+02  0.66104971169E+02  0.00000000000E+00 0.  1.
         13    1    5    5    0    0 -0.18006580606E+03 -0.39632541664E+03 -0.13300857997E+03  0.45517997840E+03  0.00000000000E+00 0. -1.
        -13    1    5    5    0    0  0.59808926313E+01 -0.65678094591E+02 -0.49222610192E+01  0.66133288435E+02  0.00000000000E+00 0.  1.
          2    1    6    6  503    0 -0.59961507944E+02  0.16889551290E+03  0.28064661423E+03  0.33299188997E+03  0.00000000000E+00 0. -1.
         -2    1    6    6    0  503 -0.59922753612E+02  0.32434498155E+02  0.17632390274E+03  0.18903135123E+03  0.00000000000E+00 0.  1.
<mgrwt>
<rscale>  0 0.14068395E+04</rscale>
<asrwt>0</asrwt>
<pdfrwt beam="1">  1        1 0.16148454E+00 0.14068395E+04</pdfrwt>
<pdfrwt beam="2">  1       -2 0.72522282E-01 0.14068395E+04</pdfrwt>
<totfact> 0.20352037E+01</totfact>
</mgrwt>
</event>
<event>
12    5  0.5264288E-008  0.1827749E+04  0.7818608E-02  0.8691681E-01
         -2   -1    0    0    0  501 -0.00000000000E+00  0.00000000000E+00  0.54641946724E+03  0.54641946724E+03  0.00000000000E+00 0.  1.
          1   -1    0    0  501    0  0.00000000000E+00 -0.00000000000E+00 -0.15284345183E+04  0.15284345183E+04  0.00000000000E+00 0. -1.
        -24    2    1    2    0    0  0.46674941819E+03  0.26958545989E+03  0.11036177186E+03  0.55582236507E+03  0.78914138511E+02 0.  0.
        254    2    1    2    0    0 -0.46674941819E+03 -0.26958545989E+03 -0.10923768229E+04  0.15190316204E+04  0.90754537139E+03 0.  0.
         23    2    4    4    0    0  0.21216899703E+03 -0.25162696205E+02 -0.59370171032E+03  0.63744312295E+03  0.90571350784E+02 0.  0.
         23    2    4    4    0    0 -0.67891841523E+03 -0.24442276369E+03 -0.49867511257E+03  0.88158849749E+03  0.88592940218E+02 0.  0.
          1    1    3    3  502    0  0.21024220534E+03  0.95370832679E+02  0.79710337840E+02  0.24423578483E+03  0.00000000000E+00 0. -1.
         -2    1    3    3    0  502  0.25650721286E+03  0.17421462721E+03  0.30651434025E+02  0.31158658025E+03  0.00000000000E+00 0.  1.
         13    1    5    5    0    0  0.23097745521E+02 -0.20397663886E+02 -0.17921233750E+03  0.18184232855E+03  0.00000000000E+00 0.  1.
        -13    1    5    5    0    0  0.18907125151E+03 -0.47650323182E+01 -0.41448937282E+03  0.45560079440E+03  0.00000000000E+00 0. -1.
          3    1    6    6  503    0 -0.25647353046E+03 -0.11557455839E+03 -0.23983038460E+03  0.36966845112E+03  0.00000000000E+00 0. -1.
         -3    1    6    6    0  503 -0.42244488477E+03 -0.12884820529E+03 -0.25884472797E+03  0.51192004637E+03  0.00000000000E+00 0.  1.
<mgrwt>
<rscale>  0 0.18277488E+04</rscale>
<asrwt>0</asrwt>
<pdfrwt beam="1">  1        1 0.23514377E+00 0.18277488E+04</pdfrwt>
<pdfrwt beam="2">  1       -2 0.84064533E-01 0.18277488E+04</pdfrwt>
<totfact> 0.63819591E+00</totfact>
</mgrwt>
</event>
<event>
12    5  0.5264288E-008  0.1627420E+04  0.7818608E-02  0.8803878E-01
          1   -1    0    0  501    0  0.00000000000E+00  0.00000000000E+00  0.12253360779E+04  0.12253360779E+04  0.00000000000E+00 0. -1.
         -2   -1    0    0    0  501 -0.00000000000E+00 -0.00000000000E+00 -0.54036096676E+03  0.54036096676E+03  0.00000000000E+00 0.  1.
        -24    2    1    2    0    0  0.35014817101E+02 -0.50889604280E+03 -0.12589742065E+02  0.51641349444E+03  0.79518399395E+02 0.  0.
        254    2    1    2    0    0 -0.35014817101E+02  0.50889604280E+03  0.69756485319E+03  0.12492835502E+04  0.90217040775E+03 0.  0.
         23    2    4    4    0    0 -0.16212888547E+03  0.37807966037E+03 -0.94274644601E+02  0.43155066390E+03  0.90101397355E+02 0.  0.
         23    2    4    4    0    0  0.12711406837E+03  0.13081638243E+03  0.79183949779E+03  0.81773288631E+03  0.91686262863E+02 0.  0.
          1    1    3    3  502    0  0.26726474093E+02 -0.51295700253E+02 -0.10191797594E+02  0.58731814377E+02  0.00000000000E+00 0. -1.
         -2    1    3    3    0  502  0.82883430081E+01 -0.45760034254E+03 -0.23979444708E+01  0.45768168006E+03  0.00000000000E+00 0.  1.
         13    1    5    5    0    0 -0.13077034523E+03  0.25405084788E+03 -0.26989344279E+02  0.28700373030E+03  0.00000000000E+00 0. -1.
        -13    1    5    5    0    0 -0.31358540246E+02  0.12402881249E+03 -0.67285300322E+02  0.14454693360E+03  0.00000000000E+00 0.  1.
          3    1    6    6  503    0  0.10997866139E+03  0.98012167223E+02  0.73696281679E+03  0.75154233695E+03  0.00000000000E+00 0. -1.
         -3    1    6    6    0  503  0.17135406979E+02  0.32804215205E+02  0.54876680998E+02  0.66190549363E+02  0.00000000000E+00 0.  1.
<mgrwt>
<rscale>  0 0.16274198E+04</rscale>
<asrwt>0</asrwt>
<pdfrwt beam="1">  1        1 0.18851324E+00 0.16274198E+04</pdfrwt>
<pdfrwt beam="2">  1       -2 0.83132457E-01 0.16274198E+04</pdfrwt>
<totfact> 0.10897953E+01</totfact>
</mgrwt>
</event>
<event>
12    5  0.5264288E-008  0.3398784E+04  0.7818608E-02  0.8138205E-01
         -2   -1    0    0    0  501 -0.00000000000E+00  0.00000000000E+00  0.21080194954E+04  0.21080194954E+04  0.00000000000E+00 0.  1.
          1   -1    0    0  501    0  0.00000000000E+00 -0.00000000000E+00 -0.13699748469E+04  0.13699748469E+04  0.00000000000E+00 0. -1.
        -24    2    1    2    0    0  0.61726879752E+03  0.91090472752E+03  0.15057313985E+04  0.18666925854E+04  0.80907186512E+02 0.  0.
        254    2    1    2    0    0 -0.61726879752E+03 -0.91090472752E+03 -0.76768675006E+03  0.16113017569E+04  0.89229043182E+03 0.  0.
         23    2    4    4    0    0 -0.52848876668E+03 -0.22064371938E+03 -0.69588705985E+03  0.90580899678E+03  0.90813606736E+02 0.  0.
         23    2    4    4    0    0 -0.88780030843E+02 -0.69026100814E+03 -0.71799690214E+02  0.70549276017E+03  0.90679026812E+02 0.  0.
          3    1    3    3  502    0  0.12700050325E+03  0.15293123079E+03  0.23206579377E+03  0.30556770414E+03  0.00000000000E+00 0. -1.
         -4    1    3    3    0  502  0.49026829428E+03  0.75797349673E+03  0.12736656047E+04  0.15611248812E+04  0.00000000000E+00 0.  1.
         13    1    5    5    0    0 -0.19219024969E+03 -0.12464798334E+03 -0.24901645549E+03  0.33835396693E+03  0.00000000000E+00 0. -1.
        -13    1    5    5    0    0 -0.33629851698E+03 -0.95995736033E+02 -0.44687060436E+03  0.56745502985E+03  0.00000000000E+00 0.  1.
          2    1    6    6  503    0 -0.10554726449E+03 -0.61539755047E+03 -0.73931559086E+02  0.62874497660E+03  0.00000000000E+00 0.  1.
         -2    1    6    6    0  503  0.16767233651E+02 -0.74863457672E+02  0.21318688720E+01  0.76747783575E+02  0.00000000000E+00 0. -1.
<mgrwt>
<rscale>  0 0.33987843E+04</rscale>
<asrwt>0</asrwt>
<pdfrwt beam="1">  1        1 0.21076536E+00 0.33987843E+04</pdfrwt>
<pdfrwt beam="2">  1       -2 0.32431069E+00 0.33987843E+04</pdfrwt>
<totfact> 0.13119744E-01</totfact>
</mgrwt>
</event>
<event>
12    5  0.5264288E-008  0.1712986E+04  0.7818608E-02  0.8753992E-01
          1   -1    0    0  501    0  0.00000000000E+00  0.00000000000E+00  0.44467984868E+03  0.44467984868E+03  0.00000000000E+00 0. -1.
         -2   -1    0    0    0  501 -0.00000000000E+00 -0.00000000000E+00 -0.16496817107E+04  0.16496817107E+04  0.00000000000E+00 0.  1.
        -24    2    1    2    0    0 -0.15560225496E+03 -0.55797781886E+03 -0.17800328931E+03  0.61101093415E+03  0.78088940007E+02 0.  0.
        254    2    1    2    0    0  0.15560225496E+03  0.55797781886E+03 -0.10269985727E+04  0.14833506253E+04  0.90002872231E+03 0.  0.
         23    2    4    4    0    0  0.42446064060E+03 -0.10314964127E+02 -0.43923114584E+03  0.61781591146E+03  0.92191469673E+02 0.  0.
         23    2    4    4    0    0 -0.26885838564E+03  0.56829278299E+03 -0.58776742691E+03  0.86553471381E+03  0.91860078058E+02 0.  0.
          3    1    3    3  502    0 -0.14009068519E+03 -0.43742708570E+03 -0.16793471302E+03  0.48905002118E+03  0.00000000000E+00 0. -1.
         -4    1    3    3    0  502 -0.15511569766E+02 -0.12055073316E+03 -0.10068576289E+02  0.12196091296E+03  0.00000000000E+00 0.  1.
         13    1    5    5    0    0  0.13651603096E+03  0.38722821345E+02 -0.13005756411E+03  0.19248650234E+03  0.00000000000E+00 0. -1.
        -13    1    5    5    0    0  0.28794460964E+03 -0.49037785472E+02 -0.30917358173E+03  0.42532940912E+03  0.00000000000E+00 0.  1.
          1    1    6    6  503    0 -0.78628379188E+02  0.85049266953E+02 -0.99045323792E+02  0.15240005245E+03  0.00000000000E+00 0. -1.
         -1    1    6    6    0  503 -0.19023000646E+03  0.48324351604E+03 -0.48872210312E+03  0.71313466135E+03  0.00000000000E+00 0.  1.
<mgrwt>
<rscale>  0 0.17129859E+04</rscale>
<asrwt>0</asrwt>
<pdfrwt beam="1">  1        1 0.68412284E-01 0.17129859E+04</pdfrwt>
<pdfrwt beam="2">  1       -2 0.25379719E+00 0.17129859E+04</pdfrwt>
<totfact> 0.26352788E+00</totfact>
</mgrwt>
</event>
<event>
12    5  0.5264288E-008  0.1551833E+04  0.7818608E-02  0.8850698E-01
         -2   -1    0    0    0  501 -0.00000000000E+00  0.00000000000E+00  0.11982874806E+04  0.11982874806E+04  0.00000000000E+00 0.  1.
          1   -1    0    0  501    0  0.00000000000E+00 -0.00000000000E+00 -0.50242215192E+03  0.50242215192E+03  0.00000000000E+00 0. -1.
        -24    2    1    2    0    0 -0.81451165397E+02 -0.50062182595E+03  0.17230562759E+03  0.54149951639E+03  0.79221158726E+02 0.  0.
        254    2    1    2    0    0  0.81451165397E+02  0.50062182595E+03  0.52355970112E+03  0.11592101161E+04  0.90133058740E+03 0.  0.
         23    2    4    4    0    0 -0.41544481275E+02  0.12962691804E+03  0.70145657646E+03  0.72020066204E+03  0.90103180466E+02 0.  0.
         23    2    4    4    0    0  0.12299564667E+03  0.37099490791E+03 -0.17789687535E+03  0.43900945411E+03  0.91196774837E+02 0.  0.
          1    1    3    3  502    0 -0.27147111934E+02 -0.23982856179E+03  0.12185830080E+03  0.27037779163E+03  0.00000000000E+00 0. -1.
         -2    1    3    3    0  502 -0.54304053463E+02 -0.26079326416E+03  0.50447326797E+02  0.27112172476E+03  0.00000000000E+00 0.  1.
         13    1    5    5    0    0 -0.61888714923E+02  0.71288376979E+02  0.52037543313E+03  0.52886939515E+03  0.00000000000E+00 0.  1.
        -13    1    5    5    0    0  0.20344233647E+02  0.58338541057E+02  0.18108114334E+03  0.19133126689E+03  0.00000000000E+00 0. -1.
          1    1    6    6  503    0  0.13531101150E+02  0.55643511108E+02 -0.64994983843E+02  0.86623547327E+02  0.00000000000E+00 0. -1.
         -1    1    6    6    0  503  0.10946454552E+03  0.31535139681E+03 -0.11290189151E+03  0.35238590678E+03  0.00000000000E+00 0.  1.
<mgrwt>
<rscale>  0 0.15518327E+04</rscale>
<asrwt>0</asrwt>
<pdfrwt beam="1">  1        1 0.77295716E-01 0.15518327E+04</pdfrwt>
<pdfrwt beam="2">  1       -2 0.18435192E+00 0.15518327E+04</pdfrwt>
<totfact> 0.62728390E+00</totfact>
</mgrwt>
</event>
<event>
12    5  0.5264288E-008  0.1538972E+04  0.7818608E-02  0.8858943E-01
          1   -1    0    0  501    0  0.00000000000E+00  0.00000000000E+00  0.15301664223E+04  0.15301664223E+04  0.00000000000E+00 0. -1.
         -2   -1    0    0    0  501 -0.00000000000E+00 -0.00000000000E+00 -0.38695719001E+03  0.38695719001E+03  0.00000000000E+00 0.  1.
        -24    2    1    2    0    0  0.29436608040E+02  0.18451387524E+02  0.88527385989E+03  0.88949439421E+03  0.79268548143E+02 0.  0.
        254    2    1    2    0    0 -0.29436608040E+02 -0.18451387524E+02  0.25793537238E+03  0.10276292181E+04  0.99412483417E+03 0.  0.
         23    2    4    4    0    0  0.25086320369E+03  0.29958837321E+03  0.40455479558E+03  0.56986848184E+03  0.91651315524E+02 0.  0.
         23    2    4    4    0    0 -0.28029981173E+03 -0.31803976073E+03 -0.14661942321E+03  0.45776073623E+03  0.91270819626E+02 0.  0.
          3    1    3    3  502    0  0.40110257976E+00  0.21618682674E+02  0.77842925154E+03  0.77872949603E+03  0.00000000000E+00 0. -1.
         -4    1    3    3    0  502  0.29035505460E+02 -0.31672951506E+01  0.10684460835E+03  0.11076489818E+03  0.00000000000E+00 0.  1.
         13    1    5    5    0    0  0.80850137373E+02  0.11053515357E+03  0.20555051948E+03  0.24699348361E+03  0.00000000000E+00 0.  1.
        -13    1    5    5    0    0  0.17001306631E+03  0.18905321964E+03  0.19900427611E+03  0.32287499823E+03  0.00000000000E+00 0. -1.
          4    1    6    6  503    0 -0.69237247699E+02 -0.12643246869E+03 -0.18860267879E+02  0.14537769881E+03  0.00000000000E+00 0. -1.
         -4    1    6    6    0  503 -0.21106256403E+03 -0.19160729204E+03 -0.12775915533E+03  0.31238303742E+03  0.00000000000E+00 0.  1.
<mgrwt>
<rscale>  0 0.15389723E+04</rscale>
<asrwt>0</asrwt>
<pdfrwt beam="1">  1        1 0.23541021E+00 0.15389723E+04</pdfrwt>
<pdfrwt beam="2">  1       -2 0.59531876E-01 0.15389723E+04</pdfrwt>
<totfact> 0.13891007E+01</totfact>
</mgrwt>
</event>
<event>
12    5  0.5264288E-008  0.1460640E+04  0.7818608E-02  0.8911057E-01
         -2   -1    0    0    0  501 -0.00000000000E+00  0.00000000000E+00  0.49297360770E+03  0.49297360770E+03  0.00000000000E+00 0.  1.
          1   -1    0    0  501    0  0.00000000000E+00 -0.00000000000E+00 -0.10819395896E+04  0.10819395896E+04  0.00000000000E+00 0. -1.
        -24    2    1    2    0    0 -0.14632262637E+03  0.19276827548E+03  0.22404351328E+03  0.33916685675E+03  0.79175386692E+02 0.  0.
        254    2    1    2    0    0  0.14632262637E+03 -0.19276827548E+03 -0.81300949520E+03  0.12357463406E+04  0.89861819474E+03 0.  0.
         23    2    4    4    0    0 -0.12938122708E+03  0.22518259531E+03  0.11797818192E+01  0.27543067131E+03  0.91727638465E+02 0.  0.
         23    2    4    4    0    0  0.27570385345E+03 -0.41795087080E+03 -0.81418927702E+03  0.96031566926E+03  0.92771011642E+02 0.  0.
          3    1    3    3  502    0 -0.12252331233E+03  0.16342738182E+03  0.14177246884E+03  0.24863608772E+03  0.00000000000E+00 0. -1.
         -2    1    3    3    0  502 -0.23799314039E+02  0.29340893659E+02  0.82271044438E+02  0.90530769037E+02  0.00000000000E+00 0.  1.
         13    1    5    5    0    0 -0.13989533321E+03  0.17716458757E+03  0.75438105614E+01  0.22586479235E+03  0.00000000000E+00 0.  1.
        -13    1    5    5    0    0  0.10514106132E+02  0.48018007741E+02 -0.63640287422E+01  0.49565878959E+02  0.00000000000E+00 0. -1.
          1    1    6    6  503    0  0.81953659332E+01 -0.23044934320E+02 -0.12516103806E+02  0.27475186534E+02  0.00000000000E+00 0. -1.
         -1    1    6    6    0  503  0.26750848751E+03 -0.39490593648E+03 -0.80167317321E+03  0.93284048272E+03  0.00000000000E+00 0.  1.
<mgrwt>
<rscale>  0 0.14606405E+04</rscale>
<asrwt>0</asrwt>
<pdfrwt beam="1">  1        1 0.16645224E+00 0.14606405E+04</pdfrwt>
<pdfrwt beam="2">  1       -2 0.75842095E-01 0.14606405E+04</pdfrwt>
<totfact> 0.17342366E+01</totfact>
</mgrwt>
</event>
<event>
12    5  0.5264288E-008  0.3960533E+04  0.7818608E-02  0.8012556E-01
         -2   -1    0    0    0  501 -0.00000000000E+00  0.00000000000E+00  0.10982271542E+04  0.10982271542E+04  0.00000000000E+00 0.  1.
          1   -1    0    0  501    0  0.00000000000E+00 -0.00000000000E+00 -0.35707144795E+04  0.35707144795E+04  0.00000000000E+00 0. -1.
        -24    2    1    2    0    0  0.11708652036E+04  0.60490540781E+03 -0.27405652859E+04  0.30422007131E+04  0.86320419454E+02 0.  0.
        254    2    1    2    0    0 -0.11708652036E+04 -0.60490540781E+03  0.26807796054E+03  0.16267409207E+04  0.91519634652E+03 0.  0.
         23    2    4    4    0    0 -0.11564176916E+04 -0.22287138941E+03  0.33239191068E+03  0.12270553344E+04  0.90591819251E+02 0.  0.
         23    2    4    4    0    0 -0.14447511939E+02 -0.38203401841E+03 -0.64313950137E+02  0.39968558624E+03  0.97229428899E+02 0.  0.
          1    1    3    3  502    0  0.37525256865E+03  0.15016235136E+03 -0.85867653206E+03  0.94904615733E+03  0.00000000000E+00 0. -1.
         -2    1    3    3    0  502  0.79561263491E+03  0.45474305646E+03 -0.18818887539E+04  0.20931545557E+04  0.00000000000E+00 0.  1.
         13    1    5    5    0    0 -0.47154584883E+03 -0.10507995670E+03  0.92504815208E+02  0.49188863139E+03  0.00000000000E+00 0.  1.
        -13    1    5    5    0    0 -0.68487184279E+03 -0.11779143270E+03  0.23988709547E+03  0.73516670302E+03  0.00000000000E+00 0. -1.
          1    1    6    6  503    0  0.82440652135E+01 -0.35216476458E+03 -0.38958771184E+02  0.35440904598E+03  0.00000000000E+00 0. -1.
         -1    1    6    6    0  503 -0.22691577152E+02 -0.29869253828E+02 -0.25355178952E+02  0.45276540256E+02  0.00000000000E+00 0.  1.
<mgrwt>
<rscale>  0 0.39605331E+04</rscale>
<asrwt>0</asrwt>
<pdfrwt beam="1">  1        1 0.54934069E+00 0.39605331E+04</pdfrwt>
<pdfrwt beam="2">  1       -2 0.16895802E+00 0.39605331E+04</pdfrwt>
<totfact> 0.32880755E-02</totfact>
</mgrwt>
</event>
<event>
12    5  0.5264288E-008  0.1429068E+04  0.7818608E-02  0.8933042E-01
         -2   -1    0    0    0  501 -0.00000000000E+00  0.00000000000E+00  0.32803975158E+03  0.32803975158E+03  0.00000000000E+00 0.  1.
          1   -1    0    0  501    0  0.00000000000E+00 -0.00000000000E+00 -0.15563939358E+04  0.15563939358E+04  0.00000000000E+00 0. -1.
        -24    2    1    2    0    0  0.16600245702E+02 -0.57458625435E+02 -0.92534847170E+03  0.93064214296E+03  0.79043926996E+02 0.  0.
        254    2    1    2    0    0 -0.16600245702E+02  0.57458625435E+02 -0.30300571256E+03  0.95379154445E+03  0.90240167698E+03 0.  0.
         23    2    4    4    0    0 -0.21869043781E+03 -0.78141001378E+02  0.24393512319E+03  0.34828011853E+03  0.88674533850E+02 0.  0.
         23    2    4    4    0    0  0.20209019211E+03  0.13559962681E+03 -0.54694083575E+03  0.60551142592E+03  0.90951110884E+02 0.  0.
          3    1    3    3  502    0  0.46105450859E+02 -0.32657496424E+02 -0.67293905014E+03  0.67530673762E+03  0.00000000000E+00 0. -1.
         -4    1    3    3    0  502 -0.29505205157E+02 -0.24801129011E+02 -0.25240942156E+03  0.25533540534E+03  0.00000000000E+00 0.  1.
         13    1    5    5    0    0 -0.19148855972E+03 -0.33521720436E+02  0.17341243214E+03  0.26050613402E+03  0.00000000000E+00 0. -1.
        -13    1    5    5    0    0 -0.27201878095E+02 -0.44619280942E+02  0.70522691051E+02  0.87773984510E+02  0.00000000000E+00 0.  1.
          4    1    6    6  503    0  0.20909998133E+03  0.13127531694E+03 -0.49755014567E+03  0.55543870813E+03  0.00000000000E+00 0. -1.
         -4    1    6    6    0  503 -0.70097892202E+01  0.43243098769E+01 -0.49390690072E+02  0.50072717787E+02  0.00000000000E+00 0.  1.
<mgrwt>
<rscale>  0 0.14290683E+04</rscale>
<asrwt>0</asrwt>
<pdfrwt beam="1">  1        1 0.23944522E+00 0.14290683E+04</pdfrwt>
<pdfrwt beam="2">  1       -2 0.50467655E-01 0.14290683E+04</pdfrwt>
<totfact> 0.18953288E+01</totfact>
</mgrwt>
</event>
<event>
12    5  0.5264288E-008  0.1624206E+04  0.7818608E-02  0.8805814E-01
          1   -1    0    0  501    0  0.00000000000E+00  0.00000000000E+00  0.61915798188E+03  0.61915798188E+03  0.00000000000E+00 0. -1.
         -2   -1    0    0    0  501 -0.00000000000E+00 -0.00000000000E+00 -0.10651747075E+04  0.10651747075E+04  0.00000000000E+00 0.  1.
        -24    2    1    2    0    0  0.47868506058E+03 -0.11284563242E+03 -0.41772612988E+03  0.65000610767E+03  0.78353662630E+02 0.  0.
        254    2    1    2    0    0 -0.47868506058E+03  0.11284563242E+03 -0.28290595711E+02  0.10343265817E+04  0.90948204809E+03 0.  0.
         23    2    4    4    0    0 -0.51889973939E+03  0.25895396169E+03 -0.33831096220E+03  0.67759327104E+03  0.91456219005E+02 0.  0.
         23    2    4    4    0    0  0.40214678808E+02 -0.14610832927E+03  0.31002036649E+03  0.35673331065E+03  0.90449781706E+02 0.  0.
          1    1    3    3  502    0  0.40418703485E+02 -0.20568558420E+02 -0.15210749701E+02  0.47834131050E+02  0.00000000000E+00 0. -1.
         -2    1    3    3    0  502  0.43826635710E+03 -0.92277074000E+02 -0.40251538018E+03  0.60217197662E+03  0.00000000000E+00 0.  1.
         13    1    5    5    0    0 -0.18880011359E+03  0.14284755766E+03 -0.12401505287E+03  0.26726511362E+03  0.00000000000E+00 0. -1.
        -13    1    5    5    0    0 -0.33009962580E+03  0.11610640402E+03 -0.21429590933E+03  0.41032815741E+03  0.00000000000E+00 0.  1.
          2    1    6    6  503    0 -0.15728017922E+02 -0.80695623042E+02  0.98066052893E+02  0.12796915588E+03  0.00000000000E+00 0. -1.
         -2    1    6    6    0  503  0.55942696730E+02 -0.65412706226E+02  0.21195431360E+03  0.22876415477E+03  0.00000000000E+00 0.  1.
<mgrwt>
<rscale>  0 0.16242062E+04</rscale>
<asrwt>0</asrwt>
<pdfrwt beam="1">  1        1 0.95255074E-01 0.16242062E+04</pdfrwt>
<pdfrwt beam="2">  1       -2 0.16387303E+00 0.16242062E+04</pdfrwt>
<totfact> 0.64649456E+00</totfact>
</mgrwt>
</event>
<event>
12    5  0.5264288E-008  0.1161900E+04  0.7818608E-02  0.9146875E-01
         -2   -1    0    0    0  501 -0.00000000000E+00  0.00000000000E+00  0.38759281812E+03  0.38759281812E+03  0.00000000000E+00 0.  1.
          1   -1    0    0  501    0  0.00000000000E+00 -0.00000000000E+00 -0.87076692055E+03  0.87076692055E+03  0.00000000000E+00 0. -1.
        -24    2    1    2    0    0 -0.44978753643E+02 -0.14702370668E+03  0.83936761710E+02  0.19231324110E+03  0.79372187376E+02 0.  0.
        254    2    1    2    0    0  0.44978753643E+02  0.14702370668E+03 -0.56711086414E+03  0.10660464976E+04  0.88949499390E+03 0.  0.
         23    2    4    4    0    0 -0.27811820549E+03  0.30005026015E+03 -0.55674152784E+03  0.69626086990E+03  0.86244856643E+02 0.  0.
         23    2    4    4    0    0  0.32309695914E+03 -0.15302655347E+03 -0.10369336302E+02  0.36978562768E+03  0.93942089774E+02 0.  0.
          3    1    3    3  502    0  0.16311755118E+02 -0.86556203042E+01 -0.15001284548E+01  0.18526831981E+02  0.00000000000E+00 0. -1.
         -4    1    3    3    0  502 -0.61290508761E+02 -0.13836808638E+03  0.85436890165E+02  0.17378640911E+03  0.00000000000E+00 0.  1.
         13    1    5    5    0    0 -0.96765386047E+01  0.14693117612E+01  0.65384999443E-01  0.97876734527E+01  0.00000000000E+00 0.  1.
        -13    1    5    5    0    0 -0.26844166689E+03  0.29858094839E+03 -0.55680691284E+03  0.68647319645E+03  0.00000000000E+00 0. -1.
          2    1    6    6  503    0  0.28748079521E+03 -0.15188162149E+03  0.15885373441E+02  0.32552354700E+03  0.00000000000E+00 0. -1.
         -2    1    6    6    0  503  0.35616163922E+02 -0.11449319739E+01 -0.26254709743E+02  0.44262080672E+02  0.00000000000E+00 0.  1.
<mgrwt>
<rscale>  0 0.11619002E+04</rscale>
<asrwt>0</asrwt>
<pdfrwt beam="1">  1        1 0.13396414E+00 0.11619002E+04</pdfrwt>
<pdfrwt beam="2">  1       -2 0.59629665E-01 0.11619002E+04</pdfrwt>
<totfact> 0.43911276E+01</totfact>
</mgrwt>
</event>
<event>
12    5  0.5264288E-008  0.1257808E+04  0.7818608E-02  0.9063710E-01
         -2   -1    0    0    0  501 -0.00000000000E+00  0.00000000000E+00  0.38910457027E+03  0.38910457027E+03  0.00000000000E+00 0.  1.
          1   -1    0    0  501    0  0.00000000000E+00 -0.00000000000E+00 -0.10164882088E+04  0.10164882088E+04  0.00000000000E+00 0. -1.
        -24    2    1    2    0    0 -0.18290190367E+03 -0.19221491377E+03 -0.34224304812E+02  0.27883819259E+03  0.78611418772E+02 0.  0.
        254    2    1    2    0    0  0.18290190367E+03  0.19221491377E+03 -0.59315933367E+03  0.11267545864E+04  0.92050976285E+03 0.  0.
         23    2    4    4    0    0 -0.16678185878E+03  0.45874249389E+03 -0.40377871108E+03  0.64005085683E+03  0.91471239706E+02 0.  0.
         23    2    4    4    0    0  0.34968376246E+03 -0.26652758012E+03 -0.18938062260E+03  0.48670372961E+03  0.87748592631E+02 0.  0.
          3    1    3    3  502    0 -0.83491463142E+02 -0.45124705046E+02 -0.35423973675E+02  0.10130114182E+03  0.00000000000E+00 0. -1.
         -4    1    3    3    0  502 -0.99410440532E+02 -0.14709020872E+03  0.11996688626E+01  0.17753705077E+03  0.00000000000E+00 0.  1.
         13    1    5    5    0    0 -0.46702729810E+02  0.44455556446E+02 -0.40751946611E+02  0.76276881315E+02  0.00000000000E+00 0.  1.
        -13    1    5    5    0    0 -0.12007912897E+03  0.41428693744E+03 -0.36302676446E+03  0.56377397552E+03  0.00000000000E+00 0. -1.
          3    1    6    6  503    0  0.31924801085E+03 -0.20517023420E+03 -0.15325504860E+03  0.40926913804E+03  0.00000000000E+00 0. -1.
         -3    1    6    6    0  503  0.30435751609E+02 -0.61357345925E+02 -0.36125573992E+02  0.77434591567E+02  0.00000000000E+00 0.  1.
<mgrwt>
<rscale>  0 0.12578079E+04</rscale>
<asrwt>0</asrwt>
<pdfrwt beam="1">  1        1 0.15638280E+00 0.12578079E+04</pdfrwt>
<pdfrwt beam="2">  1       -2 0.59862241E-01 0.12578079E+04</pdfrwt>
<totfact> 0.33034964E+01</totfact>
</mgrwt>
</event>
<event>
12    5  0.5264288E-008  0.3402590E+04  0.7818608E-02  0.8137271E-01
         -2   -1    0    0    0  501 -0.00000000000E+00  0.00000000000E+00  0.21409003133E+04  0.21409003133E+04  0.00000000000E+00 0.  1.
          1   -1    0    0  501    0  0.00000000000E+00 -0.00000000000E+00 -0.13519564419E+04  0.13519564419E+04  0.00000000000E+00 0. -1.
        -24    2    1    2    0    0 -0.60967162061E+03 -0.63828056344E+03 -0.98181421034E+03  0.13226540631E+04  0.79706112687E+02 0.  0.
        254    2    1    2    0    0  0.60967162061E+03  0.63828056344E+03  0.17707580817E+04  0.21702026921E+04  0.89168042391E+03 0.  0.
         23    2    4    4    0    0  0.35880688625E+03  0.64756534907E+03  0.56611355810E+03  0.93633951136E+03  0.90354064231E+02 0.  0.
         23    2    4    4    0    0  0.25086473436E+03 -0.92847856365E+01  0.12046445236E+04  0.12338631808E+04  0.90722645609E+02 0.  0.
          1    1    3    3  502    0 -0.54006126687E+03 -0.59811008842E+03 -0.89609491444E+03  0.12051505904E+04  0.00000000000E+00 0. -1.
         -2    1    3    3    0  502 -0.69610353734E+02 -0.40170475014E+02 -0.85719295896E+02  0.11750347271E+03  0.00000000000E+00 0.  1.
         13    1    5    5    0    0  0.24359470698E+03  0.50575773686E+03  0.39885198977E+03  0.68863065529E+03  0.00000000000E+00 0.  1.
        -13    1    5    5    0    0  0.11521217927E+03  0.14180761222E+03  0.16726156833E+03  0.24770885607E+03  0.00000000000E+00 0. -1.
          2    1    6    6  503    0  0.21136392238E+02 -0.24701134458E+02  0.90122168404E+02  0.95806567406E+02  0.00000000000E+00 0. -1.
         -2    1    6    6    0  503  0.22972834212E+03  0.15416348821E+02  0.11145223552E+04  0.11380566134E+04  0.00000000000E+00 0.  1.
<mgrwt>
<rscale>  0 0.34025896E+04</rscale>
<asrwt>0</asrwt>
<pdfrwt beam="1">  1        1 0.20799330E+00 0.34025896E+04</pdfrwt>
<pdfrwt beam="2">  1       -2 0.32936928E+00 0.34025896E+04</pdfrwt>
<totfact> 0.12563486E-01</totfact>
</mgrwt>
</event>
<event>
12    5  0.5264288E-008  0.2629892E+04  0.7818608E-02  0.8358118E-01
         -2   -1    0    0    0  501 -0.00000000000E+00  0.00000000000E+00  0.73158115880E+03  0.73158115880E+03  0.00000000000E+00 0.  1.
          1   -1    0    0  501    0  0.00000000000E+00 -0.00000000000E+00 -0.23634871539E+04  0.23634871539E+04  0.00000000000E+00 0. -1.
        -24    2    1    2    0    0 -0.93126512489E+03  0.59780264178E+03 -0.11134938426E+04  0.15718600106E+04  0.79073535494E+02 0.  0.
        254    2    1    2    0    0  0.93126512489E+03 -0.59780264178E+03 -0.51841215251E+03  0.15232083021E+04  0.90927973720E+03 0.  0.
         23    2    4    4    0    0 -0.74137378464E+02 -0.50626736776E+02 -0.33762856322E+03  0.36081073087E+03  0.90177155901E+02 0.  0.
         23    2    4    4    0    0  0.10054025034E+04 -0.54717590500E+03 -0.18078358928E+03  0.11623975713E+04  0.90828094561E+02 0.  0.
          1    1    3    3  502    0 -0.78213518649E+03  0.52447645547E+03 -0.91558460606E+03  0.13134329725E+04  0.00000000000E+00 0. -1.
         -2    1    3    3    0  502 -0.14912993840E+03  0.73326186304E+02 -0.19790923657E+03  0.25842703815E+03  0.00000000000E+00 0.  1.
         13    1    5    5    0    0 -0.55161442409E+02  0.93292810144E+00 -0.78659670289E+02  0.96078087061E+02  0.00000000000E+00 0.  1.
        -13    1    5    5    0    0 -0.18975936055E+02 -0.51559664878E+02 -0.25896889293E+03  0.26473264381E+03  0.00000000000E+00 0. -1.
          2    1    6    6  503    0  0.36873470287E+03 -0.16213914357E+03 -0.36141530367E+02  0.40442625186E+03  0.00000000000E+00 0. -1.
         -2    1    6    6    0  503  0.63666780048E+03 -0.38503676143E+03 -0.14464205892E+03  0.75797131940E+03  0.00000000000E+00 0.  1.
<mgrwt>
<rscale>  0 0.26298918E+04</rscale>
<asrwt>0</asrwt>
<pdfrwt beam="1">  1        1 0.36361341E+00 0.26298918E+04</pdfrwt>
<pdfrwt beam="2">  1       -2 0.11255095E+00 0.26298918E+04</pdfrwt>
<totfact> 0.80779927E-01</totfact>
</mgrwt>
</event>
<event>
12    5  0.5264288E-008  0.1382157E+04  0.7818608E-02  0.8966836E-01
          1   -1    0    0  501    0  0.00000000000E+00  0.00000000000E+00  0.88395222334E+03  0.88395222334E+03  0.00000000000E+00 0. -1.
         -2   -1    0    0    0  501 -0.00000000000E+00 -0.00000000000E+00 -0.54028898977E+03  0.54028898977E+03  0.00000000000E+00 0.  1.
        -24    2    1    2    0    0 -0.16394511258E+03 -0.32937442755E+03 -0.38290742971E+02  0.38165889764E+03  0.93977761676E+02 0.  0.
        254    2    1    2    0    0  0.16394511258E+03  0.32937442755E+03  0.38195397654E+03  0.10425823155E+04  0.89762103968E+03 0.  0.
         23    2    4    4    0    0  0.52331553070E+03  0.20596443846E+03  0.29883911621E+03  0.64350691326E+03  0.92281284469E+02 0.  0.
         23    2    4    4    0    0 -0.35937041812E+03  0.12340998909E+03  0.83114860332E+02  0.39907540221E+03  0.89308307653E+02 0.  0.
          1    1    3    3  502    0 -0.11231645371E+02 -0.20604861030E+02  0.21748135700E+02  0.31995180297E+02  0.00000000000E+00 0. -1.
         -2    1    3    3    0  502 -0.15271346721E+03 -0.30876956652E+03 -0.60038878671E+02  0.34966371734E+03  0.00000000000E+00 0.  1.
         13    1    5    5    0    0  0.29017555627E+03  0.66150816000E+02  0.16879108641E+03  0.34215232685E+03  0.00000000000E+00 0.  1.
        -13    1    5    5    0    0  0.23313997443E+03  0.13981362246E+03  0.13004802980E+03  0.30135458642E+03  0.00000000000E+00 0. -1.
          2    1    6    6  503    0 -0.20809994071E+03  0.26155418155E+02  0.32403012742E+02  0.21222546138E+03  0.00000000000E+00 0. -1.
         -2    1    6    6    0  503 -0.15127047741E+03  0.97254570935E+02  0.50711847590E+02  0.18684994083E+03  0.00000000000E+00 0.  1.
<mgrwt>
<rscale>  0 0.13821572E+04</rscale>
<asrwt>0</asrwt>
<pdfrwt beam="1">  1        1 0.13599265E+00 0.13821572E+04</pdfrwt>
<pdfrwt beam="2">  1       -2 0.83121383E-01 0.13821572E+04</pdfrwt>
<totfact> 0.20352219E+01</totfact>
</mgrwt>
</event>
<event>
12    5  0.5264288E-008  0.1151793E+04  0.7818608E-02  0.9156131E-01
          1   -1    0    0  501    0  0.00000000000E+00  0.00000000000E+00  0.98232710036E+03  0.98232710036E+03  0.00000000000E+00 0. -1.
         -2   -1    0    0    0  501 -0.00000000000E+00 -0.00000000000E+00 -0.33762364133E+03  0.33762364133E+03  0.00000000000E+00 0.  1.
        -24    2    1    2    0    0 -0.70129183245E+02  0.14673303334E+03 -0.33256068474E+02  0.18442349551E+03  0.80357788603E+02 0.  0.
        254    2    1    2    0    0  0.70129183245E+02 -0.14673303334E+03  0.67795952750E+03  0.11355272462E+04  0.89629477321E+03 0.  0.
         23    2    4    4    0    0  0.46993961438E+03 -0.12538115178E+03  0.31711309745E+03  0.58816695384E+03  0.93893421707E+02 0.  0.
         23    2    4    4    0    0 -0.39981043113E+03 -0.21351881564E+02  0.36084643005E+03  0.54736029234E+03  0.95335512065E+02 0.  0.
          3    1    3    3  502    0  0.99696917543E+01  0.11032832092E+02 -0.21856279793E+02  0.26435111197E+02  0.00000000000E+00 0. -1.
         -4    1    3    3    0  502 -0.80098875000E+02  0.13570020125E+03 -0.11399788681E+02  0.15798838431E+03  0.00000000000E+00 0.  1.
         13    1    5    5    0    0  0.46225679633E+03 -0.10715410232E+03  0.29615583591E+03  0.55934928850E+03  0.00000000000E+00 0. -1.
        -13    1    5    5    0    0  0.76828180478E+01 -0.18227049456E+02  0.20957261535E+02  0.28817665347E+02  0.00000000000E+00 0.  1.
          2    1    6    6  503    0 -0.21468578085E+03  0.35836391838E+02  0.18325179843E+03  0.28452671774E+03  0.00000000000E+00 0.  1.
         -2    1    6    6    0  503 -0.18512465028E+03 -0.57188273402E+02  0.17759463162E+03  0.26283357460E+03  0.00000000000E+00 0. -1.
<mgrwt>
<rscale>  0 0.11517931E+04</rscale>
<asrwt>0</asrwt>
<pdfrwt beam="1">  1        1 0.15112725E+00 0.11517931E+04</pdfrwt>
<pdfrwt beam="2">  1       -2 0.51942099E-01 0.11517931E+04</pdfrwt>
<totfact> 0.47594781E+01</totfact>
</mgrwt>
</event>
<event>
12    5  0.5264288E-008  0.1386667E+04  0.7818608E-02  0.8963527E-01
          1   -1    0    0  501    0  0.00000000000E+00  0.00000000000E+00  0.42991141225E+03  0.42991141225E+03  0.00000000000E+00 0. -1.
         -2   -1    0    0    0  501 -0.00000000000E+00 -0.00000000000E+00 -0.11181635352E+04  0.11181635352E+04  0.00000000000E+00 0.  1.
        -24    2    1    2    0    0  0.16858335386E+01  0.10678277455E+03 -0.62732660740E+03  0.64243279177E+03  0.88180590940E+02 0.  0.
        254    2    1    2    0    0 -0.16858335386E+01 -0.10678277455E+03 -0.60925515530E+02  0.90564215566E+03  0.89725714970E+03 0.  0.
         23    2    4    4    0    0  0.17710554872E+03 -0.29177544058E+03 -0.35760910460E+03  0.50266088173E+03  0.91018719028E+02 0.  0.
         23    2    4    4    0    0 -0.17879138225E+03  0.18499266603E+03  0.29668358907E+03  0.40298127393E+03  0.90466072436E+02 0.  0.
          3    1    3    3  502    0 -0.39911002380E+02  0.32084447576E+02 -0.18715090331E+03  0.19403030820E+03  0.00000000000E+00 0. -1.
         -4    1    3    3    0  502  0.41596835919E+02  0.74698326975E+02 -0.44017570408E+03  0.44840248358E+03  0.00000000000E+00 0.  1.
         13    1    5    5    0    0  0.16795811942E+03 -0.20069266922E+03 -0.26613712934E+03  0.37325118750E+03  0.00000000000E+00 0. -1.
        -13    1    5    5    0    0  0.91474292965E+01 -0.91082771364E+02 -0.91471975260E+02  0.12940969423E+03  0.00000000000E+00 0.  1.
          1    1    6    6  503    0 -0.16538839906E+03  0.15388217633E+03  0.29137950943E+03  0.36869372826E+03  0.00000000000E+00 0. -1.
         -1    1    6    6    0  503 -0.13402983192E+02  0.31110489699E+02  0.53040796383E+01  0.34287545677E+02  0.00000000000E+00 0.  1.
<mgrwt>
<rscale>  0 0.13866669E+04</rscale>
<asrwt>0</asrwt>
<pdfrwt beam="1">  1        1 0.66140218E-01 0.13866669E+04</pdfrwt>
<pdfrwt beam="2">  1       -2 0.17202516E+00 0.13866669E+04</pdfrwt>
<totfact> 0.95708693E+00</totfact>
</mgrwt>
</event>
<event>
12    5  0.5264288E-008  0.1222377E+04  0.7818608E-02  0.9093493E-01
         -2   -1    0    0    0  501 -0.00000000000E+00  0.00000000000E+00  0.12262802997E+04  0.12262802997E+04  0.00000000000E+00 0.  1.
          1   -1    0    0  501    0  0.00000000000E+00 -0.00000000000E+00 -0.30462139955E+03  0.30462139955E+03  0.00000000000E+00 0. -1.
        -24    2    1    2    0    0 -0.24669394871E+03  0.39653336274E+00  0.65886402533E+02  0.26894981784E+03  0.84468484715E+02 0.  0.
        254    2    1    2    0    0  0.24669394871E+03 -0.39653336274E+00  0.85577249759E+03  0.12619518814E+04  0.89404581634E+03 0.  0.
         23    2    4    4    0    0 -0.99358402955E+02  0.32344959080E+03  0.98886769468E+02  0.36438641211E+03  0.92234126707E+02 0.  0.
         23    2    4    4    0    0  0.34605235166E+03 -0.32384612416E+03  0.75688572812E+03  0.89756546926E+03  0.90106736450E+02 0.  0.
          3    1    3    3  502    0 -0.80836844568E+02  0.28301483071E+01 -0.18305083812E+02  0.82931786865E+02  0.00000000000E+00 0. -1.
         -4    1    3    3    0  502 -0.16585710414E+03 -0.24336149444E+01  0.84191486344E+02  0.18601803097E+03  0.00000000000E+00 0.  1.
         13    1    5    5    0    0 -0.58513542793E+02  0.10341516950E+03  0.72125703347E+02  0.13899873760E+03  0.00000000000E+00 0. -1.
        -13    1    5    5    0    0 -0.40844860162E+02  0.22003442131E+03  0.26761066120E+02  0.22538767451E+03  0.00000000000E+00 0.  1.
          3    1    6    6  503    0  0.65648096261E+02 -0.97877328770E+02  0.13749435165E+03  0.18109207814E+03  0.00000000000E+00 0. -1.
         -3    1    6    6    0  503  0.28040425540E+03 -0.22596879539E+03  0.61939137648E+03  0.71647339113E+03  0.00000000000E+00 0.  1.
<mgrwt>
<rscale>  0 0.12223767E+04</rscale>
<asrwt>0</asrwt>
<pdfrwt beam="1">  1        1 0.46864832E-01 0.12223767E+04</pdfrwt>
<pdfrwt beam="2">  1       -2 0.18865850E+00 0.12223767E+04</pdfrwt>
<totfact> 0.11718819E+01</totfact>
</mgrwt>
</event>
<event>
12    5  0.5264288E-008  0.1532665E+04  0.7818608E-02  0.8863017E-01
         -2   -1    0    0    0  501 -0.00000000000E+00  0.00000000000E+00  0.91599562749E+03  0.91599562749E+03  0.00000000000E+00 0.  1.
          1   -1    0    0  501    0  0.00000000000E+00 -0.00000000000E+00 -0.64112231100E+03  0.64112231100E+03  0.00000000000E+00 0. -1.
        -24    2    1    2    0    0 -0.19216623976E+03 -0.11976101376E+03  0.56693639570E+03  0.61570788908E+03  0.80054754905E+02 0.  0.
        254    2    1    2    0    0  0.19216623976E+03  0.11976101376E+03 -0.29206307922E+03  0.94141004940E+03  0.86584148362E+03 0.  0.
         23    2    4    4    0    0  0.23184323796E+03 -0.34184492867E+03 -0.14903348477E+03  0.44824142581E+03  0.90000855430E+02 0.  0.
         23    2    4    4    0    0 -0.39676998203E+02  0.46160594244E+03 -0.14302959444E+03  0.49316862360E+03  0.90019531967E+02 0.  0.
          3    1    3    3  502    0 -0.16053661794E+03 -0.80578097621E+02  0.35481696854E+03  0.39769324445E+03  0.00000000000E+00 0. -1.
         -4    1    3    3    0  502 -0.31629621816E+02 -0.39182916143E+02  0.21211942717E+03  0.21801464464E+03  0.00000000000E+00 0.  1.
         13    1    5    5    0    0  0.62171293483E+02 -0.33844761749E+02 -0.18622699044E+02  0.73195235848E+02  0.00000000000E+00 0. -1.
        -13    1    5    5    0    0  0.16967194448E+03 -0.30800016692E+03 -0.13041078573E+03  0.37504618996E+03  0.00000000000E+00 0.  1.
          3    1    6    6  503    0 -0.58945595327E+02  0.34865798578E+03 -0.13432247777E+03  0.37825851252E+03  0.00000000000E+00 0. -1.
         -3    1    6    6    0  503  0.19268597125E+02  0.11294795665E+03 -0.87071166726E+01  0.11491011108E+03  0.00000000000E+00 0.  1.
<mgrwt>
<rscale>  0 0.15326647E+04</rscale>
<asrwt>0</asrwt>
<pdfrwt beam="1">  1        1 0.98634201E-01 0.15326647E+04</pdfrwt>
<pdfrwt beam="2">  1       -2 0.14092240E+00 0.15326647E+04</pdfrwt>
<totfact> 0.92633525E+00</totfact>
</mgrwt>
</event>
<event>
12    5  0.5264288E-008  0.1377372E+04  0.7818608E-02  0.8970363E-01
         -2   -1    0    0    0  501 -0.00000000000E+00  0.00000000000E+00  0.46900088425E+03  0.46900088425E+03  0.00000000000E+00 0.  1.
          1   -1    0    0  501    0  0.00000000000E+00 -0.00000000000E+00 -0.10112742491E+04  0.10112742491E+04  0.00000000000E+00 0. -1.
        -24    2    1    2    0    0  0.13919953954E+01 -0.17383524569E+03  0.21565102423E+03  0.28811116993E+03  0.79259394958E+02 0.  0.
        254    2    1    2    0    0 -0.13919953954E+01  0.17383524569E+03 -0.75792438905E+03  0.11921639634E+04  0.90365087605E+03 0.  0.
         23    2    4    4    0    0  0.31726869470E+03  0.10547566261E+02 -0.75406610731E+03  0.82273698587E+03  0.86658974880E+02 0.  0.
         23    2    4    4    0    0 -0.31866069010E+03  0.16328767943E+03 -0.38582817387E+01  0.36942697752E+03  0.90850997318E+02 0.  0.
          3    1    3    3  502    0 -0.29958600779E+02 -0.28669118457E+02  0.60409440324E+02  0.73271662968E+02  0.00000000000E+00 0. -1.
         -4    1    3    3    0  502  0.31350596174E+02 -0.14516612723E+03  0.15524158391E+03  0.21483950696E+03  0.00000000000E+00 0.  1.
         13    1    5    5    0    0 -0.22107299612E+01  0.83918401445E+01 -0.31838887882E+02  0.33000380143E+02  0.00000000000E+00 0.  1.
        -13    1    5    5    0    0  0.31947942466E+03  0.21557261163E+01 -0.72222721943E+03  0.78973660573E+03  0.00000000000E+00 0. -1.
          2    1    6    6  503    0 -0.28781034884E+03  0.12773400748E+03 -0.28725866465E+02  0.31618973572E+03  0.00000000000E+00 0. -1.
         -2    1    6    6    0  503 -0.30850341255E+02  0.35553671950E+02  0.24867584727E+02  0.53237241803E+02  0.00000000000E+00 0.  1.
<mgrwt>
<rscale>  0 0.13773722E+04</rscale>
<asrwt>0</asrwt>
<pdfrwt beam="1">  1        1 0.15558065E+00 0.13773722E+04</pdfrwt>
<pdfrwt beam="2">  1       -2 0.72153982E-01 0.13773722E+04</pdfrwt>
<totfact> 0.22086093E+01</totfact>
</mgrwt>
</event>
<event>
12    5  0.5264288E-008  0.1784505E+04  0.7818608E-02  0.8714583E-01
          1   -1    0    0  501    0  0.00000000000E+00  0.00000000000E+00  0.18112475350E+04  0.18112475350E+04  0.00000000000E+00 0. -1.
         -2   -1    0    0    0  501 -0.00000000000E+00 -0.00000000000E+00 -0.43953955254E+03  0.43953955254E+03  0.00000000000E+00 0.  1.
        -24    2    1    2    0    0 -0.56084977683E+03  0.24303810797E+03  0.18115601930E+03  0.64224888786E+03  0.77756906584E+02 0.  0.
        254    2    1    2    0    0  0.56084977683E+03 -0.24303810797E+03  0.11905519632E+04  0.16085381997E+04  0.89239070410E+03 0.  0.
         23    2    4    4    0    0  0.47404429875E+03  0.25543409119E+03  0.45337198943E+03  0.70996777556E+03  0.92431106276E+02 0.  0.
         23    2    4    4    0    0  0.86805478082E+02 -0.49847219916E+03  0.73717997373E+03  0.89857042413E+03  0.89357535201E+02 0.  0.
          1    1    3    3  502    0 -0.11549748996E+03  0.39546963967E+02  0.60166913645E+01  0.12222861007E+03  0.00000000000E+00 0. -1.
         -2    1    3    3    0  502 -0.44535228687E+03  0.20349114400E+03  0.17513932794E+03  0.52002027778E+03  0.00000000000E+00 0.  1.
         13    1    5    5    0    0  0.42051227165E+03  0.19571773997E+03  0.40851016946E+03  0.61807488454E+03  0.00000000000E+00 0.  1.
        -13    1    5    5    0    0  0.53532027098E+02  0.59716351213E+02  0.44861819971E+02  0.91892891012E+02  0.00000000000E+00 0. -1.
          1    1    6    6  503    0  0.19894465523E+02 -0.24374242304E+02  0.75816353830E+02  0.82085400373E+02  0.00000000000E+00 0. -1.
         -1    1    6    6    0  503  0.66911012558E+02 -0.47409795685E+03  0.66136361990E+03  0.81648502376E+03  0.00000000000E+00 0.  1.
<mgrwt>
<rscale>  0 0.17845055E+04</rscale>
<asrwt>0</asrwt>
<pdfrwt beam="1">  1        1 0.27865346E+00 0.17845055E+04</pdfrwt>
<pdfrwt beam="2">  1       -2 0.67621471E-01 0.17845055E+04</pdfrwt>
<totfact> 0.66551500E+00</totfact>
</mgrwt>
</event>
<event>
12    5  0.5264288E-008  0.2757118E+04  0.7818608E-02  0.8316706E-01
         -2   -1    0    0    0  501 -0.00000000000E+00  0.00000000000E+00  0.13970984933E+04  0.13970984933E+04  0.00000000000E+00 0.  1.
          1   -1    0    0  501    0  0.00000000000E+00 -0.00000000000E+00 -0.13602658730E+04  0.13602658730E+04  0.00000000000E+00 0. -1.
        -24    2    1    2    0    0  0.10223586689E+04  0.52575222761E+03 -0.40414087733E+03  0.12207901606E+04  0.73253769538E+02 0.  0.
        254    2    1    2    0    0 -0.10223586689E+04 -0.52575222761E+03  0.44097349769E+03  0.15365742057E+04  0.91922250358E+03 0.  0.
         23    2    4    4    0    0 -0.29774458854E+03 -0.81117733786E+02 -0.27326112328E+03  0.42249688163E+03  0.92736437032E+02 0.  0.
         23    2    4    4    0    0 -0.72461408039E+03 -0.44463449383E+03  0.71423462097E+03  0.11140773240E+04  0.90949389958E+02 0.  0.
          3    1    3    3  502    0  0.39734193304E+03  0.21545407233E+03 -0.19547722537E+03  0.49245549512E+03  0.00000000000E+00 0. -1.
         -4    1    3    3    0  502  0.62501673588E+03  0.31029815529E+03 -0.20866365196E+03  0.72833466549E+03  0.00000000000E+00 0.  1.
         13    1    5    5    0    0 -0.30270728745E+03 -0.73208659637E+02 -0.25715969327E+03  0.40388403975E+03  0.00000000000E+00 0.  1.
        -13    1    5    5    0    0  0.49626989167E+01 -0.79090741487E+01 -0.16101430011E+02  0.18612841879E+02  0.00000000000E+00 0. -1.
          1    1    6    6  503    0 -0.13467327140E+03 -0.44924049581E+02  0.10561237526E+03  0.17694359007E+03  0.00000000000E+00 0. -1.
         -1    1    6    6    0  503 -0.58994080899E+03 -0.39971044425E+03  0.60862224572E+03  0.93713373397E+03  0.00000000000E+00 0.  1.
<mgrwt>
<rscale>  0 0.27571184E+04</rscale>
<asrwt>0</asrwt>
<pdfrwt beam="1">  1        1 0.20927167E+00 0.27571184E+04</pdfrwt>
<pdfrwt beam="2">  1       -2 0.21493823E+00 0.27571184E+04</pdfrwt>
<totfact> 0.66545950E-01</totfact>
</mgrwt>
</event>
<event>
12    5  0.5264288E-008  0.3888972E+04  0.7818608E-02  0.8027327E-01
          1   -1    0    0  501    0  0.00000000000E+00  0.00000000000E+00  0.22448868556E+04  0.22448868556E+04  0.00000000000E+00 0. -1.
         -2   -1    0    0    0  501 -0.00000000000E+00 -0.00000000000E+00 -0.16842838410E+04  0.16842838410E+04  0.00000000000E+00 0.  1.
        -24    2    1    2    0    0 -0.88595549582E+02 -0.16459962109E+04  0.10936224399E+04  0.19798076713E+04  0.80471587801E+02 0.  0.
        254    2    1    2    0    0  0.88595549582E+02  0.16459962109E+04 -0.53301942534E+03  0.19493630254E+04  0.89373027210E+03 0.  0.
         23    2    4    4    0    0  0.35881504229E+03  0.30965789689E+03 -0.28576218696E+03  0.56097755689E+03  0.91649027069E+02 0.  0.
         23    2    4    4    0    0 -0.27021949271E+03  0.13363383140E+04 -0.24725723838E+03  0.13883854685E+04  0.87518018002E+02 0.  0.
          1    1    3    3  502    0 -0.80578372207E+02 -0.12659166406E+04  0.80298666716E+03  0.15012745927E+04  0.00000000000E+00 0. -1.
         -2    1    3    3    0  502 -0.80171773748E+01 -0.38007957028E+03  0.29063577278E+03  0.47853307858E+03  0.00000000000E+00 0.  1.
         13    1    5    5    0    0  0.59077623273E+02  0.12491975572E+02 -0.42163734982E+02  0.73647780502E+02  0.00000000000E+00 0. -1.
        -13    1    5    5    0    0  0.29973741902E+03  0.29716592132E+03 -0.24359845198E+03  0.48732977639E+03  0.00000000000E+00 0.  1.
          2    1    6    6  503    0 -0.59985089895E+02  0.32017363490E+03 -0.21677251647E+02  0.32646480781E+03  0.00000000000E+00 0. -1.
         -2    1    6    6    0  503 -0.21023440281E+03  0.10161646791E+04 -0.22557998673E+03  0.10619206607E+04  0.00000000000E+00 0.  1.
<mgrwt>
<rscale>  0 0.38889724E+04</rscale>
<asrwt>0</asrwt>
<pdfrwt beam="1">  1        1 0.34536721E+00 0.38889724E+04</pdfrwt>
<pdfrwt beam="2">  1       -2 0.25912059E+00 0.38889724E+04</pdfrwt>
<totfact> 0.79659107E-02</totfact>
</mgrwt>
</event>
<event>
12    5  0.5264288E-008  0.1804507E+04  0.7818608E-02  0.8703906E-01
          1   -1    0    0  501    0  0.00000000000E+00  0.00000000000E+00  0.14354822034E+04  0.14354822034E+04  0.00000000000E+00 0. -1.
         -2   -1    0    0    0  501 -0.00000000000E+00 -0.00000000000E+00 -0.56709960718E+03  0.56709960718E+03  0.00000000000E+00 0.  1.
        -24    2    1    2    0    0  0.42310820718E+03 -0.29917601090E+03  0.77492783266E+03  0.93567220573E+03  0.80265124866E+02 0.  0.
        254    2    1    2    0    0 -0.42310820718E+03  0.29917601090E+03  0.93454763594E+02  0.10669096049E+04  0.92791997052E+03 0.  0.
         23    2    4    4    0    0 -0.25688626575E+03  0.26109257007E+03 -0.39202999325E+03  0.54435413199E+03  0.92054449823E+02 0.  0.
         23    2    4    4    0    0 -0.16622194143E+03  0.38083440829E+02  0.48548475684E+03  0.52255547290E+03  0.91042247631E+02 0.  0.
          3    1    3    3  502    0  0.38495521465E+03 -0.26791633965E+03  0.65154225988E+03  0.80279324782E+03  0.00000000000E+00 0. -1.
         -4    1    3    3    0  502  0.38152992526E+02 -0.31259671251E+02  0.12338557277E+03  0.13287895791E+03  0.00000000000E+00 0.  1.
         13    1    5    5    0    0 -0.89016275722E+02  0.11416016554E+03 -0.21672557831E+03  0.26062696912E+03  0.00000000000E+00 0. -1.
        -13    1    5    5    0    0 -0.16786999003E+03  0.14693240453E+03 -0.17530441493E+03  0.28372716286E+03  0.00000000000E+00 0.  1.
          4    1    6    6  503    0 -0.16625783997E+03  0.17715114180E+02  0.38052705577E+03  0.41563966942E+03  0.00000000000E+00 0. -1.
         -4    1    6    6    0  503  0.35898545609E-01  0.20368326649E+02  0.10495770107E+03  0.10691580348E+03  0.00000000000E+00 0.  1.
<mgrwt>
<rscale>  0 0.18045070E+04</rscale>
<asrwt>0</asrwt>
<pdfrwt beam="1">  1        1 0.22084342E+00 0.18045070E+04</pdfrwt>
<pdfrwt beam="2">  1       -2 0.87246094E-01 0.18045070E+04</pdfrwt>
<totfact> 0.68166017E+00</totfact>
</mgrwt>
</event>
<event>
12    5  0.5264288E-008  0.1340557E+04  0.7818608E-02  0.8998007E-01
          1   -1    0    0  501    0  0.00000000000E+00  0.00000000000E+00  0.11952218101E+04  0.11952218101E+04  0.00000000000E+00 0. -1.
         -2   -1    0    0    0  501 -0.00000000000E+00 -0.00000000000E+00 -0.37589111890E+03  0.37589111890E+03  0.00000000000E+00 0.  1.
        -24    2    1    2    0    0 -0.10566605269E+03 -0.32233854501E+03  0.34158070392E+03  0.48853908675E+03  0.83220248116E+02 0.  0.
        254    2    1    2    0    0  0.10566605269E+03  0.32233854501E+03  0.47774998725E+03  0.10825738422E+04  0.91030413667E+03 0.  0.
         23    2    4    4    0    0  0.40124688228E+03  0.43169338719E+03  0.46057535535E+03  0.75354195337E+03  0.91310330406E+02 0.  0.
         23    2    4    4    0    0 -0.29558082959E+03 -0.10935484218E+03  0.17174631896E+02  0.32903188885E+03  0.92954330555E+02 0.  0.
          1    1    3    3  502    0 -0.10614673771E+03 -0.32668878307E+03  0.34117830766E+03  0.48414391303E+03  0.00000000000E+00 0. -1.
         -2    1    3    3    0  502  0.48068501618E+00  0.43502380562E+01  0.40239626115E+00  0.43951737146E+01  0.00000000000E+00 0.  1.
         13    1    5    5    0    0  0.13565085203E+03  0.87233897262E+02  0.11689630970E+03  0.19918748382E+03  0.00000000000E+00 0. -1.
        -13    1    5    5    0    0  0.26559603025E+03  0.34445948993E+03  0.34367904565E+03  0.55435446955E+03  0.00000000000E+00 0.  1.
          4    1    6    6  503    0 -0.47792810034E+02  0.12234330502E+02 -0.13954983616E+02  0.51269611872E+02  0.00000000000E+00 0. -1.
         -4    1    6    6    0  503 -0.24778801955E+03 -0.12158917268E+03  0.31129615513E+02  0.27776227697E+03  0.00000000000E+00 0.  1.
<mgrwt>
<rscale>  0 0.13405570E+04</rscale>
<asrwt>0</asrwt>
<pdfrwt beam="1">  1        1 0.18388028E+00 0.13405570E+04</pdfrwt>
<pdfrwt beam="2">  1       -2 0.57829404E-01 0.13405570E+04</pdfrwt>
<totfact> 0.25904160E+01</totfact>
</mgrwt>
</event>
<event>
12    5  0.5264288E-008  0.1412019E+04  0.7818608E-02  0.8945164E-01
          1   -1    0    0  501    0  0.00000000000E+00  0.00000000000E+00  0.33009188366E+04  0.33009188366E+04  0.00000000000E+00 0. -1.
         -2   -1    0    0    0  501 -0.00000000000E+00 -0.00000000000E+00 -0.15100319089E+03  0.15100319089E+03  0.00000000000E+00 0.  1.
        -24    2    1    2    0    0  0.18523911479E+03  0.30676330071E+03  0.43363109832E+03  0.56828663090E+03  0.80600949887E+02 0.  0.
        254    2    1    2    0    0 -0.18523911479E+03 -0.30676330071E+03  0.27162845474E+04  0.28836353966E+04  0.89929645044E+03 0.  0.
         23    2    4    4    0    0 -0.40340476215E+03 -0.47387573720E+03  0.22366489854E+04  0.23233739385E+04  0.90411049031E+02 0.  0.
         23    2    4    4    0    0  0.21816564736E+03  0.16711243649E+03  0.47963556192E+03  0.56026145803E+03  0.91213008777E+02 0.  0.
          3    1    3    3  502    0  0.22461421215E+02  0.88707335640E+02  0.14624669626E+03  0.17251551526E+03  0.00000000000E+00 0. -1.
         -4    1    3    3    0  502  0.16277769358E+03  0.21805596507E+03  0.28738440206E+03  0.39577111564E+03  0.00000000000E+00 0.  1.
         13    1    5    5    0    0 -0.29023434235E+03 -0.29991721164E+03  0.13661693763E+04  0.14284974876E+04  0.00000000000E+00 0. -1.
        -13    1    5    5    0    0 -0.11317041981E+03 -0.17395852556E+03  0.87047960918E+03  0.89487645099E+03  0.00000000000E+00 0.  1.
          1    1    6    6  503    0  0.17044659676E+03  0.97677147101E+02  0.39327377937E+03  0.43961020570E+03  0.00000000000E+00 0. -1.
         -1    1    6    6    0  503  0.47719050606E+02  0.69435289388E+02  0.86361782551E+02  0.12065125233E+03  0.00000000000E+00 0.  1.
<mgrwt>
<rscale>  0 0.14120188E+04</rscale>
<asrwt>0</asrwt>
<pdfrwt beam="1">  1        1 0.50783361E+00 0.14120188E+04</pdfrwt>
<pdfrwt beam="2">  1       -2 0.23231263E-01 0.14120188E+04</pdfrwt>
<totfact> 0.50522693E+00</totfact>
</mgrwt>
</event>
<event>
12    5  0.5264288E-008  0.1209302E+04  0.7818608E-02  0.9104754E-01
          1   -1    0    0  501    0  0.00000000000E+00  0.00000000000E+00  0.31484196702E+04  0.31484196702E+04  0.00000000000E+00 0. -1.
         -2   -1    0    0    0  501 -0.00000000000E+00 -0.00000000000E+00 -0.11612255755E+03  0.11612255755E+03  0.00000000000E+00 0.  1.
        -24    2    1    2    0    0 -0.13548076466E+03  0.22038077850E+03  0.61095332965E+03  0.66750169514E+03  0.73292679652E+02 0.  0.
        254    2    1    2    0    0  0.13548076466E+03 -0.22038077850E+03  0.24213437830E+04  0.25970405326E+04  0.90265779086E+03 0.  0.
         23    2    4    4    0    0  0.10851457552E+03 -0.45165228163E+03  0.22346741534E+04  0.22842352019E+04  0.90535568816E+02 0.  0.
         23    2    4    4    0    0  0.26966189138E+02  0.23127150313E+03  0.18666962963E+03  0.31280533071E+03  0.93744017290E+02 0.  0.
          3    1    3    3  502    0 -0.10185425953E+03  0.21018376505E+03  0.53889335125E+03  0.58733086867E+03  0.00000000000E+00 0. -1.
         -4    1    3    3    0  502 -0.33626505134E+02  0.10197013449E+02  0.72059978394E+02  0.80170826470E+02  0.00000000000E+00 0.  1.
         13    1    5    5    0    0  0.37700215178E+02 -0.30714890100E+03  0.15851439543E+04  0.16150675247E+04  0.00000000000E+00 0. -1.
        -13    1    5    5    0    0  0.70814360347E+02 -0.14450338063E+03  0.64953019915E+03  0.66916767724E+03  0.00000000000E+00 0.  1.
          3    1    6    6  503    0  0.58085760224E+02  0.10679148427E+03  0.76058947634E+02  0.14339923350E+03  0.00000000000E+00 0. -1.
         -3    1    6    6    0  503 -0.31119571086E+02  0.12448001886E+03  0.11061068200E+03  0.16940609721E+03  0.00000000000E+00 0.  1.
<mgrwt>
<rscale>  0 0.12093015E+04</rscale>
<asrwt>0</asrwt>
<pdfrwt beam="1">  1        1 0.48437219E+00 0.12093015E+04</pdfrwt>
<pdfrwt beam="2">  1       -2 0.17865011E-01 0.12093015E+04</pdfrwt>
<totfact> 0.10662848E+01</totfact>
</mgrwt>
</event>
<event>
12    5  0.5264288E-008  0.2091640E+04  0.7818608E-02  0.8564935E-01
         -2   -1    0    0    0  501 -0.00000000000E+00  0.00000000000E+00  0.41933020616E+03  0.41933020616E+03  0.00000000000E+00 0.  1.
          1   -1    0    0  501    0  0.00000000000E+00 -0.00000000000E+00 -0.26083015591E+04  0.26083015591E+04  0.00000000000E+00 0. -1.
        -24    2    1    2    0    0 -0.41330168997E+03  0.38286941468E+03 -0.18115731309E+04  0.18990885330E+04  0.85631606700E+02 0.  0.
        254    2    1    2    0    0  0.41330168997E+03 -0.38286941468E+03 -0.37739822200E+03  0.11285432322E+04  0.90209374975E+03 0.  0.
         23    2    4    4    0    0  0.38062727767E+03 -0.65728406677E+03 -0.33101618932E+03  0.83355029408E+03  0.91295707655E+02 0.  0.
         23    2    4    4    0    0  0.32674412303E+02  0.27441465209E+03 -0.46382032686E+02  0.29499293812E+03  0.92187429084E+02 0.  0.
          1    1    3    3  502    0 -0.23760758244E+03  0.21794135951E+03 -0.89265377520E+03  0.94909776198E+03  0.00000000000E+00 0. -1.
         -2    1    3    3    0  502 -0.17569410753E+03  0.16492805517E+03 -0.91891935570E+03  0.94999077105E+03  0.00000000000E+00 0.  1.
         13    1    5    5    0    0  0.25283405820E+03 -0.43203666939E+03 -0.26453296020E+03  0.56617879836E+03  0.00000000000E+00 0. -1.
        -13    1    5    5    0    0  0.12779321947E+03 -0.22524739738E+03 -0.66483229119E+02  0.26737149572E+03  0.00000000000E+00 0.  1.
          1    1    6    6  503    0  0.32869385973E+02  0.15344900425E+03  0.18003583783E+02  0.15795924306E+03  0.00000000000E+00 0. -1.
         -1    1    6    6    0  503 -0.19497367055E+00  0.12096564784E+03 -0.64385616469E+02  0.13703369505E+03  0.00000000000E+00 0.  1.
<mgrwt>
<rscale>  0 0.20916402E+04</rscale>
<asrwt>0</asrwt>
<pdfrwt beam="1">  1        1 0.40127717E+00 0.20916402E+04</pdfrwt>
<pdfrwt beam="2">  1       -2 0.64512339E-01 0.20916402E+04</pdfrwt>
<totfact> 0.20436100E+00</totfact>
</mgrwt>
</event>
<event>
12    5  0.5264288E-008  0.2080927E+04  0.7818608E-02  0.8569692E-01
          1   -1    0    0  501    0  0.00000000000E+00  0.00000000000E+00  0.16278719931E+04  0.16278719931E+04  0.00000000000E+00 0. -1.
         -2   -1    0    0    0  501 -0.00000000000E+00 -0.00000000000E+00 -0.66501777764E+03  0.66501777764E+03  0.00000000000E+00 0.  1.
        -24    2    1    2    0    0 -0.47456745222E+03 -0.61802569434E+03  0.32360353358E+02  0.78392714776E+03  0.79527070575E+02 0.  0.
        254    2    1    2    0    0  0.47456745222E+03  0.61802569434E+03  0.93049386214E+03  0.15089626230E+04  0.89664895285E+03 0.  0.
         23    2    4    4    0    0 -0.17575774101E+03  0.29456513399E+03  0.61936760698E+03  0.71377142801E+03  0.90520810768E+02 0.  0.
         23    2    4    4    0    0  0.65032519323E+03  0.32346056035E+03  0.31112625516E+03  0.79519119502E+03  0.89330280033E+02 0.  0.
          3    1    3    3  502    0 -0.25840052360E+03 -0.28005289475E+03  0.35723353978E+02  0.38272263125E+03  0.00000000000E+00 0. -1.
         -4    1    3    3    0  502 -0.21616692862E+03 -0.33797279959E+03 -0.33630006199E+01  0.40120451651E+03  0.00000000000E+00 0.  1.
         13    1    5    5    0    0 -0.47637633678E+02  0.16412123214E+03  0.32636068720E+03  0.36839709707E+03  0.00000000000E+00 0. -1.
        -13    1    5    5    0    0 -0.12812010734E+03  0.13044390185E+03  0.29300691978E+03  0.34537433094E+03  0.00000000000E+00 0.  1.
          2    1    6    6  503    0  0.47229245527E+03  0.26476994883E+03  0.26144224145E+03  0.60126145288E+03  0.00000000000E+00 0.  1.
         -2    1    6    6    0  503  0.17803273796E+03  0.58690611523E+02  0.49684013715E+02  0.19392974214E+03  0.00000000000E+00 0. -1.
<mgrwt>
<rscale>  0 0.20809265E+04</rscale>
<asrwt>0</asrwt>
<pdfrwt beam="1">  1        1 0.25044184E+00 0.20809265E+04</pdfrwt>
<pdfrwt beam="2">  1       -2 0.10231043E+00 0.20809265E+04</pdfrwt>
<totfact> 0.33781098E+00</totfact>
</mgrwt>
</event>
<event>
12    5  0.5264288E-008  0.1240824E+04  0.7818608E-02  0.9077855E-01
         -2   -1    0    0    0  501 -0.00000000000E+00  0.00000000000E+00  0.25946239383E+03  0.25946239383E+03  0.00000000000E+00 0.  1.
          1   -1    0    0  501    0  0.00000000000E+00 -0.00000000000E+00 -0.14834950540E+04  0.14834950540E+04  0.00000000000E+00 0. -1.
        -24    2    1    2    0    0 -0.18766474334E+03  0.21186506834E+03 -0.27775435117E+03  0.40475611822E+03  0.81087437804E+02 0.  0.
        254    2    1    2    0    0  0.18766474334E+03 -0.21186506834E+03 -0.94627830894E+03  0.13382013296E+04  0.90290381403E+03 0.  0.
         23    2    4    4    0    0  0.29180526012E+02 -0.12954492077E+03 -0.10833427156E+04  0.10950952355E+04  0.89267831474E+02 0.  0.
         23    2    4    4    0    0  0.15848421733E+03 -0.82320147563E+02  0.13706440669E+03  0.24310609405E+03  0.91760926033E+02 0.  0.
          3    1    3    3  502    0 -0.72337371011E+02  0.39832120681E+02 -0.11379105032E+03  0.14059763944E+03  0.00000000000E+00 0. -1.
         -4    1    3    3    0  502 -0.11532737233E+03  0.17203294766E+03 -0.16396330085E+03  0.26415847879E+03  0.00000000000E+00 0.  1.
         13    1    5    5    0    0  0.35867024353E+02 -0.54243507123E+02 -0.77085881554E+03  0.77359686853E+03  0.00000000000E+00 0. -1.
        -13    1    5    5    0    0 -0.66864983412E+01 -0.75301413650E+02 -0.31248390009E+03  0.32149836699E+03  0.00000000000E+00 0.  1.
          1    1    6    6  503    0  0.15213223665E+03 -0.90341741383E+02  0.97048043020E+02  0.20180230503E+03  0.00000000000E+00 0. -1.
         -1    1    6    6    0  503  0.63519806836E+01  0.80215938199E+01  0.40016363665E+02  0.41303789015E+02  0.00000000000E+00 0.  1.
<mgrwt>
<rscale>  0 0.12408242E+04</rscale>
<asrwt>0</asrwt>
<pdfrwt beam="1">  1        1 0.22823001E+00 0.12408242E+04</pdfrwt>
<pdfrwt beam="2">  1       -2 0.39917291E-01 0.12408242E+04</pdfrwt>
<totfact> 0.34532012E+01</totfact>
</mgrwt>
</event>
<event>
12    5  0.5264288E-008  0.1878631E+04  0.7818608E-02  0.8665567E-01
         -2   -1    0    0    0  501 -0.00000000000E+00  0.00000000000E+00  0.42136595239E+03  0.42136595239E+03  0.00000000000E+00 0.  1.
          1   -1    0    0  501    0  0.00000000000E+00 -0.00000000000E+00 -0.20939356423E+04  0.20939356423E+04  0.00000000000E+00 0. -1.
        -24    2    1    2    0    0 -0.33216685438E+02 -0.60055411605E+03 -0.11790322937E+04  0.13260817909E+04  0.81284513512E+02 0.  0.
        254    2    1    2    0    0  0.33216685438E+02  0.60055411605E+03 -0.49353739621E+03  0.11892198038E+04  0.89938644960E+03 0.  0.
         23    2    4    4    0    0 -0.10350759651E+03  0.49064856908E+03 -0.72391989005E+03  0.88551473424E+03  0.92878934442E+02 0.  0.
         23    2    4    4    0    0  0.13672428194E+03  0.10990554696E+03  0.23038249384E+03  0.30370506953E+03  0.91585573454E+02 0.  0.
          1    1    3    3  502    0 -0.28736927546E+01 -0.26246788633E+03 -0.59971916784E+03  0.65464549929E+03  0.00000000000E+00 0. -1.
         -2    1    3    3    0  502 -0.30342992683E+02 -0.33808622972E+03 -0.57931312586E+03  0.67143629164E+03  0.00000000000E+00 0.  1.
         13    1    5    5    0    0 -0.28285667982E+02  0.23988264447E+02 -0.46391266714E+02  0.59394153514E+02  0.00000000000E+00 0.  1.
        -13    1    5    5    0    0 -0.75221928524E+02  0.46666030464E+03 -0.67752862334E+03  0.82612058073E+03  0.00000000000E+00 0. -1.
          3    1    6    6  503    0  0.52145047136E+01  0.35420962217E+02  0.92246506432E+02  0.98950763376E+02  0.00000000000E+00 0. -1.
         -3    1    6    6    0  503  0.13150977723E+03  0.74484584745E+02  0.13813598741E+03  0.20475430615E+03  0.00000000000E+00 0.  1.
<mgrwt>
<rscale>  0 0.18786306E+04</rscale>
<asrwt>0</asrwt>
<pdfrwt beam="1">  1        1 0.32214394E+00 0.18786306E+04</pdfrwt>
<pdfrwt beam="2">  1       -2 0.64825531E-01 0.18786306E+04</pdfrwt>
<totfact> 0.46507380E+00</totfact>
</mgrwt>
</event>
<event>
12    5  0.5264288E-008  0.2002694E+04  0.7818608E-02  0.8605362E-01
          1   -1    0    0  501    0  0.00000000000E+00  0.00000000000E+00  0.10725530069E+04  0.10725530069E+04  0.00000000000E+00 0. -1.
         -2   -1    0    0    0  501 -0.00000000000E+00 -0.00000000000E+00 -0.93486798805E+03  0.93486798805E+03  0.00000000000E+00 0.  1.
        -24    2    1    2    0    0 -0.59610252986E+03 -0.81070885895E+02  0.56522308971E+03  0.82940561378E+03  0.80782525304E+02 0.  0.
        254    2    1    2    0    0  0.59610252986E+03  0.81070885895E+02 -0.42753807082E+03  0.11780153812E+04  0.91816159891E+03 0.  0.
         23    2    4    4    0    0  0.31188534831E+03  0.22325219708E+03  0.21940905570E+03  0.45124525393E+03  0.91476398460E+02 0.  0.
         23    2    4    4    0    0  0.28421718155E+03 -0.14218131119E+03 -0.64694712652E+03  0.72677012727E+03  0.93055369813E+02 0.  0.
          3    1    3    3  502    0 -0.59133778010E+03 -0.77979046002E+02  0.56749020608E+03  0.82328988563E+03  0.00000000000E+00 0. -1.
         -4    1    3    3    0  502 -0.47647497578E+01 -0.30918398935E+01 -0.22671163712E+01  0.61157281514E+01  0.00000000000E+00 0.  1.
         13    1    5    5    0    0  0.11186520698E+02 -0.55196310500E-02 -0.73906866328E+01  0.13407480177E+02  0.00000000000E+00 0.  1.
        -13    1    5    5    0    0  0.30069882761E+03  0.22325771671E+03  0.22679974234E+03  0.43783777375E+03  0.00000000000E+00 0. -1.
          2    1    6    6  503    0  0.22879765384E+03 -0.14389432307E+03 -0.48012923783E+03  0.55097915354E+03  0.00000000000E+00 0. -1.
         -2    1    6    6    0  503  0.55419527706E+02  0.17130118794E+01 -0.16681788869E+03  0.17579097374E+03  0.00000000000E+00 0.  1.
<mgrwt>
<rscale>  0 0.20026937E+04</rscale>
<asrwt>0</asrwt>
<pdfrwt beam="1">  1        1 0.16500816E+00 0.20026937E+04</pdfrwt>
<pdfrwt beam="2">  1       -2 0.14382584E+00 0.20026937E+04</pdfrwt>
<totfact> 0.36206064E+00</totfact>
</mgrwt>
</event>
<event>
12    5  0.5264288E-008  0.2390570E+04  0.7818608E-02  0.8443043E-01
          1   -1    0    0  501    0  0.00000000000E+00  0.00000000000E+00  0.20851557785E+04  0.20851557785E+04  0.00000000000E+00 0. -1.
         -2   -1    0    0    0  501 -0.00000000000E+00 -0.00000000000E+00 -0.68517952931E+03  0.68517952931E+03  0.00000000000E+00 0.  1.
        -24    2    1    2    0    0 -0.62311547744E+03 -0.80703827874E+03  0.73647506975E+03  0.12602745899E+04  0.79453332316E+02 0.  0.
        254    2    1    2    0    0  0.62311547744E+03  0.80703827874E+03  0.66350117944E+03  0.15100607179E+04  0.89468758518E+03 0.  0.
         23    2    4    4    0    0  0.38775065494E+03  0.54998665973E+03 -0.80089405956E+02  0.68393050767E+03  0.92253618305E+02 0.  0.
         23    2    4    4    0    0  0.23536482250E+03  0.25705161900E+03  0.74359058539E+03  0.82613021023E+03  0.89955717263E+02 0.  0.
          1    1    3    3  502    0 -0.38234088807E+03 -0.45454758407E+03  0.46564895408E+03  0.75473638398E+03  0.00000000000E+00 0. -1.
         -2    1    3    3    0  502 -0.24077458936E+03 -0.35249069467E+03  0.27082611567E+03  0.50553820592E+03  0.00000000000E+00 0.  1.
         13    1    5    5    0    0  0.28891924204E+03  0.46749163656E+03 -0.78807222492E+02  0.55518765926E+03  0.00000000000E+00 0. -1.
        -13    1    5    5    0    0  0.98831412897E+02  0.82495023170E+02 -0.12821834641E+01  0.12874284841E+03  0.00000000000E+00 0.  1.
          3    1    6    6  503    0  0.23324095139E+03  0.21587851783E+03  0.63797706091E+03  0.71275494114E+03  0.00000000000E+00 0. -1.
         -3    1    6    6    0  503  0.21238711106E+01  0.41173101178E+02  0.10561352448E+03  0.11337526909E+03  0.00000000000E+00 0.  1.
<mgrwt>
<rscale>  0 0.23905699E+04</rscale>
<asrwt>0</asrwt>
<pdfrwt beam="1">  1        1 0.32079319E+00 0.23905699E+04</pdfrwt>
<pdfrwt beam="2">  1       -2 0.10541224E+00 0.23905699E+04</pdfrwt>
<totfact> 0.14967464E+00</totfact>
</mgrwt>
</event>
<event>
12    5  0.9328855E-008  0.2540811E+04  0.7818608E-02  0.8388589E-01
         -2   -1    0    0    0  501 -0.00000000000E+00  0.00000000000E+00  0.86254957721E+03  0.86254957721E+03  0.00000000000E+00 0.  1.
          1   -1    0    0  501    0  0.00000000000E+00 -0.00000000000E+00 -0.18711159793E+04  0.18711159793E+04  0.00000000000E+00 0. -1.
        -24    2    1    2    0    0 -0.28154820040E+03  0.18250332337E+03 -0.15806211648E+04  0.16177739510E+04  0.79072359344E+02 0.  0.
        254    2    1    2    0    0  0.28154820040E+03 -0.18250332337E+03  0.57205476267E+03  0.11158916055E+04  0.89743555283E+03 0.  0.
         23    2    4    4    0    0  0.22837862901E+03 -0.89478010732E+02 -0.20127054314E+03  0.32979595986E+03  0.89957940206E+02 0.  0.
         23    2    4    4    0    0  0.53169571383E+02 -0.93025312642E+02  0.77332530581E+03  0.78609564562E+03  0.91834761060E+02 0.  0.
          3    1    3    3  502    0 -0.23069333774E+03  0.13257578092E+03 -0.13646775784E+04  0.13903742829E+04  0.00000000000E+00 0. -1.
         -2    1    3    3    0  502 -0.50854862651E+02  0.49927542456E+02 -0.21594358641E+03  0.22739966812E+03  0.00000000000E+00 0.  1.
         13    1    5    5    0    0  0.22765444208E+03 -0.65697398478E+02 -0.17655542743E+03  0.29549029107E+03  0.00000000000E+00 0.  1.
        -13    1    5    5    0    0  0.72418693648E+00 -0.23780612254E+02 -0.24715115715E+02  0.34305668784E+02  0.00000000000E+00 0. -1.
          2    1    6    6  503    0  0.22871717168E+02 -0.94635121546E+02  0.70004245146E+03  0.70678027387E+03  0.00000000000E+00 0.  1.
         -2    1    6    6    0  503  0.30297854215E+02  0.16098089040E+01  0.73282854348E+02  0.79315371751E+02  0.00000000000E+00 0. -1.
<mgrwt>
<rscale>  0 0.25408111E+04</rscale>
<asrwt>0</asrwt>
<pdfrwt beam="1">  1        1 0.28786399E+00 0.25408111E+04</pdfrwt>
<pdfrwt beam="2">  1       -2 0.13269994E+00 0.25408111E+04</pdfrwt>
<totfact> 0.11687120E+00</totfact>
</mgrwt>
</event>
<event>
12    5  0.5264288E-008  0.1557666E+04  0.7818608E-02  0.8846986E-01
          1   -1    0    0  501    0  0.00000000000E+00  0.00000000000E+00  0.65191019449E+03  0.65191019449E+03  0.00000000000E+00 0. -1.
         -2   -1    0    0    0  501 -0.00000000000E+00 -0.00000000000E+00 -0.93046661204E+03  0.93046661204E+03  0.00000000000E+00 0.  1.
        -24    2    1    2    0    0 -0.30452495227E+03  0.71225168900E+02 -0.51455011505E+03  0.60711687771E+03  0.77592596657E+02 0.  0.
        254    2    1    2    0    0  0.30452495227E+03 -0.71225168900E+02  0.23599369751E+03  0.97525992882E+03  0.89310158004E+03 0.  0.
         23    2    4    4    0    0  0.54994197152E+03  0.17807029297E+03  0.13780854236E+03  0.60133956846E+03  0.92048253467E+02 0.  0.
         23    2    4    4    0    0 -0.24541701925E+03 -0.24929546187E+03  0.98185155148E+02  0.37392036037E+03  0.88308383298E+02 0.  0.
          3    1    3    3  502    0 -0.12126411132E+03  0.22875691555E+02 -0.13517011643E+03  0.18302798238E+03  0.00000000000E+00 0. -1.
         -4    1    3    3    0  502 -0.18326084095E+03  0.48349477345E+02 -0.37937999862E+03  0.42408889532E+03  0.00000000000E+00 0.  1.
         13    1    5    5    0    0  0.21556840203E+03  0.54918574925E+02  0.96538600751E+01  0.22266338460E+03  0.00000000000E+00 0.  1.
        -13    1    5    5    0    0  0.33437356949E+03  0.12315171804E+03  0.12815468229E+03  0.37867618386E+03  0.00000000000E+00 0. -1.
          1    1    6    6  503    0 -0.22589330234E+03 -0.20295890577E+03  0.57125557640E+02  0.30900393332E+03  0.00000000000E+00 0. -1.
         -1    1    6    6    0  503 -0.19523716914E+02 -0.46336556094E+02  0.41059597508E+02  0.64916427045E+02  0.00000000000E+00 0.  1.
<mgrwt>
<rscale>  0 0.15576658E+04</rscale>
<asrwt>0</asrwt>
<pdfrwt beam="1">  1        1 0.10029388E+00 0.15576658E+04</pdfrwt>
<pdfrwt beam="2">  1       -2 0.14314871E+00 0.15576658E+04</pdfrwt>
<totfact> 0.86575024E+00</totfact>
</mgrwt>
</event>
<event>
12    5  0.5264288E-008  0.1773873E+04  0.7818608E-02  0.8720318E-01
         -2   -1    0    0    0  501 -0.00000000000E+00  0.00000000000E+00  0.45325268220E+03  0.45325268220E+03  0.00000000000E+00 0.  1.
          1   -1    0    0  501    0  0.00000000000E+00 -0.00000000000E+00 -0.17355798495E+04  0.17355798495E+04  0.00000000000E+00 0. -1.
        -24    2    1    2    0    0  0.13511134183E+03  0.63737443644E+03 -0.61921353615E+03  0.90232041463E+03  0.79091594889E+02 0.  0.
        254    2    1    2    0    0 -0.13511134183E+03 -0.63737443644E+03 -0.66311363111E+03  0.12865121170E+04  0.88932136632E+03 0.  0.
         23    2    4    4    0    0 -0.42639298230E+03 -0.53649042540E+03 -0.19493063188E+03  0.71896192525E+03  0.96308601982E+02 0.  0.
         23    2    4    4    0    0  0.29128164046E+03 -0.10088401104E+03 -0.46818299923E+03  0.56755019178E+03  0.88855622646E+02 0.  0.
          1    1    3    3  502    0  0.11274157610E+03  0.53347060222E+03 -0.47475787795E+03  0.72297758547E+03  0.00000000000E+00 0. -1.
         -2    1    3    3    0  502  0.22369765735E+02  0.10390383422E+03 -0.14445565820E+03  0.17934282916E+03  0.00000000000E+00 0.  1.
         13    1    5    5    0    0 -0.30238708501E+03 -0.43792075098E+03 -0.13045085722E+03  0.54793244061E+03  0.00000000000E+00 0. -1.
        -13    1    5    5    0    0 -0.12400589728E+03 -0.98569674419E+02 -0.64479774660E+02  0.17102948464E+03  0.00000000000E+00 0.  1.
          4    1    6    6  503    0  0.24368290819E+03 -0.60710873852E+02 -0.41767281875E+03  0.48735793157E+03  0.00000000000E+00 0. -1.
         -4    1    6    6    0  503  0.47598732273E+02 -0.40173137190E+02 -0.50510180478E+02  0.80192260210E+02  0.00000000000E+00 0.  1.
<mgrwt>
<rscale>  0 0.17738728E+04</rscale>
<asrwt>0</asrwt>
<pdfrwt beam="1">  1        1 0.26701229E+00 0.17738728E+04</pdfrwt>
<pdfrwt beam="2">  1       -2 0.69731181E-01 0.17738728E+04</pdfrwt>
<totfact> 0.70137786E+00</totfact>
</mgrwt>
</event>
<event>
12    5  0.5264288E-008  0.1177838E+04  0.7818608E-02  0.9132479E-01
         -2   -1    0    0    0  501 -0.00000000000E+00  0.00000000000E+00  0.35517207944E+03  0.35517207944E+03  0.00000000000E+00 0.  1.
          1   -1    0    0  501    0  0.00000000000E+00 -0.00000000000E+00 -0.97650045879E+03  0.97650045879E+03  0.00000000000E+00 0. -1.
        -24    2    1    2    0    0 -0.21353198822E+03 -0.90405826440E+02 -0.19738896058E+03  0.31466463283E+03  0.79260998905E+02 0.  0.
        254    2    1    2    0    0  0.21353198822E+03  0.90405826440E+02 -0.42393941877E+03  0.10170079054E+04  0.89488062077E+03 0.  0.
         23    2    4    4    0    0  0.24514891314E+03  0.46860468808E+02  0.23216915459E+03  0.35237884353E+03  0.89299719339E+02 0.  0.
         23    2    4    4    0    0 -0.31616924921E+02  0.43545357632E+02 -0.65610857335E+03  0.66462906188E+03  0.91419372950E+02 0.  0.
          1    1    3    3  502    0 -0.45957473721E+02  0.10083183750E+01 -0.74825015061E+02  0.87817361471E+02  0.00000000000E+00 0. -1.
         -2    1    3    3    0  502 -0.16757451450E+03 -0.91414144815E+02 -0.12256394552E+03  0.22684727136E+03  0.00000000000E+00 0.  1.
         13    1    5    5    0    0  0.19410152758E+03  0.44132337068E+02  0.22556053584E+03  0.30083321212E+03  0.00000000000E+00 0. -1.
        -13    1    5    5    0    0  0.51047385566E+02  0.27281317407E+01  0.66086187408E+01  0.51545631411E+02  0.00000000000E+00 0.  1.
          3    1    6    6  503    0  0.27038845152E+02  0.10644138974E+02 -0.35077560272E+03  0.35197715879E+03  0.00000000000E+00 0. -1.
         -3    1    6    6    0  503 -0.58655770073E+02  0.32901218658E+02 -0.30533297063E+03  0.31265190309E+03  0.00000000000E+00 0.  1.
<mgrwt>
<rscale>  0 0.11778382E+04</rscale>
<asrwt>0</asrwt>
<pdfrwt beam="1">  1        1 0.15023084E+00 0.11778382E+04</pdfrwt>
<pdfrwt beam="2">  1       -2 0.54641859E-01 0.11778382E+04</pdfrwt>
<totfact> 0.43239061E+01</totfact>
</mgrwt>
</event>
<event>
12    5  0.5264288E-008  0.1802366E+04  0.7818608E-02  0.8705042E-01
          1   -1    0    0  501    0  0.00000000000E+00  0.00000000000E+00  0.20991467549E+04  0.20991467549E+04  0.00000000000E+00 0. -1.
         -2   -1    0    0    0  501 -0.00000000000E+00 -0.00000000000E+00 -0.38688620849E+03  0.38688620849E+03  0.00000000000E+00 0.  1.
        -24    2    1    2    0    0 -0.16704860592E+03 -0.47502264057E+03  0.88870079688E+02  0.51758309448E+03  0.80265950679E+02 0.  0.
        254    2    1    2    0    0  0.16704860592E+03  0.47502264057E+03  0.16233904667E+04  0.19684498689E+04  0.99289804772E+03 0.  0.
         23    2    4    4    0    0 -0.27579243004E+03  0.40143929727E+03  0.32752854114E+03  0.59462686617E+03  0.95347736482E+02 0.  0.
         23    2    4    4    0    0  0.44284103596E+03  0.73583343304E+02  0.12958619256E+04  0.13738230027E+04  0.81294656277E+02 0.  0.
          3    1    3    3  502    0 -0.40439972954E+02 -0.18615385670E+03  0.65018703087E+02  0.20128606888E+03  0.00000000000E+00 0. -1.
         -4    1    3    3    0  502 -0.12660863297E+03 -0.28886878387E+03  0.23851376601E+02  0.31629702560E+03  0.00000000000E+00 0.  1.
         13    1    5    5    0    0 -0.28321033885E+03  0.38273707283E+03  0.31583611190E+03  0.57135646713E+03  0.00000000000E+00 0.  1.
        -13    1    5    5    0    0  0.74179088106E+01  0.18702224432E+02  0.11692429242E+02  0.23270399038E+02  0.00000000000E+00 0. -1.
          1    1    6    6  503    0  0.12154963884E+03  0.51905890842E+02  0.43826001614E+03  0.45775580603E+03  0.00000000000E+00 0. -1.
         -1    1    6    6    0  503  0.32129139712E+03  0.21677452462E+02  0.85760190941E+03  0.91606719668E+03  0.00000000000E+00 0.  1.
<mgrwt>
<rscale>  0 0.18023661E+04</rscale>
<asrwt>0</asrwt>
<pdfrwt beam="1">  1        1 0.32294565E+00 0.18023661E+04</pdfrwt>
<pdfrwt beam="2">  1       -2 0.59520956E-01 0.18023661E+04</pdfrwt>
<totfact> 0.55702569E+00</totfact>
</mgrwt>
</event>
<event>
12    5  0.5264288E-008  0.1282142E+04  0.7818608E-02  0.9043847E-01
         -2   -1    0    0    0  501 -0.00000000000E+00  0.00000000000E+00  0.22327648455E+03  0.22327648455E+03  0.00000000000E+00 0.  1.
          1   -1    0    0  501    0  0.00000000000E+00 -0.00000000000E+00 -0.18406430826E+04  0.18406430826E+04  0.00000000000E+00 0. -1.
        -24    2    1    2    0    0 -0.87678833192E+02  0.20384700071E+03 -0.78236459000E+03  0.81677516830E+03  0.76066723234E+02 0.  0.
        254    2    1    2    0    0  0.87678833192E+02 -0.20384700071E+03 -0.83500200808E+03  0.12471443989E+04  0.89938847039E+03 0.  0.
         23    2    4    4    0    0  0.21248995441E+03  0.92708379808E+02 -0.87520274300E+03  0.91003268611E+03  0.91830409062E+02 0.  0.
         23    2    4    4    0    0 -0.12481112122E+03 -0.29655538052E+03  0.40200734915E+02  0.33711171277E+03  0.92224173087E+02 0.  0.
          1    1    3    3  502    0 -0.29278874076E+02  0.17110502182E+02 -0.18803642581E+03  0.19106993271E+03  0.00000000000E+00 0. -1.
         -2    1    3    3    0  502 -0.58399959116E+02  0.18673649853E+03 -0.59432816418E+03  0.62570523559E+03  0.00000000000E+00 0.  1.
         13    1    5    5    0    0  0.70321951957E+02  0.34480286249E+02 -0.15543753901E+03  0.17405428923E+03  0.00000000000E+00 0. -1.
        -13    1    5    5    0    0  0.14216800246E+03  0.58228093559E+02 -0.71976520399E+03  0.73597839688E+03  0.00000000000E+00 0.  1.
          2    1    6    6  503    0 -0.30474167450E+02 -0.18980975891E+03  0.24264107388E+02  0.19376575128E+03  0.00000000000E+00 0. -1.
         -2    1    6    6    0  503 -0.94336953770E+02 -0.10674562161E+03  0.15936627527E+02  0.14334596149E+03  0.00000000000E+00 0.  1.
<mgrwt>
<rscale>  0 0.12821425E+04</rscale>
<asrwt>0</asrwt>
<pdfrwt beam="1">  1        1 0.28317586E+00 0.12821425E+04</pdfrwt>
<pdfrwt beam="2">  1       -2 0.34350228E-01 0.12821425E+04</pdfrwt>
<totfact> 0.26232247E+01</totfact>
</mgrwt>
</event>
<event>
12    5  0.5264288E-008  0.1066668E+04  0.7818608E-02  0.9238303E-01
          1   -1    0    0  501    0  0.00000000000E+00  0.00000000000E+00  0.32563861619E+04  0.32563861619E+04  0.00000000000E+00 0. -1.
         -2   -1    0    0    0  501 -0.00000000000E+00 -0.00000000000E+00 -0.87349884917E+02  0.87349884917E+02  0.00000000000E+00 0.  1.
        -24    2    1    2    0    0  0.40329077186E+01  0.13167131689E+03  0.38298858493E+03  0.41315788428E+03  0.81643010234E+02 0.  0.
        254    2    1    2    0    0 -0.40329077186E+01 -0.13167131689E+03  0.27860476921E+04  0.29305781626E+04  0.89937368446E+03 0.  0.
         23    2    4    4    0    0 -0.70252065595E+02  0.17091429682E+03  0.10736014933E+03  0.23253305790E+03  0.91642630764E+02 0.  0.
         23    2    4    4    0    0  0.66219157877E+02 -0.30258561371E+03  0.26786875427E+04  0.26980451047E+04  0.90207564189E+02 0.  0.
          1    1    3    3  502    0  0.18513960241E+02  0.48011286166E+01  0.11161985100E+03  0.11324667190E+03  0.00000000000E+00 0. -1.
         -2    1    3    3    0  502 -0.14481052522E+02  0.12687018828E+03  0.27136873393E+03  0.29991121238E+03  0.00000000000E+00 0.  1.
         13    1    5    5    0    0  0.66585847857E+01 -0.71021907778E+01  0.14651870324E+02  0.17591337902E+02  0.00000000000E+00 0.  1.
        -13    1    5    5    0    0 -0.76910650381E+02  0.17801648760E+03  0.92708279006E+02  0.21494171999E+03  0.00000000000E+00 0. -1.
          3    1    6    6  503    0  0.87494956183E+02 -0.23313705359E+03  0.21567432616E+04  0.21710711065E+04  0.00000000000E+00 0. -1.
         -3    1    6    6    0  503 -0.21275798306E+02 -0.69448560118E+02  0.52194428118E+03  0.52697399818E+03  0.00000000000E+00 0.  1.
<mgrwt>
<rscale>  0 0.10666676E+04</rscale>
<asrwt>0</asrwt>
<pdfrwt beam="1">  1        1 0.50098239E+00 0.10666676E+04</pdfrwt>
<pdfrwt beam="2">  1       -2 0.13438446E-01 0.10666676E+04</pdfrwt>
<totfact> 0.14635295E+01</totfact>
</mgrwt>
</event>
<event>
12    5  0.5264288E-008  0.1830872E+04  0.7818608E-02  0.8690052E-01
          1   -1    0    0  501    0  0.00000000000E+00  0.00000000000E+00  0.26282961562E+04  0.26282961562E+04  0.00000000000E+00 0. -1.
         -2   -1    0    0    0  501 -0.00000000000E+00 -0.00000000000E+00 -0.31884643311E+03  0.31884643311E+03  0.00000000000E+00 0.  1.
        -24    2    1    2    0    0 -0.57491536226E+03 -0.33778034963E+03  0.61843494202E+03  0.91299457453E+03  0.80461650823E+02 0.  0.
        254    2    1    2    0    0  0.57491536226E+03  0.33778034963E+03  0.16910147811E+04  0.20341480148E+04  0.91301912242E+03 0.  0.
         23    2    4    4    0    0  0.11724023833E+03 -0.29431259345E+03  0.35971436671E+03  0.48824495722E+03  0.92862998470E+02 0.  0.
         23    2    4    4    0    0  0.45767512393E+03  0.63209294308E+03  0.13313004144E+04  0.15459030576E+04  0.91910077619E+02 0.  0.
          1    1    3    3  502    0 -0.56851992767E+03 -0.32910874196E+03  0.61844391106E+03  0.90221967576E+03  0.00000000000E+00 0. -1.
         -2    1    3    3    0  502 -0.63954345885E+01 -0.86716076676E+01 -0.89690422868E-02  0.10774898773E+02  0.00000000000E+00 0.  1.
         13    1    5    5    0    0  0.10924572862E+03 -0.27874012725E+03  0.29162822081E+03  0.41794462185E+03  0.00000000000E+00 0. -1.
        -13    1    5    5    0    0  0.79945097127E+01 -0.15572466198E+02  0.68086145906E+02  0.70300335372E+02  0.00000000000E+00 0.  1.
          1    1    6    6  503    0  0.20305248225E+03  0.35818811795E+03  0.68731013903E+03  0.80120176336E+03  0.00000000000E+00 0.  1.
         -1    1    6    6    0  503  0.25462264167E+03  0.27390482513E+03  0.64399027532E+03  0.74470129421E+03  0.00000000000E+00 0. -1.
<mgrwt>
<rscale>  0 0.18308718E+04</rscale>
<asrwt>0</asrwt>
<pdfrwt beam="1">  1        1 0.40435324E+00 0.18308718E+04</pdfrwt>
<pdfrwt beam="2">  1       -2 0.49053299E-01 0.18308718E+04</pdfrwt>
<totfact> 0.35902520E+00</totfact>
</mgrwt>
</event>
<event>
12    5  0.5264288E-008  0.1573308E+04  0.7818608E-02  0.8837116E-01
         -2   -1    0    0    0  501 -0.00000000000E+00  0.00000000000E+00  0.67517898984E+03  0.67517898984E+03  0.00000000000E+00 0.  1.
          1   -1    0    0  501    0  0.00000000000E+00 -0.00000000000E+00 -0.91653412668E+03  0.91653412668E+03  0.00000000000E+00 0. -1.
        -24    2    1    2    0    0 -0.19592516793E+03  0.48699891919E+03  0.24093021486E+01  0.53020772354E+03  0.74564110981E+02 0.  0.
        254    2    1    2    0    0  0.19592516793E+03 -0.48699891919E+03 -0.24376443898E+03  0.10615053930E+04  0.88984154708E+03 0.  0.
         23    2    4    4    0    0 -0.33191394924E+03 -0.92158413687E+02 -0.13221521039E+02  0.35683382008E+03  0.92171164796E+02 0.  0.
         23    2    4    4    0    0  0.52783911717E+03 -0.39484050550E+03 -0.23054291794E+03  0.70467157290E+03  0.94333611409E+02 0.  0.
          3    1    3    3  502    0 -0.23628000734E+00  0.39483165170E+02  0.13276420630E+02  0.41656206079E+02  0.00000000000E+00 0. -1.
         -4    1    3    3    0  502 -0.19568888792E+03  0.44751575401E+03 -0.10867118481E+02  0.48855151746E+03  0.00000000000E+00 0.  1.
         13    1    5    5    0    0 -0.24298196700E+02 -0.36092733050E+02  0.38867783115E+01  0.43682888956E+02  0.00000000000E+00 0. -1.
        -13    1    5    5    0    0 -0.30761575254E+03 -0.56065680637E+02 -0.17108299350E+02  0.31315093113E+03  0.00000000000E+00 0.  1.
          3    1    6    6  503    0  0.70444764595E+02 -0.75523039083E+02 -0.63370194674E+01  0.10347150384E+03  0.00000000000E+00 0. -1.
         -3    1    6    6    0  503  0.45739435257E+03 -0.31931746642E+03 -0.22420589848E+03  0.60120006906E+03  0.00000000000E+00 0.  1.
<mgrwt>
<rscale>  0 0.15733081E+04</rscale>
<asrwt>0</asrwt>
<pdfrwt beam="1">  1        1 0.14100525E+00 0.15733081E+04</pdfrwt>
<pdfrwt beam="2">  1       -2 0.10387369E+00 0.15733081E+04</pdfrwt>
<totfact> 0.11214010E+01</totfact>
</mgrwt>
</event>
<event>
12    5  0.5264288E-008  0.1817484E+04  0.7818608E-02  0.8697057E-01
          1   -1    0    0  501    0  0.00000000000E+00  0.00000000000E+00  0.16616046229E+04  0.16616046229E+04  0.00000000000E+00 0. -1.
         -2   -1    0    0    0  501 -0.00000000000E+00 -0.00000000000E+00 -0.49699670440E+03  0.49699670440E+03  0.00000000000E+00 0.  1.
        -24    2    1    2    0    0 -0.47385973779E+03  0.30658913479E+03  0.90100309347E+03  0.10661945322E+04  0.80151464657E+02 0.  0.
        254    2    1    2    0    0  0.47385973779E+03 -0.30658913479E+03  0.26360482505E+03  0.10924067952E+04  0.89739910500E+03 0.  0.
         23    2    4    4    0    0  0.19453943085E+03  0.28503129046E+03  0.24330583812E+03  0.43141461059E+03  0.88500896425E+02 0.  0.
         23    2    4    4    0    0  0.27932030694E+03 -0.59162042525E+03  0.20298986922E+02  0.66099218457E+03  0.92000313826E+02 0.  0.
          1    1    3    3  502    0 -0.44624820576E+03  0.26297876719E+03  0.83116326161E+03  0.97935063210E+03  0.00000000000E+00 0. -1.
         -2    1    3    3    0  502 -0.27611532033E+02  0.43610367604E+02  0.69839831861E+02  0.86843900063E+02  0.00000000000E+00 0.  1.
         13    1    5    5    0    0  0.77435152515E+02  0.12402054401E+03  0.51652447162E+02  0.15506538453E+03  0.00000000000E+00 0. -1.
        -13    1    5    5    0    0  0.11710427834E+03  0.16101074645E+03  0.19165339096E+03  0.27634922606E+03  0.00000000000E+00 0.  1.
          1    1    6    6  503    0  0.15934038708E+03 -0.28504860465E+03  0.50310387704E+02  0.33041368173E+03  0.00000000000E+00 0. -1.
         -1    1    6    6    0  503  0.11997991986E+03 -0.30657182061E+03 -0.30011400782E+02  0.33057850284E+03  0.00000000000E+00 0.  1.
<mgrwt>
<rscale>  0 0.18174840E+04</rscale>
<asrwt>0</asrwt>
<pdfrwt beam="1">  1        1 0.25563148E+00 0.18174840E+04</pdfrwt>
<pdfrwt beam="2">  1       -2 0.76461032E-01 0.18174840E+04</pdfrwt>
<totfact> 0.64051704E+00</totfact>
</mgrwt>
</event>
<event>
12    5  0.5264288E-008  0.1220739E+04  0.7818608E-02  0.9094895E-01
         -4   -1    0    0    0  501 -0.00000000000E+00  0.00000000000E+00  0.34088729615E+03  0.34088729615E+03  0.00000000000E+00 0.  1.
          3   -1    0    0  501    0  0.00000000000E+00 -0.00000000000E+00 -0.10928864091E+04  0.10928864091E+04  0.00000000000E+00 0. -1.
        -24    2    1    2    0    0  0.13652945336E+03 -0.19039238880E+03 -0.62705869748E+02  0.25446786737E+03  0.77021529937E+02 0.  0.
        254    2    1    2    0    0 -0.13652945336E+03  0.19039238880E+03 -0.68929324324E+03  0.11793058379E+04  0.92776480361E+03 0.  0.
         23    2    4    4    0    0  0.22836696119E+03  0.43550867755E+03 -0.44103850916E+03  0.66638523593E+03  0.87949070059E+02 0.  0.
         23    2    4    4    0    0 -0.36489641455E+03 -0.24511628874E+03 -0.24825473408E+03  0.51292060198E+03  0.90695879654E+02 0.  0.
          3    1    3    3  502    0 -0.66765845159E+01 -0.14098884898E+02 -0.16462220833E+02  0.22679507290E+02  0.00000000000E+00 0. -1.
         -4    1    3    3    0  502  0.14320603788E+03 -0.17629350391E+03 -0.46243648916E+02  0.23178836008E+03  0.00000000000E+00 0.  1.
         13    1    5    5    0    0  0.16771793545E+03  0.36682876319E+03 -0.32170137828E+03  0.51593063890E+03  0.00000000000E+00 0. -1.
        -13    1    5    5    0    0  0.60649025743E+02  0.68679914358E+02 -0.11933713088E+03  0.15045459703E+03  0.00000000000E+00 0.  1.
          2    1    6    6  503    0 -0.29707111534E+03 -0.18704731984E+03 -0.23549878603E+03  0.42272641939E+03  0.00000000000E+00 0. -1.
         -2    1    6    6    0  503 -0.67825299217E+02 -0.58068968904E+02 -0.12755948045E+02  0.90194182595E+02  0.00000000000E+00 0.  1.
<mgrwt>
<rscale>  0 0.12207393E+04</rscale>
<asrwt>0</asrwt>
<pdfrwt beam="1">  1        3 0.16813637E+00 0.12207393E+04</pdfrwt>
<pdfrwt beam="2">  1       -4 0.52444199E-01 0.12207393E+04</pdfrwt>
<totfact> 0.18855110E+00</totfact>
</mgrwt>
</event>
<event>
12    5  0.5264288E-008  0.1476120E+04  0.7818608E-02  0.8900490E-01
          1   -1    0    0  501    0  0.00000000000E+00  0.00000000000E+00  0.11389478267E+04  0.11389478267E+04  0.00000000000E+00 0. -1.
         -2   -1    0    0    0  501 -0.00000000000E+00 -0.00000000000E+00 -0.47827685785E+03  0.47827685785E+03  0.00000000000E+00 0.  1.
        -24    2    1    2    0    0 -0.34070717904E+03 -0.29995354597E+03  0.13913097143E+03  0.48214433036E+03  0.83977476133E+02 0.  0.
        254    2    1    2    0    0  0.34070717904E+03  0.29995354597E+03  0.52153999747E+03  0.11350803542E+04  0.90019438458E+03 0.  0.
         23    2    4    4    0    0  0.46184890348E+03  0.33114253769E+03 -0.16356596850E+02  0.57572175467E+03  0.90709484775E+02 0.  0.
         23    2    4    4    0    0 -0.12114172444E+03 -0.31188991716E+02  0.53789659432E+03  0.55935859957E+03  0.88888841422E+02 0.  0.
          1    1    3    3  502    0 -0.77999223284E+02 -0.80745449306E+02 -0.13542840951E+01  0.11227439825E+03  0.00000000000E+00 0. -1.
         -2    1    3    3    0  502 -0.26270795575E+03 -0.21920809667E+03  0.14048525553E+03  0.36986993211E+03  0.00000000000E+00 0.  1.
         13    1    5    5    0    0  0.24989636265E+02 -0.24774377276E+01 -0.65576396860E+01  0.25954233886E+02  0.00000000000E+00 0.  1.
        -13    1    5    5    0    0  0.43685926722E+03  0.33361997542E+03 -0.97989571636E+01  0.54976752079E+03  0.00000000000E+00 0. -1.
          1    1    6    6  503    0 -0.30384015377E+02 -0.50970916028E+02  0.17614677661E+03  0.18587336975E+03  0.00000000000E+00 0. -1.
         -1    1    6    6    0  503 -0.90757709065E+02  0.19781924312E+02  0.36174981771E+03  0.37348522982E+03  0.00000000000E+00 0.  1.
<mgrwt>
<rscale>  0 0.14761198E+04</rscale>
<asrwt>0</asrwt>
<pdfrwt beam="1">  1        1 0.17522274E+00 0.14761198E+04</pdfrwt>
<pdfrwt beam="2">  1       -2 0.73581055E-01 0.14761198E+04</pdfrwt>
<totfact> 0.16784787E+01</totfact>
</mgrwt>
</event>
<event>
12    5  0.5264288E-008  0.1811623E+04  0.7818608E-02  0.8700143E-01
         -2   -1    0    0    0  501 -0.00000000000E+00  0.00000000000E+00  0.53526520216E+03  0.53526520216E+03  0.00000000000E+00 0.  1.
          1   -1    0    0  501    0  0.00000000000E+00 -0.00000000000E+00 -0.15328739202E+04  0.15328739202E+04  0.00000000000E+00 0. -1.
        -24    2    1    2    0    0  0.57086172372E+03 -0.36142199724E+03 -0.47628375224E+03  0.83066605938E+03  0.81553184266E+02 0.  0.
        254    2    1    2    0    0 -0.57086172372E+03  0.36142199724E+03 -0.52132496580E+03  0.12374730630E+04  0.89613106962E+03 0.  0.
         23    2    4    4    0    0 -0.47864932817E+03  0.62528669528E+03 -0.23447840665E+03  0.82668345790E+03  0.91306000493E+02 0.  0.
         23    2    4    4    0    0 -0.92212395549E+02 -0.26386469804E+03 -0.28684655915E+03  0.41078960508E+03  0.91320569323E+02 0.  0.
          1    1    3    3  502    0  0.53684168782E+03 -0.31568564804E+03 -0.44691251763E+03  0.76654238277E+03  0.00000000000E+00 0. -1.
         -2    1    3    3    0  502  0.34020035901E+02 -0.45736349193E+02 -0.29371234613E+02  0.64123676617E+02  0.00000000000E+00 0.  1.
         13    1    5    5    0    0 -0.23751234192E+03  0.37280002102E+03 -0.10517477364E+03  0.45437176546E+03  0.00000000000E+00 0. -1.
        -13    1    5    5    0    0 -0.24113698625E+03  0.25248667426E+03 -0.12930363301E+03  0.37231169244E+03  0.00000000000E+00 0.  1.
          1    1    6    6  503    0 -0.10661351715E+03 -0.24652888772E+03 -0.24643096305E+03  0.36451495726E+03  0.00000000000E+00 0. -1.
         -1    1    6    6    0  503  0.14401121598E+02 -0.17335810325E+02 -0.40415596096E+02  0.46274647818E+02  0.00000000000E+00 0.  1.
<mgrwt>
<rscale>  0 0.18116226E+04</rscale>
<asrwt>0</asrwt>
<pdfrwt beam="1">  1        1 0.23582675E+00 0.18116226E+04</pdfrwt>
<pdfrwt beam="2">  1       -2 0.82348494E-01 0.18116226E+04</pdfrwt>
<totfact> 0.66497560E+00</totfact>
</mgrwt>
</event>
<event>
12    5  0.5264288E-008  0.3456940E+04  0.7818608E-02  0.8124071E-01
          1   -1    0    0  501    0  0.00000000000E+00  0.00000000000E+00  0.11319413682E+04  0.11319413682E+04  0.00000000000E+00 0. -1.
         -2   -1    0    0    0  501 -0.00000000000E+00 -0.00000000000E+00 -0.26393669057E+04  0.26393669057E+04  0.00000000000E+00 0.  1.
        -24    2    1    2    0    0 -0.29782966849E+03  0.58999741199E+03  0.88577434100E+03  0.11079733270E+04  0.78798811416E+02 0.  0.
        254    2    1    2    0    0  0.29782966849E+03 -0.58999741199E+03 -0.23931998785E+04  0.26633349469E+04  0.96392319384E+03 0.  0.
         23    2    4    4    0    0 -0.32890731964E+03 -0.16777257473E+03 -0.54605604394E+03  0.66549849422E+03  0.91560804663E+02 0.  0.
         23    2    4    4    0    0  0.62673698813E+03 -0.42222483726E+03 -0.18471438346E+04  0.19978364527E+04  0.91307616399E+02 0.  0.
          3    1    3    3  502    0 -0.27703594936E+03  0.57680064648E+03  0.83958228052E+03  0.10556260270E+04  0.00000000000E+00 0. -1.
         -4    1    3    3    0  502 -0.20793719136E+02  0.13196765503E+02  0.46192060481E+02  0.52347300090E+02  0.00000000000E+00 0.  1.
         13    1    5    5    0    0 -0.20683084860E+02  0.90160601362E+01 -0.54309643465E+02  0.58810005211E+02  0.00000000000E+00 0. -1.
        -13    1    5    5    0    0 -0.30822423477E+03 -0.17678863487E+03 -0.49174640048E+03  0.60668848901E+03  0.00000000000E+00 0.  1.
          3    1    6    6  503    0  0.24666865238E+02 -0.34934098876E+02 -0.71479018969E+02  0.83295231903E+02  0.00000000000E+00 0. -1.
         -3    1    6    6    0  503  0.60207012289E+03 -0.38729073838E+03 -0.17756648156E+04  0.19145412208E+04  0.00000000000E+00 0.  1.
<mgrwt>
<rscale>  0 0.34569400E+04</rscale>
<asrwt>0</asrwt>
<pdfrwt beam="1">  1        1 0.17414483E+00 0.34569400E+04</pdfrwt>
<pdfrwt beam="2">  1       -2 0.40605644E+00 0.34569400E+04</pdfrwt>
<totfact> 0.58356833E-02</totfact>
</mgrwt>
</event>
<event>
12    5  0.5264288E-008  0.1474900E+04  0.7818608E-02  0.8901318E-01
         -2   -1    0    0    0  501 -0.00000000000E+00  0.00000000000E+00  0.97637374057E+03  0.97637374057E+03  0.00000000000E+00 0.  1.
          1   -1    0    0  501    0  0.00000000000E+00 -0.00000000000E+00 -0.55699211770E+03  0.55699211770E+03  0.00000000000E+00 0. -1.
        -24    2    1    2    0    0  0.37378182426E+03 -0.13031491448E+03  0.36646541320E+03  0.54531998074E+03  0.79888379893E+02 0.  0.
        254    2    1    2    0    0 -0.37378182426E+03  0.13031491448E+03  0.52916209663E+02  0.98804587753E+03  0.90373652233E+03 0.  0.
         23    2    4    4    0    0 -0.37728650465E+03  0.29519741649E+03  0.37498629534E+03  0.61465688671E+03  0.87759588544E+02 0.  0.
         23    2    4    4    0    0  0.35046803989E+01 -0.16488250202E+03 -0.32207008568E+03  0.37338899083E+03  0.92150290952E+02 0.  0.
          3    1    3    3  502    0  0.83607009217E+02 -0.10228085185E+02  0.43330500130E+02  0.94722109131E+02  0.00000000000E+00 0. -1.
         -4    1    3    3    0  502  0.29017481504E+03 -0.12008682929E+03  0.32313491307E+03  0.45059787161E+03  0.00000000000E+00 0.  1.
         13    1    5    5    0    0 -0.15675186739E+03  0.16773013560E+03  0.21027552304E+03  0.31132032042E+03  0.00000000000E+00 0. -1.
        -13    1    5    5    0    0 -0.22053463726E+03  0.12746728089E+03  0.16471077231E+03  0.30333656628E+03  0.00000000000E+00 0.  1.
          4    1    6    6  503    0 -0.39063648631E+02 -0.78425722673E+02 -0.19611417807E+03  0.21479602757E+03  0.00000000000E+00 0. -1.
         -4    1    6    6    0  503  0.42568329029E+02 -0.86456779343E+02 -0.12595590761E+03  0.15859296325E+03  0.00000000000E+00 0.  1.
<mgrwt>
<rscale>  0 0.14749000E+04</rscale>
<asrwt>0</asrwt>
<pdfrwt beam="1">  1        1 0.85691095E-01 0.14749000E+04</pdfrwt>
<pdfrwt beam="2">  1       -2 0.15021134E+00 0.14749000E+04</pdfrwt>
<totfact> 0.96378745E+00</totfact>
</mgrwt>
</event>
<event>
12    5  0.5264288E-008  0.1784553E+04  0.7818608E-02  0.8714557E-01
          1   -1    0    0  501    0  0.00000000000E+00  0.00000000000E+00  0.14769760163E+04  0.14769760163E+04  0.00000000000E+00 0. -1.
         -2   -1    0    0    0  501 -0.00000000000E+00 -0.00000000000E+00 -0.53904561582E+03  0.53904561582E+03  0.00000000000E+00 0.  1.
        -24    2    1    2    0    0  0.56156859646E+03 -0.27661054050E+03  0.93643718533E+02  0.63765260403E+03  0.77194674368E+02 0.  0.
        254    2    1    2    0    0 -0.56156859646E+03  0.27661054050E+03  0.84428668191E+03  0.13783690281E+04  0.89174463642E+03 0.  0.
         23    2    4    4    0    0 -0.73120584597E+03 -0.17979925491E+02  0.55411176197E+03  0.92250054898E+03  0.94774211782E+02 0.  0.
         23    2    4    4    0    0  0.16963724950E+03  0.29459046600E+03  0.29017491995E+03  0.45586847907E+03  0.89745456550E+02 0.  0.
          3    1    3    3  502    0  0.43541144141E+03 -0.20580048464E+03  0.10368607426E+03  0.49263349945E+03  0.00000000000E+00 0. -1.
         -4    1    3    3    0  502  0.12615715505E+03 -0.70810055868E+02 -0.10042355729E+02  0.14501910457E+03  0.00000000000E+00 0.  1.
         13    1    5    5    0    0 -0.20331748694E+03  0.30473952389E+02  0.18473892759E+03  0.27639669615E+03  0.00000000000E+00 0. -1.
        -13    1    5    5    0    0 -0.52788835902E+03 -0.48453877880E+02  0.36937283437E+03  0.64610385283E+03  0.00000000000E+00 0.  1.
          2    1    6    6  503    0  0.10396850922E+03  0.24911702067E+03  0.24234433695E+03  0.36276647936E+03  0.00000000000E+00 0.  1.
         -2    1    6    6    0  503  0.65668740289E+02  0.45473445330E+02  0.47830583001E+02  0.93101999718E+02  0.00000000000E+00 0. -1.
<mgrwt>
<rscale>  0 0.17845531E+04</rscale>
<asrwt>0</asrwt>
<pdfrwt beam="1">  1        1 0.22722708E+00 0.17845531E+04</pdfrwt>
<pdfrwt beam="2">  1       -2 0.82930095E-01 0.17845531E+04</pdfrwt>
<totfact> 0.71714765E+00</totfact>
</mgrwt>
</event>
<event>
12    5  0.5264288E-008  0.1553426E+04  0.7818608E-02  0.8849682E-01
          1   -1    0    0  501    0  0.00000000000E+00  0.00000000000E+00  0.32403968074E+04  0.32403968074E+04  0.00000000000E+00 0. -1.
         -2   -1    0    0    0  501 -0.00000000000E+00 -0.00000000000E+00 -0.18617570072E+03  0.18617570072E+03  0.00000000000E+00 0.  1.
        -24    2    1    2    0    0 -0.43046757028E+03  0.16157169330E+03  0.14593194619E+04  0.15320695546E+04  0.78842164796E+02 0.  0.
        254    2    1    2    0    0  0.43046757028E+03 -0.16157169330E+03  0.15949016448E+04  0.18945029536E+04  0.91324829232E+03 0.  0.
         23    2    4    4    0    0 -0.13068819753E+03  0.14773156857E+03  0.54361892311E+02  0.22371082050E+03  0.90483670074E+02 0.  0.
         23    2    4    4    0    0  0.56115576781E+03 -0.30930326186E+03  0.15405397525E+04  0.16707921331E+04  0.87859657696E+02 0.  0.
          1    1    3    3  502    0 -0.39411236966E+03  0.16978415104E+03  0.13337411649E+04  0.14010769832E+04  0.00000000000E+00 0. -1.
         -2    1    3    3    0  502 -0.36355200625E+02 -0.82124577419E+01  0.12557829702E+03  0.13099257138E+03  0.00000000000E+00 0.  1.
         13    1    5    5    0    0 -0.13314121954E+03  0.15714542381E+03  0.56856610293E+02  0.21366783263E+03  0.00000000000E+00 0.  1.
        -13    1    5    5    0    0  0.24530220171E+01 -0.94138552453E+01 -0.24947179820E+01  0.10042987872E+02  0.00000000000E+00 0. -1.
          4    1    6    6  503    0  0.42895409620E+03 -0.19242952065E+03  0.11037528689E+04  0.11997087700E+04  0.00000000000E+00 0. -1.
         -4    1    6    6    0  503  0.13220167161E+03 -0.11687374122E+03  0.43678688351E+03  0.47108336308E+03  0.00000000000E+00 0.  1.
<mgrwt>
<rscale>  0 0.15534261E+04</rscale>
<asrwt>0</asrwt>
<pdfrwt beam="1">  1        1 0.49852254E+00 0.15534261E+04</pdfrwt>
<pdfrwt beam="2">  1       -2 0.28642418E-01 0.15534261E+04</pdfrwt>
<totfact> 0.37760859E+00</totfact>
</mgrwt>
</event>
<event>
12    5  0.5264288E-008  0.1348385E+04  0.7818608E-02  0.8992052E-01
          1   -1    0    0  501    0  0.00000000000E+00  0.00000000000E+00  0.73545230534E+03  0.73545230534E+03  0.00000000000E+00 0. -1.
         -2   -1    0    0    0  501 -0.00000000000E+00 -0.00000000000E+00 -0.61803534011E+03  0.61803534011E+03  0.00000000000E+00 0.  1.
        -24    2    1    2    0    0 -0.22834806192E+02  0.34259329667E+03 -0.96990465453E+02  0.36960028508E+03  0.96465667690E+02 0.  0.
        254    2    1    2    0    0  0.22834806192E+02 -0.34259329667E+03  0.21440743068E+03  0.98388736037E+03  0.89675648660E+03 0.  0.
         23    2    4    4    0    0 -0.34909774789E+03 -0.97205097152E+02  0.34746634039E+03  0.51015392122E+03  0.90587510923E+02 0.  0.
         23    2    4    4    0    0  0.37193255408E+03 -0.24538819952E+03 -0.13305890971E+03  0.47373343915E+03  0.90385312241E+02 0.  0.
          1    1    3    3  502    0  0.12046129643E+02  0.20966367726E+03 -0.17261336758E+02  0.21071763227E+03  0.00000000000E+00 0. -1.
         -2    1    3    3    0  502 -0.34880935836E+02  0.13292961941E+03 -0.79729128695E+02  0.15888265281E+03  0.00000000000E+00 0.  1.
         13    1    5    5    0    0 -0.30775540056E+03 -0.11276602156E+03  0.32037890604E+03  0.45833634552E+03  0.00000000000E+00 0.  1.
        -13    1    5    5    0    0 -0.41342347331E+02  0.15560924406E+02  0.27087434347E+02  0.51817575693E+02  0.00000000000E+00 0. -1.
          1    1    6    6  503    0  0.12419412519E+03 -0.13497653017E+03 -0.51817672360E+02  0.19059883420E+03  0.00000000000E+00 0. -1.
         -1    1    6    6    0  503  0.24773842889E+03 -0.11041166935E+03 -0.81241237346E+02  0.28313460495E+03  0.00000000000E+00 0.  1.
<mgrwt>
<rscale>  0 0.13483850E+04</rscale>
<asrwt>0</asrwt>
<pdfrwt beam="1">  1        1 0.11314651E+00 0.13483850E+04</pdfrwt>
<pdfrwt beam="2">  1       -2 0.95082361E-01 0.13483850E+04</pdfrwt>
<totfact> 0.20138948E+01</totfact>
</mgrwt>
</event>
<event>
12    5  0.5264288E-008  0.1964099E+04  0.7818608E-02  0.8623592E-01
         -2   -1    0    0    0  501 -0.00000000000E+00  0.00000000000E+00  0.18063687946E+04  0.18063687946E+04  0.00000000000E+00 0.  1.
          1   -1    0    0  501    0  0.00000000000E+00 -0.00000000000E+00 -0.53390073161E+03  0.53390073161E+03  0.00000000000E+00 0. -1.
        -24    2    1    2    0    0 -0.68550037272E+03 -0.21797558082E+03  0.17698552209E+03  0.74495629185E+03  0.78815524520E+02 0.  0.
        254    2    1    2    0    0  0.68550037272E+03  0.21797558082E+03  0.10954825409E+04  0.15953132343E+04  0.90968027541E+03 0.  0.
         23    2    4    4    0    0  0.42130288244E+03 -0.33147497725E+03  0.52513429490E+03  0.75572865096E+03  0.89375538656E+02 0.  0.
         23    2    4    4    0    0  0.26419749028E+03  0.54945055807E+03  0.57034824598E+03  0.83958458338E+03  0.88932116389E+02 0.  0.
          1    1    3    3  502    0 -0.15481991745E+03 -0.29590339621E+02  0.11610052624E+02  0.15804932255E+03  0.00000000000E+00 0. -1.
         -2    1    3    3    0  502 -0.53068045527E+03 -0.18838524120E+03  0.16537546947E+03  0.58690696930E+03  0.00000000000E+00 0.  1.
         13    1    5    5    0    0  0.28859008649E+03 -0.20052237722E+03  0.28985018488E+03  0.45552891397E+03  0.00000000000E+00 0.  1.
        -13    1    5    5    0    0  0.13271279595E+03 -0.13095260003E+03  0.23528411002E+03  0.30019973699E+03  0.00000000000E+00 0. -1.
          1    1    6    6  503    0  0.11473028660E+03  0.19808142909E+03  0.16141663072E+03  0.28009751853E+03  0.00000000000E+00 0. -1.
         -1    1    6    6    0  503  0.14946720368E+03  0.35136912898E+03  0.40893161526E+03  0.55948706485E+03  0.00000000000E+00 0.  1.
<mgrwt>
<rscale>  0 0.19640994E+04</rscale>
<asrwt>0</asrwt>
<pdfrwt beam="1">  1        1 0.82138575E-01 0.19640994E+04</pdfrwt>
<pdfrwt beam="2">  1       -2 0.27790289E+00 0.19640994E+04</pdfrwt>
<totfact> 0.14298070E+00</totfact>
</mgrwt>
</event>
<event>
12    5  0.5264288E-008  0.2494547E+04  0.7818608E-02  0.8404931E-01
         -2   -1    0    0    0  501 -0.00000000000E+00  0.00000000000E+00  0.47442050698E+03  0.47442050698E+03  0.00000000000E+00 0.  1.
          1   -1    0    0  501    0  0.00000000000E+00 -0.00000000000E+00 -0.32791391592E+04  0.32791391592E+04  0.00000000000E+00 0. -1.
        -24    2    1    2    0    0  0.38883362673E+02  0.64648742157E+03 -0.25194811171E+04  0.26026131756E+04  0.79701570989E+02 0.  0.
        254    2    1    2    0    0 -0.38883362673E+02 -0.64648742157E+03 -0.28523753506E+03  0.11509464905E+04  0.90766704821E+03 0.  0.
         23    2    4    4    0    0 -0.35773247463E+03  0.19387473548E+02 -0.64714131053E+02  0.37504827853E+03  0.90138199101E+02 0.  0.
         23    2    4    4    0    0  0.31884911195E+03 -0.66587489512E+03 -0.22052340401E+03  0.77589821196E+03  0.91287082643E+02 0.  0.
          1    1    3    3  502    0  0.60716029776E+02  0.52896970847E+03 -0.20982872858E+04  0.21647875005E+04  0.00000000000E+00 0. -1.
         -2    1    3    3    0  502 -0.21832667102E+02  0.11751771310E+03 -0.42119383132E+03  0.43782567511E+03  0.00000000000E+00 0.  1.
         13    1    5    5    0    0 -0.27121979330E+03  0.49225670455E+02 -0.66335199142E+02  0.28352019603E+03  0.00000000000E+00 0.  1.
        -13    1    5    5    0    0 -0.86512681323E+02 -0.29838196908E+02  0.16210680895E+01  0.91528082500E+02  0.00000000000E+00 0. -1.
          1    1    6    6  503    0  0.22145140926E+02 -0.49038387730E+02 -0.42700534092E+02  0.68691384828E+02  0.00000000000E+00 0. -1.
         -1    1    6    6    0  503  0.29670397103E+03 -0.61683650739E+03 -0.17782286991E+03  0.70720682713E+03  0.00000000000E+00 0.  1.
<mgrwt>
<rscale>  0 0.24945467E+04</rscale>
<asrwt>0</asrwt>
<pdfrwt beam="1">  1        1 0.50448293E+00 0.24945467E+04</pdfrwt>
<pdfrwt beam="2">  1       -2 0.72987772E-01 0.24945467E+04</pdfrwt>
<totfact> 0.49118670E-01</totfact>
</mgrwt>
</event>
<event>
12    5  0.5264288E-008  0.1381369E+04  0.7818608E-02  0.8967416E-01
          1   -1    0    0  501    0  0.00000000000E+00  0.00000000000E+00  0.11311843630E+04  0.11311843630E+04  0.00000000000E+00 0. -1.
         -2   -1    0    0    0  501 -0.00000000000E+00 -0.00000000000E+00 -0.42172188636E+03  0.42172188636E+03  0.00000000000E+00 0.  1.
        -24    2    1    2    0    0 -0.26913216934E+03  0.23854509961E+03  0.39486330995E+03  0.54007945767E+03  0.80205348479E+02 0.  0.
        254    2    1    2    0    0  0.26913216934E+03 -0.23854509961E+03  0.31459916666E+03  0.10128267917E+04  0.89303392160E+03 0.  0.
         23    2    4    4    0    0 -0.21400972837E+03  0.15946935107E+03 -0.43802151884E+02  0.28572172773E+03  0.92128385545E+02 0.  0.
         23    2    4    4    0    0  0.48314189771E+03 -0.39801445068E+03  0.35840131855E+03  0.72710506393E+03  0.91589696960E+02 0.  0.
          3    1    3    3  502    0 -0.18452996440E+03  0.18380141569E+03  0.23327255669E+03  0.34964318079E+03  0.00000000000E+00 0. -1.
         -4    1    3    3    0  502 -0.84602204941E+02  0.54743683926E+02  0.16159075326E+03  0.19043627687E+03  0.00000000000E+00 0.  1.
         13    1    5    5    0    0 -0.14687184202E+03  0.75795353384E+02 -0.62739597868E+02  0.17678385309E+03  0.00000000000E+00 0. -1.
        -13    1    5    5    0    0 -0.67137886353E+02  0.83673997681E+02  0.18937445984E+02  0.10893787465E+03  0.00000000000E+00 0.  1.
          2    1    6    6  503    0  0.44707412538E+03 -0.38467867613E+03  0.31331362160E+03  0.66784607728E+03  0.00000000000E+00 0.  1.
         -2    1    6    6    0  503  0.36067772329E+02 -0.13335774550E+02  0.45087696946E+02  0.59258986656E+02  0.00000000000E+00 0. -1.
<mgrwt>
<rscale>  0 0.13813692E+04</rscale>
<asrwt>0</asrwt>
<pdfrwt beam="1">  1        1 0.17402836E+00 0.13813692E+04</pdfrwt>
<pdfrwt beam="2">  1       -2 0.64880291E-01 0.13813692E+04</pdfrwt>
<totfact> 0.22548355E+01</totfact>
</mgrwt>
</event>
<event>
12    5  0.5264288E-008  0.1273669E+04  0.7818608E-02  0.9050710E-01
          1   -1    0    0  501    0  0.00000000000E+00  0.00000000000E+00  0.28835471045E+03  0.28835471045E+03  0.00000000000E+00 0. -1.
         -2   -1    0    0    0  501 -0.00000000000E+00 -0.00000000000E+00 -0.14064565580E+04  0.14064565580E+04  0.00000000000E+00 0.  1.
        -24    2    1    2    0    0  0.12037946540E+03 -0.86762877475E+01 -0.64778908187E+03  0.66395123941E+03  0.81449739502E+02 0.  0.
        254    2    1    2    0    0 -0.12037946540E+03  0.86762877475E+01 -0.47031276565E+03  0.10308600290E+04  0.90934691302E+03 0.  0.
         23    2    4    4    0    0 -0.34231352953E+03  0.20869507916E+03  0.58559982202E+02  0.41591993367E+03  0.93957070747E+02 0.  0.
         23    2    4    4    0    0  0.22193406413E+03 -0.20001879141E+03 -0.52887274785E+03  0.61494009534E+03  0.95826362244E+02 0.  0.
          1    1    3    3  502    0  0.29229259885E+02  0.33803995670E+02 -0.22122286933E+03  0.22569142135E+03  0.00000000000E+00 0. -1.
         -2    1    3    3    0  502  0.91150205514E+02 -0.42480283418E+02 -0.42656621254E+03  0.43825981806E+03  0.00000000000E+00 0.  1.
         13    1    5    5    0    0 -0.11342924618E+03  0.12193572597E+03  0.33414240778E+02  0.16985589965E+03  0.00000000000E+00 0. -1.
        -13    1    5    5    0    0 -0.22888428334E+03  0.86759353192E+02  0.25145741424E+02  0.24606403402E+03  0.00000000000E+00 0.  1.
          2    1    6    6  503    0 -0.72666762528E+01 -0.33745290503E+01 -0.30666777354E+01  0.85788427195E+01  0.00000000000E+00 0. -1.
         -2    1    6    6    0  503  0.22920074038E+03 -0.19664426236E+03 -0.52580607012E+03  0.60636125262E+03  0.00000000000E+00 0.  1.
<mgrwt>
<rscale>  0 0.12736693E+04</rscale>
<asrwt>0</asrwt>
<pdfrwt beam="1">  1        1 0.44362264E-01 0.12736693E+04</pdfrwt>
<pdfrwt beam="2">  1       -2 0.21637793E+00 0.12736693E+04</pdfrwt>
<totfact> 0.82660615E+00</totfact>
</mgrwt>
</event>
<event>
12    5  0.5264288E-008  0.1493468E+04  0.7818608E-02  0.8888808E-01
          3   -1    0    0  501    0  0.00000000000E+00  0.00000000000E+00  0.73061281120E+03  0.73061281120E+03  0.00000000000E+00 0. -1.
         -4   -1    0    0    0  501 -0.00000000000E+00 -0.00000000000E+00 -0.76321134214E+03  0.76321134214E+03  0.00000000000E+00 0.  1.
        -24    2    1    2    0    0  0.11002293914E+03 -0.29046363251E+03  0.33342912840E+03  0.46273817336E+03  0.80482696694E+02 0.  0.
        254    2    1    2    0    0 -0.11002293914E+03  0.29046363251E+03 -0.36602765934E+03  0.10310859800E+04  0.91251733231E+03 0.  0.
         23    2    4    4    0    0 -0.14379924207E+03  0.47774458216E+03 -0.55055433878E+03  0.74850637321E+03  0.90739203094E+02 0.  0.
         23    2    4    4    0    0  0.33776302938E+02 -0.18728094965E+03  0.18452667944E+03  0.28257960677E+03  0.97908865779E+02 0.  0.
          3    1    3    3  502    0  0.97139065239E+02 -0.26894575673E+03  0.33119447594E+03  0.43755868058E+03  0.00000000000E+00 0. -1.
         -4    1    3    3    0  502  0.12883873898E+02 -0.21517875786E+02  0.22346524607E+01  0.25179492778E+02  0.00000000000E+00 0.  1.
         13    1    5    5    0    0 -0.15140877655E+03  0.46083072826E+03 -0.50960659085E+03  0.70355415937E+03  0.00000000000E+00 0.  1.
        -13    1    5    5    0    0  0.76095344727E+01  0.16913853900E+02 -0.40947747931E+02  0.44952213841E+02  0.00000000000E+00 0. -1.
          4    1    6    6  503    0  0.47125278021E+02 -0.12526898642E+03  0.68512637874E+02  0.15035655069E+03  0.00000000000E+00 0. -1.
         -4    1    6    6    0  503 -0.13348975083E+02 -0.62011963223E+02  0.11601404157E+03  0.13222305608E+03  0.00000000000E+00 0.  1.
<mgrwt>
<rscale>  0 0.14934684E+04</rscale>
<asrwt>0</asrwt>
<pdfrwt beam="1">  1        3 0.11240197E+00 0.14934684E+04</pdfrwt>
<pdfrwt beam="2">  1       -4 0.11741713E+00 0.14934684E+04</pdfrwt>
<totfact> 0.82031388E-01</totfact>
</mgrwt>
</event>
<event>
12    5  0.5264288E-008  0.3072026E+04  0.7818608E-02  0.8223457E-01
         -2   -1    0    0    0  501 -0.00000000000E+00  0.00000000000E+00  0.15615507803E+04  0.15615507803E+04  0.00000000000E+00 0.  1.
          1   -1    0    0  501    0  0.00000000000E+00 -0.00000000000E+00 -0.15108932991E+04  0.15108932991E+04  0.00000000000E+00 0. -1.
        -24    2    1    2    0    0 -0.13234187016E+04  0.37715670204E+03  0.29391807815E+03  0.14094688128E+04  0.80810024355E+02 0.  0.
        254    2    1    2    0    0  0.13234187016E+04 -0.37715670204E+03 -0.24326059699E+03  0.16629752666E+04  0.90145814190E+03 0.  0.
         23    2    4    4    0    0  0.83303741254E+03 -0.64852812619E+03 -0.27456082912E+03  0.10948342361E+04  0.93478845737E+02 0.  0.
         23    2    4    4    0    0  0.49038128907E+03  0.27137142415E+03  0.31300232124E+02  0.56814103045E+03  0.87682765883E+02 0.  0.
          1    1    3    3  502    0 -0.13810446499E+03  0.56749074498E+02  0.12905505146E+02  0.14986611615E+03  0.00000000000E+00 0. -1.
         -2    1    3    3    0  502 -0.11853142366E+04  0.32040762754E+03  0.28101257300E+03  0.12596026967E+04  0.00000000000E+00 0.  1.
         13    1    5    5    0    0  0.64774456064E+03 -0.46485708783E+03 -0.18021211144E+03  0.81739924949E+03  0.00000000000E+00 0.  1.
        -13    1    5    5    0    0  0.18529285190E+03 -0.18367103836E+03 -0.94348717676E+02  0.27743498666E+03  0.00000000000E+00 0. -1.
          1    1    6    6  503    0  0.33429733471E+03  0.23000380270E+03  0.19911823950E+02  0.40626707716E+03  0.00000000000E+00 0. -1.
         -1    1    6    6    0  503  0.15608395436E+03  0.41367621455E+02  0.11388408174E+02  0.16187395329E+03  0.00000000000E+00 0.  1.
<mgrwt>
<rscale>  0 0.30720264E+04</rscale>
<asrwt>0</asrwt>
<pdfrwt beam="1">  1        1 0.23244512E+00 0.30720264E+04</pdfrwt>
<pdfrwt beam="2">  1       -2 0.24023858E+00 0.30720264E+04</pdfrwt>
<totfact> 0.35259704E-01</totfact>
</mgrwt>
</event>
<event>
12    5  0.5264288E-008  0.1488939E+04  0.7818608E-02  0.8891842E-01
          1   -1    0    0  501    0  0.00000000000E+00  0.00000000000E+00  0.24083023636E+04  0.24083023636E+04  0.00000000000E+00 0. -1.
         -2   -1    0    0    0  501 -0.00000000000E+00 -0.00000000000E+00 -0.23013516863E+03  0.23013516863E+03  0.00000000000E+00 0.  1.
        -24    2    1    2    0    0 -0.35231641534E+03 -0.29755429589E+03  0.63966487261E+03  0.79250978628E+03  0.78963260975E+02 0.  0.
        254    2    1    2    0    0  0.35231641534E+03  0.29755429589E+03  0.15385023224E+04  0.18459277459E+04  0.90983208989E+03 0.  0.
         23    2    4    4    0    0  0.19379052307E+03  0.60295920364E+03  0.11701269218E+04  0.13334826030E+04  0.88680726372E+02 0.  0.
         23    2    4    4    0    0  0.15852589227E+03 -0.30540490774E+03  0.36837540051E+03  0.51244514292E+03  0.92179024767E+02 0.  0.
          3    1    3    3  502    0 -0.37924532318E+01 -0.15357820516E+02  0.76801032163E+01  0.17584917911E+02  0.00000000000E+00 0. -1.
         -4    1    3    3    0  502 -0.34852396211E+03 -0.28219647538E+03  0.63198476939E+03  0.77492486837E+03  0.00000000000E+00 0.  1.
         13    1    5    5    0    0  0.90892584310E+01  0.13748955165E+03  0.22358367028E+03  0.26263215540E+03  0.00000000000E+00 0. -1.
        -13    1    5    5    0    0  0.18470126464E+03  0.46546965199E+03  0.94654325156E+03  0.10708504476E+04  0.00000000000E+00 0.  1.
          2    1    6    6  503    0  0.13115917818E+03 -0.15404039177E+03  0.21516585142E+03  0.29534304789E+03  0.00000000000E+00 0. -1.
         -2    1    6    6    0  503  0.27366714093E+02 -0.15136451597E+03  0.15320954909E+03  0.21710209503E+03  0.00000000000E+00 0.  1.
<mgrwt>
<rscale>  0 0.14889393E+04</rscale>
<asrwt>0</asrwt>
<pdfrwt beam="1">  1        1 0.37050804E+00 0.14889393E+04</pdfrwt>
<pdfrwt beam="2">  1       -2 0.35405412E-01 0.14889393E+04</pdfrwt>
<totfact> 0.10010602E+01</totfact>
</mgrwt>
</event>
<event>
12    5  0.5264288E-008  0.2128282E+04  0.7818608E-02  0.8548886E-01
          1   -1    0    0  501    0  0.00000000000E+00  0.00000000000E+00  0.53427883330E+03  0.53427883330E+03  0.00000000000E+00 0. -1.
         -2   -1    0    0    0  501 -0.00000000000E+00 -0.00000000000E+00 -0.21194843432E+04  0.21194843432E+04  0.00000000000E+00 0.  1.
        -24    2    1    2    0    0  0.40798631746E+03 -0.72658885101E+03 -0.35116184204E+03  0.90738555695E+03  0.75164592762E+02 0.  0.
        254    2    1    2    0    0 -0.40798631746E+03  0.72658885101E+03 -0.12340436678E+04  0.17463776195E+04  0.91246195659E+03 0.  0.
         23    2    4    4    0    0 -0.10643455180E+03  0.11461010980E+03  0.12707002973E+03  0.22119791485E+03  0.91202708251E+02 0.  0.
         23    2    4    4    0    0 -0.30155176566E+03  0.61197874121E+03 -0.13611136975E+04  0.15251797047E+04  0.89951024579E+02 0.  0.
          1    1    3    3  502    0  0.17341958386E+02 -0.70965406928E+02 -0.22460257823E+02  0.76428369618E+02  0.00000000000E+00 0. -1.
         -2    1    3    3    0  502  0.39064435907E+03 -0.65562344408E+03 -0.32870158422E+03  0.83095718733E+03  0.00000000000E+00 0.  1.
         13    1    5    5    0    0 -0.76007004691E+02  0.17079687611E+02  0.66502542830E+02  0.10242738254E+03  0.00000000000E+00 0.  1.
        -13    1    5    5    0    0 -0.30427547105E+02  0.97530422188E+02  0.60567486902E+02  0.11877053231E+03  0.00000000000E+00 0. -1.
          3    1    6    6  503    0 -0.22139754064E+03  0.38782669345E+03 -0.95913776822E+03  0.10580036264E+04  0.00000000000E+00 0. -1.
         -3    1    6    6    0  503 -0.80154225020E+02  0.22415204776E+03 -0.40197592932E+03  0.46717607822E+03  0.00000000000E+00 0.  1.
<mgrwt>
<rscale>  0 0.21282816E+04</rscale>
<asrwt>0</asrwt>
<pdfrwt beam="1">  1        1 0.82196744E-01 0.21282816E+04</pdfrwt>
<pdfrwt beam="2">  1       -2 0.32607451E+00 0.21282816E+04</pdfrwt>
<totfact> 0.71374798E-01</totfact>
</mgrwt>
</event>
<event>
12    5  0.5264288E-008  0.1928770E+04  0.7818608E-02  0.8640667E-01
         -2   -1    0    0    0  501 -0.00000000000E+00  0.00000000000E+00  0.76883354395E+03  0.76883354395E+03  0.00000000000E+00 0.  1.
          1   -1    0    0  501    0  0.00000000000E+00 -0.00000000000E+00 -0.12096744013E+04  0.12096744013E+04  0.00000000000E+00 0. -1.
        -24    2    1    2    0    0 -0.37125898586E+03  0.57914472320E+03 -0.46888220344E+03  0.83618090067E+03  0.78141749099E+02 0.  0.
        254    2    1    2    0    0  0.37125898586E+03 -0.57914472320E+03  0.28041346074E+02  0.11423270446E+04  0.91152779155E+03 0.  0.
         23    2    4    4    0    0  0.58967656060E+03 -0.21817738724E+03  0.21619758563E+03  0.67143097041E+03  0.93585968909E+02 0.  0.
         23    2    4    4    0    0 -0.21841757474E+03 -0.36096733595E+03 -0.18815623956E+03  0.47089607419E+03  0.91305463276E+02 0.  0.
          1    1    3    3  502    0 -0.30064358149E+03  0.49473189420E+03 -0.42277705014E+03  0.71685887339E+03  0.00000000000E+00 0. -1.
         -2    1    3    3    0  502 -0.70615404371E+02  0.84412828997E+02 -0.46105153300E+02  0.11932202728E+03  0.00000000000E+00 0.  1.
         13    1    5    5    0    0  0.57975737680E+03 -0.20752721256E+03  0.22357735345E+03  0.65511296193E+03  0.00000000000E+00 0.  1.
        -13    1    5    5    0    0  0.99191837947E+01 -0.10650174682E+02 -0.73797678184E+01  0.16318008486E+02  0.00000000000E+00 0. -1.
          1    1    6    6  503    0 -0.13492294259E+03 -0.28071686006E+03 -0.10637490749E+03  0.32912273836E+03  0.00000000000E+00 0. -1.
         -1    1    6    6    0  503 -0.83494632151E+02 -0.80250475892E+02 -0.81781332071E+02  0.14177333584E+03  0.00000000000E+00 0.  1.
<mgrwt>
<rscale>  0 0.19287698E+04</rscale>
<asrwt>0</asrwt>
<pdfrwt beam="1">  1        1 0.18610375E+00 0.19287698E+04</pdfrwt>
<pdfrwt beam="2">  1       -2 0.11828208E+00 0.19287698E+04</pdfrwt>
<totfact> 0.47369860E+00</totfact>
</mgrwt>
</event>
<event>
12    5  0.5264288E-008  0.2102370E+04  0.7818608E-02  0.8560200E-01
          1   -1    0    0  501    0  0.00000000000E+00  0.00000000000E+00  0.75751088798E+03  0.75751088798E+03  0.00000000000E+00 0. -1.
         -2   -1    0    0    0  501 -0.00000000000E+00 -0.00000000000E+00 -0.14587113910E+04  0.14587113910E+04  0.00000000000E+00 0.  1.
        -24    2    1    2    0    0  0.58016735632E+03  0.19016169141E+03 -0.91244891953E+03  0.11007793438E+04  0.79978140032E+02 0.  0.
        254    2    1    2    0    0 -0.58016735632E+03 -0.19016169141E+03  0.21124841653E+03  0.11154429351E+04  0.90930270965E+03 0.  0.
         23    2    4    4    0    0 -0.45552293502E+03  0.30036977986E+03  0.23423313422E+03  0.60048499561E+03  0.89408723269E+02 0.  0.
         23    2    4    4    0    0 -0.12464442129E+03 -0.49053147127E+03 -0.22984717694E+02  0.51495793949E+03  0.92173890720E+02 0.  0.
          3    1    3    3  502    0  0.14933194014E+03  0.83815709594E+02 -0.23034266571E+03  0.28702411949E+03  0.00000000000E+00 0. -1.
         -4    1    3    3    0  502  0.43083541618E+03  0.10634598182E+03 -0.68210625382E+03  0.81375522436E+03  0.00000000000E+00 0.  1.
         13    1    5    5    0    0 -0.38737353225E+03  0.28172126485E+03  0.18108113969E+03  0.51206982307E+03  0.00000000000E+00 0.  1.
        -13    1    5    5    0    0 -0.68149402779E+02  0.18648515014E+02  0.53151994538E+02  0.88415172536E+02  0.00000000000E+00 0. -1.
          1    1    6    6  503    0 -0.57837631273E+02 -0.89980695029E+02  0.10587823172E+02  0.10748869275E+03  0.00000000000E+00 0. -1.
         -1    1    6    6    0  503 -0.66806790021E+02 -0.40055077624E+03 -0.33572540865E+02  0.40746924675E+03  0.00000000000E+00 0.  1.
<mgrwt>
<rscale>  0 0.21023699E+04</rscale>
<asrwt>0</asrwt>
<pdfrwt beam="1">  1        1 0.11654014E+00 0.21023699E+04</pdfrwt>
<pdfrwt beam="2">  1       -2 0.22441714E+00 0.21023699E+04</pdfrwt>
<totfact> 0.17998495E+00</totfact>
</mgrwt>
</event>
<event>
12    5  0.5264288E-008  0.2469677E+04  0.7818608E-02  0.8413869E-01
          1   -1    0    0  501    0  0.00000000000E+00  0.00000000000E+00  0.16817122972E+04  0.16817122972E+04  0.00000000000E+00 0. -1.
         -2   -1    0    0    0  501 -0.00000000000E+00 -0.00000000000E+00 -0.90671050533E+03  0.90671050533E+03  0.00000000000E+00 0.  1.
        -24    2    1    2    0    0  0.63833936536E+03  0.82993072429E+03  0.10717691444E+03  0.10555165683E+04  0.79788360270E+02 0.  0.
        254    2    1    2    0    0 -0.63833936536E+03 -0.82993072429E+03  0.66782487739E+03  0.15329062342E+04  0.89863747057E+03 0.  0.
         23    2    4    4    0    0 -0.72291877146E+02 -0.72937067407E+03  0.15047233749E+03  0.75395999208E+03  0.92768796554E+02 0.  0.
         23    2    4    4    0    0 -0.56604748822E+03 -0.10056005022E+03  0.51735253990E+03  0.77894624212E+03  0.92636466667E+02 0.  0.
          3    1    3    3  502    0  0.19656306947E+03  0.19795436655E+03  0.31047135647E+02  0.28069003572E+03  0.00000000000E+00 0. -1.
         -4    1    3    3    0  502  0.44177629589E+03  0.63197635774E+03  0.76129778789E+02  0.77482653257E+03  0.00000000000E+00 0.  1.
         13    1    5    5    0    0  0.18398777120E+02 -0.75825623134E+02  0.42332969770E+01  0.78140648362E+02  0.00000000000E+00 0. -1.
        -13    1    5    5    0    0 -0.90690654265E+02 -0.65354505094E+03  0.14623904051E+03  0.67581934372E+03  0.00000000000E+00 0.  1.
          1    1    6    6  503    0 -0.45295278413E+02 -0.32902303643E+02  0.35826590966E+02  0.66466295608E+02  0.00000000000E+00 0. -1.
         -1    1    6    6    0  503 -0.52075220980E+03 -0.67657746579E+02  0.48152594893E+03  0.71247994651E+03  0.00000000000E+00 0.  1.
<mgrwt>
<rscale>  0 0.24696771E+04</rscale>
<asrwt>0</asrwt>
<pdfrwt beam="1">  1        1 0.25872497E+00 0.24696771E+04</pdfrwt>
<pdfrwt beam="2">  1       -2 0.13949392E+00 0.24696771E+04</pdfrwt>
<totfact> 0.13914220E+00</totfact>
</mgrwt>
</event>
<event>
12    5  0.5264288E-008  0.1428611E+04  0.7818608E-02  0.8933365E-01
         -2   -1    0    0    0  501 -0.00000000000E+00  0.00000000000E+00  0.49881625318E+03  0.49881625318E+03  0.00000000000E+00 0.  1.
          1   -1    0    0  501    0  0.00000000000E+00 -0.00000000000E+00 -0.10228859715E+04  0.10228859715E+04  0.00000000000E+00 0. -1.
        -24    2    1    2    0    0 -0.38121674219E+02  0.11612949104E+03  0.27565111395E+03  0.31173392815E+03  0.79089725027E+02 0.  0.
        254    2    1    2    0    0  0.38121674219E+02 -0.11612949104E+03 -0.79972083226E+03  0.12099682965E+04  0.89973915569E+03 0.  0.
         23    2    4    4    0    0  0.31230757810E+02 -0.46239843139E+03 -0.20315963988E+03  0.51403685601E+03  0.90401219462E+02 0.  0.
         23    2    4    4    0    0  0.68909164088E+01  0.34626894035E+03 -0.59656119237E+03  0.69593144050E+03  0.92117587085E+02 0.  0.
          3    1    3    3  502    0 -0.47719003906E+01 -0.69355303273E+00  0.88351566710E+02  0.88483057074E+02  0.00000000000E+00 0. -1.
         -4    1    3    3    0  502 -0.33349773828E+02  0.11682304407E+03  0.18729954724E+03  0.22325087108E+03  0.00000000000E+00 0.  1.
         13    1    5    5    0    0  0.11082751257E+02 -0.17615040426E+03 -0.30423589547E+02  0.17910161110E+03  0.00000000000E+00 0. -1.
        -13    1    5    5    0    0  0.20148006553E+02 -0.28624802713E+03 -0.17273605034E+03  0.33493524492E+03  0.00000000000E+00 0.  1.
          2    1    6    6  503    0 -0.14521679453E+02  0.17297710356E+03 -0.37981268312E+03  0.41759984649E+03  0.00000000000E+00 0. -1.
         -2    1    6    6    0  503  0.21412595861E+02  0.17329183679E+03 -0.21674850925E+03  0.27833159400E+03  0.00000000000E+00 0.  1.
<mgrwt>
<rscale>  0 0.14286107E+04</rscale>
<asrwt>0</asrwt>
<pdfrwt beam="1">  1        1 0.15736707E+00 0.14286107E+04</pdfrwt>
<pdfrwt beam="2">  1       -2 0.76740962E-01 0.14286107E+04</pdfrwt>
<totfact> 0.18795469E+01</totfact>
</mgrwt>
</event>
<event>
12    5  0.5264288E-008  0.2476874E+04  0.7818608E-02  0.8411271E-01
         -2   -1    0    0    0  501 -0.00000000000E+00  0.00000000000E+00  0.86261911119E+03  0.86261911119E+03  0.00000000000E+00 0.  1.
          1   -1    0    0  501    0  0.00000000000E+00 -0.00000000000E+00 -0.17779871430E+04  0.17779871430E+04  0.00000000000E+00 0. -1.
        -24    2    1    2    0    0  0.54332071681E+03  0.10104595241E+03 -0.13889123170E+04  0.14972288313E+04  0.84906202812E+02 0.  0.
        254    2    1    2    0    0 -0.54332071681E+03 -0.10104595241E+03  0.47354428519E+03  0.11433774228E+04  0.88185035873E+03 0.  0.
         23    2    4    4    0    0 -0.67388564386E+03 -0.44057624560E+02  0.46698453738E+02  0.68422723155E+03  0.99615378020E+02 0.  0.
         23    2    4    4    0    0  0.13056492705E+03 -0.56988327854E+02  0.42684583146E+03  0.45915019128E+03  0.91250559647E+02 0.  0.
          3    1    3    3  502    0  0.44398306777E+03  0.11404562163E+03 -0.11136805592E+04  0.12043304182E+04  0.00000000000E+00 0. -1.
         -4    1    3    3    0  502  0.99337649043E+02 -0.12999669212E+02 -0.27523175774E+03  0.29289841308E+03  0.00000000000E+00 0.  1.
         13    1    5    5    0    0 -0.38826803946E+03  0.15030923573E+02  0.55066760337E+02  0.39244152077E+03  0.00000000000E+00 0.  1.
        -13    1    5    5    0    0 -0.28561760439E+03 -0.59088548133E+02 -0.83683065992E+01  0.29178571078E+03  0.00000000000E+00 0. -1.
          4    1    6    6  503    0  0.11980767979E+03 -0.72143842168E+02  0.41282202438E+03  0.43586768395E+03  0.00000000000E+00 0. -1.
         -4    1    6    6    0  503  0.10757247255E+02  0.15155514314E+02  0.14023807073E+02  0.23282507327E+02  0.00000000000E+00 0.  1.
<mgrwt>
<rscale>  0 0.24768736E+04</rscale>
<asrwt>0</asrwt>
<pdfrwt beam="1">  1        1 0.27353648E+00 0.24768736E+04</pdfrwt>
<pdfrwt beam="2">  1       -2 0.13271063E+00 0.24768736E+04</pdfrwt>
<totfact> 0.13590760E+00</totfact>
</mgrwt>
</event>
<event>
12    5  0.5264288E-008  0.3244789E+04  0.7818608E-02  0.8177088E-01
         -2   -1    0    0    0  501 -0.00000000000E+00  0.00000000000E+00  0.13602692102E+04  0.13602692102E+04  0.00000000000E+00 0.  1.
          1   -1    0    0  501    0  0.00000000000E+00 -0.00000000000E+00 -0.19350316673E+04  0.19350316673E+04  0.00000000000E+00 0. -1.
        -24    2    1    2    0    0 -0.27524394470E+03 -0.11120245864E+04 -0.12408040269E+04  0.16915049907E+04  0.96107182365E+02 0.  0.
        254    2    1    2    0    0  0.27524394470E+03  0.11120245864E+04  0.66604156983E+03  0.16037958868E+04  0.90343343086E+03 0.  0.
         23    2    4    4    0    0  0.52519348381E+03  0.10456684849E+04  0.61041855138E+03  0.13237012569E+04  0.10160430104E+03 0.  0.
         23    2    4    4    0    0 -0.24994953911E+03  0.66356101577E+02  0.55623018450E+02  0.28009462995E+03  0.92093307182E+02 0.  0.
          3    1    3    3  502    0 -0.22215455844E+03 -0.10141528116E+04 -0.11258081509E+04  0.15314380712E+04  0.00000000000E+00 0. -1.
         -2    1    3    3    0  502 -0.53089386266E+02 -0.97871774848E+02 -0.11499587591E+03  0.16006691951E+03  0.00000000000E+00 0.  1.
         13    1    5    5    0    0  0.38038338787E+03  0.68228901914E+03  0.36796758959E+03  0.86348710146E+03  0.00000000000E+00 0. -1.
        -13    1    5    5    0    0  0.14481009594E+03  0.36337946571E+03  0.24245096179E+03  0.46021415543E+03  0.00000000000E+00 0.  1.
          2    1    6    6  503    0 -0.22418482191E+03  0.59822737618E+02  0.16260748606E+02  0.23259837974E+03  0.00000000000E+00 0. -1.
         -2    1    6    6    0  503 -0.25764717197E+02  0.65333639594E+01  0.39362269844E+02  0.47496250211E+02  0.00000000000E+00 0.  1.
<mgrwt>
<rscale>  0 0.32447891E+04</rscale>
<asrwt>0</asrwt>
<pdfrwt beam="1">  1        1 0.29769718E+00 0.32447891E+04</pdfrwt>
<pdfrwt beam="2">  1       -2 0.20927219E+00 0.32447891E+04</pdfrwt>
<totfact> 0.27976611E-01</totfact>
</mgrwt>
</event>
<event>
12    5  0.5264288E-008  0.2137426E+04  0.7818608E-02  0.8544934E-01
          1   -1    0    0  501    0  0.00000000000E+00  0.00000000000E+00  0.19288033080E+04  0.19288033080E+04  0.00000000000E+00 0. -1.
         -2   -1    0    0    0  501 -0.00000000000E+00 -0.00000000000E+00 -0.59215363422E+03  0.59215363422E+03  0.00000000000E+00 0.  1.
        -24    2    1    2    0    0 -0.29537968320E+03 -0.41198545931E+03 -0.24099618310E+03  0.56712690506E+03  0.81071513129E+02 0.  0.
        254    2    1    2    0    0  0.29537968320E+03  0.41198545931E+03  0.15776458568E+04  0.19538300371E+04  0.10351348649E+04 0.  0.
         23    2    4    4    0    0 -0.13207417365E+03  0.50634453569E+03  0.13528512909E+04  0.14534700712E+04  0.92413507780E+02 0.  0.
         23    2    4    4    0    0  0.42745385685E+03 -0.94359076381E+02  0.22479456598E+03  0.50035996596E+03  0.90592845253E+02 0.  0.
          1    1    3    3  502    0 -0.11634724806E+03 -0.10175364556E+03 -0.59927158724E+02  0.16577620719E+03  0.00000000000E+00 0. -1.
         -2    1    3    3    0  502 -0.17903243514E+03 -0.31023181375E+03 -0.18106902438E+03  0.40135069787E+03  0.00000000000E+00 0.  1.
         13    1    5    5    0    0 -0.66752781858E+02  0.36623420277E+03  0.86481026777E+03  0.94153078782E+03  0.00000000000E+00 0. -1.
        -13    1    5    5    0    0 -0.65321391797E+02  0.14011033292E+03  0.48804102309E+03  0.51193928335E+03  0.00000000000E+00 0.  1.
          1    1    6    6  503    0  0.30643305652E+03 -0.10392300013E+03  0.14167078128E+03  0.35323054561E+03  0.00000000000E+00 0. -1.
         -1    1    6    6    0  503  0.12102080033E+03  0.95639237461E+01  0.83123784701E+02  0.14712942035E+03  0.00000000000E+00 0.  1.
<mgrwt>
<rscale>  0 0.21374264E+04</rscale>
<asrwt>0</asrwt>
<pdfrwt beam="1">  1        1 0.29673897E+00 0.21374264E+04</pdfrwt>
<pdfrwt beam="2">  1       -2 0.91100560E-01 0.21374264E+04</pdfrwt>
<totfact> 0.27553757E+00</totfact>
</mgrwt>
</event>
<event>
12    5  0.5264288E-008  0.2666166E+04  0.7818608E-02  0.8346067E-01
          1   -1    0    0  501    0  0.00000000000E+00  0.00000000000E+00  0.10383305530E+04  0.10383305530E+04  0.00000000000E+00 0. -1.
         -2   -1    0    0    0  501 -0.00000000000E+00 -0.00000000000E+00 -0.17115071742E+04  0.17115071742E+04  0.00000000000E+00 0.  1.
        -24    2    1    2    0    0  0.67477243492E+03 -0.73588084483E+03 -0.95522776060E+03  0.13843259097E+04  0.84021978960E+02 0.  0.
        254    2    1    2    0    0 -0.67477243492E+03  0.73588084483E+03  0.28205113945E+03  0.13655118175E+04  0.88782386869E+03 0.  0.
         23    2    4    4    0    0 -0.38894035377E+03  0.90213791409E+03  0.26490474133E+03  0.10215848204E+04  0.91288599460E+02 0.  0.
         23    2    4    4    0    0 -0.28583208114E+03 -0.16625706926E+03  0.17146398125E+02  0.34392699715E+03  0.93007465896E+02 0.  0.
          3    1    3    3  502    0  0.30027066460E+03 -0.34116015149E+03 -0.49141053298E+03  0.66935568490E+03  0.00000000000E+00 0. -1.
         -4    1    3    3    0  502  0.37450177032E+03 -0.39472069334E+03 -0.46381722762E+03  0.71497022481E+03  0.00000000000E+00 0.  1.
         13    1    5    5    0    0 -0.26508103396E+03  0.68808281033E+03  0.17020581076E+03  0.75676675829E+03  0.00000000000E+00 0.  1.
        -13    1    5    5    0    0 -0.12385931982E+03  0.21405510377E+03  0.94698930572E+02  0.26481806208E+03  0.00000000000E+00 0. -1.
          3    1    6    6  503    0  0.36265216074E+00 -0.19549608357E+02 -0.84565958898E+01  0.21303349914E+02  0.00000000000E+00 0. -1.
         -3    1    6    6    0  503 -0.28619473330E+03 -0.14670746090E+03  0.25602994015E+02  0.32262364724E+03  0.00000000000E+00 0.  1.
<mgrwt>
<rscale>  0 0.26661659E+04</rscale>
<asrwt>0</asrwt>
<pdfrwt beam="1">  1        1 0.15974316E+00 0.26661659E+04</pdfrwt>
<pdfrwt beam="2">  1       -2 0.26330879E+00 0.26661659E+04</pdfrwt>
<totfact> 0.57797928E-01</totfact>
</mgrwt>
</event>
<event>
12    5  0.5264288E-008  0.1380723E+04  0.7818608E-02  0.8967892E-01
          1   -1    0    0  501    0  0.00000000000E+00  0.00000000000E+00  0.18891492193E+04  0.18891492193E+04  0.00000000000E+00 0. -1.
         -2   -1    0    0    0  501 -0.00000000000E+00 -0.00000000000E+00 -0.25228221151E+03  0.25228221151E+03  0.00000000000E+00 0.  1.
        -24    2    1    2    0    0 -0.10506369382E+03  0.13076630801E+03  0.10742245217E+04  0.10901599081E+04  0.79700031543E+02 0.  0.
        254    2    1    2    0    0  0.10506369382E+03 -0.13076630801E+03  0.56264248603E+03  0.10512715227E+04  0.87204761355E+03 0.  0.
         23    2    4    4    0    0 -0.99628241179E+02  0.31415046839E+03  0.40030391587E+03  0.52639891782E+03  0.90754021376E+02 0.  0.
         23    2    4    4    0    0  0.20469193500E+03 -0.44491677640E+03  0.16233857016E+03  0.52487260488E+03  0.96372785664E+02 0.  0.
          3    1    3    3  502    0 -0.10782831434E+03  0.12048803594E+03  0.82429787518E+03  0.84000672569E+03  0.00000000000E+00 0. -1.
         -4    1    3    3    0  502  0.27646205234E+01  0.10278272067E+02  0.24992664656E+03  0.25015318240E+03  0.00000000000E+00 0.  1.
         13    1    5    5    0    0 -0.10612800204E+03  0.24610846267E+03  0.27712521530E+03  0.38552679954E+03  0.00000000000E+00 0.  1.
        -13    1    5    5    0    0  0.64997608590E+01  0.68042005722E+02  0.12317870057E+03  0.14087211828E+03  0.00000000000E+00 0. -1.
          1    1    6    6  503    0 -0.33388603795E+01 -0.18853457954E+02  0.24521594932E+02  0.31111243682E+02  0.00000000000E+00 0. -1.
         -1    1    6    6    0  503  0.20803079538E+03 -0.42606331845E+03  0.13781697523E+03  0.49376136120E+03  0.00000000000E+00 0.  1.
<mgrwt>
<rscale>  0 0.13807226E+04</rscale>
<asrwt>0</asrwt>
<pdfrwt beam="1">  1        1 0.29063833E+00 0.13807226E+04</pdfrwt>
<pdfrwt beam="2">  1       -2 0.38812649E-01 0.13807226E+04</pdfrwt>
<totfact> 0.19067411E+01</totfact>
</mgrwt>
</event>
<event>
12    5  0.5264288E-008  0.1134425E+04  0.7818608E-02  0.9172274E-01
         -4   -1    0    0    0  501 -0.00000000000E+00  0.00000000000E+00  0.38805792464E+03  0.38805792464E+03  0.00000000000E+00 0.  1.
          1   -1    0    0  501    0  0.00000000000E+00 -0.00000000000E+00 -0.82907709215E+03  0.82907709215E+03  0.00000000000E+00 0. -1.
        -24    2    1    2    0    0 -0.11923676008E+03 -0.10935115545E+03  0.41890462280E+02  0.18578960168E+03  0.81165787796E+02 0.  0.
        254    2    1    2    0    0  0.11923676008E+03  0.10935115545E+03 -0.48290962979E+03  0.10313454151E+04  0.89682583292E+03 0.  0.
         23    2    4    4    0    0  0.20945093453E+03  0.30088685538E+03 -0.64762157589E+03  0.74948100259E+03  0.88912732347E+02 0.  0.
         23    2    4    4    0    0 -0.90214174446E+02 -0.19153569994E+03  0.16471194610E+03  0.28186441253E+03  0.86562117808E+02 0.  0.
          3    1    3    3  502    0 -0.14549068343E+02 -0.29192364848E+02 -0.21930249754E+02  0.39304012636E+02  0.00000000000E+00 0. -1.
         -4    1    3    3    0  502 -0.10468769174E+03 -0.80158790599E+02  0.63820712034E+02  0.14648558904E+03  0.00000000000E+00 0.  1.
         13    1    5    5    0    0  0.19626548328E+03  0.29601900051E+03 -0.57760066871E+03  0.67806336067E+03  0.00000000000E+00 0.  1.
        -13    1    5    5    0    0  0.13185451249E+02  0.48678548761E+01 -0.70020907179E+02  0.71417641923E+02  0.00000000000E+00 0. -1.
          1    1    6    6  503    0  0.70500206244E+01 -0.28797075574E+02 -0.15659578668E+01  0.29688829153E+02  0.00000000000E+00 0. -1.
         -1    1    6    6    0  503 -0.97264195070E+02 -0.16273862436E+03  0.16627790397E+03  0.25217558337E+03  0.00000000000E+00 0.  1.
<mgrwt>
<rscale>  0 0.11344249E+04</rscale>
<asrwt>0</asrwt>
<pdfrwt beam="1">  1        1 0.12755032E+00 0.11344249E+04</pdfrwt>
<pdfrwt beam="2">  1       -4 0.59701219E-01 0.11344249E+04</pdfrwt>
<totfact> 0.26700416E+01</totfact>
</mgrwt>
</event>
<event>
12    5  0.5264288E-008  0.1765953E+04  0.7818608E-02  0.8724618E-01
          1   -1    0    0  501    0  0.00000000000E+00  0.00000000000E+00  0.19475699760E+04  0.19475699760E+04  0.00000000000E+00 0. -1.
         -2   -1    0    0    0  501 -0.00000000000E+00 -0.00000000000E+00 -0.40031820521E+03  0.40031820521E+03  0.00000000000E+00 0.  1.
        -24    2    1    2    0    0  0.23821210268E+03  0.19027727821E+03 -0.19398304683E+03  0.37036642451E+03  0.81187545116E+02 0.  0.
        254    2    1    2    0    0 -0.23821210268E+03 -0.19027727821E+03  0.17412348176E+04  0.19775217567E+04  0.88642154739E+03 0.  0.
         23    2    4    4    0    0 -0.30606854646E+03 -0.31055704104E+03  0.32380820196E+03  0.55059544279E+03  0.90443126263E+02 0.  0.
         23    2    4    4    0    0  0.67856443778E+02  0.12027976283E+03  0.14174266157E+04  0.14269263139E+04  0.89155909873E+02 0.  0.
          3    1    3    3  502    0  0.56150437448E+02  0.20633784833E+02 -0.94496522845E+01  0.60563360462E+02  0.00000000000E+00 0. -1.
         -2    1    3    3    0  502  0.18206166523E+03  0.16964349338E+03 -0.18453339454E+03  0.30980306405E+03  0.00000000000E+00 0.  1.
         13    1    5    5    0    0 -0.27599715059E+03 -0.25234393149E+03  0.30458871270E+03  0.48231335333E+03  0.00000000000E+00 0. -1.
        -13    1    5    5    0    0 -0.30071395867E+02 -0.58213109558E+02  0.19219489261E+02  0.68282089461E+02  0.00000000000E+00 0.  1.
          2    1    6    6  503    0  0.64674140259E+02  0.75308898611E+02  0.12360849350E+04  0.12400645714E+04  0.00000000000E+00 0. -1.
         -2    1    6    6    0  503  0.31823035198E+01  0.44970864222E+02  0.18134168063E+03  0.18686174253E+03  0.00000000000E+00 0.  1.
<mgrwt>
<rscale>  0 0.17659532E+04</rscale>
<asrwt>0</asrwt>
<pdfrwt beam="1">  1        1 0.29962614E+00 0.17659532E+04</pdfrwt>
<pdfrwt beam="2">  1       -2 0.61587417E-01 0.17659532E+04</pdfrwt>
<totfact> 0.65858552E+00</totfact>
</mgrwt>
</event>
<event>
12    5  0.5264288E-008  0.1370173E+04  0.7818608E-02  0.8975697E-01
          1   -1    0    0  501    0  0.00000000000E+00  0.00000000000E+00  0.57310918865E+03  0.57310918865E+03  0.00000000000E+00 0. -1.
         -2   -1    0    0    0  501 -0.00000000000E+00 -0.00000000000E+00 -0.81894232290E+03  0.81894232290E+03  0.00000000000E+00 0.  1.
        -24    2    1    2    0    0  0.52920291207E+02 -0.15684197211E+03  0.28630112490E+03  0.34029801135E+03  0.80214967244E+02 0.  0.
        254    2    1    2    0    0 -0.52920291207E+02  0.15684197211E+03 -0.53213425915E+03  0.10517535002E+04  0.89197454784E+03 0.  0.
         23    2    4    4    0    0  0.19694414005E+03 -0.24524177213E+03  0.76939780521E+01  0.32783911184E+03  0.92134493312E+02 0.  0.
         23    2    4    4    0    0 -0.24986443126E+03  0.40208374423E+03 -0.53982823720E+03  0.72391438837E+03  0.92379351668E+02 0.  0.
          3    1    3    3  502    0 -0.57382182873E+01 -0.10390796187E+03  0.14624429408E+03  0.17949146286E+03  0.00000000000E+00 0. -1.
         -4    1    3    3    0  502  0.58658509495E+02 -0.52934010240E+02  0.14005683083E+03  0.16080654849E+03  0.00000000000E+00 0.  1.
         13    1    5    5    0    0  0.18777760011E+03 -0.17577433847E+03  0.13237719324E+02  0.25755054335E+03  0.00000000000E+00 0. -1.
        -13    1    5    5    0    0  0.91665399437E+01 -0.69467433653E+02 -0.55437412716E+01  0.70288568489E+02  0.00000000000E+00 0.  1.
          1    1    6    6  503    0 -0.21322567443E+03  0.33536922416E+03 -0.49776376235E+03  0.63695091479E+03  0.00000000000E+00 0. -1.
         -1    1    6    6    0  503 -0.36638756829E+02  0.66714520078E+02 -0.42064474857E+02  0.86963473575E+02  0.00000000000E+00 0.  1.
<mgrwt>
<rscale>  0 0.13701728E+04</rscale>
<asrwt>0</asrwt>
<pdfrwt beam="1">  1        1 0.88170644E-01 0.13701728E+04</pdfrwt>
<pdfrwt beam="2">  1       -2 0.12599113E+00 0.13701728E+04</pdfrwt>
<totfact> 0.14699281E+01</totfact>
</mgrwt>
</event>
<event>
12    5  0.5264288E-008  0.3367122E+04  0.7818608E-02  0.8146023E-01
         -2   -1    0    0    0  501 -0.00000000000E+00  0.00000000000E+00  0.12823021024E+04  0.12823021024E+04  0.00000000000E+00 0.  1.
          1   -1    0    0  501    0  0.00000000000E+00 -0.00000000000E+00 -0.22103816312E+04  0.22103816312E+04  0.00000000000E+00 0. -1.
        -24    2    1    2    0    0 -0.17916204035E+03  0.82353187399E+03 -0.17964783892E+04  0.19860274213E+04  0.81648828019E+02 0.  0.
        254    2    1    2    0    0  0.17916204035E+03 -0.82353187399E+03  0.86839886038E+03  0.15066563123E+04  0.89754825979E+03 0.  0.
         23    2    4    4    0    0  0.42087201337E+03 -0.33492122748E+03  0.77157692046E+03  0.94499783937E+03  0.91566871514E+02 0.  0.
         23    2    4    4    0    0 -0.24170997303E+03 -0.48861064650E+03  0.96821939922E+02  0.56165847298E+03  0.94454630827E+02 0.  0.
          1    1    3    3  502    0 -0.16444218947E+03  0.59592087025E+03 -0.13409332554E+04  0.14765720141E+04  0.00000000000E+00 0. -1.
         -2    1    3    3    0  502 -0.14719850872E+02  0.22761100374E+03 -0.45554513374E+03  0.50945540718E+03  0.00000000000E+00 0.  1.
         13    1    5    5    0    0  0.32835343505E+02 -0.15613739493E+02  0.98676061946E+02  0.10516137050E+03  0.00000000000E+00 0. -1.
        -13    1    5    5    0    0  0.38803666987E+03 -0.31930748799E+03  0.67290085852E+03  0.83983646887E+03  0.00000000000E+00 0.  1.
          4    1    6    6  503    0 -0.17850064501E+03 -0.43116201040E+03  0.95005552025E+02  0.47622391203E+03  0.00000000000E+00 0. -1.
         -4    1    6    6    0  503 -0.63209328021E+02 -0.57448636106E+02  0.18163878968E+01  0.85434560947E+02  0.00000000000E+00 0.  1.
<mgrwt>
<rscale>  0 0.33671216E+04</rscale>
<asrwt>0</asrwt>
<pdfrwt beam="1">  1        1 0.34005871E+00 0.33671216E+04</pdfrwt>
<pdfrwt beam="2">  1       -2 0.19727725E+00 0.33671216E+04</pdfrwt>
<totfact> 0.21556262E-01</totfact>
</mgrwt>
</event>
<event>
12    5  0.5264288E-008  0.2497326E+04  0.7818608E-02  0.8403939E-01
          1   -1    0    0  501    0  0.00000000000E+00  0.00000000000E+00  0.23721624273E+04  0.23721624273E+04  0.00000000000E+00 0. -1.
         -2   -1    0    0    0  501 -0.00000000000E+00 -0.00000000000E+00 -0.65727365174E+03  0.65727365174E+03  0.00000000000E+00 0.  1.
        -24    2    1    2    0    0 -0.36277425746E+03  0.44335170088E+03  0.18608433419E+04  0.19486648593E+04  0.79943093194E+02 0.  0.
        254    2    1    2    0    0  0.36277425746E+03 -0.44335170088E+03 -0.14595456631E+03  0.10807712198E+04  0.90476394798E+03 0.  0.
         23    2    4    4    0    0 -0.10503477896E+03 -0.55868637386E+03 -0.32591296619E+02  0.57765690935E+03  0.97275604242E+02 0.  0.
         23    2    4    4    0    0  0.46780903642E+03  0.11533467298E+03 -0.11336326969E+03  0.50311431044E+03  0.90140984623E+02 0.  0.
          3    1    3    3  502    0 -0.33978044310E+03  0.38622301202E+03  0.16004576155E+04  0.16810959352E+04  0.00000000000E+00 0. -1.
         -2    1    3    3    0  502 -0.22993814363E+02  0.57128688859E+02  0.26038572640E+03  0.26756892403E+03  0.00000000000E+00 0.  1.
         13    1    5    5    0    0  0.12017643830E+02 -0.12861171552E+03 -0.26680694186E+02  0.13189866025E+03  0.00000000000E+00 0. -1.
        -13    1    5    5    0    0 -0.11705242279E+03 -0.43007465834E+03 -0.59106024332E+01  0.44575824911E+03  0.00000000000E+00 0.  1.
          4    1    6    6  503    0  0.23895717021E+03  0.25508920951E+02 -0.88164839289E+02  0.25597709494E+03  0.00000000000E+00 0.  1.
         -4    1    6    6    0  503  0.22885186620E+03  0.89825752030E+02 -0.25198430404E+02  0.24713721550E+03  0.00000000000E+00 0. -1.
<mgrwt>
<rscale>  0 0.24973265E+04</rscale>
<asrwt>0</asrwt>
<pdfrwt beam="1">  1        1 0.36494806E+00 0.24973265E+04</pdfrwt>
<pdfrwt beam="2">  1       -2 0.10111902E+00 0.24973265E+04</pdfrwt>
<totfact> 0.10431516E+00</totfact>
</mgrwt>
</event>
<event>
12    5  0.5264288E-008  0.2167823E+04  0.7818608E-02  0.8531941E-01
         -2   -1    0    0    0  501 -0.00000000000E+00  0.00000000000E+00  0.14567377601E+04  0.14567377601E+04  0.00000000000E+00 0.  1.
          1   -1    0    0  501    0  0.00000000000E+00 -0.00000000000E+00 -0.80650377512E+03  0.80650377512E+03  0.00000000000E+00 0. -1.
        -24    2    1    2    0    0  0.45877516678E+03  0.98008001665E+02 -0.51885790148E+03  0.70800452657E+03  0.10943795355E+03 0.  0.
        254    2    1    2    0    0 -0.45877516678E+03 -0.98008001665E+02  0.11690918864E+04  0.15552370086E+04  0.91208886192E+03 0.  0.
         23    2    4    4    0    0 -0.34596387292E+03 -0.17276228549E+03  0.23492424109E+02  0.39767102345E+03  0.89735947376E+02 0.  0.
         23    2    4    4    0    0 -0.11281129386E+03  0.74754283821E+02  0.11455994623E+04  0.11575659852E+04  0.96157636111E+02 0.  0.
          1    1    3    3  502    0  0.37695941229E+03  0.10115370348E+03 -0.47611558995E+03  0.61564318013E+03  0.00000000000E+00 0. -1.
         -2    1    3    3    0  502  0.81815754487E+02 -0.31457018139E+01 -0.42742311524E+02  0.92361346442E+02  0.00000000000E+00 0.  1.
         13    1    5    5    0    0 -0.32708425228E+03 -0.17511186539E+03  0.39097977908E+02  0.37306423759E+03  0.00000000000E+00 0.  1.
        -13    1    5    5    0    0 -0.18879620637E+02  0.23495799048E+01 -0.15605553799E+02  0.24606785863E+02  0.00000000000E+00 0. -1.
          1    1    6    6  503    0  0.12063138393E+02 -0.20260495130E+01  0.30327876168E+02  0.32701747008E+02  0.00000000000E+00 0. -1.
         -1    1    6    6    0  503 -0.12487443226E+03  0.76780333334E+02  0.11152715862E+04  0.11248642382E+04  0.00000000000E+00 0.  1.
<mgrwt>
<rscale>  0 0.21678233E+04</rscale>
<asrwt>0</asrwt>
<pdfrwt beam="1">  1        1 0.12407750E+00 0.21678233E+04</pdfrwt>
<pdfrwt beam="2">  1       -2 0.22411350E+00 0.21678233E+04</pdfrwt>
<totfact> 0.16272463E+00</totfact>
</mgrwt>
</event>
<event>
12    5  0.7038163E-008  0.1633946E+04  0.7818608E-02  0.8799961E-01
         -2   -1    0    0    0  501 -0.00000000000E+00  0.00000000000E+00  0.42142815682E+03  0.42142815682E+03  0.00000000000E+00 0.  1.
          1   -1    0    0  501    0  0.00000000000E+00 -0.00000000000E+00 -0.15837696436E+04  0.15837696436E+04  0.00000000000E+00 0. -1.
        -24    2    1    2    0    0  0.30054552247E+03  0.38063262990E+03 -0.73759840527E+03  0.88628196766E+03  0.78965237442E+02 0.  0.
        254    2    1    2    0    0 -0.30054552247E+03 -0.38063262990E+03 -0.42474308153E+03  0.11189158328E+04  0.91452563961E+03 0.  0.
         23    2    4    4    0    0 -0.59508886298E+01  0.13948673101E+03  0.19325100319E+03  0.25459161816E+03  0.89325139793E+02 0.  0.
         23    2    4    4    0    0 -0.29459463384E+03 -0.52011936091E+03 -0.61799408472E+03  0.86432421462E+03  0.88484526020E+02 0.  0.
          3    1    3    3  502    0  0.23287685717E+03  0.32542244988E+03 -0.55893075812E+03  0.68741180807E+03  0.00000000000E+00 0. -1.
         -4    1    3    3    0  502  0.67668665296E+02  0.55210180023E+02 -0.17866764714E+03  0.19887015959E+03  0.00000000000E+00 0.  1.
         13    1    5    5    0    0 -0.33666447931E+01  0.15103335830E+03  0.18913710145E+03  0.24206456321E+03  0.00000000000E+00 0. -1.
        -13    1    5    5    0    0 -0.25842438366E+01 -0.11546627295E+02  0.41139017388E+01  0.12527054946E+02  0.00000000000E+00 0.  1.
          1    1    6    6  503    0 -0.29152486606E+03 -0.51891377476E+03 -0.62077404440E+03  0.86001085305E+03  0.00000000000E+00 0. -1.
         -1    1    6    6    0  503 -0.30697677774E+01 -0.12055861427E+01  0.27799596777E+01  0.43133615619E+01  0.00000000000E+00 0.  1.
<mgrwt>
<rscale>  0 0.16339463E+04</rscale>
<asrwt>0</asrwt>
<pdfrwt beam="1">  1        1 0.24365686E+00 0.16339463E+04</pdfrwt>
<pdfrwt beam="2">  1       -2 0.64835102E-01 0.16339463E+04</pdfrwt>
<totfact> 0.10553583E+01</totfact>
</mgrwt>
</event>
<event>
12    5  0.5264288E-008  0.1462846E+04  0.7818608E-02  0.8909543E-01
          1   -1    0    0  501    0  0.00000000000E+00  0.00000000000E+00  0.13294017516E+04  0.13294017516E+04  0.00000000000E+00 0. -1.
         -2   -1    0    0    0  501 -0.00000000000E+00 -0.00000000000E+00 -0.40242137607E+03  0.40242137607E+03  0.00000000000E+00 0.  1.
        -24    2    1    2    0    0  0.13707846331E+02  0.61010400783E+02  0.81232926550E+03  0.81871951035E+03  0.80700848761E+02 0.  0.
        254    2    1    2    0    0 -0.13707846331E+02 -0.61010400783E+02  0.11465111003E+03  0.91310361730E+03  0.90371630772E+03 0.  0.
         23    2    4    4    0    0  0.31747260863E+03  0.26819465982E+03  0.99677769810E+02  0.43706386469E+03  0.91498258087E+02 0.  0.
         23    2    4    4    0    0 -0.33118045496E+03 -0.32920506061E+03  0.14973340216E+02  0.47603975262E+03  0.91286250196E+02 0.  0.
          1    1    3    3  502    0 -0.14735146515E+02 -0.11417906280E+02  0.29307808535E+03  0.29367032066E+03  0.00000000000E+00 0. -1.
         -2    1    3    3    0  502  0.28442992846E+02  0.72428307062E+02  0.51925118015E+03  0.52504918969E+03  0.00000000000E+00 0.  1.
         13    1    5    5    0    0  0.29121294086E+03  0.26196013718E+03  0.11199664200E+03  0.40739580044E+03  0.00000000000E+00 0.  1.
        -13    1    5    5    0    0  0.26259667770E+02  0.62345226403E+01 -0.12318872194E+02  0.29668064246E+02  0.00000000000E+00 0. -1.
          4    1    6    6  503    0 -0.29809462506E+01 -0.22815398473E+02 -0.12550614350E+02  0.26209661741E+02  0.00000000000E+00 0. -1.
         -4    1    6    6    0  503 -0.32819950871E+03 -0.30638966213E+03  0.27523954566E+02  0.44983009087E+03  0.00000000000E+00 0.  1.
<mgrwt>
<rscale>  0 0.14628461E+04</rscale>
<asrwt>0</asrwt>
<pdfrwt beam="1">  1        1 0.20452334E+00 0.14628461E+04</pdfrwt>
<pdfrwt beam="2">  1       -2 0.61910981E-01 0.14628461E+04</pdfrwt>
<totfact> 0.17775183E+01</totfact>
</mgrwt>
</event>
<event>
12    5  0.5264288E-008  0.1017447E+04  0.7818608E-02  0.9289613E-01
          1   -1    0    0  501    0  0.00000000000E+00  0.00000000000E+00  0.16388584201E+04  0.16388584201E+04  0.00000000000E+00 0. -1.
         -2   -1    0    0    0  501 -0.00000000000E+00 -0.00000000000E+00 -0.15791467379E+03  0.15791467379E+03  0.00000000000E+00 0.  1.
        -24    2    1    2    0    0  0.31773094983E+02 -0.57735521768E+00  0.23467025847E+02  0.87444508015E+02  0.78012677021E+02 0.  0.
        254    2    1    2    0    0 -0.31773094983E+02  0.57735521768E+00  0.14574767205E+04  0.17093285859E+04  0.89249983806E+03 0.  0.
         23    2    4    4    0    0  0.48711612434E+02 -0.28280321267E+03  0.13487950255E+04  0.13825497606E+04  0.99223694180E+02 0.  0.
         23    2    4    4    0    0 -0.80484707417E+02  0.28338056789E+03  0.10868169498E+03  0.32677882528E+03  0.90500582572E+02 0.  0.
          1    1    3    3  502    0  0.23638163652E+02 -0.25198546997E+02  0.42869132754E+02  0.55058987410E+02  0.00000000000E+00 0. -1.
         -2    1    3    3    0  502  0.81349313310E+01  0.24621191779E+02 -0.19402106907E+02  0.32385520604E+02  0.00000000000E+00 0.  1.
         13    1    5    5    0    0 -0.28567329653E+02 -0.42683694022E+02  0.22127181266E+03  0.22715458423E+03  0.00000000000E+00 0.  1.
        -13    1    5    5    0    0  0.77278942086E+02 -0.24011951865E+03  0.11275232129E+04  0.11553951764E+04  0.00000000000E+00 0. -1.
          1    1    6    6  503    0 -0.92817158838E+02  0.27947320652E+03  0.10851708393E+03  0.31384113122E+03  0.00000000000E+00 0. -1.
         -1    1    6    6    0  503  0.12332451421E+02  0.39073613622E+01  0.16461104621E+00  0.12937694063E+02  0.00000000000E+00 0.  1.
<mgrwt>
<rscale>  0 0.10174474E+04</rscale>
<asrwt>0</asrwt>
<pdfrwt beam="1">  1        1 0.25213205E+00 0.10174474E+04</pdfrwt>
<pdfrwt beam="2">  1       -2 0.24294566E-01 0.10174474E+04</pdfrwt>
<totfact> 0.69763794E+01</totfact>
</mgrwt>
</event>
<event>
12    5  0.5264288E-008  0.1270697E+04  0.7818608E-02  0.9053131E-01
         -2   -1    0    0    0  501 -0.00000000000E+00  0.00000000000E+00  0.28332181949E+03  0.28332181949E+03  0.00000000000E+00 0.  1.
          1   -1    0    0  501    0  0.00000000000E+00 -0.00000000000E+00 -0.14247675960E+04  0.14247675960E+04  0.00000000000E+00 0. -1.
        -24    2    1    2    0    0 -0.25257385050E+03 -0.18458672487E+03 -0.35519087879E+03  0.48000574165E+03  0.79869535399E+02 0.  0.
        254    2    1    2    0    0  0.25257385050E+03  0.18458672487E+03 -0.78625489768E+03  0.12280836738E+04  0.89001513290E+03 0.  0.
         23    2    4    4    0    0  0.29663497747E+03  0.16172778695E+03 -0.96200969818E+03  0.10242558600E+04  0.97412629833E+02 0.  0.
         23    2    4    4    0    0 -0.44061126971E+02  0.22858937914E+02  0.17575480050E+03  0.20382781379E+03  0.90510296770E+02 0.  0.
          1    1    3    3  502    0 -0.24859722659E+03 -0.16835246995E+03 -0.35257197577E+03  0.46308760867E+03  0.00000000000E+00 0. -1.
         -2    1    3    3    0  502 -0.39766239081E+01 -0.16234254917E+02 -0.26189030245E+01  0.16918132978E+02  0.00000000000E+00 0.  1.
         13    1    5    5    0    0  0.19534375515E+02 -0.79013359319E+01 -0.11809307927E+03  0.11995831904E+03  0.00000000000E+00 0. -1.
        -13    1    5    5    0    0  0.27710060196E+03  0.16962912289E+03 -0.84391661891E+03  0.90429754098E+03  0.00000000000E+00 0.  1.
          1    1    6    6  503    0  0.12788642682E+02  0.38363815059E+02  0.99899690514E+02  0.10777420773E+03  0.00000000000E+00 0. -1.
         -1    1    6    6    0  503 -0.56849769654E+02 -0.15504877145E+02  0.75855109989E+02  0.96053606056E+02  0.00000000000E+00 0.  1.
<mgrwt>
<rscale>  0 0.12706970E+04</rscale>
<asrwt>0</asrwt>
<pdfrwt beam="1">  1        1 0.21919502E+00 0.12706970E+04</pdfrwt>
<pdfrwt beam="2">  1       -2 0.43587972E-01 0.12706970E+04</pdfrwt>
<totfact> 0.31822677E+01</totfact>
</mgrwt>
</event>
<event>
12    5  0.5264288E-008  0.1357474E+04  0.7818608E-02  0.8985190E-01
          1   -1    0    0  501    0  0.00000000000E+00  0.00000000000E+00  0.41071244093E+04  0.41071244093E+04  0.00000000000E+00 0. -1.
         -2   -1    0    0    0  501 -0.00000000000E+00 -0.00000000000E+00 -0.11216703495E+03  0.11216703495E+03  0.00000000000E+00 0.  1.
        -24    2    1    2    0    0  0.26895293611E+03  0.67276221256E+02  0.18942444932E+04  0.19159065885E+04  0.75326515293E+02 0.  0.
        254    2    1    2    0    0 -0.26895293611E+03 -0.67276221256E+02  0.21007128811E+04  0.23033848558E+04  0.90317518406E+03 0.  0.
         23    2    4    4    0    0 -0.27229544876E+03 -0.28383249575E+03  0.20113394317E+04  0.20515996084E+04  0.94175083455E+02 0.  0.
         23    2    4    4    0    0  0.33425126436E+01  0.21655627450E+03  0.89373449404E+02  0.25178524742E+03  0.92197640668E+02 0.  0.
          1    1    3    3  502    0  0.22122011281E+03  0.42817136180E+02  0.16803473429E+04  0.16953875186E+04  0.00000000000E+00 0. -1.
         -2    1    3    3    0  502  0.47732823305E+02  0.24459085076E+02  0.21389715034E+03  0.22051906990E+03  0.00000000000E+00 0.  1.
         13    1    5    5    0    0 -0.24410759115E+03 -0.25858675797E+03  0.19213005843E+04  0.19539323332E+04  0.00000000000E+00 0. -1.
        -13    1    5    5    0    0 -0.28187857606E+02 -0.25245737786E+02  0.90038847397E+02  0.97667275140E+02  0.00000000000E+00 0.  1.
          3    1    6    6  503    0 -0.41848220731E+02  0.69508314627E+02  0.23756324043E+02  0.84540181646E+02  0.00000000000E+00 0. -1.
         -3    1    6    6    0  503  0.45190733375E+02  0.14704795987E+03  0.65617125361E+02  0.16724506577E+03  0.00000000000E+00 0.  1.
<mgrwt>
<rscale>  0 0.13574741E+04</rscale>
<asrwt>0</asrwt>
<pdfrwt beam="1">  1        1 0.63186518E+00 0.13574741E+04</pdfrwt>
<pdfrwt beam="2">  1       -2 0.17256470E-01 0.13574741E+04</pdfrwt>
<totfact> 0.18790787E+00</totfact>
</mgrwt>
</event>
<event>
12    5  0.5264288E-008  0.3204975E+04  0.7818608E-02  0.8187504E-01
          1   -1    0    0  501    0  0.00000000000E+00  0.00000000000E+00  0.15571804442E+04  0.15571804442E+04  0.00000000000E+00 0. -1.
         -2   -1    0    0    0  501 -0.00000000000E+00 -0.00000000000E+00 -0.16491132471E+04  0.16491132471E+04  0.00000000000E+00 0.  1.
        -24    2    1    2    0    0  0.10243001958E+04 -0.10575843645E+04  0.42119091672E+02  0.14750436492E+04  0.79398802856E+02 0.  0.
        254    2    1    2    0    0 -0.10243001958E+04  0.10575843645E+04 -0.13405189451E+03  0.17312500421E+04  0.90087802660E+03 0.  0.
         23    2    4    4    0    0 -0.24155245669E+03  0.57410248598E+03 -0.42751422766E+03  0.76131143979E+03  0.94262610683E+02 0.  0.
         23    2    4    4    0    0 -0.78274773911E+03  0.48348187853E+03  0.29346233315E+03  0.96993860234E+03  0.90620093724E+02 0.  0.
          1    1    3    3  502    0  0.53522910005E+03 -0.58729352177E+03 -0.86715291317E+01  0.79464398674E+03  0.00000000000E+00 0. -1.
         -2    1    3    3    0  502  0.48907109575E+03 -0.47029084275E+03  0.50790620803E+02  0.68039966242E+03  0.00000000000E+00 0.  1.
         13    1    5    5    0    0 -0.22953786936E+03  0.45143278685E+03 -0.35219717414E+03  0.61686468856E+03  0.00000000000E+00 0.  1.
        -13    1    5    5    0    0 -0.12014587326E+02  0.12266969913E+03 -0.75317053519E+02  0.14444675124E+03  0.00000000000E+00 0. -1.
          1    1    6    6  503    0 -0.27147691944E+03  0.14003720805E+03  0.13497579538E+03  0.33395898366E+03  0.00000000000E+00 0. -1.
         -1    1    6    6    0  503 -0.51127081967E+03  0.34344467048E+03  0.15848653777E+03  0.63597961868E+03  0.00000000000E+00 0.  1.
<mgrwt>
<rscale>  0 0.32049754E+04</rscale>
<asrwt>0</asrwt>
<pdfrwt beam="1">  1        1 0.23956622E+00 0.32049754E+04</pdfrwt>
<pdfrwt beam="2">  1       -2 0.25370973E+00 0.32049754E+04</pdfrwt>
<totfact> 0.26751201E-01</totfact>
</mgrwt>
</event>
<event>
12    5  0.5264288E-008  0.1498570E+04  0.7818608E-02  0.8885404E-01
          1   -1    0    0  501    0  0.00000000000E+00  0.00000000000E+00  0.14548444831E+04  0.14548444831E+04  0.00000000000E+00 0. -1.
         -2   -1    0    0    0  501 -0.00000000000E+00 -0.00000000000E+00 -0.38590249257E+03  0.38590249257E+03  0.00000000000E+00 0.  1.
        -24    2    1    2    0    0 -0.22277255541E+03 -0.48574883076E+02  0.87586597044E+03  0.91147098166E+03  0.10793989770E+03 0.  0.
        254    2    1    2    0    0  0.22277255541E+03  0.48574883076E+02  0.19307602005E+03  0.92927599398E+03  0.87993658451E+03 0.  0.
         23    2    4    4    0    0  0.21139383399E+03 -0.33869350693E+03  0.31134390771E+03  0.51487344946E+03  0.93589504751E+02 0.  0.
         23    2    4    4    0    0  0.11378721415E+02  0.38726839001E+03 -0.11826788766E+03  0.41440254452E+03  0.87383605175E+02 0.  0.
          1    1    3    3  502    0 -0.16271106519E+03 -0.44836027782E+01  0.72701148012E+03  0.74501052721E+03  0.00000000000E+00 0. -1.
         -2    1    3    3    0  502 -0.60061490216E+02 -0.44091280298E+02  0.14885449032E+03  0.16646045444E+03  0.00000000000E+00 0.  1.
         13    1    5    5    0    0  0.11336723871E+02  0.41079124676E+01  0.16497173548E+02  0.20434113341E+02  0.00000000000E+00 0.  1.
        -13    1    5    5    0    0  0.20005711012E+03 -0.34280141940E+03  0.29484673417E+03  0.49443933612E+03  0.00000000000E+00 0. -1.
          1    1    6    6  503    0 -0.12310474931E+01  0.15458994993E+03 -0.34562915489E+01  0.15463348295E+03  0.00000000000E+00 0. -1.
         -1    1    6    6    0  503  0.12609768908E+02  0.23267844008E+03 -0.11481159611E+03  0.25976906158E+03  0.00000000000E+00 0.  1.
<mgrwt>
<rscale>  0 0.14985701E+04</rscale>
<asrwt>0</asrwt>
<pdfrwt beam="1">  1        1 0.22382223E+00 0.14985701E+04</pdfrwt>
<pdfrwt beam="2">  1       -2 0.59369615E-01 0.14985701E+04</pdfrwt>
<totfact> 0.15809780E+01</totfact>
</mgrwt>
</event>
<event>
12    5  0.5264288E-008  0.1516970E+04  0.7818608E-02  0.8873246E-01
          1   -1    0    0  501    0  0.00000000000E+00  0.00000000000E+00  0.58261822103E+03  0.58261822103E+03  0.00000000000E+00 0. -1.
         -2   -1    0    0    0  501 -0.00000000000E+00 -0.00000000000E+00 -0.98743770255E+03  0.98743770255E+03  0.00000000000E+00 0.  1.
        -24    2    1    2    0    0 -0.92980967921E+02 -0.19694105437E+03  0.31889008699E+03  0.39463827887E+03  0.81346446024E+02 0.  0.
        254    2    1    2    0    0  0.92980967921E+02  0.19694105437E+03 -0.72370956851E+03  0.11754176447E+04  0.90023322569E+03 0.  0.
         23    2    4    4    0    0  0.47657706062E+03  0.16764916003E+02 -0.31005945168E+03  0.57584194020E+03  0.89723572188E+02 0.  0.
         23    2    4    4    0    0 -0.38359609270E+03  0.18017613837E+03 -0.41365011684E+03  0.59957570450E+03  0.93676054042E+02 0.  0.
          1    1    3    3  502    0 -0.30397905969E+02 -0.14238014077E+03  0.16712053881E+03  0.22164253126E+03  0.00000000000E+00 0. -1.
         -2    1    3    3    0  502 -0.62583061952E+02 -0.54560913596E+02  0.15176954818E+03  0.17299574761E+03  0.00000000000E+00 0.  1.
         13    1    5    5    0    0  0.13378681901E+03  0.45179926350E+02 -0.86020720903E+02  0.16534721985E+03  0.00000000000E+00 0. -1.
        -13    1    5    5    0    0  0.34279024160E+03 -0.28415010347E+02 -0.22403873077E+03  0.41049472035E+03  0.00000000000E+00 0.  1.
          1    1    6    6  503    0 -0.12896386107E+03  0.16626431066E+02 -0.14667327464E+03  0.19601317600E+03  0.00000000000E+00 0. -1.
         -1    1    6    6    0  503 -0.25463223162E+03  0.16354970730E+03 -0.26697684220E+03  0.40356252850E+03  0.00000000000E+00 0.  1.
<mgrwt>
<rscale>  0 0.15169696E+04</rscale>
<asrwt>0</asrwt>
<pdfrwt beam="1">  1        1 0.89633573E-01 0.15169696E+04</pdfrwt>
<pdfrwt beam="2">  1       -2 0.15191349E+00 0.15169696E+04</pdfrwt>
<totfact> 0.87434971E+00</totfact>
</mgrwt>
</event>
<event>
12    5  0.5264288E-008  0.1573400E+04  0.7818608E-02  0.8837058E-01
         -4   -1    0    0    0  501 -0.00000000000E+00  0.00000000000E+00  0.92490081688E+03  0.92490081688E+03  0.00000000000E+00 0.  1.
          1   -1    0    0  501    0  0.00000000000E+00 -0.00000000000E+00 -0.66914958463E+03  0.66914958463E+03  0.00000000000E+00 0. -1.
        -24    2    1    2    0    0 -0.33630401094E+03 -0.36885200996E+03  0.24396516855E+03  0.56121983265E+03  0.79350513976E+02 0.  0.
        254    2    1    2    0    0  0.33630401094E+03  0.36885200996E+03  0.11786063704E+02  0.10328305689E+04  0.90412824292E+03 0.  0.
         23    2    4    4    0    0  0.39337002159E+03  0.16395524248E+03 -0.37977063565E+03  0.57814486620E+03  0.91675815729E+02 0.  0.
         23    2    4    4    0    0 -0.57066010645E+02  0.20489676748E+03  0.39155669936E+03  0.45468570266E+03  0.90461176754E+02 0.  0.
          1    1    3    3  502    0 -0.31084073609E+01 -0.48465329530E+01 -0.57683082050E+01  0.81501200932E+01  0.00000000000E+00 0. -1.
         -2    1    3    3    0  502 -0.33319560358E+03 -0.36400547701E+03  0.24973347676E+03  0.55306971256E+03  0.00000000000E+00 0.  1.
         13    1    5    5    0    0  0.19195822076E+03  0.34354141971E+02 -0.19363576715E+03  0.27481443905E+03  0.00000000000E+00 0. -1.
        -13    1    5    5    0    0  0.20141180083E+03  0.12960110051E+03 -0.18613486850E+03  0.30333042715E+03  0.00000000000E+00 0.  1.
          4    1    6    6  503    0 -0.75650793947E+02  0.10519686727E+03  0.22751265923E+03  0.26182328701E+03  0.00000000000E+00 0.  1.
         -4    1    6    6    0  503  0.18584783302E+02  0.99699900206E+02  0.16404404012E+03  0.19286241565E+03  0.00000000000E+00 0. -1.
<mgrwt>
<rscale>  0 0.15734001E+04</rscale>
<asrwt>0</asrwt>
<pdfrwt beam="1">  1        1 0.10294609E+00 0.15734001E+04</pdfrwt>
<pdfrwt beam="2">  1       -4 0.14229243E+00 0.15734001E+04</pdfrwt>
<totfact> 0.46265005E+00</totfact>
</mgrwt>
</event>
<event>
12    5  0.5264288E-008  0.1715161E+04  0.7818608E-02  0.8752765E-01
         -2   -1    0    0    0  501 -0.00000000000E+00  0.00000000000E+00  0.23736261790E+03  0.23736261790E+03  0.00000000000E+00 0.  1.
          1   -1    0    0  501    0  0.00000000000E+00 -0.00000000000E+00 -0.30983986853E+04  0.30983986853E+04  0.00000000000E+00 0. -1.
        -24    2    1    2    0    0 -0.34017305952E+03 -0.17618075712E+02 -0.20392006841E+04  0.20701541222E+04  0.10569083383E+03 0.  0.
        254    2    1    2    0    0  0.34017305952E+03  0.17618075712E+02 -0.82183538328E+03  0.12656071810E+04  0.90017777827E+03 0.  0.
         23    2    4    4    0    0  0.93036648939E+02  0.40249801621E+03 -0.15463676649E+03  0.45030978799E+03  0.90586447706E+02 0.  0.
         23    2    4    4    0    0  0.24713641058E+03 -0.38487994050E+03 -0.66719861679E+03  0.81529739305E+03  0.10171956959E+03 0.  0.
          1    1    3    3  502    0 -0.34007886585E+03 -0.18187180973E+02 -0.20405037577E+04  0.20687290769E+04  0.00000000000E+00 0. -1.
         -2    1    3    3    0  502 -0.94193664647E-01  0.56910526180E+00  0.13030735608E+01  0.14250452450E+01  0.00000000000E+00 0.  1.
         13    1    5    5    0    0  0.10639898203E+03  0.30031412906E+03 -0.13158948796E+03  0.34471018673E+03  0.00000000000E+00 0. -1.
        -13    1    5    5    0    0 -0.13362333096E+02  0.10218388715E+03 -0.23047278527E+02  0.10559960126E+03  0.00000000000E+00 0.  1.
          1    1    6    6  503    0  0.25284911419E+03 -0.38513189338E+03 -0.66534613732E+03  0.80928655759E+03  0.00000000000E+00 0. -1.
         -1    1    6    6    0  503 -0.57127036103E+01  0.25195287753E+00 -0.18524794673E+01  0.60108354634E+01  0.00000000000E+00 0.  1.
<mgrwt>
<rscale>  0 0.17151607E+04</rscale>
<asrwt>0</asrwt>
<pdfrwt beam="1">  1        1 0.47667671E+00 0.17151607E+04</pdfrwt>
<pdfrwt beam="2">  1       -2 0.36517327E-01 0.17151607E+04</pdfrwt>
<totfact> 0.29959474E+00</totfact>
</mgrwt>
</event>
<event>
12    5  0.5264288E-008  0.1512159E+04  0.7818608E-02  0.8876407E-01
         -2   -1    0    0    0  501 -0.00000000000E+00  0.00000000000E+00  0.23318317122E+03  0.23318317122E+03  0.00000000000E+00 0.  1.
          1   -1    0    0  501    0  0.00000000000E+00 -0.00000000000E+00 -0.24515332393E+04  0.24515332393E+04  0.00000000000E+00 0. -1.
        -24    2    1    2    0    0  0.40246347128E+03  0.65595264304E+02 -0.25583069176E+03  0.48798522198E+03  0.80004059958E+02 0.  0.
        254    2    1    2    0    0 -0.40246347128E+03 -0.65595264304E+02 -0.19625193763E+04  0.21967311885E+04  0.89881367805E+03 0.  0.
         23    2    4    4    0    0 -0.54589541055E+03 -0.27889366413E+03 -0.17338247079E+04  0.18408430063E+04  0.82288400665E+02 0.  0.
         23    2    4    4    0    0  0.14343193927E+03  0.21329839983E+03 -0.22869466841E+03  0.35588818225E+03  0.91028667640E+02 0.  0.
          3    1    3    3  502    0  0.17405931108E+01  0.10431298724E+02 -0.30972811999E+01  0.11019746289E+02  0.00000000000E+00 0. -1.
         -4    1    3    3    0  502  0.40072287817E+03  0.55163965580E+02 -0.25273341056E+03  0.47696547569E+03  0.00000000000E+00 0.  1.
         13    1    5    5    0    0 -0.30544488386E+02 -0.33154783752E+01 -0.52273914861E+02  0.60634316542E+02  0.00000000000E+00 0. -1.
        -13    1    5    5    0    0 -0.51535092217E+03 -0.27557818576E+03 -0.16815507930E+04  0.17802086897E+04  0.00000000000E+00 0.  1.
          2    1    6    6  503    0  0.42045173130E+02  0.36283293830E+02 -0.93008243514E+01  0.56309673488E+02  0.00000000000E+00 0. -1.
         -2    1    6    6    0  503  0.10138676614E+03  0.17701510600E+03 -0.21939384406E+03  0.29957850876E+03  0.00000000000E+00 0.  1.
<mgrwt>
<rscale>  0 0.15121591E+04</rscale>
<asrwt>0</asrwt>
<pdfrwt beam="1">  1        1 0.37715897E+00 0.15121591E+04</pdfrwt>
<pdfrwt beam="2">  1       -2 0.35874333E-01 0.15121591E+04</pdfrwt>
<totfact> 0.90956660E+00</totfact>
</mgrwt>
</event>
<event>
12    5  0.5264288E-008  0.2763678E+04  0.7818608E-02  0.8314634E-01
          1   -1    0    0  501    0  0.00000000000E+00  0.00000000000E+00  0.13619144608E+04  0.13619144608E+04  0.00000000000E+00 0. -1.
         -2   -1    0    0    0  501 -0.00000000000E+00 -0.00000000000E+00 -0.14020551800E+04  0.14020551800E+04  0.00000000000E+00 0.  1.
        -24    2    1    2    0    0 -0.27739054695E+03 -0.11211846924E+04  0.41358414717E+03  0.12293834790E+04  0.79569224463E+02 0.  0.
        254    2    1    2    0    0  0.27739054695E+03  0.11211846924E+04 -0.45372486644E+03  0.15345861619E+04  0.90282213293E+03 0.  0.
         23    2    4    4    0    0  0.44231172279E+03  0.39610093349E+03  0.91548725943E+02  0.60787817039E+03  0.92731284833E+02 0.  0.
         23    2    4    4    0    0 -0.16492117584E+03  0.72508375893E+03 -0.54527359238E+03  0.92670799148E+03  0.92298208057E+02 0.  0.
          1    1    3    3  502    0 -0.17214114955E+03 -0.72280922754E+03  0.30566796512E+03  0.80344175874E+03  0.00000000000E+00 0. -1.
         -2    1    3    3    0  502 -0.10524939740E+03 -0.39837546489E+03  0.10791618205E+03  0.42594172022E+03  0.00000000000E+00 0.  1.
         13    1    5    5    0    0  0.25519032556E+03  0.21058658199E+03  0.62493225776E+01  0.33091972563E+03  0.00000000000E+00 0. -1.
        -13    1    5    5    0    0  0.18712139723E+03  0.18551435150E+03  0.85299403365E+02  0.27695844477E+03  0.00000000000E+00 0.  1.
          1    1    6    6  503    0 -0.36191950546E+02  0.23855773448E+03 -0.12909817569E+03  0.27365304481E+03  0.00000000000E+00 0. -1.
         -1    1    6    6    0  503 -0.12872922529E+03  0.48652602445E+03 -0.41617541669E+03  0.65305494667E+03  0.00000000000E+00 0.  1.
<mgrwt>
<rscale>  0 0.27636781E+04</rscale>
<asrwt>0</asrwt>
<pdfrwt beam="1">  1        1 0.20952530E+00 0.27636781E+04</pdfrwt>
<pdfrwt beam="2">  1       -2 0.21570080E+00 0.27636781E+04</pdfrwt>
<totfact> 0.65590721E-01</totfact>
</mgrwt>
</event>
<event>
12    5  0.5264288E-008  0.1138331E+04  0.7818608E-02  0.9168616E-01
          1   -1    0    0  501    0  0.00000000000E+00  0.00000000000E+00  0.13258158521E+04  0.13258158521E+04  0.00000000000E+00 0. -1.
         -2   -1    0    0    0  501 -0.00000000000E+00 -0.00000000000E+00 -0.24433975090E+03  0.24433975090E+03  0.00000000000E+00 0.  1.
        -24    2    1    2    0    0 -0.14024051961E+03 -0.16301600721E+01  0.28736230071E+03  0.32974650576E+03  0.80533256678E+02 0.  0.
        254    2    1    2    0    0  0.14024051961E+03  0.16301600721E+01  0.79411380048E+03  0.12404090972E+04  0.94251150635E+03 0.  0.
         23    2    4    4    0    0 -0.31031929912E+03  0.16370259815E+03  0.73319591487E+02  0.37013534273E+03  0.92346095714E+02 0.  0.
         23    2    4    4    0    0  0.45055981873E+03 -0.16207243808E+03  0.72079420899E+03  0.87027375449E+03  0.92522919377E+02 0.  0.
          3    1    3    3  502    0 -0.12857343409E+03 -0.12739875117E+02  0.28569212305E+03  0.31354971144E+03  0.00000000000E+00 0. -1.
         -4    1    3    3    0  502 -0.11667085521E+02  0.11109715045E+02  0.16701776609E+01  0.16196794323E+02  0.00000000000E+00 0.  1.
         13    1    5    5    0    0 -0.31532707512E+03  0.15204205790E+03  0.71781072114E+02  0.35735203090E+03  0.00000000000E+00 0. -1.
        -13    1    5    5    0    0  0.50077760021E+01  0.11660540251E+02  0.15385193730E+01  0.12783311828E+02  0.00000000000E+00 0.  1.
          4    1    6    6  503    0  0.31333903364E+03 -0.15540877247E+03  0.49881049362E+03  0.60921682931E+03  0.00000000000E+00 0. -1.
         -4    1    6    6    0  503  0.13722078509E+03 -0.66636656099E+01  0.22198371537E+03  0.26105692519E+03  0.00000000000E+00 0.  1.
<mgrwt>
<rscale>  0 0.11383313E+04</rscale>
<asrwt>0</asrwt>
<pdfrwt beam="1">  1        1 0.20397167E+00 0.11383313E+04</pdfrwt>
<pdfrwt beam="2">  1       -2 0.37590732E-01 0.11383313E+04</pdfrwt>
<totfact> 0.50448440E+01</totfact>
</mgrwt>
</event>
<event>
12    5  0.5264288E-008  0.1833741E+04  0.7818608E-02  0.8688559E-01
          1   -1    0    0  501    0  0.00000000000E+00  0.00000000000E+00  0.60456797451E+03  0.60456797451E+03  0.00000000000E+00 0. -1.
         -2   -1    0    0    0  501 -0.00000000000E+00 -0.00000000000E+00 -0.13904995780E+04  0.13904995780E+04  0.00000000000E+00 0.  1.
        -24    2    1    2    0    0  0.16534312021E+03 -0.23628842415E+03 -0.98986631332E+03  0.10343548058E+04  0.82969748625E+02 0.  0.
        254    2    1    2    0    0 -0.16534312021E+03  0.23628842415E+03  0.20393470979E+03  0.96071274678E+03  0.89342545809E+03 0.  0.
         23    2    4    4    0    0 -0.41783998685E+03 -0.85905660498E+01  0.36600923729E+03  0.56295919197E+03  0.91083684646E+02 0.  0.
         23    2    4    4    0    0  0.25249686664E+03  0.24487899020E+03 -0.16207452750E+03  0.39775355480E+03  0.90660633077E+02 0.  0.
          1    1    3    3  502    0  0.12669723087E+02 -0.81346115243E+02 -0.25363680157E+03  0.26666334480E+03  0.00000000000E+00 0. -1.
         -2    1    3    3    0  502  0.15267339713E+03 -0.15494230891E+03 -0.73622951175E+03  0.76769146098E+03  0.00000000000E+00 0.  1.
         13    1    5    5    0    0 -0.10613279987E+03  0.37526989321E+02  0.10073348665E+03  0.15106184650E+03  0.00000000000E+00 0.  1.
        -13    1    5    5    0    0 -0.31170718698E+03 -0.46117555371E+02  0.26527575064E+03  0.41189734547E+03  0.00000000000E+00 0. -1.
          3    1    6    6  503    0  0.21868768434E+03  0.18265119077E+03 -0.95376036607E+02  0.30047021339E+03  0.00000000000E+00 0. -1.
         -3    1    6    6    0  503  0.33809182291E+02  0.62227799432E+02 -0.66698490896E+02  0.97283341416E+02  0.00000000000E+00 0.  1.
<mgrwt>
<rscale>  0 0.18337410E+04</rscale>
<asrwt>0</asrwt>
<pdfrwt beam="1">  1        1 0.93010458E-01 0.18337410E+04</pdfrwt>
<pdfrwt beam="2">  1       -2 0.21392301E+00 0.18337410E+04</pdfrwt>
<totfact> 0.30129021E+00</totfact>
</mgrwt>
</event>
<event>
12    5  0.5264288E-008  0.1741717E+04  0.7818608E-02  0.8737923E-01
          1   -1    0    0  501    0  0.00000000000E+00  0.00000000000E+00  0.56027726609E+03  0.56027726609E+03  0.00000000000E+00 0. -1.
         -2   -1    0    0    0  501 -0.00000000000E+00 -0.00000000000E+00 -0.13536056825E+04  0.13536056825E+04  0.00000000000E+00 0.  1.
        -24    2    1    2    0    0  0.32770665276E+03 -0.45842940821E+02  0.30478694027E+03  0.45661596858E+03  0.78165454742E+02 0.  0.
        254    2    1    2    0    0 -0.32770665276E+03  0.45842940821E+02 -0.10981153567E+04  0.14572669800E+04  0.89904198397E+03 0.  0.
         23    2    4    4    0    0 -0.12292805906E+03  0.54214011816E+02 -0.11997119339E+04  0.12107367146E+04  0.92326599470E+02 0.  0.
         23    2    4    4    0    0 -0.20477859371E+03 -0.83710709948E+01  0.10159657725E+03  0.24653026537E+03  0.91929102917E+02 0.  0.
          3    1    3    3  502    0  0.30838542718E+03 -0.54146855652E+02  0.30266980118E+03  0.43547957727E+03  0.00000000000E+00 0. -1.
         -4    1    3    3    0  502  0.19321225587E+02  0.83039148316E+01  0.21171390884E+01  0.21136391310E+02  0.00000000000E+00 0.  1.
         13    1    5    5    0    0 -0.79155847061E+02  0.15369875908E+02 -0.35690245724E+03  0.36589786170E+03  0.00000000000E+00 0.  1.
        -13    1    5    5    0    0 -0.43772211997E+02  0.38844135908E+02 -0.84280947667E+03  0.84483885292E+03  0.00000000000E+00 0. -1.
          3    1    6    6  503    0 -0.10503216828E+03 -0.44577299467E+02  0.28284291200E+02  0.11755378824E+03  0.00000000000E+00 0. -1.
         -3    1    6    6    0  503 -0.99746425425E+02  0.36206228472E+02  0.73312286054E+02  0.12897647713E+03  0.00000000000E+00 0.  1.
<mgrwt>
<rscale>  0 0.17417170E+04</rscale>
<asrwt>0</asrwt>
<pdfrwt beam="1">  1        1 0.86196502E-01 0.17417170E+04</pdfrwt>
<pdfrwt beam="2">  1       -2 0.20824703E+00 0.17417170E+04</pdfrwt>
<totfact> 0.36826784E+00</totfact>
</mgrwt>
</event>
<event>
12    5  0.5264288E-008  0.1653201E+04  0.7818608E-02  0.8788515E-01
         -2   -1    0    0    0  501 -0.00000000000E+00  0.00000000000E+00  0.63957660033E+03  0.63957660033E+03  0.00000000000E+00 0.  1.
          1   -1    0    0  501    0  0.00000000000E+00 -0.00000000000E+00 -0.10683140799E+04  0.10683140799E+04  0.00000000000E+00 0. -1.
        -24    2    1    2    0    0  0.25844557238E+03  0.11914574361E+03  0.36844086981E+03  0.47212077142E+03  0.78482648795E+02 0.  0.
        254    2    1    2    0    0 -0.25844557238E+03 -0.11914574361E+03 -0.79717834934E+03  0.12357699088E+04  0.90035777591E+03 0.  0.
         23    2    4    4    0    0  0.19920753559E+03 -0.25179290391E+03 -0.64893050544E+03  0.72947666945E+03  0.89118469937E+02 0.  0.
         23    2    4    4    0    0 -0.45765310797E+03  0.13264716030E+03 -0.14824784390E+03  0.50629323931E+03  0.85520667578E+02 0.  0.
          3    1    3    3  502    0  0.30144456842E+02  0.29169796552E+02  0.21412335647E+02  0.47096214572E+02  0.00000000000E+00 0. -1.
         -4    1    3    3    0  502  0.22830111554E+03  0.89975947057E+02  0.34702853416E+03  0.42502455685E+03  0.00000000000E+00 0.  1.
         13    1    5    5    0    0 -0.10372732662E+01  0.63696983553E+01 -0.11250391181E+02  0.12969976665E+02  0.00000000000E+00 0.  1.
        -13    1    5    5    0    0  0.20024480885E+03 -0.25816260227E+03 -0.63768011426E+03  0.71650669279E+03  0.00000000000E+00 0. -1.
          3    1    6    6  503    0 -0.38144531708E+03  0.13382268883E+03 -0.14678046202E+03  0.43006225828E+03  0.00000000000E+00 0. -1.
         -3    1    6    6    0  503 -0.76207790888E+02 -0.11755285263E+01 -0.14673818813E+01  0.76230981031E+02  0.00000000000E+00 0.  1.
<mgrwt>
<rscale>  0 0.16532014E+04</rscale>
<asrwt>0</asrwt>
<pdfrwt beam="1">  1        1 0.16435601E+00 0.16532014E+04</pdfrwt>
<pdfrwt beam="2">  1       -2 0.98396400E-01 0.16532014E+04</pdfrwt>
<totfact> 0.96328787E+00</totfact>
</mgrwt>
</event>
<event>
12    5  0.5264288E-008  0.1128058E+04  0.7818608E-02  0.9178268E-01
          1   -1    0    0  501    0  0.00000000000E+00  0.00000000000E+00  0.45343447773E+03  0.45343447773E+03  0.00000000000E+00 0. -1.
         -2   -1    0    0    0  501 -0.00000000000E+00 -0.00000000000E+00 -0.70159857517E+03  0.70159857517E+03  0.00000000000E+00 0.  1.
        -24    2    1    2    0    0  0.14610346581E+03  0.78040127662E+02  0.77229697585E+02  0.19911578184E+03  0.79032804215E+02 0.  0.
        254    2    1    2    0    0 -0.14610346581E+03 -0.78040127662E+02 -0.32539379502E+03  0.95591727106E+03  0.88343659819E+03 0.  0.
         23    2    4    4    0    0  0.12943671385E+03 -0.38504062792E+03 -0.33334584441E+03  0.53351712754E+03  0.92254676587E+02 0.  0.
         23    2    4    4    0    0 -0.27554017966E+03  0.30700050026E+03  0.79520493904E+01  0.42240014352E+03  0.90481757230E+02 0.  0.
          1    1    3    3  502    0  0.14517476731E+03  0.78922939921E+02  0.88721484632E+02  0.18755278016E+03  0.00000000000E+00 0. -1.
         -4    1    3    3    0  502  0.92869849602E+00 -0.88281225815E+00 -0.11491787047E+02  0.11563001682E+02  0.00000000000E+00 0.  1.
         13    1    5    5    0    0  0.47048672091E+02 -0.27240447890E+03 -0.20820236277E+03  0.34607224901E+03  0.00000000000E+00 0. -1.
        -13    1    5    5    0    0  0.82388041759E+02 -0.11263614902E+03 -0.12514348164E+03  0.18744487853E+03  0.00000000000E+00 0.  1.
          2    1    6    6  503    0 -0.17308037728E+03  0.25284371558E+03  0.37700845520E+01  0.30643265988E+03  0.00000000000E+00 0. -1.
         -2    1    6    6    0  503 -0.10245980238E+03  0.54156784678E+02  0.41819648384E+01  0.11596748363E+03  0.00000000000E+00 0.  1.
<mgrwt>
<rscale>  0 0.11280585E+04</rscale>
<asrwt>0</asrwt>
<pdfrwt beam="1">  1        1 0.69759151E-01 0.11280585E+04</pdfrwt>
<pdfrwt beam="2">  1       -2 0.10793824E+00 0.11280585E+04</pdfrwt>
<totfact> 0.30304463E+01</totfact>
</mgrwt>
</event>
<event>
12    5  0.5264288E-008  0.1534431E+04  0.7818608E-02  0.8861874E-01
          1   -1    0    0  501    0  0.00000000000E+00  0.00000000000E+00  0.17372381265E+04  0.17372381265E+04  0.00000000000E+00 0. -1.
         -2   -1    0    0    0  501 -0.00000000000E+00 -0.00000000000E+00 -0.33882477024E+03  0.33882477024E+03  0.00000000000E+00 0.  1.
        -24    2    1    2    0    0  0.21893031671E+03 -0.41204908147E+03  0.23080386651E+03  0.52696954969E+03  0.81924064748E+02 0.  0.
        254    2    1    2    0    0 -0.21893031671E+03  0.41204908147E+03  0.11676094898E+04  0.15490933471E+04  0.90480017032E+03 0.  0.
         23    2    4    4    0    0 -0.22981654866E+03  0.26465514936E+02 -0.62689035636E+02  0.25644422328E+03  0.91201178406E+02 0.  0.
         23    2    4    4    0    0  0.10886231954E+02  0.38558356654E+03  0.12302985254E+04  0.12926491238E+04  0.92271874291E+02 0.  0.
          1    1    3    3  502    0  0.17214208084E+03 -0.35399190801E+03  0.22192692764E+03  0.45187910789E+03  0.00000000000E+00 0. -1.
         -2    1    3    3    0  502  0.46788235869E+02 -0.58057173462E+02  0.88769388716E+01  0.75090441801E+02  0.00000000000E+00 0.  1.
         13    1    5    5    0    0 -0.15549495813E+03  0.58387332626E+02 -0.28028583841E+02  0.16844394951E+03  0.00000000000E+00 0. -1.
        -13    1    5    5    0    0 -0.74321590534E+02 -0.31921817690E+02 -0.34660451795E+02  0.88000273765E+02  0.00000000000E+00 0.  1.
          3    1    6    6  503    0 -0.75180891104E+01  0.35654864344E+03  0.11710571232E+04  0.12241561348E+04  0.00000000000E+00 0. -1.
         -3    1    6    6    0  503  0.18404321064E+02  0.29034923100E+02  0.59241402276E+02  0.68492988962E+02  0.00000000000E+00 0.  1.
<mgrwt>
<rscale>  0 0.15344306E+04</rscale>
<asrwt>0</asrwt>
<pdfrwt beam="1">  1        1 0.26726740E+00 0.15344306E+04</pdfrwt>
<pdfrwt beam="2">  1       -2 0.52126889E-01 0.15344306E+04</pdfrwt>
<totfact> 0.13224858E+01</totfact>
</mgrwt>
</event>
<event>
12    5  0.5264288E-008  0.2429470E+04  0.7818608E-02  0.8428552E-01
         -2   -1    0    0    0  501 -0.00000000000E+00  0.00000000000E+00  0.99594591591E+03  0.99594591591E+03  0.00000000000E+00 0.  1.
          1   -1    0    0  501    0  0.00000000000E+00 -0.00000000000E+00 -0.14815872499E+04  0.14815872499E+04  0.00000000000E+00 0. -1.
        -24    2    1    2    0    0  0.19808272333E+03  0.50791516122E+03 -0.11172588372E+04  0.12455823520E+04  0.77417763163E+02 0.  0.
        254    2    1    2    0    0 -0.19808272333E+03 -0.50791516122E+03  0.63161750320E+03  0.12319508138E+04  0.90639260865E+03 0.  0.
         23    2    4    4    0    0 -0.55023776648E+03 -0.34582302174E+03  0.44455898660E+03  0.79303329181E+03  0.94413703020E+02 0.  0.
         23    2    4    4    0    0  0.35215504315E+03 -0.16209213949E+03  0.18705851660E+03  0.43891752200E+03  0.85852585210E+02 0.  0.
          3    1    3    3  502    0  0.20239265548E+03  0.46167890878E+03 -0.10158062799E+04  0.11340073192E+04  0.00000000000E+00 0. -1.
         -4    1    3    3    0  502 -0.43099321449E+01  0.46236252444E+02 -0.10145255729E+03  0.11157503276E+03  0.00000000000E+00 0.  1.
         13    1    5    5    0    0 -0.43459804919E+03 -0.27081180326E+03  0.39441774295E+03  0.64635891972E+03  0.00000000000E+00 0. -1.
        -13    1    5    5    0    0 -0.11563971729E+03 -0.75011218472E+02  0.50141243652E+02  0.14667437209E+03  0.00000000000E+00 0.  1.
          2    1    6    6  503    0  0.25706192203E+03 -0.74750358823E+02  0.13322075315E+03  0.29902544536E+03  0.00000000000E+00 0. -1.
         -2    1    6    6    0  503  0.95093121122E+02 -0.87341780666E+02  0.53837763448E+02  0.13989207664E+03  0.00000000000E+00 0.  1.
<mgrwt>
<rscale>  0 0.24294697E+04</rscale>
<asrwt>0</asrwt>
<pdfrwt beam="1">  1        1 0.22793650E+00 0.24294697E+04</pdfrwt>
<pdfrwt beam="2">  1       -2 0.15322245E+00 0.24294697E+04</pdfrwt>
<totfact> 0.14970677E+00</totfact>
</mgrwt>
</event>
<event>
12    5  0.5264288E-008  0.1618136E+04  0.7818608E-02  0.8809483E-01
          1   -1    0    0  501    0  0.00000000000E+00  0.00000000000E+00  0.63973500980E+03  0.63973500980E+03  0.00000000000E+00 0. -1.
         -2   -1    0    0    0  501 -0.00000000000E+00 -0.00000000000E+00 -0.10232223941E+04  0.10232223941E+04  0.00000000000E+00 0.  1.
        -24    2    1    2    0    0  0.12801567635E+03 -0.27916286577E+03 -0.61037940629E+03  0.68809788609E+03  0.81214298015E+02 0.  0.
        254    2    1    2    0    0 -0.12801567635E+03  0.27916286577E+03  0.22689202195E+03  0.97485951786E+03  0.89696776470E+03 0.  0.
         23    2    4    4    0    0  0.21564397457E+03 -0.25870622020E+02  0.40933165137E+03  0.47208536163E+03  0.90225135091E+02 0.  0.
         23    2    4    4    0    0 -0.34365965092E+03  0.30503348779E+03 -0.18243962942E+03  0.50277415623E+03  0.91379699320E+02 0.  0.
          1    1    3    3  502    0 -0.38079465498E+01 -0.83795049238E+01 -0.60051447211E+02  0.60752719049E+02  0.00000000000E+00 0. -1.
         -2    1    3    3    0  502  0.13182362290E+03 -0.27078336085E+03 -0.55032795908E+03  0.62734516704E+03  0.00000000000E+00 0.  1.
         13    1    5    5    0    0 -0.20117540930E+00  0.12364624876E+02  0.78152548463E+01  0.14628828668E+02  0.00000000000E+00 0.  1.
        -13    1    5    5    0    0  0.21584514998E+03 -0.38235246896E+02  0.40151639652E+03  0.45745653296E+03  0.00000000000E+00 0. -1.
          1    1    6    6  503    0 -0.31144266978E+03  0.23456979765E+03 -0.13890173265E+03  0.41390000950E+03  0.00000000000E+00 0. -1.
         -1    1    6    6    0  503 -0.32216981132E+02  0.70463690144E+02 -0.43537896766E+02  0.88874146729E+02  0.00000000000E+00 0.  1.
<mgrwt>
<rscale>  0 0.16181362E+04</rscale>
<asrwt>0</asrwt>
<pdfrwt beam="1">  1        1 0.98420770E-01 0.16181362E+04</pdfrwt>
<pdfrwt beam="2">  1       -2 0.15741883E+00 0.16181362E+04</pdfrwt>
<totfact> 0.68805939E+00</totfact>
</mgrwt>
</event>
<event>
12    5  0.5264288E-008  0.2307645E+04  0.7818608E-02  0.8474913E-01
          1   -1    0    0  501    0  0.00000000000E+00  0.00000000000E+00  0.62351449244E+03  0.62351449244E+03  0.00000000000E+00 0. -1.
         -2   -1    0    0    0  501 -0.00000000000E+00 -0.00000000000E+00 -0.21351649506E+04  0.21351649506E+04  0.00000000000E+00 0.  1.
        -24    2    1    2    0    0  0.63221143736E+00 -0.86093794604E+03 -0.96670833168E+02  0.87014969772E+03  0.81244691189E+02 0.  0.
        254    2    1    2    0    0 -0.63221143736E+00  0.86093794604E+03 -0.14149796250E+04  0.18885297453E+04  0.90728314938E+03 0.  0.
         23    2    4    4    0    0 -0.41219009240E+03  0.66159926162E+03 -0.84237817268E+03  0.11513011519E+04  0.90989566482E+02 0.  0.
         23    2    4    4    0    0  0.41155788097E+03  0.19933868442E+03 -0.57260145229E+03  0.73722859343E+03  0.80732740085E+02 0.  0.
          1    1    3    3  502    0  0.29134127471E+02 -0.71229983550E+03 -0.91193875815E+02  0.71870451232E+03  0.00000000000E+00 0. -1.
         -4    1    3    3    0  502 -0.28501916033E+02 -0.14863811053E+03 -0.54769573533E+01  0.15144518541E+03  0.00000000000E+00 0.  1.
         13    1    5    5    0    0 -0.76003773105E+02  0.86189319667E+02 -0.88124835062E+02  0.14481422204E+03  0.00000000000E+00 0.  1.
        -13    1    5    5    0    0 -0.33618631930E+03  0.57540994195E+03 -0.75425333761E+03  0.10064869298E+04  0.00000000000E+00 0. -1.
          3    1    6    6  503    0  0.27858665786E+03  0.16211119966E+03 -0.44301067762E+03  0.54785858347E+03  0.00000000000E+00 0. -1.
         -3    1    6    6    0  503  0.13297122310E+03  0.37227484758E+02 -0.12959077467E+03  0.18937000997E+03  0.00000000000E+00 0.  1.
<mgrwt>
<rscale>  0 0.23076449E+04</rscale>
<asrwt>0</asrwt>
<pdfrwt beam="1">  1        1 0.95925308E-01 0.23076449E+04</pdfrwt>
<pdfrwt beam="2">  1       -2 0.32848691E+00 0.23076449E+04</pdfrwt>
<totfact> 0.54411941E-01</totfact>
</mgrwt>
</event>
<event>
12    5  0.5264288E-008  0.1769134E+04  0.7818608E-02  0.8722888E-01
          1   -1    0    0  501    0  0.00000000000E+00  0.00000000000E+00  0.18697038983E+04  0.18697038983E+04  0.00000000000E+00 0. -1.
         -2   -1    0    0    0  501 -0.00000000000E+00 -0.00000000000E+00 -0.41849330232E+03  0.41849330232E+03  0.00000000000E+00 0.  1.
        -24    2    1    2    0    0 -0.17999358655E+03  0.20858524504E+03  0.12937930143E+04  0.13255552372E+04  0.85386340590E+02 0.  0.
        254    2    1    2    0    0  0.17999358655E+03 -0.20858524504E+03  0.15741758165E+03  0.96264196347E+03  0.90884198801E+03 0.  0.
         23    2    4    4    0    0  0.60481373886E+02  0.34678869835E+03 -0.46826301101E+01  0.36396508220E+03  0.92348557872E+02 0.  0.
         23    2    4    4    0    0  0.11951221267E+03 -0.55537394340E+03  0.16210021176E+03  0.59867688127E+03  0.97026509443E+02 0.  0.
          1    1    3    3  502    0 -0.16283805975E+03  0.21528208228E+03  0.12189410239E+04  0.12484709962E+04  0.00000000000E+00 0. -1.
         -2    1    3    3    0  502 -0.17155526802E+02 -0.66968372343E+01  0.74851990474E+02  0.77084240975E+02  0.00000000000E+00 0.  1.
         13    1    5    5    0    0  0.54420835342E+02  0.35025228336E+03  0.17697069884E+01  0.35445933643E+03  0.00000000000E+00 0.  1.
        -13    1    5    5    0    0  0.60605385440E+01 -0.34635850084E+01 -0.64523370985E+01  0.95057457670E+01  0.00000000000E+00 0. -1.
          3    1    6    6  503    0  0.17681483317E+02 -0.54063207122E+02 -0.12338735903E+02  0.58204034399E+02  0.00000000000E+00 0. -1.
         -3    1    6    6    0  503  0.10183072935E+03 -0.50131073627E+03  0.17443894766E+03  0.54047284687E+03  0.00000000000E+00 0.  1.
<mgrwt>
<rscale>  0 0.17691338E+04</rscale>
<asrwt>0</asrwt>
<pdfrwt beam="1">  1        1 0.28764675E+00 0.17691338E+04</pdfrwt>
<pdfrwt beam="2">  1       -2 0.64383586E-01 0.17691338E+04</pdfrwt>
<totfact> 0.67617719E+00</totfact>
</mgrwt>
</event>
<event>
12    5  0.5264288E-008  0.1949021E+04  0.7818608E-02  0.8630833E-01
          1   -1    0    0  501    0  0.00000000000E+00  0.00000000000E+00  0.14835579904E+04  0.14835579904E+04  0.00000000000E+00 0. -1.
         -2   -1    0    0    0  501 -0.00000000000E+00 -0.00000000000E+00 -0.64013050355E+03  0.64013050355E+03  0.00000000000E+00 0.  1.
        -24    2    1    2    0    0  0.39907975323E+02 -0.32161006777E+03 -0.42155356794E+03  0.53780716889E+03  0.80644020698E+02 0.  0.
        254    2    1    2    0    0 -0.39907975323E+02  0.32161006777E+03  0.12649810547E+04  0.15858813250E+04  0.89989823091E+03 0.  0.
         23    2    4    4    0    0  0.34431712171E+03 -0.67528170228E+02  0.73106387708E+03  0.81600278133E+03  0.91059391046E+02 0.  0.
         23    2    4    4    0    0 -0.38422509703E+03  0.38913823800E+03  0.53391717766E+03  0.76987854368E+03  0.92671063227E+02 0.  0.
          1    1    3    3  502    0 -0.24273286484E+02 -0.10713064354E+03 -0.12933322950E+03  0.16968574329E+03  0.00000000000E+00 0. -1.
         -2    1    3    3    0  502  0.64181261807E+02 -0.21447942423E+03 -0.29222033844E+03  0.36812142559E+03  0.00000000000E+00 0.  1.
         13    1    5    5    0    0  0.32400813948E+03 -0.50867474641E+02  0.71082595869E+03  0.78284246051E+03  0.00000000000E+00 0. -1.
        -13    1    5    5    0    0  0.20308982222E+02 -0.16660695587E+02  0.20237918388E+02  0.33160320822E+02  0.00000000000E+00 0.  1.
          2    1    6    6  503    0 -0.32798165459E+03  0.33559183918E+03  0.49822086249E+03  0.68441060489E+03  0.00000000000E+00 0. -1.
         -2    1    6    6    0  503 -0.56243442440E+02  0.53546398822E+02  0.35696315176E+02  0.85467938793E+02  0.00000000000E+00 0.  1.
<mgrwt>
<rscale>  0 0.19490210E+04</rscale>
<asrwt>0</asrwt>
<pdfrwt beam="1">  1        1 0.22823969E+00 0.19490210E+04</pdfrwt>
<pdfrwt beam="2">  1       -2 0.98481616E-01 0.19490210E+04</pdfrwt>
<totfact> 0.47034908E+00</totfact>
</mgrwt>
</event>
<event>
12    5  0.5264288E-008  0.1943655E+04  0.7818608E-02  0.8633427E-01
         -2   -1    0    0    0  501 -0.00000000000E+00  0.00000000000E+00  0.55601660854E+03  0.55601660854E+03  0.00000000000E+00 0.  1.
          1   -1    0    0  501    0  0.00000000000E+00 -0.00000000000E+00 -0.16985979391E+04  0.16985979391E+04  0.00000000000E+00 0. -1.
        -24    2    1    2    0    0 -0.15960883203E+03 -0.30271701275E+02  0.41278014023E+03  0.45058912929E+03  0.79068097898E+02 0.  0.
        254    2    1    2    0    0  0.15960883203E+03  0.30271701275E+02 -0.15553614708E+04  0.18040254183E+04  0.89942595585E+03 0.  0.
         23    2    4    4    0    0  0.19000832147E+03 -0.60700172238E+02 -0.16348268805E+04  0.16492876883E+04  0.87768310553E+02 0.  0.
         23    2    4    4    0    0 -0.30399489440E+02  0.90971873512E+02  0.79465409741E+02  0.15473773005E+03  0.91809602037E+02 0.  0.
          3    1    3    3  502    0 -0.26417244506E+02 -0.26581051311E+02  0.40479302187E+02  0.55163366482E+02  0.00000000000E+00 0. -1.
         -4    1    3    3    0  502 -0.13319158753E+03 -0.36906499641E+01  0.37230083804E+03  0.39542576280E+03  0.00000000000E+00 0.  1.
         13    1    5    5    0    0  0.42405329825E+02  0.22815790094E+02 -0.33459372878E+03  0.33804102653E+03  0.00000000000E+00 0. -1.
        -13    1    5    5    0    0  0.14760299165E+03 -0.83515962331E+02 -0.13002331517E+04  0.13112466618E+04  0.00000000000E+00 0.  1.
          3    1    6    6  503    0  0.78287944077E+01 -0.30879275268E+01 -0.14261154423E+02  0.16559161928E+02  0.00000000000E+00 0. -1.
         -3    1    6    6    0  503 -0.38228283848E+02  0.94059801039E+02  0.93726564164E+02  0.13817856812E+03  0.00000000000E+00 0.  1.
<mgrwt>
<rscale>  0 0.19436550E+04</rscale>
<asrwt>0</asrwt>
<pdfrwt beam="1">  1        1 0.26132276E+00 0.19436550E+04</pdfrwt>
<pdfrwt beam="2">  1       -2 0.85541017E-01 0.19436550E+04</pdfrwt>
<totfact> 0.46419153E+00</totfact>
</mgrwt>
</event>
<event>
12    5  0.5264288E-008  0.1155596E+04  0.7818608E-02  0.9152637E-01
          1   -1    0    0  501    0  0.00000000000E+00  0.00000000000E+00  0.18372569506E+03  0.18372569506E+03  0.00000000000E+00 0. -1.
         -2   -1    0    0    0  501 -0.00000000000E+00 -0.00000000000E+00 -0.18171129428E+04  0.18171129428E+04  0.00000000000E+00 0.  1.
        -24    2    1    2    0    0  0.67562703362E+02 -0.84648075295E+02 -0.64838721897E+03  0.66224180780E+03  0.80176123275E+02 0.  0.
        254    2    1    2    0    0 -0.67562703362E+02  0.84648075295E+02 -0.98500002874E+03  0.13385968300E+04  0.89993688735E+03 0.  0.
         23    2    4    4    0    0  0.37405987467E+03  0.19441637529E+03 -0.56848962048E+03  0.71503141287E+03  0.10183789066E+03 0.  0.
         23    2    4    4    0    0 -0.44162257804E+03 -0.10976830000E+03 -0.41651040826E+03  0.62356541716E+03  0.90957837377E+02 0.  0.
          1    1    3    3  502    0  0.66156396789E+02 -0.75236805826E+02 -0.35953022880E+03  0.37322812221E+03  0.00000000000E+00 0. -1.
         -2    1    3    3    0  502  0.14063065732E+01 -0.94112694695E+01 -0.28885699016E+03  0.28901368559E+03  0.00000000000E+00 0.  1.
         13    1    5    5    0    0  0.37535650067E+03  0.17814705542E+03 -0.53170127891E+03  0.67478524431E+03  0.00000000000E+00 0. -1.
        -13    1    5    5    0    0 -0.12966259926E+01  0.16269319868E+02 -0.36788341572E+02  0.40246168558E+02  0.00000000000E+00 0.  1.
          2    1    6    6  503    0 -0.21660458138E+03 -0.95306683388E+01 -0.21453837917E+03  0.30501654783E+03  0.00000000000E+00 0.  1.
         -2    1    6    6    0  503 -0.22501799665E+03 -0.10023763166E+03 -0.20197202909E+03  0.31854886933E+03  0.00000000000E+00 0. -1.
<mgrwt>
<rscale>  0 0.11555957E+04</rscale>
<asrwt>0</asrwt>
<pdfrwt beam="1">  1        1 0.28265493E-01 0.11555957E+04</pdfrwt>
<pdfrwt beam="2">  1       -2 0.27955582E+00 0.11555957E+04</pdfrwt>
<totfact> 0.61353189E+00</totfact>
</mgrwt>
</event>
<event>
12    5  0.5264288E-008  0.2064814E+04  0.7818608E-02  0.8576904E-01
          1   -1    0    0  501    0  0.00000000000E+00  0.00000000000E+00  0.56935343908E+03  0.56935343908E+03  0.00000000000E+00 0. -1.
         -2   -1    0    0    0  501 -0.00000000000E+00 -0.00000000000E+00 -0.18720603735E+04  0.18720603735E+04  0.00000000000E+00 0.  1.
        -24    2    1    2    0    0  0.79710129426E+03 -0.24536586812E+03 -0.49743543522E+03  0.97438690757E+03  0.80080902112E+02 0.  0.
        254    2    1    2    0    0 -0.79710129426E+03  0.24536586812E+03 -0.80527149921E+03  0.14670269050E+04  0.89896099474E+03 0.  0.
         23    2    4    4    0    0 -0.56608048618E+03  0.27130313903E+03 -0.12281499321E+02  0.63462998399E+03  0.92476328174E+02 0.  0.
         23    2    4    4    0    0 -0.23102080809E+03 -0.25937270911E+02 -0.79298999989E+03  0.83239692104E+03  0.10004068387E+03 0.  0.
          3    1    3    3  502    0  0.91403975910E+02 -0.43067568841E+02 -0.86913109828E+02  0.13327937184E+03  0.00000000000E+00 0. -1.
         -4    1    3    3    0  502  0.70569731835E+03 -0.20229829928E+03 -0.41052232539E+03  0.84110753573E+03  0.00000000000E+00 0.  1.
         13    1    5    5    0    0 -0.52147281717E+03  0.21966428593E+03 -0.37644921726E+01  0.56586258841E+03  0.00000000000E+00 0. -1.
        -13    1    5    5    0    0 -0.44607669006E+02  0.51638853100E+02 -0.85170071485E+01  0.68767395577E+02  0.00000000000E+00 0.  1.
          4    1    6    6  503    0 -0.13111159522E+03  0.33331193179E+02 -0.37914168346E+03  0.40255389077E+03  0.00000000000E+00 0. -1.
         -4    1    6    6    0  503 -0.99909212867E+02 -0.59268464090E+02 -0.41384831643E+03  0.42984303026E+03  0.00000000000E+00 0.  1.
<mgrwt>
<rscale>  0 0.20648138E+04</rscale>
<asrwt>0</asrwt>
<pdfrwt beam="1">  1        1 0.87592837E-01 0.20648138E+04</pdfrwt>
<pdfrwt beam="2">  1       -2 0.28800929E+00 0.20648138E+04</pdfrwt>
<totfact> 0.11232050E+00</totfact>
</mgrwt>
</event>
<event>
12    5  0.5264288E-008  0.1205693E+04  0.7818608E-02  0.9107888E-01
         -2   -1    0    0    0  501 -0.00000000000E+00  0.00000000000E+00  0.11955291665E+04  0.11955291665E+04  0.00000000000E+00 0.  1.
          1   -1    0    0  501    0  0.00000000000E+00 -0.00000000000E+00 -0.30398595336E+03  0.30398595336E+03  0.00000000000E+00 0. -1.
        -24    2    1    2    0    0 -0.81513926702E+02  0.15827786150E+03  0.42696363732E+03  0.46948735561E+03  0.80150033093E+02 0.  0.
        254    2    1    2    0    0  0.81513926702E+02 -0.15827786150E+03  0.46457957578E+03  0.10300277642E+04  0.90190166378E+03 0.  0.
         23    2    4    4    0    0  0.64695962247E+02 -0.48497967928E+03  0.58753456810E+02  0.50097367990E+03  0.90176507043E+02 0.  0.
         23    2    4    4    0    0  0.16817964454E+02  0.32670181778E+03  0.40582611897E+03  0.52905408431E+03  0.90479078344E+02 0.  0.
          1    1    3    3  502    0 -0.84070594817E+00 -0.47814172780E+01  0.57073733946E+02  0.57279838026E+02  0.00000000000E+00 0. -1.
         -2    1    3    3    0  502 -0.80673220754E+02  0.16305927878E+03  0.36988990337E+03  0.41220751759E+03  0.00000000000E+00 0.  1.
         13    1    5    5    0    0  0.85439858663E+02 -0.38829332629E+03  0.33983790113E+02  0.39903204718E+03  0.00000000000E+00 0. -1.
        -13    1    5    5    0    0 -0.20743896415E+02 -0.96686352987E+02  0.24769666697E+02  0.10194163272E+03  0.00000000000E+00 0.  1.
          1    1    6    6  503    0 -0.51643131408E+01  0.23467350326E+03  0.34244132344E+03  0.41516789768E+03  0.00000000000E+00 0. -1.
         -1    1    6    6    0  503  0.21982277595E+02  0.92028314516E+02  0.63384795532E+02  0.11388618663E+03  0.00000000000E+00 0.  1.
<mgrwt>
<rscale>  0 0.12056933E+04</rscale>
<asrwt>0</asrwt>
<pdfrwt beam="1">  1        1 0.46767070E-01 0.12056933E+04</pdfrwt>
<pdfrwt beam="2">  1       -2 0.18392756E+00 0.12056933E+04</pdfrwt>
<totfact> 0.12666293E+01</totfact>
</mgrwt>
</event>
<event>
12    5  0.5264288E-008  0.1633653E+04  0.7818608E-02  0.8800136E-01
          1   -1    0    0  501    0  0.00000000000E+00  0.00000000000E+00  0.23616965479E+04  0.23616965479E+04  0.00000000000E+00 0. -1.
         -2   -1    0    0    0  501 -0.00000000000E+00 -0.00000000000E+00 -0.28251117994E+03  0.28251117994E+03  0.00000000000E+00 0.  1.
        -24    2    1    2    0    0 -0.81193990993E+02 -0.55000070556E+03  0.90288817043E+03  0.10635359158E+04  0.82512760402E+02 0.  0.
        254    2    1    2    0    0  0.81193990993E+02  0.55000070556E+03  0.11762971976E+04  0.15806718120E+04  0.89763859105E+03 0.  0.
         23    2    4    4    0    0  0.82991530424E+02 -0.83616173855E+02 -0.80953747641E+02  0.16987807639E+03  0.91792118003E+02 0.  0.
         23    2    4    4    0    0 -0.17975394307E+01  0.63361687941E+03  0.12572509452E+04  0.14107937357E+04  0.90473445679E+02 0.  0.
          1    1    3    3  502    0 -0.71126868657E+02 -0.54577334048E+03  0.87650192653E+03  0.10349798055E+04  0.00000000000E+00 0. -1.
         -2    1    3    3    0  502 -0.10067122336E+02 -0.42273650727E+01  0.26386243906E+02  0.28556110293E+02  0.00000000000E+00 0.  1.
         13    1    5    5    0    0  0.80447932709E+01 -0.72912461680E+02 -0.45099595605E+02  0.86109925622E+02  0.00000000000E+00 0.  1.
        -13    1    5    5    0    0  0.74946737153E+02 -0.10703712175E+02 -0.35854152036E+02  0.83768150764E+02  0.00000000000E+00 0. -1.
          1    1    6    6  503    0 -0.15782572363E+02  0.13183927648E+03  0.34297201706E+03  0.36777777108E+03  0.00000000000E+00 0. -1.
         -1    1    6    6    0  503  0.13985032933E+02  0.50177760293E+03  0.91427892813E+03  0.10430159646E+04  0.00000000000E+00 0.  1.
<mgrwt>
<rscale>  0 0.16336532E+04</rscale>
<asrwt>0</asrwt>
<pdfrwt beam="1">  1        1 0.36333792E+00 0.16336532E+04</pdfrwt>
<pdfrwt beam="2">  1       -2 0.43463260E-01 0.16336532E+04</pdfrwt>
<totfact> 0.71296080E+00</totfact>
</mgrwt>
</event>
<event>
12    5  0.5264288E-008  0.2479252E+04  0.7818608E-02  0.8410414E-01
         -2   -1    0    0    0  501 -0.00000000000E+00  0.00000000000E+00  0.13497805256E+04  0.13497805256E+04  0.00000000000E+00 0.  1.
          1   -1    0    0  501    0  0.00000000000E+00 -0.00000000000E+00 -0.11384614224E+04  0.11384614224E+04  0.00000000000E+00 0. -1.
        -24    2    1    2    0    0  0.28688180587E+03 -0.10140209994E+04 -0.44614999892E+02  0.10577476788E+04  0.79371884077E+02 0.  0.
        254    2    1    2    0    0 -0.28688180587E+03  0.10140209994E+04  0.25593410313E+03  0.14304942693E+04  0.93288361090E+03 0.  0.
         23    2    4    4    0    0 -0.43741635748E+03  0.19020338493E+03  0.32602705003E+03  0.58520421352E+03  0.93058781090E+02 0.  0.
         23    2    4    4    0    0  0.15053455161E+03  0.82381761448E+03 -0.70092946902E+02  0.84529005575E+03  0.90918336920E+02 0.  0.
          3    1    3    3  502    0  0.11116224718E+03 -0.44262358635E+03 -0.56289842616E+02  0.45982739237E+03  0.00000000000E+00 0. -1.
         -2    1    3    3    0  502  0.17571955869E+03 -0.57139741306E+03  0.11674842725E+02  0.59792028642E+03  0.00000000000E+00 0.  1.
         13    1    5    5    0    0 -0.55548331676E+02 -0.15441272591E+01  0.60361088632E+02  0.82045490442E+02  0.00000000000E+00 0.  1.
        -13    1    5    5    0    0 -0.38186802581E+03  0.19174751219E+03  0.26566596140E+03  0.50315872308E+03  0.00000000000E+00 0. -1.
          3    1    6    6  503    0  0.10693640375E+03  0.54800359689E+03 -0.89104245578E+02  0.56540507889E+03  0.00000000000E+00 0. -1.
         -3    1    6    6    0  503  0.43598147856E+02  0.27581401759E+03  0.19011298677E+02  0.27988497686E+03  0.00000000000E+00 0.  1.
<mgrwt>
<rscale>  0 0.24792524E+04</rscale>
<asrwt>0</asrwt>
<pdfrwt beam="1">  1        1 0.17514791E+00 0.24792524E+04</pdfrwt>
<pdfrwt beam="2">  1       -2 0.20765854E+00 0.24792524E+04</pdfrwt>
<totfact> 0.10982628E+00</totfact>
</mgrwt>
</event>
<event>
12    5  0.5264288E-008  0.1684865E+04  0.7818608E-02  0.8770044E-01
          1   -1    0    0  501    0  0.00000000000E+00  0.00000000000E+00  0.14478695857E+04  0.14478695857E+04  0.00000000000E+00 0. -1.
         -2   -1    0    0    0  501 -0.00000000000E+00 -0.00000000000E+00 -0.49016355483E+03  0.49016355483E+03  0.00000000000E+00 0.  1.
        -24    2    1    2    0    0  0.42460557106E+03  0.15791190649E+02  0.82469604720E+03  0.93115300421E+03  0.79894269475E+02 0.  0.
        254    2    1    2    0    0 -0.42460557106E+03 -0.15791190649E+02  0.13300998372E+03  0.10068801364E+04  0.90309285268E+03 0.  0.
         23    2    4    4    0    0 -0.10210221628E+03 -0.34215456026E+03  0.33476834401E+03  0.49751802588E+03  0.89217353946E+02 0.  0.
         23    2    4    4    0    0 -0.32250335478E+03  0.32636336961E+03 -0.20175836030E+03  0.50936211049E+03  0.90674477015E+02 0.  0.
          3    1    3    3  502    0  0.33673236677E+03 -0.17238055394E+02  0.67347670036E+03  0.75316445968E+03  0.00000000000E+00 0. -1.
         -4    1    3    3    0  502  0.87873204292E+02  0.33029246043E+02  0.15121934684E+03  0.17798854453E+03  0.00000000000E+00 0.  1.
         13    1    5    5    0    0 -0.65919812890E+02 -0.30354928900E+03  0.31086181871E+03  0.43945723673E+03  0.00000000000E+00 0. -1.
        -13    1    5    5    0    0 -0.36182403393E+02 -0.38605271262E+02  0.23906525300E+02  0.58060789148E+02  0.00000000000E+00 0.  1.
          4    1    6    6  503    0 -0.26415017620E+03  0.30960697491E+03 -0.17667332908E+03  0.44367246895E+03  0.00000000000E+00 0. -1.
         -4    1    6    6    0  503 -0.58353178582E+02  0.16756394704E+02 -0.25085031218E+02  0.65689641537E+02  0.00000000000E+00 0.  1.
<mgrwt>
<rscale>  0 0.16848655E+04</rscale>
<asrwt>0</asrwt>
<pdfrwt beam="1">  1        1 0.22274916E+00 0.16848655E+04</pdfrwt>
<pdfrwt beam="2">  1       -2 0.75409778E-01 0.16848655E+04</pdfrwt>
<totfact> 0.93800278E+00</totfact>
</mgrwt>
</event>
<event>
12    5  0.5264288E-008  0.1960404E+04  0.7818608E-02  0.8625360E-01
          1   -1    0    0  501    0  0.00000000000E+00  0.00000000000E+00  0.65593643124E+03  0.65593643124E+03  0.00000000000E+00 0. -1.
         -2   -1    0    0    0  501 -0.00000000000E+00 -0.00000000000E+00 -0.14647694465E+04  0.14647694465E+04  0.00000000000E+00 0.  1.
        -24    2    1    2    0    0  0.39384617748E+03  0.42892195960E+03 -0.86305548276E+03  0.10442175947E+04  0.80229419375E+02 0.  0.
        254    2    1    2    0    0 -0.39384617748E+03 -0.42892195960E+03  0.54222467469E+02  0.10764882831E+04  0.90376882483E+03 0.  0.
         23    2    4    4    0    0 -0.33247439295E+03  0.35009212688E+02  0.36796199488E+03  0.50551458817E+03  0.91564743433E+02 0.  0.
         23    2    4    4    0    0 -0.61371784527E+02 -0.46393117229E+03 -0.31373952741E+03  0.57097369493E+03  0.92627429469E+02 0.  0.
          3    1    3    3  502    0  0.20054894906E+03  0.16216813972E+03 -0.35820139861E+03  0.44139169507E+03  0.00000000000E+00 0. -1.
         -4    1    3    3    0  502  0.19329722842E+03  0.26675381988E+03 -0.50485408415E+03  0.60282589959E+03  0.00000000000E+00 0.  1.
         13    1    5    5    0    0 -0.23119341154E+02  0.19202896609E+02  0.67889692110E+02  0.74244632590E+02  0.00000000000E+00 0. -1.
        -13    1    5    5    0    0 -0.30935505180E+03  0.15806316079E+02  0.30007230277E+03  0.43126995558E+03  0.00000000000E+00 0.  1.
          1    1    6    6  503    0 -0.31695641616E+02 -0.43845725879E+02 -0.20735753185E+02  0.57939907106E+02  0.00000000000E+00 0. -1.
         -1    1    6    6    0  503 -0.29676142912E+02 -0.42008544641E+03 -0.29300377422E+03  0.51303378783E+03  0.00000000000E+00 0.  1.
<mgrwt>
<rscale>  0 0.19604037E+04</rscale>
<asrwt>0</asrwt>
<pdfrwt beam="1">  1        1 0.10091330E+00 0.19604037E+04</pdfrwt>
<pdfrwt beam="2">  1       -2 0.22534914E+00 0.19604037E+04</pdfrwt>
<totfact> 0.22386302E+00</totfact>
</mgrwt>
</event>
<event>
12    5  0.5264288E-008  0.2379814E+04  0.7818608E-02  0.8447100E-01
         -2   -1    0    0    0  501 -0.00000000000E+00  0.00000000000E+00  0.85115227841E+03  0.85115227841E+03  0.00000000000E+00 0.  1.
          1   -1    0    0  501    0  0.00000000000E+00 -0.00000000000E+00 -0.16634847638E+04  0.16634847638E+04  0.00000000000E+00 0. -1.
        -24    2    1    2    0    0  0.74216634783E+03 -0.16696649592E+03  0.36832444764E+03  0.84871505989E+03  0.77237656280E+02 0.  0.
        254    2    1    2    0    0 -0.74216634783E+03  0.16696649592E+03 -0.11806569330E+04  0.16659219823E+04  0.89591102185E+03 0.  0.
         23    2    4    4    0    0 -0.46501520929E+03 -0.28405146598E+03 -0.90870128186E+03  0.10637305244E+04  0.94128787908E+02 0.  0.
         23    2    4    4    0    0 -0.27715113853E+03  0.45101796190E+03 -0.27195565116E+03  0.60219145790E+03  0.91895158862E+02 0.  0.
          3    1    3    3  502    0  0.63083701933E+03 -0.16119593760E+03  0.33574218081E+03  0.73257237679E+03  0.00000000000E+00 0. -1.
         -4    1    3    3    0  502  0.11132932849E+03 -0.57705583248E+01  0.32582266831E+02  0.11614268310E+03  0.00000000000E+00 0.  1.
         13    1    5    5    0    0 -0.73511044104E+02 -0.34875542521E+02 -0.81006599455E+02  0.11481396355E+03  0.00000000000E+00 0. -1.
        -13    1    5    5    0    0 -0.39150416519E+03 -0.24917592346E+03 -0.82769468240E+03  0.94891656086E+03  0.00000000000E+00 0.  1.
          2    1    6    6  503    0 -0.11546666573E+02  0.52500415141E+02 -0.53368530287E+02  0.75748393540E+02  0.00000000000E+00 0. -1.
         -2    1    6    6    0  503 -0.26560447196E+03  0.39851754676E+03 -0.21858712087E+03  0.52644306436E+03  0.00000000000E+00 0.  1.
<mgrwt>
<rscale>  0 0.23798141E+04</rscale>
<asrwt>0</asrwt>
<pdfrwt beam="1">  1        1 0.25592073E+00 0.23798141E+04</pdfrwt>
<pdfrwt beam="2">  1       -2 0.13094651E+00 0.23798141E+04</pdfrwt>
<totfact> 0.16969534E+00</totfact>
</mgrwt>
</event>
<event>
12    5  0.5264288E-008  0.1652819E+04  0.7818608E-02  0.8788740E-01
          1   -1    0    0  501    0  0.00000000000E+00  0.00000000000E+00  0.64993677441E+03  0.64993677441E+03  0.00000000000E+00 0. -1.
         -2   -1    0    0    0  501 -0.00000000000E+00 -0.00000000000E+00 -0.10507992211E+04  0.10507992211E+04  0.00000000000E+00 0.  1.
        -24    2    1    2    0    0  0.21956081342E+03  0.12031484225E+03 -0.66990738907E+03  0.71952970954E+03  0.79148473992E+02 0.  0.
        254    2    1    2    0    0 -0.21956081342E+03 -0.12031484225E+03  0.26904494242E+03  0.98120628592E+03  0.90977908441E+03 0.  0.
         23    2    4    4    0    0  0.43682365569E+02  0.36403864201E+03  0.52033498518E+02  0.38184175828E+03  0.93077180132E+02 0.  0.
         23    2    4    4    0    0 -0.26324317899E+03 -0.48435348426E+03  0.21701144390E+03  0.59936452764E+03  0.90821810210E+02 0.  0.
          3    1    3    3  502    0  0.89661486486E+02  0.10789494039E+02 -0.18847257266E+03  0.20899164094E+03  0.00000000000E+00 0. -1.
         -4    1    3    3    0  502  0.12989932693E+03  0.10952534821E+03 -0.48143481641E+03  0.51053806860E+03  0.00000000000E+00 0.  1.
         13    1    5    5    0    0 -0.30402780652E+01  0.46979630831E+01 -0.12572913721E+02  0.13761987767E+02  0.00000000000E+00 0.  1.
        -13    1    5    5    0    0  0.46722643634E+02  0.35934067893E+03  0.64606412239E+02  0.36807977051E+03  0.00000000000E+00 0. -1.
          2    1    6    6  503    0 -0.25287491885E+03 -0.48592399893E+03  0.20956301934E+03  0.58650193213E+03  0.00000000000E+00 0. -1.
         -2    1    6    6    0  503 -0.10368260137E+02  0.15705146757E+01  0.74484245608E+01  0.12862595502E+02  0.00000000000E+00 0.  1.
<mgrwt>
<rscale>  0 0.16528195E+04</rscale>
<asrwt>0</asrwt>
<pdfrwt beam="1">  1        1 0.99990274E-01 0.16528195E+04</pdfrwt>
<pdfrwt beam="2">  1       -2 0.16166142E+00 0.16528195E+04</pdfrwt>
<totfact> 0.62343046E+00</totfact>
</mgrwt>
</event>
<event>
12    5  0.5264288E-008  0.1613068E+04  0.7818608E-02  0.8812560E-01
          1   -1    0    0  501    0  0.00000000000E+00  0.00000000000E+00  0.14572595228E+04  0.14572595228E+04  0.00000000000E+00 0. -1.
         -2   -1    0    0    0  501 -0.00000000000E+00 -0.00000000000E+00 -0.44638394938E+03  0.44638394938E+03  0.00000000000E+00 0.  1.
        -24    2    1    2    0    0  0.11036447696E+03  0.19146387801E+03  0.94811544910E+03  0.97692908509E+03  0.81417431310E+02 0.  0.
        254    2    1    2    0    0 -0.11036447696E+03 -0.19146387801E+03  0.62760124345E+02  0.92671438711E+03  0.89778727308E+03 0.  0.
         23    2    4    4    0    0 -0.71295079400E+02 -0.54346315614E+03 -0.29794222607E+01  0.55582209146E+03  0.92163604364E+02 0.  0.
         23    2    4    4    0    0 -0.39069397557E+02  0.35199927812E+03  0.65739546606E+02  0.37089229565E+03  0.88371360537E+02 0.  0.
          3    1    3    3  502    0  0.94041045894E+02  0.17934052568E+03  0.92121155368E+03  0.94320595264E+03  0.00000000000E+00 0. -1.
         -4    1    3    3    0  502  0.16323431064E+02  0.12123352339E+02  0.26903895414E+02  0.33723132448E+02  0.00000000000E+00 0.  1.
         13    1    5    5    0    0 -0.54825910726E+02 -0.53222229950E+03 -0.85914540692E+01  0.53510771781E+03  0.00000000000E+00 0.  1.
        -13    1    5    5    0    0 -0.16469168674E+02 -0.11240856637E+02  0.56120318085E+01  0.20714373652E+02  0.00000000000E+00 0. -1.
          2    1    6    6  503    0 -0.48131120009E+02  0.26225600378E+03  0.14217247611E+02  0.26701488041E+03  0.00000000000E+00 0. -1.
         -2    1    6    6    0  503  0.90617224521E+01  0.89743274342E+02  0.51522298995E+02  0.10387741524E+03  0.00000000000E+00 0.  1.
<mgrwt>
<rscale>  0 0.16130682E+04</rscale>
<asrwt>0</asrwt>
<pdfrwt beam="1">  1        1 0.22419377E+00 0.16130682E+04</pdfrwt>
<pdfrwt beam="2">  1       -2 0.68674454E-01 0.16130682E+04</pdfrwt>
<totfact> 0.11418397E+01</totfact>
</mgrwt>
</event>
<event>
12    5  0.5264288E-008  0.1341905E+04  0.7818608E-02  0.8996979E-01
          1   -1    0    0  501    0  0.00000000000E+00  0.00000000000E+00  0.14203662829E+04  0.14203662829E+04  0.00000000000E+00 0. -1.
         -2   -1    0    0    0  501 -0.00000000000E+00 -0.00000000000E+00 -0.31694435394E+03  0.31694435394E+03  0.00000000000E+00 0.  1.
        -24    2    1    2    0    0  0.33364405216E+03  0.41242086128E+02  0.10078318392E+03  0.36183043715E+03  0.88004271918E+02 0.  0.
        254    2    1    2    0    0 -0.33364405216E+03 -0.41242086128E+02  0.10026387450E+04  0.13754801996E+04  0.87956924879E+03 0.  0.
         23    2    4    4    0    0  0.28750756241E+03  0.26645285907E+02  0.24568884209E+03  0.38981279643E+03  0.90666639022E+02 0.  0.
         23    2    4    4    0    0 -0.62115161457E+03 -0.67887372035E+02  0.75694990291E+03  0.98566740321E+03  0.90161248191E+02 0.  0.
          1    1    3    3  502    0  0.52692004939E+02 -0.36420948826E+01  0.50172927414E+02  0.72849398659E+02  0.00000000000E+00 0. -1.
         -2    1    3    3    0  502  0.28095204722E+03  0.44884181010E+02  0.50610256504E+02  0.28898103849E+03  0.00000000000E+00 0.  1.
         13    1    5    5    0    0  0.83858204675E+01  0.21033261006E+02  0.26596649633E+02  0.34929955986E+02  0.00000000000E+00 0.  1.
        -13    1    5    5    0    0  0.27912174194E+03  0.56120249006E+01  0.21909219246E+03  0.35488284045E+03  0.00000000000E+00 0. -1.
          2    1    6    6  503    0 -0.57737557392E+03 -0.66168850708E+02  0.66074647112E+03  0.87995839064E+03  0.00000000000E+00 0. -1.
         -2    1    6    6    0  503 -0.43776040650E+02 -0.17185213272E+01  0.96203431788E+02  0.10570901257E+03  0.00000000000E+00 0.  1.
<mgrwt>
<rscale>  0 0.13419047E+04</rscale>
<asrwt>0</asrwt>
<pdfrwt beam="1">  1        1 0.21851789E+00 0.13419047E+04</pdfrwt>
<pdfrwt beam="2">  1       -2 0.48760671E-01 0.13419047E+04</pdfrwt>
<totfact> 0.25441250E+01</totfact>
</mgrwt>
</event>
<event>
12    5  0.5264288E-008  0.2211970E+04  0.7818608E-02  0.8513462E-01
         -2   -1    0    0    0  501 -0.00000000000E+00  0.00000000000E+00  0.48901043496E+03  0.48901043496E+03  0.00000000000E+00 0.  1.
          1   -1    0    0  501    0  0.00000000000E+00 -0.00000000000E+00 -0.25013844038E+04  0.25013844038E+04  0.00000000000E+00 0. -1.
        -24    2    1    2    0    0 -0.12408540195E+03 -0.86339633396E+03 -0.36578693759E+03  0.95009663625E+03  0.89627663313E+02 0.  0.
        254    2    1    2    0    0  0.12408540195E+03  0.86339633396E+03 -0.16465870313E+04  0.20402982025E+04  0.83109415064E+03 0.  0.
         23    2    4    4    0    0  0.38067839452E+03  0.80649211725E+03 -0.10402750009E+04  0.13732112214E+04  0.90506385469E+02 0.  0.
         23    2    4    4    0    0 -0.25659299257E+03  0.56904216702E+02 -0.60631203038E+03  0.66708698115E+03  0.91174056158E+02 0.  0.
          3    1    3    3  502    0 -0.10197415344E+03 -0.39533046192E+03 -0.17121084535E+03  0.44271667650E+03  0.00000000000E+00 0. -1.
         -4    1    3    3    0  502 -0.22111248516E+02 -0.46806587204E+03 -0.19457609224E+03  0.50737995974E+03  0.00000000000E+00 0.  1.
         13    1    5    5    0    0  0.16678523098E+01  0.52158366989E+02 -0.62748208333E+02  0.81612588656E+02  0.00000000000E+00 0. -1.
        -13    1    5    5    0    0  0.37901054221E+03  0.75433375027E+03 -0.97752679256E+03  0.12915986327E+04  0.00000000000E+00 0.  1.
          1    1    6    6  503    0 -0.16858194564E+02  0.14376332041E+02 -0.12829887173E+02  0.25602414960E+02  0.00000000000E+00 0. -1.
         -1    1    6    6    0  503 -0.23973479800E+03  0.42527884660E+02 -0.59348214321E+03  0.64148456619E+03  0.00000000000E+00 0.  1.
<mgrwt>
<rscale>  0 0.22119702E+04</rscale>
<asrwt>0</asrwt>
<pdfrwt beam="1">  1        1 0.38482836E+00 0.22119702E+04</pdfrwt>
<pdfrwt beam="2">  1       -2 0.75232376E-01 0.22119702E+04</pdfrwt>
<totfact> 0.17157603E+00</totfact>
</mgrwt>
</event>
<event>
12    5  0.5264288E-008  0.1736494E+04  0.7818608E-02  0.8740820E-01
         -2   -1    0    0    0  501 -0.00000000000E+00  0.00000000000E+00  0.22136040759E+04  0.22136040759E+04  0.00000000000E+00 0.  1.
          1   -1    0    0  501    0  0.00000000000E+00 -0.00000000000E+00 -0.34055431867E+03  0.34055431867E+03  0.00000000000E+00 0. -1.
        -24    2    1    2    0    0  0.26650373093E+03  0.22133347946E+03  0.14481746246E+04  0.14911848457E+04  0.80060931634E+02 0.  0.
        254    2    1    2    0    0 -0.26650373093E+03 -0.22133347946E+03  0.42487513259E+03  0.10629735489E+04  0.91070365084E+03 0.  0.
         23    2    4    4    0    0 -0.59672049491E+03 -0.13911741237E+03  0.26969709443E+03  0.67572461984E+03  0.91859869580E+02 0.  0.
         23    2    4    4    0    0  0.33021676399E+03 -0.82216067090E+02  0.15517803816E+03  0.38724892906E+03  0.10039380771E+03 0.  0.
          1    1    3    3  502    0  0.25444122265E+03  0.19225596035E+03  0.13754927819E+04  0.14119784288E+04  0.00000000000E+00 0. -1.
         -2    1    3    3    0  502  0.12062508280E+02  0.29077519109E+02  0.72681842686E+02  0.79206416911E+02  0.00000000000E+00 0.  1.
         13    1    5    5    0    0 -0.55301452194E+03 -0.11725712390E+03  0.22169878307E+03  0.60722701273E+03  0.00000000000E+00 0.  1.
        -13    1    5    5    0    0 -0.43705972975E+02 -0.21860288471E+02  0.47998311360E+02  0.68497607105E+02  0.00000000000E+00 0. -1.
          1    1    6    6  503    0  0.10930302069E+03 -0.38663628630E+02  0.39410001799E+01  0.11600671529E+03  0.00000000000E+00 0. -1.
         -1    1    6    6    0  503  0.22091374330E+03 -0.43552438459E+02  0.15123703798E+03  0.27124221377E+03  0.00000000000E+00 0.  1.
<mgrwt>
<rscale>  0 0.17364935E+04</rscale>
<asrwt>0</asrwt>
<pdfrwt beam="1">  1        1 0.52392974E-01 0.17364935E+04</pdfrwt>
<pdfrwt beam="2">  1       -2 0.34055446E+00 0.17364935E+04</pdfrwt>
<totfact> 0.11025755E+00</totfact>
</mgrwt>
</event>
<event>
12    5  0.5264288E-008  0.1664969E+04  0.7818608E-02  0.8781600E-01
         -2   -1    0    0    0  501 -0.00000000000E+00  0.00000000000E+00  0.33500019238E+03  0.33500019238E+03  0.00000000000E+00 0.  1.
          1   -1    0    0  501    0  0.00000000000E+00 -0.00000000000E+00 -0.20687466131E+04  0.20687466131E+04  0.00000000000E+00 0. -1.
        -24    2    1    2    0    0 -0.47155409632E+03  0.20433699719E+03 -0.10344950243E+04  0.11578948300E+04  0.80147413422E+02 0.  0.
        254    2    1    2    0    0  0.47155409632E+03 -0.20433699719E+03 -0.69925139641E+03  0.12458519755E+04  0.89391149184E+03 0.  0.
         23    2    4    4    0    0  0.50571229601E+03 -0.62107763420E+02 -0.86568295893E+03  0.10085330490E+04  0.90164432489E+02 0.  0.
         23    2    4    4    0    0 -0.34158199692E+02 -0.14222923376E+03  0.16643156251E+03  0.23731892650E+03  0.84999237248E+02 0.  0.
          1    1    3    3  502    0 -0.34114681192E+03  0.10882386455E+03 -0.73365820434E+03  0.81638112520E+03  0.00000000000E+00 0. -1.
         -2    1    3    3    0  502 -0.13040728439E+03  0.95513132632E+02 -0.30083681996E+03  0.34151370481E+03  0.00000000000E+00 0.  1.
         13    1    5    5    0    0  0.44501538423E+03 -0.77337906498E+02 -0.71964572489E+03  0.84965276044E+03  0.00000000000E+00 0. -1.
        -13    1    5    5    0    0  0.60696911784E+02  0.15230143078E+02 -0.14603723404E+03  0.15888028853E+03  0.00000000000E+00 0.  1.
          2    1    6    6  503    0 -0.22205442343E+02 -0.87639094238E+02  0.15624246446E+03  0.18051426595E+03  0.00000000000E+00 0. -1.
         -2    1    6    6    0  503 -0.11952757349E+02 -0.54590139527E+02  0.10189098047E+02  0.56804660556E+02  0.00000000000E+00 0.  1.
<mgrwt>
<rscale>  0 0.16649691E+04</rscale>
<asrwt>0</asrwt>
<pdfrwt beam="1">  1        1 0.31826871E+00 0.16649691E+04</pdfrwt>
<pdfrwt beam="2">  1       -2 0.51538492E-01 0.16649691E+04</pdfrwt>
<totfact> 0.79791228E+00</totfact>
</mgrwt>
</event>
<event>
12    5  0.5264288E-008  0.1591718E+04  0.7818608E-02  0.8825652E-01
          1   -1    0    0  501    0  0.00000000000E+00  0.00000000000E+00  0.28298781059E+04  0.28298781059E+04  0.00000000000E+00 0. -1.
         -2   -1    0    0    0  501 -0.00000000000E+00 -0.00000000000E+00 -0.22382296839E+03  0.22382296839E+03  0.00000000000E+00 0.  1.
        -24    2    1    2    0    0  0.21454080208E+03 -0.49338946892E+03  0.85271627301E+03  0.10115008145E+04  0.80919290875E+02 0.  0.
        254    2    1    2    0    0 -0.21454080208E+03  0.49338946892E+03  0.17533388645E+04  0.20422002598E+04  0.89828937632E+03 0.  0.
         23    2    4    4    0    0 -0.23955324621E+03  0.74605881148E+01  0.41295114475E+02  0.26000121830E+03  0.91945249440E+02 0.  0.
         23    2    4    4    0    0  0.25012444131E+02  0.48592888080E+03  0.17120437500E+04  0.17821990415E+04  0.91581231733E+02 0.  0.
          1    1    3    3  502    0  0.16128915457E+03 -0.30224801690E+03  0.48708628116E+03  0.59550071402E+03  0.00000000000E+00 0. -1.
         -2    1    3    3    0  502  0.53251647514E+02 -0.19114145202E+03  0.36562999185E+03  0.41600010046E+03  0.00000000000E+00 0.  1.
         13    1    5    5    0    0 -0.18279175456E+03  0.91347172795E+01  0.70519997746E+02  0.19613602086E+03  0.00000000000E+00 0.  1.
        -13    1    5    5    0    0 -0.56761491651E+02 -0.16741291647E+01 -0.29224883271E+02  0.63865197448E+02  0.00000000000E+00 0. -1.
          2    1    6    6  503    0 -0.43374384594E+01 -0.20369113076E+01  0.36069587880E+02  0.36386502304E+02  0.00000000000E+00 0. -1.
         -2    1    6    6    0  503  0.29349882590E+02  0.48796579211E+03  0.16759741621E+04  0.17458125392E+04  0.00000000000E+00 0.  1.
<mgrwt>
<rscale>  0 0.15917182E+04</rscale>
<asrwt>0</asrwt>
<pdfrwt beam="1">  1        1 0.43536584E+00 0.15917182E+04</pdfrwt>
<pdfrwt beam="2">  1       -2 0.34434305E-01 0.15917182E+04</pdfrwt>
<totfact> 0.53080656E+00</totfact>
</mgrwt>
</event>
<event>
12    5  0.5264288E-008  0.2365971E+04  0.7818608E-02  0.8452354E-01
         -2   -1    0    0    0  501 -0.00000000000E+00  0.00000000000E+00  0.18916649279E+04  0.18916649279E+04  0.00000000000E+00 0.  1.
          1   -1    0    0  501    0  0.00000000000E+00 -0.00000000000E+00 -0.73980058876E+03  0.73980058876E+03  0.00000000000E+00 0. -1.
        -24    2    1    2    0    0 -0.36740400271E+03 -0.35189477781E+03 -0.47513715279E+03  0.70042527340E+03  0.77618385763E+02 0.  0.
        254    2    1    2    0    0  0.36740400271E+03  0.35189477781E+03  0.16270014919E+04  0.19310402432E+04  0.90717524792E+03 0.  0.
         23    2    4    4    0    0 -0.15365461545E+02  0.22947789161E+03  0.14691818722E+04  0.14898822195E+04  0.91419112528E+02 0.  0.
         23    2    4    4    0    0  0.38276946425E+03  0.12241688620E+03  0.15781961968E+03  0.44115802374E+03  0.90636707596E+02 0.  0.
          3    1    3    3  502    0 -0.29557987601E+03 -0.23883245931E+03 -0.36668257892E+03  0.52807624488E+03  0.00000000000E+00 0. -1.
         -4    1    3    3    0  502 -0.71824126694E+02 -0.11306231850E+03 -0.10845457387E+03  0.17234902852E+03  0.00000000000E+00 0.  1.
         13    1    5    5    0    0 -0.28802196697E+02  0.14834084067E+03  0.11657222460E+04  0.11754756171E+04  0.00000000000E+00 0. -1.
        -13    1    5    5    0    0  0.13436735151E+02  0.81137050947E+02  0.30345962622E+03  0.31440660241E+03  0.00000000000E+00 0.  1.
          3    1    6    6  503    0  0.34141978803E+03  0.13621623823E+03  0.14923981262E+03  0.39673020667E+03  0.00000000000E+00 0. -1.
         -3    1    6    6    0  503  0.41349676222E+02 -0.13799352033E+02  0.85798070645E+01  0.44427817069E+02  0.00000000000E+00 0.  1.
<mgrwt>
<rscale>  0 0.23659711E+04</rscale>
<asrwt>0</asrwt>
<pdfrwt beam="1">  1        1 0.11381548E+00 0.23659711E+04</pdfrwt>
<pdfrwt beam="2">  1       -2 0.29102537E+00 0.23659711E+04</pdfrwt>
<totfact> 0.71103636E-01</totfact>
</mgrwt>
</event>
<event>
12    5  0.5264288E-008  0.1662233E+04  0.7818608E-02  0.8783202E-01
          1   -1    0    0  501    0  0.00000000000E+00  0.00000000000E+00  0.26951828002E+04  0.26951828002E+04  0.00000000000E+00 0. -1.
         -2   -1    0    0    0  501 -0.00000000000E+00 -0.00000000000E+00 -0.25629221213E+03  0.25629221213E+03  0.00000000000E+00 0.  1.
        -24    2    1    2    0    0 -0.68910382303E+02 -0.51118641867E+03  0.13901977400E+04  0.14849135817E+04  0.79110007556E+02 0.  0.
        254    2    1    2    0    0  0.68910382303E+02  0.51118641867E+03  0.10486928480E+04  0.14665614306E+04  0.88599409976E+03 0.  0.
         23    2    4    4    0    0  0.29687661529E+03  0.66367176685E+03  0.78557114251E+03  0.10751289134E+04  0.10091690449E+03 0.  0.
         23    2    4    4    0    0 -0.22796623299E+03 -0.15248534818E+03  0.26312170549E+03  0.39143251721E+03  0.93626912993E+02 0.  0.
          3    1    3    3  502    0 -0.66620345387E+02 -0.49218432444E+03  0.13692088675E+04  0.14565083599E+04  0.00000000000E+00 0. -1.
         -4    1    3    3    0  502 -0.22900369157E+01 -0.19002094229E+02  0.20988872492E+02  0.28405221750E+02  0.00000000000E+00 0.  1.
         13    1    5    5    0    0  0.16434654038E+03  0.25002393351E+03  0.33909434220E+03  0.45222419835E+03  0.00000000000E+00 0.  1.
        -13    1    5    5    0    0  0.13253007491E+03  0.41364783335E+03  0.44647680030E+03  0.62290471502E+03  0.00000000000E+00 0. -1.
          4    1    6    6  503    0 -0.69076274460E+02 -0.10134155915E+03  0.11937183673E+03  0.17114695063E+03  0.00000000000E+00 0. -1.
         -4    1    6    6    0  503 -0.15888995853E+03 -0.51143789036E+02  0.14374986876E+03  0.22028556658E+03  0.00000000000E+00 0.  1.
<mgrwt>
<rscale>  0 0.16622327E+04</rscale>
<asrwt>0</asrwt>
<pdfrwt beam="1">  1        1 0.41464349E+00 0.16622327E+04</pdfrwt>
<pdfrwt beam="2">  1       -2 0.39429573E-01 0.16622327E+04</pdfrwt>
<totfact> 0.50570818E+00</totfact>
</mgrwt>
</event>
<event>
12    5  0.5264288E-008  0.1797626E+04  0.7818608E-02  0.8707563E-01
         -2   -1    0    0    0  501 -0.00000000000E+00  0.00000000000E+00  0.47996612153E+03  0.47996612153E+03  0.00000000000E+00 0.  1.
          1   -1    0    0  501    0  0.00000000000E+00 -0.00000000000E+00 -0.16831708161E+04  0.16831708161E+04  0.00000000000E+00 0. -1.
        -24    2    1    2    0    0  0.12976942671E+02  0.65436716069E+03 -0.42717584337E+03  0.78555004806E+03  0.79024646907E+02 0.  0.
        254    2    1    2    0    0 -0.12976942671E+02 -0.65436716069E+03 -0.77602885123E+03  0.13775868896E+04  0.93121430316E+03 0.  0.
         23    2    4    4    0    0 -0.33871377040E+01  0.20082656865E+02  0.18210252708E+03  0.20226993261E+03  0.85656345126E+02 0.  0.
         23    2    4    4    0    0 -0.95898049669E+01 -0.67444981755E+03 -0.95813137832E+03  0.11753169570E+04  0.91540649433E+02 0.  0.
          3    1    3    3  502    0 -0.41623061964E+01  0.71250068373E+00 -0.74109346209E+01  0.85296191036E+01  0.00000000000E+00 0. -1.
         -4    1    3    3    0  502  0.17139248867E+02  0.65365466000E+03 -0.41976490875E+03  0.77702042895E+03  0.00000000000E+00 0.  1.
         13    1    5    5    0    0 -0.36917507641E+02 -0.85616255205E+01  0.48334239819E+02  0.61419887177E+02  0.00000000000E+00 0. -1.
        -13    1    5    5    0    0  0.33530369937E+02  0.28644282385E+02  0.13376828727E+03  0.14085004544E+03  0.00000000000E+00 0.  1.
          3    1    6    6  503    0 -0.16840963445E+02 -0.25829583907E+02 -0.59696331196E+02  0.67189563273E+02  0.00000000000E+00 0. -1.
         -3    1    6    6    0  503  0.72511584778E+01 -0.64862023365E+03 -0.89843504712E+03  0.11081273937E+04  0.00000000000E+00 0.  1.
<mgrwt>
<rscale>  0 0.17976262E+04</rscale>
<asrwt>0</asrwt>
<pdfrwt beam="1">  1        1 0.25894936E+00 0.17976262E+04</pdfrwt>
<pdfrwt beam="2">  1       -2 0.73840941E-01 0.17976262E+04</pdfrwt>
<totfact> 0.67011147E+00</totfact>
</mgrwt>
</event>
<event>
12    5  0.5264288E-008  0.2145933E+04  0.7818608E-02  0.8541275E-01
          1   -1    0    0  501    0  0.00000000000E+00  0.00000000000E+00  0.14685102630E+04  0.14685102630E+04  0.00000000000E+00 0. -1.
         -2   -1    0    0    0  501 -0.00000000000E+00 -0.00000000000E+00 -0.78396263443E+03  0.78396263443E+03  0.00000000000E+00 0.  1.
        -24    2    1    2    0    0  0.63805591923E+03  0.59766837330E+03  0.14978216453E+03  0.89068052549E+03  0.80958391516E+02 0.  0.
        254    2    1    2    0    0 -0.63805591923E+03 -0.59766837330E+03  0.53476546401E+03  0.13617923719E+04  0.89676168640E+03 0.  0.
         23    2    4    4    0    0 -0.77326598181E+03 -0.41353598644E+03  0.64484308912E+03  0.10923994083E+04  0.92528736395E+02 0.  0.
         23    2    4    4    0    0  0.13521006258E+03 -0.18413238686E+03 -0.11007762511E+03  0.26939296357E+03  0.90933977985E+02 0.  0.
          1    1    3    3  502    0  0.52844789000E+03  0.52084087259E+03  0.14918052996E+03  0.75682707240E+03  0.00000000000E+00 0. -1.
         -2    1    3    3    0  502  0.10960802923E+03  0.76827500716E+02  0.60163456912E+00  0.13385345308E+03  0.00000000000E+00 0.  1.
         13    1    5    5    0    0 -0.23163080895E+02 -0.26919676776E+02  0.11624305254E+02  0.37367389351E+02  0.00000000000E+00 0. -1.
        -13    1    5    5    0    0 -0.75010290092E+03 -0.38661630966E+03  0.63321878387E+03  0.10550320190E+04  0.00000000000E+00 0.  1.
          4    1    6    6  503    0  0.14201768002E+02 -0.51279350966E+02 -0.65228592764E+02  0.84178568317E+02  0.00000000000E+00 0. -1.
         -4    1    6    6    0  503  0.12100829458E+03 -0.13285303590E+03 -0.44849032348E+02  0.18521439525E+03  0.00000000000E+00 0.  1.
<mgrwt>
<rscale>  0 0.21459331E+04</rscale>
<asrwt>0</asrwt>
<pdfrwt beam="1">  1        1 0.22592465E+00 0.21459331E+04</pdfrwt>
<pdfrwt beam="2">  1       -2 0.12060964E+00 0.21459331E+04</pdfrwt>
<totfact> 0.29007477E+00</totfact>
</mgrwt>
</event>
<event>
12    5  0.5264288E-008  0.1319953E+04  0.7818608E-02  0.9013890E-01
         -2   -1    0    0    0  501 -0.00000000000E+00  0.00000000000E+00  0.14600069150E+03  0.14600069150E+03  0.00000000000E+00 0.  1.
          1   -1    0    0  501    0  0.00000000000E+00 -0.00000000000E+00 -0.29833361755E+04  0.29833361755E+04  0.00000000000E+00 0. -1.
        -24    2    1    2    0    0  0.33867181689E+03 -0.35562769143E+02 -0.96833521774E+03  0.10296734648E+04  0.81185221270E+02 0.  0.
        254    2    1    2    0    0 -0.33867181689E+03  0.35562769143E+02 -0.18690002662E+04  0.20996634022E+04  0.89412588436E+03 0.  0.
         23    2    4    4    0    0 -0.22096804891E+03 -0.91375705055E+02 -0.18858053699E+04  0.19030655037E+04  0.90664326645E+02 0.  0.
         23    2    4    4    0    0 -0.11770376797E+03  0.12693847420E+03  0.16805103643E+02  0.19659789848E+03  0.91655708771E+02 0.  0.
          1    1    3    3  502    0  0.30461710614E+03 -0.39984889070E+02 -0.78175038341E+03  0.83995478133E+03  0.00000000000E+00 0. -1.
         -2    1    3    3    0  502  0.34054710748E+02  0.44221199275E+01 -0.18658483433E+03  0.18971868350E+03  0.00000000000E+00 0.  1.
         13    1    5    5    0    0 -0.14195938790E+03 -0.54503351154E+02 -0.14917130618E+04  0.14994435440E+04  0.00000000000E+00 0.  1.
        -13    1    5    5    0    0 -0.79008661011E+02 -0.36872353901E+02 -0.39409230813E+03  0.40362195966E+03  0.00000000000E+00 0. -1.
          2    1    6    6  503    0 -0.69353418502E+02  0.12649916456E+03  0.28026299092E+02  0.14696056863E+03  0.00000000000E+00 0. -1.
         -2    1    6    6    0  503 -0.48350349471E+02  0.43930964112E+00 -0.11221195449E+02  0.49637329846E+02  0.00000000000E+00 0.  1.
<mgrwt>
<rscale>  0 0.13199532E+04</rscale>
<asrwt>0</asrwt>
<pdfrwt beam="1">  1        1 0.45897481E+00 0.13199532E+04</pdfrwt>
<pdfrwt beam="2">  1       -2 0.22461644E-01 0.13199532E+04</pdfrwt>
<totfact> 0.92999844E+00</totfact>
</mgrwt>
</event>
<event>
12    5  0.5264288E-008  0.2382986E+04  0.7818608E-02  0.8445901E-01
         -2   -1    0    0    0  501 -0.00000000000E+00  0.00000000000E+00  0.54943200171E+03  0.54943200171E+03  0.00000000000E+00 0.  1.
          1   -1    0    0  501    0  0.00000000000E+00 -0.00000000000E+00 -0.25838603374E+04  0.25838603374E+04  0.00000000000E+00 0. -1.
        -24    2    1    2    0    0 -0.18456867665E+02 -0.91552044650E+03 -0.14526726522E+04  0.17190457813E+04  0.79638053263E+02 0.  0.
        254    2    1    2    0    0  0.18456867665E+02  0.91552044650E+03 -0.58175568344E+03  0.14142465579E+04  0.90726804599E+03 0.  0.
         23    2    4    4    0    0  0.15779804945E+02  0.10659812000E+04 -0.35555368808E+03  0.11275178370E+04  0.91176349541E+02 0.  0.
         23    2    4    4    0    0  0.26770627206E+01 -0.15046075348E+03 -0.22620199537E+03  0.28672872085E+03  0.91653759608E+02 0.  0.
          3    1    3    3  502    0 -0.17443835255E+01 -0.86783738828E+02 -0.98178737474E+02  0.13104779544E+03  0.00000000000E+00 0. -1.
         -4    1    3    3    0  502 -0.16712484140E+02 -0.82873670767E+03 -0.13544939148E+04  0.15879979858E+04  0.00000000000E+00 0.  1.
         13    1    5    5    0    0 -0.17343261226E+02  0.28724094114E+03 -0.13237661890E+03  0.31675182116E+03  0.00000000000E+00 0. -1.
        -13    1    5    5    0    0  0.33123066171E+02  0.77874025884E+03 -0.22317706918E+03  0.81076601585E+03  0.00000000000E+00 0.  1.
          3    1    6    6  503    0  0.15422586260E+02 -0.14583782088E+03 -0.15167406838E+03  0.21097760351E+03  0.00000000000E+00 0. -1.
         -3    1    6    6    0  503 -0.12745523539E+02 -0.46229325964E+01 -0.74527926993E+02  0.75751117338E+02  0.00000000000E+00 0.  1.
<mgrwt>
<rscale>  0 0.23829860E+04</rscale>
<asrwt>0</asrwt>
<pdfrwt beam="1">  1        1 0.39751698E+00 0.23829860E+04</pdfrwt>
<pdfrwt beam="2">  1       -2 0.84528000E-01 0.23829860E+04</pdfrwt>
<totfact> 0.11398674E+00</totfact>
</mgrwt>
</event>
<event>
12    5  0.5264288E-008  0.1276152E+04  0.7818608E-02  0.9048694E-01
          1   -1    0    0  501    0  0.00000000000E+00  0.00000000000E+00  0.43998919896E+03  0.43998919896E+03  0.00000000000E+00 0. -1.
         -4   -1    0    0    0  501 -0.00000000000E+00 -0.00000000000E+00 -0.92534278282E+03  0.92534278282E+03  0.00000000000E+00 0.  1.
        -24    2    1    2    0    0 -0.47057593936E+02  0.23982430351E+03  0.10258435633E+03  0.27877359598E+03  0.86377392584E+02 0.  0.
        254    2    1    2    0    0  0.47057593936E+02 -0.23982430351E+03 -0.58793794019E+03  0.10865583858E+04  0.88045896584E+03 0.  0.
         23    2    4    4    0    0  0.38557142612E+03 -0.23296170844E+03 -0.76799529824E+02  0.46647655922E+03  0.93625478786E+02 0.  0.
         23    2    4    4    0    0 -0.33851383219E+03 -0.68625950686E+01 -0.51113841037E+03  0.62008182658E+03  0.92737734006E+02 0.  0.
          3    1    3    3  502    0  0.12233797299E+02  0.23737699195E+02  0.36370900586E+02  0.45121907860E+02  0.00000000000E+00 0. -1.
         -4    1    3    3    0  502 -0.59291391235E+02  0.21608660431E+03  0.66213455748E+02  0.23365168812E+03  0.00000000000E+00 0.  1.
         13    1    5    5    0    0  0.33063776402E+03 -0.23416292847E+03 -0.68370195462E+02  0.41088695732E+03  0.00000000000E+00 0. -1.
        -13    1    5    5    0    0  0.54933662106E+02  0.12012200327E+01 -0.84293343622E+01  0.55589601903E+02  0.00000000000E+00 0.  1.
          3    1    6    6  503    0 -0.28434667561E+03 -0.34506367118E+02 -0.38314825831E+03  0.47837883434E+03  0.00000000000E+00 0. -1.
         -3    1    6    6    0  503 -0.54167156574E+02  0.27643772049E+02 -0.12799015206E+03  0.14170299224E+03  0.00000000000E+00 0.  1.
<mgrwt>
<rscale>  0 0.12761518E+04</rscale>
<asrwt>0</asrwt>
<pdfrwt beam="1">  1        1 0.67690646E-01 0.12761518E+04</pdfrwt>
<pdfrwt beam="2">  1       -4 0.14236043E+00 0.12761518E+04</pdfrwt>
<totfact> 0.84980038E+00</totfact>
</mgrwt>
</event>
<event>
12    5  0.5264288E-008  0.1340276E+04  0.7818608E-02  0.8998222E-01
          1   -1    0    0  501    0  0.00000000000E+00  0.00000000000E+00  0.12410503721E+04  0.12410503721E+04  0.00000000000E+00 0. -1.
         -2   -1    0    0    0  501 -0.00000000000E+00 -0.00000000000E+00 -0.36185886856E+03  0.36185886856E+03  0.00000000000E+00 0.  1.
        -24    2    1    2    0    0 -0.27563883442E+02 -0.20979888314E+03 -0.10490395645E+03  0.24957542935E+03  0.80670414762E+02 0.  0.
        254    2    1    2    0    0  0.27563883442E+02  0.20979888314E+03  0.98409546000E+03  0.13533338113E+04  0.90459559551E+03 0.  0.
         23    2    4    4    0    0 -0.41861816974E+03  0.77336216839E+01  0.49011350880E+03  0.65111173142E+03  0.91838196555E+02 0.  0.
         23    2    4    4    0    0  0.44618205318E+03  0.20206526145E+03  0.49398195119E+03  0.70222207989E+03  0.95858682002E+02 0.  0.
          3    1    3    3  502    0  0.84637105591E+01 -0.43039997878E+02 -0.57849280615E+02  0.72599001932E+02  0.00000000000E+00 0. -1.
         -4    1    3    3    0  502 -0.36027594001E+02 -0.16675888526E+03 -0.47054675839E+02  0.17697642741E+03  0.00000000000E+00 0.  1.
         13    1    5    5    0    0 -0.84386585057E+02  0.17232525772E+01  0.48843607892E+02  0.97518015612E+02  0.00000000000E+00 0. -1.
        -13    1    5    5    0    0 -0.33423158468E+03  0.60103691067E+01  0.44126990091E+03  0.55359371581E+03  0.00000000000E+00 0.  1.
          2    1    6    6  503    0  0.22583708961E+03  0.49847356303E+02  0.22628928228E+03  0.32356450555E+03  0.00000000000E+00 0.  1.
         -2    1    6    6    0  503  0.22034496356E+03  0.15221790515E+03  0.26769266892E+03  0.37865757434E+03  0.00000000000E+00 0. -1.
<mgrwt>
<rscale>  0 0.13402762E+04</rscale>
<asrwt>0</asrwt>
<pdfrwt beam="1">  1        1 0.19093082E+00 0.13402762E+04</pdfrwt>
<pdfrwt beam="2">  1       -2 0.55670596E-01 0.13402762E+04</pdfrwt>
<totfact> 0.25977697E+01</totfact>
</mgrwt>
</event>
<event>
12    5  0.5264288E-008  0.1366266E+04  0.7818608E-02  0.8978605E-01
         -2   -1    0    0    0  501 -0.00000000000E+00  0.00000000000E+00  0.14147381768E+04  0.14147381768E+04  0.00000000000E+00 0.  1.
          1   -1    0    0  501    0  0.00000000000E+00 -0.00000000000E+00 -0.32986379498E+03  0.32986379498E+03  0.00000000000E+00 0. -1.
        -24    2    1    2    0    0  0.22215249177E+02 -0.13197830651E+02  0.89167874331E+03  0.89530860090E+03  0.76281121785E+02 0.  0.
        254    2    1    2    0    0 -0.22215249177E+02  0.13197830651E+02  0.19319563852E+03  0.84929337090E+03  0.82662384134E+03 0.  0.
         23    2    4    4    0    0  0.15904383328E+03 -0.33607022453E+03  0.22339436335E+03  0.44379711054E+03  0.93875966155E+02 0.  0.
         23    2    4    4    0    0 -0.18125908246E+03  0.34926805518E+03 -0.30198724831E+02  0.40549626036E+03  0.93124780997E+02 0.  0.
          1    1    3    3  502    0 -0.26727323764E+01  0.30215305657E+02  0.30923975663E+03  0.31072388913E+03  0.00000000000E+00 0. -1.
         -2    1    3    3    0  502  0.24887981554E+02 -0.43413136309E+02  0.58243898668E+03  0.58458471177E+03  0.00000000000E+00 0.  1.
         13    1    5    5    0    0  0.26267042916E+02 -0.13371304214E+03  0.46386601717E+02  0.14394739317E+03  0.00000000000E+00 0. -1.
        -13    1    5    5    0    0  0.13277679037E+03 -0.20235718239E+03  0.17700776163E+03  0.29984971737E+03  0.00000000000E+00 0.  1.
          1    1    6    6  503    0 -0.32060895074E+02  0.13133406651E+03 -0.40672149004E+02  0.14117634973E+03  0.00000000000E+00 0.  1.
         -1    1    6    6    0  503 -0.14919818739E+03  0.21793398867E+03  0.10473424174E+02  0.26431991062E+03  0.00000000000E+00 0. -1.
<mgrwt>
<rscale>  0 0.13662663E+04</rscale>
<asrwt>0</asrwt>
<pdfrwt beam="1">  1        1 0.50748277E-01 0.13662663E+04</pdfrwt>
<pdfrwt beam="2">  1       -2 0.21765203E+00 0.13662663E+04</pdfrwt>
<totfact> 0.67590072E+00</totfact>
</mgrwt>
</event>
<event>
12    5  0.5264288E-008  0.4010601E+04  0.7818608E-02  0.8002411E-01
          1   -1    0    0  501    0  0.00000000000E+00  0.00000000000E+00  0.35088325503E+04  0.35088325503E+04  0.00000000000E+00 0. -1.
         -2   -1    0    0    0  501 -0.00000000000E+00 -0.00000000000E+00 -0.11460306437E+04  0.11460306437E+04  0.00000000000E+00 0.  1.
        -24    2    1    2    0    0  0.14079148173E+04  0.11556125655E+04  0.48834824540E+03  0.18874055579E+04  0.78429566183E+02 0.  0.
        254    2    1    2    0    0 -0.14079148173E+04 -0.11556125655E+04  0.18744536613E+04  0.27674576361E+04  0.90971462849E+03 0.  0.
         23    2    4    4    0    0 -0.72286630227E+03 -0.48514877527E+03  0.14950903201E+04  0.17324985661E+04  0.91384852653E+02 0.  0.
         23    2    4    4    0    0 -0.68504851505E+03 -0.67046379018E+03  0.37936334122E+03  0.10349590700E+04  0.91709160322E+02 0.  0.
          3    1    3    3  502    0  0.11941389707E+04  0.96195229442E+03  0.43662665375E+03  0.15943534529E+04  0.00000000000E+00 0. -1.
         -4    1    3    3    0  502  0.21377584666E+03  0.19366027103E+03  0.51721591656E+02  0.29305210498E+03  0.00000000000E+00 0.  1.
         13    1    5    5    0    0 -0.13239984106E+03 -0.55531608566E+02  0.20900821627E+03  0.25357032936E+03  0.00000000000E+00 0. -1.
        -13    1    5    5    0    0 -0.59046646122E+03 -0.42961716671E+03  0.12860821038E+04  0.14789282367E+04  0.00000000000E+00 0.  1.
          1    1    6    6  503    0 -0.94328126222E+02 -0.11582630793E+03  0.90850883132E+02  0.17483538535E+03  0.00000000000E+00 0. -1.
         -1    1    6    6    0  503 -0.59072038882E+03 -0.55463748225E+03  0.28851245808E+03  0.86012368469E+03  0.00000000000E+00 0.  1.
<mgrwt>
<rscale>  0 0.40106008E+04</rscale>
<asrwt>0</asrwt>
<pdfrwt beam="1">  1        1 0.53982039E+00 0.40106008E+04</pdfrwt>
<pdfrwt beam="2">  1       -2 0.17631241E+00 0.40106008E+04</pdfrwt>
<totfact> 0.32541945E-02</totfact>
</mgrwt>
</event>
<event>
12    5  0.5264288E-008  0.1257799E+04  0.7818608E-02  0.9063717E-01
          1   -1    0    0  501    0  0.00000000000E+00  0.00000000000E+00  0.20998195879E+04  0.20998195879E+04  0.00000000000E+00 0. -1.
         -2   -1    0    0    0  501 -0.00000000000E+00 -0.00000000000E+00 -0.18835649045E+03  0.18835649045E+03  0.00000000000E+00 0.  1.
        -24    2    1    2    0    0  0.49847139326E+02 -0.93272009498E+02  0.96321801513E+03  0.97222578739E+03  0.79054613581E+02 0.  0.
        254    2    1    2    0    0 -0.49847139326E+02  0.93272009498E+02  0.94824508231E+03  0.13159502910E+04  0.90629577242E+03 0.  0.
         23    2    4    4    0    0  0.56543471099E+02  0.41349491284E+03  0.85221408104E+03  0.95366008646E+03  0.94992176066E+02 0.  0.
         23    2    4    4    0    0 -0.10639061042E+03 -0.32022290334E+03  0.96031001270E+02  0.36229020450E+03  0.90391201264E+02 0.  0.
          3    1    3    3  502    0  0.56843477704E+02 -0.95601655295E+02  0.95380607318E+03  0.96026917200E+03  0.00000000000E+00 0. -1.
         -4    1    3    3    0  502 -0.69963383784E+01  0.23296457965E+01  0.94119419501E+01  0.11956615387E+02  0.00000000000E+00 0.  1.
         13    1    5    5    0    0  0.83484885244E+02  0.31366609344E+03  0.65118168859E+03  0.72759448582E+03  0.00000000000E+00 0. -1.
        -13    1    5    5    0    0 -0.26941414145E+02  0.99828819392E+02  0.20103239245E+03  0.22606560064E+03  0.00000000000E+00 0.  1.
          4    1    6    6  503    0 -0.95715471494E+02 -0.28440749436E+03  0.11376579740E+03  0.32092324781E+03  0.00000000000E+00 0. -1.
         -4    1    6    6    0  503 -0.10675138930E+02 -0.35815408982E+02 -0.17734796135E+02  0.41366956689E+02  0.00000000000E+00 0.  1.
<mgrwt>
<rscale>  0 0.12577991E+04</rscale>
<asrwt>0</asrwt>
<pdfrwt beam="1">  1        1 0.32304915E+00 0.12577991E+04</pdfrwt>
<pdfrwt beam="2">  1       -2 0.28977923E-01 0.12577991E+04</pdfrwt>
<totfact> 0.24176946E+01</totfact>
</mgrwt>
</event>
<event>
12    5  0.5264288E-008  0.1709973E+04  0.7818608E-02  0.8755697E-01
         -2   -1    0    0    0  501 -0.00000000000E+00  0.00000000000E+00  0.43228115691E+03  0.43228115691E+03  0.00000000000E+00 0.  1.
          1   -1    0    0  501    0  0.00000000000E+00 -0.00000000000E+00 -0.16910335525E+04  0.16910335525E+04  0.00000000000E+00 0. -1.
        -24    2    1    2    0    0  0.85433834903E+02 -0.58199770389E+03 -0.27061059544E+03  0.65222246863E+03  0.78382311376E+02 0.  0.
        254    2    1    2    0    0 -0.85433834903E+02  0.58199770389E+03 -0.98814180018E+03  0.14710922408E+04  0.91742459977E+03 0.  0.
         23    2    4    4    0    0 -0.24750544457E+03  0.10894113169E+03 -0.91373198085E+03  0.95743484037E+03  0.92995835634E+02 0.  0.
         23    2    4    4    0    0  0.16207160967E+03  0.47305657220E+03 -0.74409819329E+02  0.51365740046E+03  0.90870108788E+02 0.  0.
          3    1    3    3  502    0  0.30071127878E+02 -0.27426552756E+03 -0.85453237579E+02  0.28883924275E+03  0.00000000000E+00 0. -1.
         -4    1    3    3    0  502  0.55362707025E+02 -0.30773217633E+03 -0.18515735786E+03  0.36338322588E+03  0.00000000000E+00 0.  1.
         13    1    5    5    0    0 -0.27272246135E+02 -0.35442124225E+01 -0.20416452292E+03  0.20600846893E+03  0.00000000000E+00 0. -1.
        -13    1    5    5    0    0 -0.22023319844E+03  0.11248534411E+03 -0.70956745793E+03  0.75142637144E+03  0.00000000000E+00 0.  1.
          1    1    6    6  503    0  0.28864006158E+02  0.18128368120E+03 -0.57933620278E+02  0.19249209926E+03  0.00000000000E+00 0. -1.
         -1    1    6    6    0  503  0.13320760351E+03  0.29177289100E+03 -0.16476199051E+02  0.32116530119E+03  0.00000000000E+00 0.  1.
<mgrwt>
<rscale>  0 0.17099730E+04</rscale>
<asrwt>0</asrwt>
<pdfrwt beam="1">  1        1 0.26015901E+00 0.17099730E+04</pdfrwt>
<pdfrwt beam="2">  1       -2 0.66504793E-01 0.17099730E+04</pdfrwt>
<totfact> 0.83825933E+00</totfact>
</mgrwt>
</event>
<event>
12    5  0.5264288E-008  0.2359153E+04  0.7818608E-02  0.8454956E-01
          1   -1    0    0  501    0  0.00000000000E+00  0.00000000000E+00  0.59386063095E+03  0.59386063095E+03  0.00000000000E+00 0. -1.
         -2   -1    0    0    0  501 -0.00000000000E+00 -0.00000000000E+00 -0.23429760682E+04  0.23429760682E+04  0.00000000000E+00 0.  1.
        -24    2    1    2    0    0 -0.27808100912E+03 -0.51596073024E+03  0.26927393940E+03  0.65010898385E+03  0.81170891686E+02 0.  0.
        254    2    1    2    0    0  0.27808100912E+03  0.51596073024E+03 -0.20183893766E+04  0.22867277153E+04  0.90093476198E+03 0.  0.
         23    2    4    4    0    0 -0.87036297485E+02 -0.18428427344E+03 -0.80784286725E+03  0.83831266364E+03  0.92854797072E+02 0.  0.
         23    2    4    4    0    0  0.36511730661E+03  0.70024500368E+03 -0.12105465094E+04  0.14484150516E+04  0.93965938855E+02 0.  0.
          1    1    3    3  502    0 -0.26183024771E+03 -0.43417608810E+03  0.24597569226E+03  0.56353171630E+03  0.00000000000E+00 0. -1.
         -2    1    3    3    0  502 -0.16250761413E+02 -0.81784642138E+02  0.23298247138E+02  0.86577267547E+02  0.00000000000E+00 0.  1.
         13    1    5    5    0    0 -0.80195576655E+02 -0.14118310014E+03 -0.74030497456E+03  0.75790200794E+03  0.00000000000E+00 0. -1.
        -13    1    5    5    0    0 -0.68407208296E+01 -0.43101173304E+02 -0.67537892687E+02  0.80410655701E+02  0.00000000000E+00 0.  1.
          1    1    6    6  503    0  0.24269160665E+03  0.46601018371E+03 -0.72179012674E+03  0.89277415639E+03  0.00000000000E+00 0. -1.
         -1    1    6    6    0  503  0.12242569996E+03  0.23423481997E+03 -0.48875638262E+03  0.55564089523E+03  0.00000000000E+00 0.  1.
<mgrwt>
<rscale>  0 0.23591534E+04</rscale>
<asrwt>0</asrwt>
<pdfrwt beam="1">  1        1 0.91363173E-01 0.23591534E+04</pdfrwt>
<pdfrwt beam="2">  1       -2 0.36045786E+00 0.23591534E+04</pdfrwt>
<totfact> 0.36621702E-01</totfact>
</mgrwt>
</event>
<event>
12    5  0.5264288E-008  0.1772728E+04  0.7818608E-02  0.8720938E-01
         -2   -1    0    0    0  501 -0.00000000000E+00  0.00000000000E+00  0.65141230430E+03  0.65141230430E+03  0.00000000000E+00 0.  1.
          1   -1    0    0  501    0  0.00000000000E+00 -0.00000000000E+00 -0.12060579091E+04  0.12060579091E+04  0.00000000000E+00 0. -1.
        -24    2    1    2    0    0 -0.10454625116E+03  0.47444955245E+03 -0.69337303919E+03  0.85039731715E+03  0.79856928822E+02 0.  0.
        254    2    1    2    0    0  0.10454625116E+03 -0.47444955245E+03  0.13872743437E+03  0.10070728963E+04  0.87115912489E+03 0.  0.
         23    2    4    4    0    0 -0.32634236028E+02 -0.26191348389E+03  0.49046759887E+03  0.56444681086E+03  0.91531799596E+02 0.  0.
         23    2    4    4    0    0  0.13718048719E+03 -0.21253606856E+03 -0.35174016450E+03  0.44262608541E+03  0.90590516369E+02 0.  0.
          3    1    3    3  502    0 -0.50336614183E+02  0.23998564663E+03 -0.28102569365E+03  0.37296424199E+03  0.00000000000E+00 0. -1.
         -4    1    3    3    0  502 -0.54209636976E+02  0.23446390582E+03 -0.41234734555E+03  0.47743307516E+03  0.00000000000E+00 0.  1.
         13    1    5    5    0    0  0.17925124483E+02 -0.17609587361E+03  0.27455681781E+03  0.32666881240E+03  0.00000000000E+00 0. -1.
        -13    1    5    5    0    0 -0.50559360511E+02 -0.85817610277E+02  0.21591078106E+03  0.23777799845E+03  0.00000000000E+00 0.  1.
          3    1    6    6  503    0  0.35458066710E+02 -0.39661132095E+02 -0.14554682064E+03  0.15496501828E+03  0.00000000000E+00 0. -1.
         -3    1    6    6    0  503  0.10172242048E+03 -0.17287493646E+03 -0.20619334386E+03  0.28766106712E+03  0.00000000000E+00 0.  1.
<mgrwt>
<rscale>  0 0.17727278E+04</rscale>
<asrwt>0</asrwt>
<pdfrwt beam="1">  1        1 0.18554737E+00 0.17727278E+04</pdfrwt>
<pdfrwt beam="2">  1       -2 0.10021728E+00 0.17727278E+04</pdfrwt>
<totfact> 0.72109081E+00</totfact>
</mgrwt>
</event>
<event>
12    5  0.5548354E-008  0.2684599E+04  0.7818608E-02  0.8340019E-01
         -2   -1    0    0    0  501 -0.00000000000E+00  0.00000000000E+00  0.12833882515E+04  0.12833882515E+04  0.00000000000E+00 0.  1.
          1   -1    0    0  501    0  0.00000000000E+00 -0.00000000000E+00 -0.14039152627E+04  0.14039152627E+04  0.00000000000E+00 0. -1.
        -24    2    1    2    0    0  0.71685888357E+03 -0.21193439684E+03  0.81152425732E+03  0.11063126690E+04  0.80952169953E+02 0.  0.
        254    2    1    2    0    0 -0.71685888357E+03  0.21193439684E+03 -0.93205126856E+03  0.15809908452E+04  0.10353789827E+04 0.  0.
         23    2    4    4    0    0 -0.26942065076E+02  0.23009903586E+03  0.15212266347E+03  0.29220328221E+03  0.92574360493E+02 0.  0.
         23    2    4    4    0    0 -0.68991681850E+03 -0.18164639018E+02 -0.10841739320E+04  0.12887875630E+04  0.96047368706E+02 0.  0.
          3    1    3    3  502    0  0.30938587837E+03 -0.90569049126E+02  0.29163040691E+03  0.43470756679E+03  0.00000000000E+00 0. -1.
         -4    1    3    3    0  502  0.40747300520E+03 -0.12136534771E+03  0.51989385042E+03  0.67160510220E+03  0.00000000000E+00 0.  1.
         13    1    5    5    0    0  0.55352733420E+01  0.11025443954E+02 -0.11486375567E+02  0.16856348627E+02  0.00000000000E+00 0. -1.
        -13    1    5    5    0    0 -0.32477338418E+02  0.21907359190E+03  0.16360903903E+03  0.27534693358E+03  0.00000000000E+00 0.  1.
          2    1    6    6  503    0 -0.26915296206E+02  0.43442274687E+01 -0.16690734030E+02  0.31966953008E+02  0.00000000000E+00 0. -1.
         -2    1    6    6    0  503 -0.66300152229E+03 -0.22508866487E+02 -0.10674831980E+04  0.12568206100E+04  0.00000000000E+00 0.  1.
<mgrwt>
<rscale>  0 0.26845993E+04</rscale>
<asrwt>0</asrwt>
<pdfrwt beam="1">  1        1 0.21598696E+00 0.26845993E+04</pdfrwt>
<pdfrwt beam="2">  1       -2 0.19744435E+00 0.26845993E+04</pdfrwt>
<totfact> 0.81026725E-01</totfact>
</mgrwt>
</event>
<event>
12    5  0.5264288E-008  0.1576279E+04  0.7818608E-02  0.8835255E-01
          1   -1    0    0  501    0  0.00000000000E+00  0.00000000000E+00  0.11791325384E+04  0.11791325384E+04  0.00000000000E+00 0. -1.
         -2   -1    0    0    0  501 -0.00000000000E+00 -0.00000000000E+00 -0.52679706416E+03  0.52679706416E+03  0.00000000000E+00 0.  1.
        -24    2    1    2    0    0 -0.22863473244E+03 -0.50297366340E+03  0.23740089984E+03  0.60662352717E+03  0.79853425232E+02 0.  0.
        254    2    1    2    0    0  0.22863473244E+03  0.50297366340E+03  0.41493457438E+03  0.10993060754E+04  0.85501274808E+03 0.  0.
         23    2    4    4    0    0 -0.17863988628E+03  0.47980631662E+03  0.14278419741E+02  0.52025576897E+03  0.91301048351E+02 0.  0.
         23    2    4    4    0    0  0.40727461872E+03  0.23167346775E+02  0.40065615464E+03  0.57905030641E+03  0.91457979906E+02 0.  0.
          3    1    3    3  502    0 -0.35122223786E+02 -0.61784221331E+02  0.36907569655E+01  0.71165176147E+02  0.00000000000E+00 0. -1.
         -4    1    3    3    0  502 -0.19351250866E+03 -0.44118944207E+03  0.23371014288E+03  0.53545835103E+03  0.00000000000E+00 0.  1.
         13    1    5    5    0    0 -0.24356277738E+02  0.10529823704E+03 -0.31649751436E+02  0.11261728888E+03  0.00000000000E+00 0. -1.
        -13    1    5    5    0    0 -0.15428360854E+03  0.37450807958E+03  0.45928171177E+02  0.40763848009E+03  0.00000000000E+00 0.  1.
          4    1    6    6  503    0  0.21935935043E+03 -0.26595146231E+02  0.24577386156E+03  0.33050055590E+03  0.00000000000E+00 0. -1.
         -4    1    6    6    0  503  0.18791526830E+03  0.49762493006E+02  0.15488229308E+03  0.24854975051E+03  0.00000000000E+00 0.  1.
<mgrwt>
<rscale>  0 0.15762786E+04</rscale>
<asrwt>0</asrwt>
<pdfrwt beam="1">  1        1 0.18140500E+00 0.15762786E+04</pdfrwt>
<pdfrwt beam="2">  1       -2 0.81045703E-01 0.15762786E+04</pdfrwt>
<totfact> 0.12529581E+01</totfact>
</mgrwt>
</event>
<event>
12    5  0.5264288E-008  0.1313071E+04  0.7818608E-02  0.9019264E-01
         -2   -1    0    0    0  501 -0.00000000000E+00  0.00000000000E+00  0.25892975406E+03  0.25892975406E+03  0.00000000000E+00 0.  1.
          1   -1    0    0  501    0  0.00000000000E+00 -0.00000000000E+00 -0.16646938705E+04  0.16646938705E+04  0.00000000000E+00 0. -1.
        -24    2    1    2    0    0  0.31315407717E+03 -0.89748483373E+02 -0.88975214288E+03  0.95084897886E+03  0.79590442393E+02 0.  0.
        254    2    1    2    0    0 -0.31315407717E+03  0.89748483373E+02 -0.51601197356E+03  0.97277464571E+03  0.75756312487E+03 0.  0.
         23    2    4    4    0    0 -0.49984377574E+03  0.17759622997E+03 -0.17896265560E+03  0.56715673996E+03  0.90856560249E+02 0.  0.
         23    2    4    4    0    0  0.18668969856E+03 -0.87847746598E+02 -0.33704931796E+03  0.40561790575E+03  0.91396786565E+02 0.  0.
          3    1    3    3  502    0  0.22079336841E+03 -0.50357373282E+02 -0.70626842554E+03  0.74168771426E+03  0.00000000000E+00 0. -1.
         -4    1    3    3    0  502  0.92360708767E+02 -0.39391110092E+02 -0.18348371734E+03  0.20916126460E+03  0.00000000000E+00 0.  1.
         13    1    5    5    0    0 -0.85812565800E+02  0.39478945173E+02  0.24627471880E+01  0.94490468751E+02  0.00000000000E+00 0.  1.
        -13    1    5    5    0    0 -0.41403120994E+03  0.13811728480E+03 -0.18142540279E+03  0.47266627121E+03  0.00000000000E+00 0. -1.
          4    1    6    6  503    0  0.16707242819E+03 -0.10070103797E+03 -0.32549184472E+03  0.37947178589E+03  0.00000000000E+00 0. -1.
         -4    1    6    6    0  503  0.19617270379E+02  0.12853291368E+02 -0.11557473246E+02  0.26146119864E+02  0.00000000000E+00 0.  1.
<mgrwt>
<rscale>  0 0.13130709E+04</rscale>
<asrwt>0</asrwt>
<pdfrwt beam="1">  1        1 0.25610675E+00 0.13130709E+04</pdfrwt>
<pdfrwt beam="2">  1       -2 0.39835346E-01 0.13130709E+04</pdfrwt>
<totfact> 0.25881825E+01</totfact>
</mgrwt>
</event>
<event>
12    5  0.5264288E-008  0.1379637E+04  0.7818608E-02  0.8968692E-01
          1   -1    0    0  501    0  0.00000000000E+00  0.00000000000E+00  0.37183364223E+03  0.37183364223E+03  0.00000000000E+00 0. -1.
         -2   -1    0    0    0  501 -0.00000000000E+00 -0.00000000000E+00 -0.12797380908E+04  0.12797380908E+04  0.00000000000E+00 0.  1.
        -24    2    1    2    0    0 -0.17388403742E+03 -0.28650627259E+03 -0.26549761253E+02  0.34566307449E+03  0.80352775577E+02 0.  0.
        254    2    1    2    0    0  0.17388403742E+03  0.28650627259E+03 -0.88135468733E+03  0.13059086586E+04  0.90348759643E+03 0.  0.
         23    2    4    4    0    0 -0.10523063448E+03 -0.14236760317E+03  0.78802520581E+02  0.21402832548E+03  0.90863997237E+02 0.  0.
         23    2    4    4    0    0  0.27911467190E+03  0.42887387576E+03 -0.96015720791E+03  0.10918803331E+04  0.91994545839E+02 0.  0.
          1    1    3    3  502    0 -0.15269132950E+03 -0.18153969219E+03 -0.11158530954E+02  0.23747803005E+03  0.00000000000E+00 0. -1.
         -2    1    3    3    0  502 -0.21192707915E+02 -0.10496658040E+03 -0.15391230299E+02  0.10818504444E+03  0.00000000000E+00 0.  1.
         13    1    5    5    0    0 -0.65235792291E+02 -0.12137503384E+03  0.93505795245E+02  0.16652609759E+03  0.00000000000E+00 0.  1.
        -13    1    5    5    0    0 -0.39994842188E+02 -0.20992569335E+02 -0.14703274664E+02  0.47502227892E+02  0.00000000000E+00 0. -1.
          3    1    6    6  503    0  0.13189895363E+03  0.13972770037E+03 -0.29936802856E+03  0.35572795890E+03  0.00000000000E+00 0. -1.
         -3    1    6    6    0  503  0.14721571826E+03  0.28914617539E+03 -0.66078917935E+03  0.73615237417E+03  0.00000000000E+00 0.  1.
<mgrwt>
<rscale>  0 0.13796372E+04</rscale>
<asrwt>0</asrwt>
<pdfrwt beam="1">  1        1 0.57205176E-01 0.13796372E+04</pdfrwt>
<pdfrwt beam="2">  1       -2 0.19688278E+00 0.13796372E+04</pdfrwt>
<totfact> 0.78585836E+00</totfact>
</mgrwt>
</event>
<event>
12    5  0.5264288E-008  0.1733736E+04  0.7818608E-02  0.8742354E-01
         -2   -1    0    0    0  501 -0.00000000000E+00  0.00000000000E+00  0.37128911967E+03  0.37128911967E+03  0.00000000000E+00 0.  1.
          1   -1    0    0  501    0  0.00000000000E+00 -0.00000000000E+00 -0.20239214238E+04  0.20239214238E+04  0.00000000000E+00 0. -1.
        -24    2    1    2    0    0  0.14740817852E+02  0.53930587716E+03 -0.10725261341E+04  0.12031826195E+04  0.79170618361E+02 0.  0.
        254    2    1    2    0    0 -0.14740817852E+02 -0.53930587716E+03 -0.58010617007E+03  0.11920279240E+04  0.89069595378E+03 0.  0.
         23    2    4    4    0    0  0.39579796719E+03 -0.44826536036E+03 -0.40101792277E+03  0.72584374197E+03  0.91847151495E+02 0.  0.
         23    2    4    4    0    0 -0.41053878504E+03 -0.91040516797E+02 -0.17908824730E+03  0.46618418199E+03  0.91785736873E+02 0.  0.
          3    1    3    3  502    0 -0.41642387739E+01  0.51053106506E+03 -0.10140907768E+04  0.11353587155E+04  0.00000000000E+00 0. -1.
         -4    1    3    3    0  502  0.18905056626E+02  0.28774812099E+02 -0.58435357250E+02  0.67823904004E+02  0.00000000000E+00 0.  1.
         13    1    5    5    0    0  0.16298148962E+03 -0.12189876120E+03 -0.12007320703E+03  0.23630456828E+03  0.00000000000E+00 0. -1.
        -13    1    5    5    0    0  0.23281647757E+03 -0.32636659916E+03 -0.28094471574E+03  0.48953917369E+03  0.00000000000E+00 0.  1.
          1    1    6    6  503    0 -0.20510433785E+03 -0.65204152503E+02 -0.13632249902E+03  0.25476105403E+03  0.00000000000E+00 0. -1.
         -1    1    6    6    0  503 -0.20543444719E+03 -0.25836364294E+02 -0.42765748282E+02  0.21142312796E+03  0.00000000000E+00 0.  1.
<mgrwt>
<rscale>  0 0.17337359E+04</rscale>
<asrwt>0</asrwt>
<pdfrwt beam="1">  1        1 0.31137253E+00 0.17337359E+04</pdfrwt>
<pdfrwt beam="2">  1       -2 0.57121402E-01 0.17337359E+04</pdfrwt>
<totfact> 0.68721848E+00</totfact>
</mgrwt>
</event>
<event>
12    5  0.5264288E-008  0.1552922E+04  0.7818608E-02  0.8850004E-01
         -2   -1    0    0    0  501 -0.00000000000E+00  0.00000000000E+00  0.67769168163E+03  0.67769168163E+03  0.00000000000E+00 0.  1.
          1   -1    0    0  501    0  0.00000000000E+00 -0.00000000000E+00 -0.88962516361E+03  0.88962516361E+03  0.00000000000E+00 0. -1.
        -24    2    1    2    0    0 -0.14755231288E+03 -0.45052724656E+03 -0.12407301490E+03  0.49687414906E+03  0.82117732880E+02 0.  0.
        254    2    1    2    0    0  0.14755231288E+03  0.45052724656E+03 -0.87860467078E+02  0.10704426962E+04  0.95571000790E+03 0.  0.
         23    2    4    4    0    0 -0.20674395146E+02  0.58886601987E+03 -0.37151157541E+03  0.70130865695E+03  0.81377894329E+02 0.  0.
         23    2    4    4    0    0  0.16822670802E+03 -0.13833877331E+03  0.28365110833E+03  0.36913403922E+03  0.91455706030E+02 0.  0.
          1    1    3    3  502    0 -0.49134541680E+02 -0.76862070537E+02 -0.63143063818E+00  0.91227078096E+02  0.00000000000E+00 0. -1.
         -2    1    3    3    0  502 -0.98417771197E+02 -0.37366517602E+03 -0.12344158426E+03  0.40564707096E+03  0.00000000000E+00 0.  1.
         13    1    5    5    0    0  0.28124984947E+02  0.11404766418E+03 -0.76539093112E+02  0.14020027552E+03  0.00000000000E+00 0.  1.
        -13    1    5    5    0    0 -0.48799380093E+02  0.47481835569E+03 -0.29497248229E+03  0.56110838143E+03  0.00000000000E+00 0. -1.
          4    1    6    6  503    0  0.16486152381E+03 -0.13793879351E+03  0.29056523100E+03  0.36143406903E+03  0.00000000000E+00 0. -1.
         -4    1    6    6    0  503  0.33651842174E+01 -0.39997979512E+00 -0.69141226742E+01  0.76999701952E+01  0.00000000000E+00 0.  1.
<mgrwt>
<rscale>  0 0.15529219E+04</rscale>
<asrwt>0</asrwt>
<pdfrwt beam="1">  1        1 0.13686541E+00 0.15529219E+04</pdfrwt>
<pdfrwt beam="2">  1       -2 0.10426026E+00 0.15529219E+04</pdfrwt>
<totfact> 0.11712212E+01</totfact>
</mgrwt>
</event>
<event>
12    5  0.5264288E-008  0.1479557E+04  0.7818608E-02  0.8898162E-01
         -2   -1    0    0    0  501 -0.00000000000E+00  0.00000000000E+00  0.55594926528E+03  0.55594926528E+03  0.00000000000E+00 0.  1.
          1   -1    0    0  501    0  0.00000000000E+00 -0.00000000000E+00 -0.98439301026E+03  0.98439301026E+03  0.00000000000E+00 0. -1.
        -24    2    1    2    0    0 -0.32380986807E+03 -0.24686377413E+03  0.50225767497E+02  0.41784640283E+03  0.79236576115E+02 0.  0.
        254    2    1    2    0    0  0.32380986807E+03  0.24686377413E+03 -0.47866951248E+03  0.11224958727E+04  0.93009565553E+03 0.  0.
         23    2    4    4    0    0 -0.15831053020E+03 -0.28754349199E+01  0.18494330082E+03  0.25987166140E+03  0.90877740859E+02 0.  0.
         23    2    4    4    0    0  0.48212039827E+03  0.24973920905E+03 -0.66361281330E+03  0.86262421131E+03  0.94492396510E+02 0.  0.
          1    1    3    3  502    0 -0.13433461578E+03 -0.68256619307E+02  0.45558071018E+02  0.15741757497E+03  0.00000000000E+00 0. -1.
         -2    1    3    3    0  502 -0.18947525229E+03 -0.17860715482E+03  0.46676964786E+01  0.26042882785E+03  0.00000000000E+00 0.  1.
         13    1    5    5    0    0 -0.48171969064E+01  0.21472532237E+02  0.58944957040E+01  0.22782012780E+02  0.00000000000E+00 0. -1.
        -13    1    5    5    0    0 -0.15349333329E+03 -0.24347967157E+02  0.17904880511E+03  0.23708964862E+03  0.00000000000E+00 0.  1.
          1    1    6    6  503    0 -0.28029234850E+00 -0.34510383233E+01 -0.15797832418E+02  0.16172808613E+02  0.00000000000E+00 0. -1.
         -1    1    6    6    0  503  0.48240069062E+03  0.25319024737E+03 -0.64781498088E+03  0.84645140270E+03  0.00000000000E+00 0.  1.
<mgrwt>
<rscale>  0 0.14795575E+04</rscale>
<asrwt>0</asrwt>
<pdfrwt beam="1">  1        1 0.15144508E+00 0.14795575E+04</pdfrwt>
<pdfrwt beam="2">  1       -2 0.85530656E-01 0.14795575E+04</pdfrwt>
<totfact> 0.15705428E+01</totfact>
</mgrwt>
</event>
<event>
12    5  0.5264288E-008  0.1359310E+04  0.7818608E-02  0.8983810E-01
         -2   -1    0    0    0  501 -0.00000000000E+00  0.00000000000E+00  0.18784552713E+03  0.18784552713E+03  0.00000000000E+00 0.  1.
          1   -1    0    0  501    0  0.00000000000E+00 -0.00000000000E+00 -0.24591013633E+04  0.24591013633E+04  0.00000000000E+00 0. -1.
        -24    2    1    2    0    0  0.14142315429E+03 -0.34157629027E+03 -0.64417274002E+03  0.74701657311E+03  0.80002317954E+02 0.  0.
        254    2    1    2    0    0 -0.14142315429E+03  0.34157629027E+03 -0.16270830961E+04  0.18999303173E+04  0.90865886791E+03 0.  0.
         23    2    4    4    0    0  0.13835789070E+03  0.50006129857E+03 -0.51156689517E+03  0.73496893994E+03  0.96303926165E+02 0.  0.
         23    2    4    4    0    0 -0.27978104499E+03 -0.15848500830E+03 -0.11155162009E+04  0.11649613773E+04  0.96766136351E+02 0.  0.
          1    1    3    3  502    0  0.14122566557E+03 -0.30806235213E+03 -0.61670268487E+03  0.70368267205E+03  0.00000000000E+00 0. -1.
         -2    1    3    3    0  502  0.19748871189E+00 -0.33513938141E+02 -0.27470055151E+02  0.43333901065E+02  0.00000000000E+00 0.  1.
         13    1    5    5    0    0  0.46025820893E+02  0.63489859677E+02 -0.10689762110E+03  0.13257616629E+03  0.00000000000E+00 0. -1.
        -13    1    5    5    0    0  0.92332069812E+02  0.43657143889E+03 -0.40466927407E+03  0.60239277366E+03  0.00000000000E+00 0.  1.
          2    1    6    6  503    0 -0.72445935358E+02 -0.95145387103E+01 -0.36405984727E+03  0.37131995959E+03  0.00000000000E+00 0. -1.
         -2    1    6    6    0  503 -0.20733510963E+03 -0.14897046959E+03 -0.75145635367E+03  0.79364141775E+03  0.00000000000E+00 0.  1.
<mgrwt>
<rscale>  0 0.13593104E+04</rscale>
<asrwt>0</asrwt>
<pdfrwt beam="1">  1        1 0.37832330E+00 0.13593104E+04</pdfrwt>
<pdfrwt beam="2">  1       -2 0.28899311E-01 0.13593104E+04</pdfrwt>
<totfact> 0.13703694E+01</totfact>
</mgrwt>
</event>
<event>
12    5  0.5264288E-008  0.1347280E+04  0.7818608E-02  0.8992890E-01
         -2   -1    0    0    0  501 -0.00000000000E+00  0.00000000000E+00  0.26112989546E+03  0.26112989546E+03  0.00000000000E+00 0.  1.
          1   -1    0    0  501    0  0.00000000000E+00 -0.00000000000E+00 -0.17377977348E+04  0.17377977348E+04  0.00000000000E+00 0. -1.
        -24    2    1    2    0    0 -0.16037192019E+03  0.28455165568E+03 -0.65752770398E+03  0.73884131028E+03  0.82794943860E+02 0.  0.
        254    2    1    2    0    0  0.16037192019E+03 -0.28455165568E+03 -0.81914013540E+03  0.12600863200E+04  0.90007676059E+03 0.  0.
         23    2    4    4    0    0  0.37323010787E+03  0.15477667076E+03 -0.57006059181E+03  0.70454327359E+03  0.90308442566E+02 0.  0.
         23    2    4    4    0    0 -0.21285818768E+03 -0.43932832644E+03 -0.24907954359E+03  0.55554304644E+03  0.90936631405E+02 0.  0.
          1    1    3    3  502    0 -0.14798614234E+03  0.28351311504E+03 -0.64971377414E+03  0.72415990846E+03  0.00000000000E+00 0. -1.
         -2    1    3    3    0  502 -0.12385777845E+02  0.10385406422E+01 -0.78139298473E+01  0.14681401812E+02  0.00000000000E+00 0.  1.
         13    1    5    5    0    0  0.49128232083E+02  0.26032177906E+02 -0.34451374566E+02  0.65407604173E+02  0.00000000000E+00 0. -1.
        -13    1    5    5    0    0  0.32410187579E+03  0.12874449285E+03 -0.53560921724E+03  0.63913566942E+03  0.00000000000E+00 0.  1.
          4    1    6    6  503    0 -0.92994310819E+02 -0.22644648284E+03 -0.17266204652E+03  0.29956323831E+03  0.00000000000E+00 0. -1.
         -4    1    6    6    0  503 -0.11986387686E+03 -0.21288184360E+03 -0.76417497067E+02  0.25597980813E+03  0.00000000000E+00 0.  1.
<mgrwt>
<rscale>  0 0.13472801E+04</rscale>
<asrwt>0</asrwt>
<pdfrwt beam="1">  1        1 0.26735349E+00 0.13472801E+04</pdfrwt>
<pdfrwt beam="2">  1       -2 0.40173831E-01 0.13472801E+04</pdfrwt>
<totfact> 0.22637904E+01</totfact>
</mgrwt>
</event>
<event>
12    5  0.5264288E-008  0.2922417E+04  0.7818608E-02  0.8266239E-01
         -2   -1    0    0    0  501 -0.00000000000E+00  0.00000000000E+00  0.21572655297E+04  0.21572655297E+04  0.00000000000E+00 0.  1.
          1   -1    0    0  501    0  0.00000000000E+00 -0.00000000000E+00 -0.98973903305E+03  0.98973903305E+03  0.00000000000E+00 0. -1.
        -24    2    1    2    0    0 -0.11714903660E+04  0.55688784658E+03  0.77801919289E+03  0.15143968526E+04  0.74633848981E+02 0.  0.
        254    2    1    2    0    0  0.11714903660E+04 -0.55688784658E+03  0.38950730374E+03  0.16326077101E+04  0.91168977406E+03 0.  0.
         23    2    4    4    0    0  0.19468359023E+03 -0.55319653853E+03  0.63241443750E+02  0.59883035371E+03  0.10329666877E+03 0.  0.
         23    2    4    4    0    0  0.97680677577E+03 -0.36913080570E+01  0.32626585999E+03  0.10337773564E+04  0.89894984558E+02 0.  0.
          1    1    3    3  502    0 -0.10267766584E+04  0.51294326713E+03  0.69688649293E+03  0.13427702281E+04  0.00000000000E+00 0. -1.
         -2    1    3    3    0  502 -0.14471370758E+03  0.43944579455E+02  0.81132699965E+02  0.17162662447E+03  0.00000000000E+00 0.  1.
         13    1    5    5    0    0  0.16813183963E+01 -0.11530817067E+03 -0.51345727504E+01  0.11543467803E+03  0.00000000000E+00 0. -1.
        -13    1    5    5    0    0  0.19300227183E+03 -0.43788836785E+03  0.68376016500E+02  0.48339567568E+03  0.00000000000E+00 0.  1.
          3    1    6    6  503    0  0.57941514674E+02  0.28731608446E-01 -0.21411797668E+01  0.57981071040E+02  0.00000000000E+00 0. -1.
         -3    1    6    6    0  503  0.91886526110E+03 -0.37200396654E+01  0.32840703976E+03  0.97579628535E+03  0.00000000000E+00 0.  1.
<mgrwt>
<rscale>  0 0.29224167E+04</rscale>
<asrwt>0</asrwt>
<pdfrwt beam="1">  1        1 0.15226754E+00 0.29224167E+04</pdfrwt>
<pdfrwt beam="2">  1       -2 0.33188700E+00 0.29224167E+04</pdfrwt>
<totfact> 0.23407830E-01</totfact>
</mgrwt>
</event>
<event>
12    5  0.5264288E-008  0.2781438E+04  0.7818608E-02  0.8309054E-01
         -2   -1    0    0    0  501 -0.00000000000E+00  0.00000000000E+00  0.12856785105E+04  0.12856785105E+04  0.00000000000E+00 0.  1.
          1   -1    0    0  501    0  0.00000000000E+00 -0.00000000000E+00 -0.15043416980E+04  0.15043416980E+04  0.00000000000E+00 0. -1.
        -24    2    1    2    0    0  0.22313769676E+03  0.78629099947E+03 -0.10371475346E+04  0.13229528722E+04  0.80531520823E+02 0.  0.
        254    2    1    2    0    0 -0.22313769676E+03 -0.78629099947E+03  0.81848434721E+03  0.14670673363E+04  0.90240011913E+03 0.  0.
         23    2    4    4    0    0  0.15142514253E+02 -0.59643651908E+03  0.14572421626E+02  0.60251857344E+03  0.82767498703E+02 0.  0.
         23    2    4    4    0    0 -0.23828021101E+03 -0.18985448040E+03  0.80391192559E+03  0.86454876285E+03  0.91367371413E+02 0.  0.
          1    1    3    3  502    0  0.63087715870E+02  0.22250706451E+03 -0.35413636405E+03  0.42296810518E+03  0.00000000000E+00 0. -1.
         -2    1    3    3    0  502  0.16004998089E+03  0.56378393496E+03 -0.68301117059E+03  0.89998476701E+03  0.00000000000E+00 0.  1.
         13    1    5    5    0    0  0.12976045631E+02 -0.27028297088E+03 -0.34143037682E+02  0.27273981948E+03  0.00000000000E+00 0. -1.
        -13    1    5    5    0    0  0.21664686214E+01 -0.32615354820E+03  0.48715459307E+02  0.32977875396E+03  0.00000000000E+00 0.  1.
          2    1    6    6  503    0 -0.93746341061E+02 -0.12110368107E+03  0.31801479396E+03  0.35297009393E+03  0.00000000000E+00 0. -1.
         -2    1    6    6    0  503 -0.14453386995E+03 -0.68750799323E+02  0.48589713163E+03  0.51157866892E+03  0.00000000000E+00 0.  1.
<mgrwt>
<rscale>  0 0.27814383E+04</rscale>
<asrwt>0</asrwt>
<pdfrwt beam="1">  1        1 0.23143718E+00 0.27814383E+04</pdfrwt>
<pdfrwt beam="2">  1       -2 0.19779670E+00 0.27814383E+04</pdfrwt>
<totfact> 0.68034916E-01</totfact>
</mgrwt>
</event>
<event>
12    5  0.5264288E-008  0.1776895E+04  0.7818608E-02  0.8718684E-01
          1   -1    0    0  501    0  0.00000000000E+00  0.00000000000E+00  0.64853321366E+03  0.64853321366E+03  0.00000000000E+00 0. -1.
         -2   -1    0    0    0  501 -0.00000000000E+00 -0.00000000000E+00 -0.12171146794E+04  0.12171146794E+04  0.00000000000E+00 0.  1.
        -24    2    1    2    0    0  0.66132951718E+02 -0.59304380507E+02 -0.83767554001E+03  0.84871371742E+03  0.10355716756E+03 0.  0.
        254    2    1    2    0    0 -0.66132951718E+02  0.59304380507E+02  0.26909407426E+03  0.10169341757E+04  0.97665394074E+03 0.  0.
         23    2    4    4    0    0  0.39898043325E+03  0.18869111126E+03  0.27146028386E+03  0.52588433251E+03  0.89855015899E+02 0.  0.
         23    2    4    4    0    0 -0.46511338497E+03 -0.12938673075E+03 -0.23662096061E+01  0.49104984314E+03  0.89738300241E+02 0.  0.
          1    1    3    3  502    0 -0.16050078368E+01  0.38335302564E+00  0.28822665502E+01  0.33212151638E+01  0.00000000000E+00 0. -1.
         -2    1    3    3    0  502  0.67737959555E+02 -0.59687733533E+02 -0.84055780656E+03  0.84539250226E+03  0.00000000000E+00 0.  1.
         13    1    5    5    0    0 -0.12429293176E+01  0.76789806182E+01  0.15888097789E+02  0.17690202598E+02  0.00000000000E+00 0.  1.
        -13    1    5    5    0    0  0.40022336257E+03  0.18101213064E+03  0.25557218607E+03  0.50819412991E+03  0.00000000000E+00 0. -1.
          2    1    6    6  503    0 -0.34136975422E+03 -0.95827636135E+02  0.38090222595E+02  0.35660497753E+03  0.00000000000E+00 0. -1.
         -2    1    6    6    0  503 -0.12374363075E+03 -0.33559094614E+02 -0.40456432201E+02  0.13444486561E+03  0.00000000000E+00 0.  1.
<mgrwt>
<rscale>  0 0.17768954E+04</rscale>
<asrwt>0</asrwt>
<pdfrwt beam="1">  1        1 0.99774341E-01 0.17768954E+04</pdfrwt>
<pdfrwt beam="2">  1       -2 0.18724841E+00 0.17768954E+04</pdfrwt>
<totfact> 0.40889303E+00</totfact>
</mgrwt>
</event>
<event>
12    5  0.5264288E-008  0.1942848E+04  0.7818608E-02  0.8633817E-01
         -2   -1    0    0    0  501 -0.00000000000E+00  0.00000000000E+00  0.69907479636E+03  0.69907479636E+03  0.00000000000E+00 0.  1.
          1   -1    0    0  501    0  0.00000000000E+00 -0.00000000000E+00 -0.13498767890E+04  0.13498767890E+04  0.00000000000E+00 0. -1.
        -24    2    1    2    0    0 -0.97980539697E+02  0.73645097840E+03 -0.11063303347E+02  0.74746878700E+03  0.81406149166E+02 0.  0.
        254    2    1    2    0    0  0.97980539697E+02 -0.73645097840E+03 -0.63973868929E+03  0.13014827984E+04  0.85593904813E+03 0.  0.
         23    2    4    4    0    0 -0.29590821937E+03 -0.55040919084E+03 -0.16700235416E+03  0.65327747209E+03  0.91486160632E+02 0.  0.
         23    2    4    4    0    0  0.39388875907E+03 -0.18604178756E+03 -0.47273633513E+03  0.64820532627E+03  0.83250232548E+02 0.  0.
          1    1    3    3  502    0 -0.88346704850E+02  0.48798135379E+03 -0.37943977952E+02  0.49736373749E+03  0.00000000000E+00 0. -1.
         -2    1    3    3    0  502 -0.96338348467E+01  0.24846962460E+03  0.26880674605E+02  0.25010504951E+03  0.00000000000E+00 0.  1.
         13    1    5    5    0    0 -0.20667093999E+03 -0.34003238504E+03 -0.65662324035E+02  0.40329448436E+03  0.00000000000E+00 0.  1.
        -13    1    5    5    0    0 -0.89237279386E+02 -0.21037680580E+03 -0.10134003013E+03  0.24998298773E+03  0.00000000000E+00 0. -1.
          4    1    6    6  503    0  0.37952993162E+03 -0.18912455368E+03 -0.47043433295E+03  0.63333997775E+03  0.00000000000E+00 0.  1.
         -4    1    6    6    0  503  0.14358827453E+02  0.30827661223E+01 -0.23020021834E+01  0.14865348527E+02  0.00000000000E+00 0. -1.
<mgrwt>
<rscale>  0 0.19428483E+04</rscale>
<asrwt>0</asrwt>
<pdfrwt beam="1">  1        1 0.20767335E+00 0.19428483E+04</pdfrwt>
<pdfrwt beam="2">  1       -2 0.10754997E+00 0.19428483E+04</pdfrwt>
<totfact> 0.47304510E+00</totfact>
</mgrwt>
</event>
<event>
12    5  0.5264288E-008  0.1576341E+04  0.7818608E-02  0.8835216E-01
         -2   -1    0    0    0  501 -0.00000000000E+00  0.00000000000E+00  0.16714100611E+03  0.16714100611E+03  0.00000000000E+00 0.  1.
          1   -1    0    0  501    0  0.00000000000E+00 -0.00000000000E+00 -0.37167007499E+04  0.37167007499E+04  0.00000000000E+00 0. -1.
        -24    2    1    2    0    0 -0.10070911575E+03  0.52137483514E+02 -0.24528857175E+04  0.24568172843E+04  0.80263207896E+02 0.  0.
        254    2    1    2    0    0  0.10070911575E+03 -0.52137483514E+02 -0.10966740263E+04  0.14270244716E+04  0.90600456925E+03 0.  0.
         23    2    4    4    0    0  0.11051239951E+02  0.23505550180E+03  0.32850716720E+02  0.25442856295E+03  0.91002775906E+02 0.  0.
         23    2    4    4    0    0  0.89657875802E+02 -0.28719298532E+03 -0.11295247430E+04  0.11725959087E+04  0.92933710070E+02 0.  0.
          3    1    3    3  502    0 -0.57755977851E+02 -0.59009991934E+01 -0.15343717070E+04  0.15354696708E+04  0.00000000000E+00 0. -1.
         -2    1    3    3    0  502 -0.42953137902E+02  0.58038482707E+02 -0.91851401048E+03  0.92134761355E+03  0.00000000000E+00 0.  1.
         13    1    5    5    0    0  0.19827711332E+02  0.23646022117E+03  0.42765602264E+02  0.24111298404E+03  0.00000000000E+00 0. -1.
        -13    1    5    5    0    0 -0.87764713804E+01 -0.14047193710E+01 -0.99148855435E+01  0.13315578911E+02  0.00000000000E+00 0.  1.
          2    1    6    6  503    0  0.49683641441E+02 -0.26407441926E+03 -0.96577732081E+03  0.10024617681E+04  0.00000000000E+00 0. -1.
         -2    1    6    6    0  503  0.39974234361E+02 -0.23118566061E+02 -0.16374742221E+03  0.17013414058E+03  0.00000000000E+00 0.  1.
<mgrwt>
<rscale>  0 0.15763415E+04</rscale>
<asrwt>0</asrwt>
<pdfrwt beam="1">  1        1 0.57180007E+00 0.15763415E+04</pdfrwt>
<pdfrwt beam="2">  1       -2 0.25714003E-01 0.15763415E+04</pdfrwt>
<totfact> 0.19484954E+00</totfact>
</mgrwt>
</event>
<event>
12    5  0.5264288E-008  0.1335693E+04  0.7818608E-02  0.9001729E-01
          1   -1    0    0  501    0  0.00000000000E+00  0.00000000000E+00  0.12537304229E+04  0.12537304229E+04  0.00000000000E+00 0. -1.
         -2   -1    0    0    0  501 -0.00000000000E+00 -0.00000000000E+00 -0.35575371390E+03  0.35575371390E+03  0.00000000000E+00 0.  1.
        -24    2    1    2    0    0  0.18759843537E+03  0.27069436818E+03  0.43347150104E+03  0.55038968858E+03  0.81010204070E+02 0.  0.
        254    2    1    2    0    0 -0.18759843537E+03 -0.27069436818E+03  0.46450520798E+03  0.10590944482E+04  0.89299907510E+03 0.  0.
         23    2    4    4    0    0 -0.39113895045E+03  0.13192134075E+03  0.42083976698E+03  0.59677125065E+03  0.92934909594E+02 0.  0.
         23    2    4    4    0    0  0.20354051509E+03 -0.40261570893E+03  0.43665440994E+02  0.46232319759E+03  0.91147780741E+02 0.  0.
          3    1    3    3  502    0  0.10164393511E+03  0.14087732382E+03  0.29334227993E+03  0.34092169644E+03  0.00000000000E+00 0. -1.
         -4    1    3    3    0  502  0.85954500254E+02  0.12981704436E+03  0.14012922111E+03  0.20946799214E+03  0.00000000000E+00 0.  1.
         13    1    5    5    0    0 -0.25438986094E+03  0.40422303020E+02  0.27659148926E+03  0.37795636767E+03  0.00000000000E+00 0.  1.
        -13    1    5    5    0    0 -0.13674908951E+03  0.91499037726E+02  0.14424827772E+03  0.21881488298E+03  0.00000000000E+00 0. -1.
          4    1    6    6  503    0  0.62791259671E+02 -0.20968463623E+03  0.45201538564E+02  0.22350294864E+03  0.00000000000E+00 0. -1.
         -4    1    6    6    0  503  0.14074925542E+03 -0.19293107270E+03 -0.15360975702E+01  0.23882024895E+03  0.00000000000E+00 0.  1.
<mgrwt>
<rscale>  0 0.13356935E+04</rscale>
<asrwt>0</asrwt>
<pdfrwt beam="1">  1        1 0.19288160E+00 0.13356935E+04</pdfrwt>
<pdfrwt beam="2">  1       -2 0.54731341E-01 0.13356935E+04</pdfrwt>
<totfact> 0.26361662E+01</totfact>
</mgrwt>
</event>
<event>
12    5  0.5264288E-008  0.2178394E+04  0.7818608E-02  0.8527475E-01
          1   -1    0    0  501    0  0.00000000000E+00  0.00000000000E+00  0.73898235956E+03  0.73898235956E+03  0.00000000000E+00 0. -1.
         -2   -1    0    0    0  501 -0.00000000000E+00 -0.00000000000E+00 -0.16053833997E+04  0.16053833997E+04  0.00000000000E+00 0.  1.
        -24    2    1    2    0    0  0.64668992087E+03 -0.53024759588E+03 -0.21347768625E+03  0.86692314852E+03  0.81318240369E+02 0.  0.
        254    2    1    2    0    0 -0.64668992087E+03  0.53024759588E+03 -0.65292335390E+03  0.14774426107E+04  0.10281815965E+04 0.  0.
         23    2    4    4    0    0 -0.54801864863E+03  0.21123342306E+03 -0.88110885877E+03  0.10627329074E+04  0.90024514009E+02 0.  0.
         23    2    4    4    0    0 -0.98671272244E+02  0.31901417282E+03  0.22818550487E+03  0.41470970338E+03  0.91703058936E+02 0.  0.
          3    1    3    3  502    0  0.40965448306E+03 -0.38475576416E+03 -0.13669687716E+03  0.57839418200E+03  0.00000000000E+00 0. -1.
         -4    1    3    3    0  502  0.23703543782E+03 -0.14549183172E+03 -0.76780809086E+02  0.28852896653E+03  0.00000000000E+00 0.  1.
         13    1    5    5    0    0 -0.45855141812E+03  0.19557750953E+03 -0.69116889929E+03  0.85219388207E+03  0.00000000000E+00 0. -1.
        -13    1    5    5    0    0 -0.89467230514E+02  0.15655913539E+02 -0.18993995948E+03  0.21053902530E+03  0.00000000000E+00 0.  1.
          1    1    6    6  503    0 -0.84390791836E+02  0.32095604496E+03  0.21802243634E+03  0.39707476788E+03  0.00000000000E+00 0. -1.
         -1    1    6    6    0  503 -0.14280480409E+02 -0.19418721356E+01  0.10163068531E+02  0.17634935499E+02  0.00000000000E+00 0.  1.
<mgrwt>
<rscale>  0 0.21783939E+04</rscale>
<asrwt>0</asrwt>
<pdfrwt beam="1">  1        1 0.11368959E+00 0.21783939E+04</pdfrwt>
<pdfrwt beam="2">  1       -2 0.24698206E+00 0.21783939E+04</pdfrwt>
<totfact> 0.13453305E+00</totfact>
</mgrwt>
</event>
<event>
12    5  0.5264288E-008  0.2535636E+04  0.7818608E-02  0.8390399E-01
          1   -1    0    0  501    0  0.00000000000E+00  0.00000000000E+00  0.13150984277E+04  0.13150984277E+04  0.00000000000E+00 0. -1.
         -2   -1    0    0    0  501 -0.00000000000E+00 -0.00000000000E+00 -0.12222371782E+04  0.12222371782E+04  0.00000000000E+00 0.  1.
        -24    2    1    2    0    0  0.80605241210E+03 -0.14835659370E+03  0.80028957864E+03  0.11481859742E+04  0.78341889597E+02 0.  0.
        254    2    1    2    0    0 -0.80605241210E+03  0.14835659370E+03 -0.70742832907E+03  0.13891496317E+04  0.87037445306E+03 0.  0.
         23    2    4    4    0    0 -0.90471711898E+02 -0.12459786095E+03  0.15177478464E+03  0.23409654400E+03  0.89754381805E+02 0.  0.
         23    2    4    4    0    0 -0.71558070020E+03  0.27295445465E+03 -0.85920311370E+03  0.11550530877E+04  0.96735577717E+02 0.  0.
          3    1    3    3  502    0  0.80299369028E+03 -0.14120915842E+03  0.78981668941E+03  0.11351428527E+04  0.00000000000E+00 0. -1.
         -4    1    3    3    0  502  0.30587218176E+01 -0.71474352815E+01  0.10472889228E+02  0.13043121523E+02  0.00000000000E+00 0.  1.
         13    1    5    5    0    0 -0.89033687907E+02 -0.74337846637E+02  0.62800081983E+02  0.13189754858E+03  0.00000000000E+00 0.  1.
        -13    1    5    5    0    0 -0.14380239918E+01 -0.50260014315E+02  0.88974702655E+02  0.10219899542E+03  0.00000000000E+00 0. -1.
          2    1    6    6  503    0 -0.70009227812E+03  0.25319927052E+03 -0.84514749598E+03  0.11262829833E+04  0.00000000000E+00 0. -1.
         -2    1    6    6    0  503 -0.15488422080E+02  0.19755184129E+02 -0.14055617724E+02  0.28770104416E+02  0.00000000000E+00 0.  1.
<mgrwt>
<rscale>  0 0.25356358E+04</rscale>
<asrwt>0</asrwt>
<pdfrwt beam="1">  1        1 0.20232283E+00 0.25356358E+04</pdfrwt>
<pdfrwt beam="2">  1       -2 0.18803649E+00 0.25356358E+04</pdfrwt>
<totfact> 0.10960637E+00</totfact>
</mgrwt>
</event>
<event>
12    5  0.5264288E-008  0.2162602E+04  0.7818608E-02  0.8534157E-01
         -2   -1    0    0    0  501 -0.00000000000E+00  0.00000000000E+00  0.80466892834E+03  0.80466892834E+03  0.00000000000E+00 0.  1.
          1   -1    0    0  501    0  0.00000000000E+00 -0.00000000000E+00 -0.14530350906E+04  0.14530350906E+04  0.00000000000E+00 0. -1.
        -24    2    1    2    0    0 -0.58181335336E+01 -0.19130827034E+03 -0.11695252608E+04  0.11873517843E+04  0.73363609012E+02 0.  0.
        254    2    1    2    0    0  0.58181335336E+01  0.19130827034E+03  0.52115909855E+03  0.10703522346E+04  0.91510348874E+03 0.  0.
         23    2    4    4    0    0  0.35809924933E+03  0.37344773310E+03  0.33358927757E+03  0.62219016399E+03  0.90224787758E+02 0.  0.
         23    2    4    4    0    0 -0.35228111579E+03 -0.18213946277E+03  0.18756982099E+03  0.44816207060E+03  0.91597136082E+02 0.  0.
          3    1    3    3  502    0  0.66493484515E+00 -0.19144872158E+03 -0.10278338177E+04  0.10455120333E+04  0.00000000000E+00 0. -1.
         -4    1    3    3    0  502 -0.64830683787E+01  0.14045124183E+00 -0.14169144314E+03  0.14183975099E+03  0.00000000000E+00 0.  1.
         13    1    5    5    0    0  0.30466415392E+02  0.10234121650E+02  0.40568300943E+01  0.32394406665E+02  0.00000000000E+00 0.  1.
        -13    1    5    5    0    0  0.32763283393E+03  0.36321361145E+03  0.32953244747E+03  0.58979575732E+03  0.00000000000E+00 0. -1.
          2    1    6    6  503    0 -0.31892914668E+03 -0.15382084187E+03  0.19430361216E+03  0.40389422587E+03  0.00000000000E+00 0. -1.
         -2    1    6    6    0  503 -0.33351969117E+02 -0.28318620893E+02 -0.67337911743E+01  0.44267844728E+02  0.00000000000E+00 0.  1.
<mgrwt>
<rscale>  0 0.21626023E+04</rscale>
<asrwt>0</asrwt>
<pdfrwt beam="1">  1        1 0.22354386E+00 0.21626023E+04</pdfrwt>
<pdfrwt beam="2">  1       -2 0.12379522E+00 0.21626023E+04</pdfrwt>
<totfact> 0.27821121E+00</totfact>
</mgrwt>
</event>
<event>
12    5  0.5264288E-008  0.1120173E+04  0.7818608E-02  0.9185750E-01
         -2   -1    0    0    0  501 -0.00000000000E+00  0.00000000000E+00  0.88493482642E+03  0.88493482642E+03  0.00000000000E+00 0.  1.
          1   -1    0    0  501    0  0.00000000000E+00 -0.00000000000E+00 -0.35448580801E+03  0.35448580801E+03  0.00000000000E+00 0. -1.
        -24    2    1    2    0    0  0.31411786532E+02 -0.37567000753E+02  0.16358662372E+03  0.18815374351E+03  0.79014352219E+02 0.  0.
        254    2    1    2    0    0 -0.31411786532E+02  0.37567000753E+02  0.36686239468E+03  0.10512668909E+04  0.98395938912E+03 0.  0.
         23    2    4    4    0    0 -0.84896807321E+02  0.41280778302E+03  0.48124495948E+03  0.64542151626E+03  0.85758317380E+02 0.  0.
         23    2    4    4    0    0  0.53485020789E+02 -0.37524078227E+03 -0.11438256480E+03  0.40584537466E+03  0.89223342686E+02 0.  0.
          3    1    3    3  502    0  0.35390344155E+01 -0.47444497665E+02  0.43450678177E+02  0.64431875321E+02  0.00000000000E+00 0. -1.
         -4    1    3    3    0  502  0.27872752116E+02  0.98774969123E+01  0.12013594554E+03  0.12372186819E+03  0.00000000000E+00 0.  1.
         13    1    5    5    0    0  0.14305980896E+02  0.12167918452E+03  0.13672216085E+03  0.18358495119E+03  0.00000000000E+00 0. -1.
        -13    1    5    5    0    0 -0.99202788217E+02  0.29112859851E+03  0.34452279863E+03  0.46183656507E+03  0.00000000000E+00 0.  1.
          2    1    6    6  503    0 -0.42012843242E+01 -0.19578934982E+02  0.12779179752E+02  0.23754850455E+02  0.00000000000E+00 0. -1.
         -2    1    6    6    0  503  0.57686305113E+02 -0.35566184729E+03 -0.12716174455E+03  0.38209052421E+03  0.00000000000E+00 0.  1.
<mgrwt>
<rscale>  0 0.11201729E+04</rscale>
<asrwt>0</asrwt>
<pdfrwt beam="1">  1        1 0.54536278E-01 0.11201729E+04</pdfrwt>
<pdfrwt beam="2">  1       -2 0.13614382E+00 0.11201729E+04</pdfrwt>
<totfact> 0.23608225E+01</totfact>
</mgrwt>
</event>
<event>
12    5  0.5264288E-008  0.1959808E+04  0.7818608E-02  0.8625646E-01
         -2   -1    0    0    0  501 -0.00000000000E+00  0.00000000000E+00  0.18102937866E+04  0.18102937866E+04  0.00000000000E+00 0.  1.
          1   -1    0    0  501    0  0.00000000000E+00 -0.00000000000E+00 -0.53041768339E+03  0.53041768339E+03  0.00000000000E+00 0. -1.
        -24    2    1    2    0    0  0.30952205689E+03  0.63878058181E+03  0.18767495705E+03  0.73841658227E+03  0.78693227580E+02 0.  0.
        254    2    1    2    0    0 -0.30952205689E+03 -0.63878058181E+03  0.10922011461E+04  0.16022948877E+04  0.93306003459E+03 0.  0.
         23    2    4    4    0    0 -0.59202845284E+03 -0.38491568560E+03  0.42670394609E+03  0.83047555619E+03  0.94634126146E+02 0.  0.
         23    2    4    4    0    0  0.28250639595E+03 -0.25386489621E+03  0.66549720004E+03  0.77181933152E+03  0.92527336262E+02 0.  0.
          1    1    3    3  502    0  0.29735578458E+03  0.61037053749E+03  0.16144448551E+03  0.69788034616E+03  0.00000000000E+00 0. -1.
         -2    1    3    3    0  502  0.12166272312E+02  0.28410044319E+02  0.26230471547E+02  0.40536236108E+02  0.00000000000E+00 0.  1.
         13    1    5    5    0    0 -0.51318398492E+03 -0.35575657664E+03  0.40279621408E+03  0.74307828274E+03  0.00000000000E+00 0.  1.
        -13    1    5    5    0    0 -0.78844467919E+02 -0.29159108953E+02  0.23907732005E+02  0.87397273447E+02  0.00000000000E+00 0. -1.
          3    1    6    6  503    0  0.15038146925E+03 -0.17599710004E+03  0.46455531411E+03  0.51903873206E+03  0.00000000000E+00 0. -1.
         -3    1    6    6    0  503  0.13212492670E+03 -0.77867796176E+02  0.20094188593E+03  0.25278059945E+03  0.00000000000E+00 0.  1.
<mgrwt>
<rscale>  0 0.19598080E+04</rscale>
<asrwt>0</asrwt>
<pdfrwt beam="1">  1        1 0.81602721E-01 0.19598080E+04</pdfrwt>
<pdfrwt beam="2">  1       -2 0.27850673E+00 0.19598080E+04</pdfrwt>
<totfact> 0.14313378E+00</totfact>
</mgrwt>
</event>
<event>
12    5  0.5264288E-008  0.1215509E+04  0.7818608E-02  0.9099389E-01
         -2   -1    0    0    0  501 -0.00000000000E+00  0.00000000000E+00  0.11329881743E+03  0.11329881743E+03  0.00000000000E+00 0.  1.
          1   -1    0    0  501    0  0.00000000000E+00 -0.00000000000E+00 -0.32601011867E+04  0.32601011867E+04  0.00000000000E+00 0. -1.
        -24    2    1    2    0    0  0.71719114173E+02  0.23435303515E+03 -0.43802732283E+03  0.50824777992E+03  0.79893014930E+02 0.  0.
        254    2    1    2    0    0 -0.71719114173E+02 -0.23435303515E+03 -0.27087750464E+04  0.28651522242E+04  0.90087182173E+03 0.  0.
         23    2    4    4    0    0  0.71377394583E+02  0.22687774428E+03 -0.24336636354E+03  0.35122446500E+03  0.86966629256E+02 0.  0.
         23    2    4    4    0    0 -0.14309650876E+03 -0.46123077943E+03 -0.24654086829E+04  0.25139277592E+04  0.91555240293E+02 0.  0.
          3    1    3    3  502    0  0.14393480803E+02  0.79807657113E+01 -0.73634479799E+02  0.75451318916E+02  0.00000000000E+00 0. -1.
         -4    1    3    3    0  502  0.57325633370E+02  0.22637226944E+03 -0.36439284303E+03  0.43279646101E+03  0.00000000000E+00 0.  1.
         13    1    5    5    0    0  0.69751436976E+02  0.84935391399E+02 -0.12455925505E+03  0.16611529638E+03  0.00000000000E+00 0.  1.
        -13    1    5    5    0    0  0.16259576066E+01  0.14194235288E+03 -0.11880710849E+03  0.18510916862E+03  0.00000000000E+00 0. -1.
          4    1    6    6  503    0 -0.14271552858E+03 -0.45986789628E+03 -0.23654662101E+04  0.24139752681E+04  0.00000000000E+00 0. -1.
         -4    1    6    6    0  503 -0.38098017916E+00 -0.13628831543E+01 -0.99942472854E+02  0.99952491097E+02  0.00000000000E+00 0.  1.
<mgrwt>
<rscale>  0 0.12155091E+04</rscale>
<asrwt>0</asrwt>
<pdfrwt beam="1">  1        1 0.50155401E+00 0.12155091E+04</pdfrwt>
<pdfrwt beam="2">  1       -2 0.17430588E-01 0.12155091E+04</pdfrwt>
<totfact> 0.91836580E+00</totfact>
</mgrwt>
</event>
<event>
12    5  0.5264288E-008  0.1897283E+04  0.7818608E-02  0.8656210E-01
          1   -1    0    0  501    0  0.00000000000E+00  0.00000000000E+00  0.26316048198E+04  0.26316048198E+04  0.00000000000E+00 0. -1.
         -2   -1    0    0    0  501 -0.00000000000E+00 -0.00000000000E+00 -0.34196651649E+03  0.34196651649E+03  0.00000000000E+00 0.  1.
        -24    2    1    2    0    0 -0.34170800079E+03  0.54786476034E+03  0.34532599667E+03  0.73664897525E+03  0.80507858825E+02 0.  0.
        254    2    1    2    0    0  0.34170800079E+03 -0.54786476034E+03  0.19443123066E+04  0.22369223610E+04  0.89808192838E+03 0.  0.
         23    2    4    4    0    0  0.27954261636E+03 -0.35892429483E+03  0.24746531737E+03  0.52606229284E+03  0.92367358237E+02 0.  0.
         23    2    4    4    0    0  0.62165384427E+02 -0.18894046552E+03  0.16968469892E+04  0.17108600682E+04  0.90495488349E+02 0.  0.
          1    1    3    3  502    0 -0.10766990098E+03  0.21533680229E+03  0.93004991553E+02  0.25809431310E+03  0.00000000000E+00 0. -1.
         -2    1    3    3    0  502 -0.23403809980E+03  0.33252795805E+03  0.25232100512E+03  0.47855466215E+03  0.00000000000E+00 0.  1.
         13    1    5    5    0    0  0.20947944808E+03 -0.24484173925E+03  0.12829334545E+03  0.34682603555E+03  0.00000000000E+00 0. -1.
        -13    1    5    5    0    0  0.70063168277E+02 -0.11408255558E+03  0.11917197192E+03  0.17923625729E+03  0.00000000000E+00 0.  1.
          4    1    6    6  503    0  0.64617873222E+02 -0.14313259406E+03  0.97588735891E+03  0.98844248508E+03  0.00000000000E+00 0. -1.
         -4    1    6    6    0  503 -0.24524887947E+01 -0.45807871460E+02  0.72095963033E+03  0.72241758309E+03  0.00000000000E+00 0.  1.
<mgrwt>
<rscale>  0 0.18972830E+04</rscale>
<asrwt>0</asrwt>
<pdfrwt beam="1">  1        1 0.40486227E+00 0.18972830E+04</pdfrwt>
<pdfrwt beam="2">  1       -2 0.52610235E-01 0.18972830E+04</pdfrwt>
<totfact> 0.30758847E+00</totfact>
</mgrwt>
</event>
<event>
12    5  0.5264288E-008  0.2309952E+04  0.7818608E-02  0.8474008E-01
         -2   -1    0    0    0  501 -0.00000000000E+00  0.00000000000E+00  0.84591354062E+03  0.84591354062E+03  0.00000000000E+00 0.  1.
          1   -1    0    0  501    0  0.00000000000E+00 -0.00000000000E+00 -0.15769572529E+04  0.15769572529E+04  0.00000000000E+00 0. -1.
        -24    2    1    2    0    0  0.22582897737E+03 -0.65442614373E+03 -0.10374888277E+04  0.12498023078E+04  0.79689625161E+02 0.  0.
        254    2    1    2    0    0 -0.22582897737E+03  0.65442614373E+03  0.30644511543E+03  0.11730684857E+04  0.89605176120E+03 0.  0.
         23    2    4    4    0    0  0.29787216384E+03  0.46022126619E+03  0.23183216717E+03  0.60249029653E+03  0.93364681974E+02 0.  0.
         23    2    4    4    0    0 -0.52370114120E+03  0.19420487754E+03  0.74612948264E+02  0.57057818916E+03  0.89520713499E+02 0.  0.
          1    1    3    3  502    0  0.19745734149E+03 -0.59110585511E+03 -0.97039359451E+03  0.11532819525E+04  0.00000000000E+00 0. -1.
         -2    1    3    3    0  502  0.28371635875E+02 -0.63320288619E+02 -0.67095233176E+02  0.96520355304E+02  0.00000000000E+00 0.  1.
         13    1    5    5    0    0  0.41438754631E+02  0.44276335249E+02  0.57824833628E+02  0.83793052412E+02  0.00000000000E+00 0. -1.
        -13    1    5    5    0    0  0.25643340920E+03  0.41594493094E+03  0.17400733354E+03  0.51869724412E+03  0.00000000000E+00 0.  1.
          2    1    6    6  503    0 -0.13377574803E+03  0.85023097240E+02  0.43989228081E+02  0.16449902739E+03  0.00000000000E+00 0. -1.
         -2    1    6    6    0  503 -0.38992539317E+03  0.10918178030E+03  0.30623720183E+02  0.40607916177E+03  0.00000000000E+00 0.  1.
<mgrwt>
<rscale>  0 0.23099519E+04</rscale>
<asrwt>0</asrwt>
<pdfrwt beam="1">  1        1 0.24260881E+00 0.23099519E+04</pdfrwt>
<pdfrwt beam="2">  1       -2 0.13014054E+00 0.23099519E+04</pdfrwt>
<totfact> 0.19878783E+00</totfact>
</mgrwt>
</event>
<event>
12    5  0.5264288E-008  0.1794566E+04  0.7818608E-02  0.8709195E-01
         -2   -1    0    0    0  501 -0.00000000000E+00  0.00000000000E+00  0.18975532881E+04  0.18975532881E+04  0.00000000000E+00 0.  1.
          1   -1    0    0  501    0  0.00000000000E+00 -0.00000000000E+00 -0.42429194957E+03  0.42429194957E+03  0.00000000000E+00 0. -1.
        -24    2    1    2    0    0 -0.52295512416E+03 -0.43109315018E+03  0.54124594160E+03  0.87110388238E+03  0.80940957350E+02 0.  0.
        254    2    1    2    0    0  0.52295512416E+03  0.43109315018E+03  0.93201539697E+03  0.14507413553E+04  0.88129133315E+03 0.  0.
         23    2    4    4    0    0  0.37237100893E+03  0.67425199039E+03  0.82425179226E+03  0.11321491270E+04  0.95366209276E+02 0.  0.
         23    2    4    4    0    0  0.15058411523E+03 -0.24315884021E+03  0.10776360471E+03  0.31859222834E+03  0.89923390321E+02 0.  0.
          1    1    3    3  502    0 -0.16616911891E+03 -0.12770017085E+03  0.12181000768E+03  0.24239881948E+03  0.00000000000E+00 0. -1.
         -2    1    3    3    0  502 -0.35678600525E+03 -0.30339297933E+03  0.41943593392E+03  0.62870506290E+03  0.00000000000E+00 0.  1.
         13    1    5    5    0    0  0.35397667184E+03  0.59337667877E+03  0.76079199618E+03  0.10277158306E+04  0.00000000000E+00 0. -1.
        -13    1    5    5    0    0  0.18394337088E+02  0.80875311627E+02  0.63459796084E+02  0.10443329635E+03  0.00000000000E+00 0.  1.
          4    1    6    6  503    0  0.12564298631E+03 -0.24443755693E+03  0.98508466048E+02  0.29195855379E+03  0.00000000000E+00 0. -1.
         -4    1    6    6    0  503  0.24941128923E+02  0.12787167234E+01  0.92551386580E+01  0.26633674549E+02  0.00000000000E+00 0.  1.
<mgrwt>
<rscale>  0 0.17945658E+04</rscale>
<asrwt>0</asrwt>
<pdfrwt beam="1">  1        1 0.65275686E-01 0.17945658E+04</pdfrwt>
<pdfrwt beam="2">  1       -2 0.29193127E+00 0.17945658E+04</pdfrwt>
<totfact> 0.16324827E+00</totfact>
</mgrwt>
</event>
<event>
12    5  0.5264288E-008  0.1300198E+04  0.7818608E-02  0.9029408E-01
         -2   -1    0    0    0  501 -0.00000000000E+00  0.00000000000E+00  0.49646215435E+03  0.49646215435E+03  0.00000000000E+00 0.  1.
          1   -1    0    0  501    0  0.00000000000E+00 -0.00000000000E+00 -0.85128146967E+03  0.85128146967E+03  0.00000000000E+00 0. -1.
        -24    2    1    2    0    0 -0.11737711989E+03  0.31009091156E+03 -0.13806628356E+03  0.36886620474E+03  0.84060791328E+02 0.  0.
        254    2    1    2    0    0  0.11737711989E+03 -0.31009091156E+03 -0.21675303176E+03  0.97887741928E+03  0.89514544265E+03 0.  0.
         23    2    4    4    0    0  0.89451321360E+02 -0.45050009556E+03 -0.47701024207E+03  0.66812417954E+03  0.88877855820E+02 0.  0.
         23    2    4    4    0    0  0.27925798531E+02  0.14040918399E+03  0.26025721030E+03  0.31075323975E+03  0.91319063313E+02 0.  0.
          1    1    3    3  502    0 -0.88840599055E+02  0.19852272828E+03 -0.13008848473E+03  0.25343034456E+03  0.00000000000E+00 0. -1.
         -2    1    3    3    0  502 -0.28536520836E+02  0.11156818328E+03 -0.79777988270E+01  0.11543586018E+03  0.00000000000E+00 0.  1.
         13    1    5    5    0    0  0.42413647972E+02 -0.24773092096E+03 -0.32260734235E+03  0.40895601728E+03  0.00000000000E+00 0.  1.
        -13    1    5    5    0    0  0.47037673388E+02 -0.20276917460E+03 -0.15440289971E+03  0.25916816225E+03  0.00000000000E+00 0. -1.
          3    1    6    6  503    0 -0.17963332724E+02  0.11612970172E+03  0.17072800330E+03  0.20726031953E+03  0.00000000000E+00 0. -1.
         -3    1    6    6    0  503  0.45889131255E+02  0.24279482278E+02  0.89529207007E+02  0.10349292021E+03  0.00000000000E+00 0.  1.
<mgrwt>
<rscale>  0 0.13001985E+04</rscale>
<asrwt>0</asrwt>
<pdfrwt beam="1">  1        1 0.13096638E+00 0.13001985E+04</pdfrwt>
<pdfrwt beam="2">  1       -2 0.76378793E-01 0.13001985E+04</pdfrwt>
<totfact> 0.26378900E+01</totfact>
</mgrwt>
</event>
<event>
12    5  0.5264288E-008  0.1736932E+04  0.7818608E-02  0.8740577E-01
         -4   -1    0    0    0  501 -0.00000000000E+00  0.00000000000E+00  0.88764402878E+03  0.88764402878E+03  0.00000000000E+00 0.  1.
          3   -1    0    0  501    0  0.00000000000E+00 -0.00000000000E+00 -0.84970204315E+03  0.84970204315E+03  0.00000000000E+00 0. -1.
        -24    2    1    2    0    0 -0.62668813957E+03 -0.76173994225E+02  0.82151907839E+02  0.64172003682E+03  0.80716590796E+02 0.  0.
        254    2    1    2    0    0  0.62668813957E+03  0.76173994225E+02 -0.44209922218E+02  0.10956260351E+04  0.89437206458E+03 0.  0.
         23    2    4    4    0    0  0.70195911498E+03 -0.99784443660E+02  0.22857531968E+03  0.75042920838E+03  0.90519532302E+02 0.  0.
         23    2    4    4    0    0 -0.75270975408E+02  0.17595843789E+03 -0.27278524190E+03  0.34519682673E+03  0.90121969479E+02 0.  0.
          1    1    3    3  502    0 -0.77842442345E+02 -0.71784024016E+01 -0.16320275257E+02  0.79858165993E+02  0.00000000000E+00 0. -1.
         -2    1    3    3    0  502 -0.54884569722E+03 -0.68995591824E+02  0.98472183096E+02  0.56186187083E+03  0.00000000000E+00 0.  1.
         13    1    5    5    0    0  0.55228182387E+02  0.11232879726E+02  0.34751819125E+02  0.66211922259E+02  0.00000000000E+00 0.  1.
        -13    1    5    5    0    0  0.64673093259E+03 -0.11101732339E+03  0.19382350055E+03  0.68421728612E+03  0.00000000000E+00 0. -1.
          4    1    6    6  503    0 -0.92822928190E+02  0.16698475795E+03 -0.23778929486E+03  0.30503074294E+03  0.00000000000E+00 0. -1.
         -4    1    6    6    0  503  0.17551952782E+02  0.89736799343E+01 -0.34995947036E+02  0.40166083789E+02  0.00000000000E+00 0.  1.
<mgrwt>
<rscale>  0 0.17369317E+04</rscale>
<asrwt>0</asrwt>
<pdfrwt beam="1">  1        3 0.13072339E+00 0.17369317E+04</pdfrwt>
<pdfrwt beam="2">  1       -4 0.13656062E+00 0.17369317E+04</pdfrwt>
<totfact> 0.37991320E-01</totfact>
</mgrwt>
</event>
<event>
12    5  0.5264288E-008  0.1228461E+04  0.7818608E-02  0.9088303E-01
         -2   -1    0    0    0  501 -0.00000000000E+00  0.00000000000E+00  0.20068350028E+03  0.20068350028E+03  0.00000000000E+00 0.  1.
          1   -1    0    0  501    0  0.00000000000E+00 -0.00000000000E+00 -0.18799715072E+04  0.18799715072E+04  0.00000000000E+00 0. -1.
        -24    2    1    2    0    0 -0.22582619606E+02 -0.26954671212E+03 -0.29831836526E+03  0.41032821238E+03  0.78803490383E+02 0.  0.
        254    2    1    2    0    0  0.22582619606E+02  0.26954671212E+03 -0.13809696416E+04  0.16703267951E+04  0.89986057061E+03 0.  0.
         23    2    4    4    0    0  0.15937011341E+03  0.34981562793E+03 -0.14347742455E+03  0.41959290801E+03  0.87764631279E+02 0.  0.
         23    2    4    4    0    0 -0.13678749380E+03 -0.80268915811E+02 -0.12374922171E+04  0.12507338871E+04  0.88285625365E+02 0.  0.
          3    1    3    3  502    0 -0.19120253977E+01 -0.66371872080E+02 -0.12883114965E+03  0.14493566285E+03  0.00000000000E+00 0. -1.
         -4    1    3    3    0  502 -0.20670594209E+02 -0.20317484004E+03 -0.16948721561E+03  0.26539254953E+03  0.00000000000E+00 0.  1.
         13    1    5    5    0    0  0.12681511643E+03  0.28812141366E+03 -0.15154061391E+03  0.34937169380E+03  0.00000000000E+00 0.  1.
        -13    1    5    5    0    0  0.32554996976E+02  0.61694214269E+02  0.80631893541E+01  0.70221214209E+02  0.00000000000E+00 0. -1.
          2    1    6    6  503    0 -0.28805699064E+02 -0.17459866207E+00 -0.51722589380E+03  0.51802743557E+03  0.00000000000E+00 0. -1.
         -2    1    6    6    0  503 -0.10798179474E+03 -0.80094317149E+02 -0.72026632327E+03  0.73270645150E+03  0.00000000000E+00 0.  1.
<mgrwt>
<rscale>  0 0.12284613E+04</rscale>
<asrwt>0</asrwt>
<pdfrwt beam="1">  1        1 0.28922639E+00 0.12284613E+04</pdfrwt>
<pdfrwt beam="2">  1       -2 0.30874384E-01 0.12284613E+04</pdfrwt>
<totfact> 0.30318817E+01</totfact>
</mgrwt>
</event>
<event>
12    5  0.5264288E-008  0.1188502E+04  0.7818608E-02  0.9122981E-01
          1   -1    0    0  501    0  0.00000000000E+00  0.00000000000E+00  0.33213481368E+04  0.33213481368E+04  0.00000000000E+00 0. -1.
         -2   -1    0    0    0  501 -0.00000000000E+00 -0.00000000000E+00 -0.10632252974E+03  0.10632252974E+03  0.00000000000E+00 0.  1.
        -24    2    1    2    0    0 -0.11127143101E+03  0.18414728040E+03  0.86722630677E+03  0.89722408750E+03  0.81474190925E+02 0.  0.
        254    2    1    2    0    0  0.11127143101E+03 -0.18414728040E+03  0.23477993003E+04  0.25304465790E+04  0.91907931254E+03 0.  0.
         23    2    4    4    0    0  0.19135317880E+03  0.17062301296E+03  0.17001806624E+03  0.32064098829E+03  0.90422612973E+02 0.  0.
         23    2    4    4    0    0 -0.80081747788E+02 -0.35477029336E+03  0.21777812340E+04  0.22098055907E+04  0.90744686818E+02 0.  0.
          1    1    3    3  502    0 -0.97299929156E+02  0.18012108795E+03  0.85167420030E+03  0.87593368812E+03  0.00000000000E+00 0. -1.
         -2    1    3    3    0  502 -0.13971501851E+02  0.40261924536E+01  0.15552106477E+02  0.21290399374E+02  0.00000000000E+00 0.  1.
         13    1    5    5    0    0  0.14319439355E+03  0.17108188714E+03  0.14769286893E+03  0.26755715274E+03  0.00000000000E+00 0.  1.
        -13    1    5    5    0    0  0.48158785243E+02 -0.45887417411E+00  0.22325197308E+02  0.53083835547E+02  0.00000000000E+00 0. -1.
          1    1    6    6  503    0 -0.43242208093E+02 -0.13397965208E+03  0.60433851636E+03  0.62052032850E+03  0.00000000000E+00 0. -1.
         -1    1    6    6    0  503 -0.36839539695E+02 -0.22079064128E+03  0.15734427177E+04  0.15892852622E+04  0.00000000000E+00 0.  1.
<mgrwt>
<rscale>  0 0.11885018E+04</rscale>
<asrwt>0</asrwt>
<pdfrwt beam="1">  1        1 0.51097656E+00 0.11885018E+04</pdfrwt>
<pdfrwt beam="2">  1       -2 0.16357315E-01 0.11885018E+04</pdfrwt>
<totfact> 0.92407235E+00</totfact>
</mgrwt>
</event>
<event>
12    5  0.5264288E-008  0.2000711E+04  0.7818608E-02  0.8606288E-01
         -2   -1    0    0    0  501 -0.00000000000E+00  0.00000000000E+00  0.69656146064E+03  0.69656146064E+03  0.00000000000E+00 0.  1.
          1   -1    0    0  501    0  0.00000000000E+00 -0.00000000000E+00 -0.14366443927E+04  0.14366443927E+04  0.00000000000E+00 0. -1.
        -24    2    1    2    0    0 -0.20947825754E+03 -0.57894234636E+03  0.21466193664E+03  0.65685497874E+03  0.79519401753E+02 0.  0.
        254    2    1    2    0    0  0.20947825754E+03  0.57894234636E+03 -0.95474486866E+03  0.14763508745E+04  0.94287791349E+03 0.  0.
         23    2    4    4    0    0 -0.28850350275E+03  0.33884200949E+03 -0.11813457217E+03  0.46942728327E+03  0.91422199940E+02 0.  0.
         23    2    4    4    0    0  0.49798176029E+03  0.24010033687E+03 -0.83661029649E+03  0.10069235913E+04  0.91347277574E+02 0.  0.
          1    1    3    3  502    0  0.14442351145E+01 -0.41202352964E+02  0.18381233016E+01  0.41268612796E+02  0.00000000000E+00 0. -1.
         -2    1    3    3    0  502 -0.21092249265E+03 -0.53773999340E+03  0.21282381334E+03  0.61558636594E+03  0.00000000000E+00 0.  1.
         13    1    5    5    0    0  0.34287478176E+01  0.19803511285E+02  0.30347027218E+01  0.20325963481E+02  0.00000000000E+00 0.  1.
        -13    1    5    5    0    0 -0.29193225057E+03  0.31903849821E+03 -0.12116927489E+03  0.44910131979E+03  0.00000000000E+00 0. -1.
          4    1    6    6  503    0  0.45383763856E+03  0.19879016486E+03 -0.70073792892E+03  0.85820730413E+03  0.00000000000E+00 0. -1.
         -4    1    6    6    0  503  0.44144121728E+02  0.41310172017E+02 -0.13587236757E+03  0.14871628715E+03  0.00000000000E+00 0.  1.
<mgrwt>
<rscale>  0 0.20007110E+04</rscale>
<asrwt>0</asrwt>
<pdfrwt beam="1">  1        1 0.22102221E+00 0.20007110E+04</pdfrwt>
<pdfrwt beam="2">  1       -2 0.10716330E+00 0.20007110E+04</pdfrwt>
<totfact> 0.41258976E+00</totfact>
</mgrwt>
</event>
<event>
12    5  0.5264288E-008  0.4450537E+04  0.7818608E-02  0.7919354E-01
         -2   -1    0    0    0  501 -0.00000000000E+00  0.00000000000E+00  0.23942708877E+04  0.23942708877E+04  0.00000000000E+00 0.  1.
          1   -1    0    0  501    0  0.00000000000E+00 -0.00000000000E+00 -0.20681955479E+04  0.20681955479E+04  0.00000000000E+00 0. -1.
        -24    2    1    2    0    0  0.15205742248E+04 -0.14928125868E+04 -0.26172974200E+02  0.21324156261E+04  0.76654976151E+02 0.  0.
        254    2    1    2    0    0 -0.15205742248E+04  0.14928125868E+04  0.35224831394E+03  0.23300508095E+04  0.87431259165E+03 0.  0.
         23    2    4    4    0    0 -0.43257621616E+03  0.10144188341E+04  0.94829908722E+02  0.11106268846E+04  0.91277661280E+02 0.  0.
         23    2    4    4    0    0 -0.10879980086E+04  0.47839375264E+03  0.25741840522E+03  0.12194239249E+04  0.90167754074E+02 0.  0.
          1    1    3    3  502    0  0.19219666060E+03 -0.18333130765E+03  0.21777898549E+02  0.26650366146E+03  0.00000000000E+00 0. -1.
         -2    1    3    3    0  502  0.13283775642E+04 -0.13094812791E+04 -0.47950872748E+02  0.18659119646E+04  0.00000000000E+00 0.  1.
         13    1    5    5    0    0 -0.40919554559E+03  0.98186148020E+03  0.76246677674E+02  0.10664457402E+04  0.00000000000E+00 0.  1.
        -13    1    5    5    0    0 -0.23380670563E+02  0.32557353927E+02  0.18583231048E+02  0.44181144472E+02  0.00000000000E+00 0. -1.
          4    1    6    6  503    0 -0.10315036054E+02 -0.39265325377E+01  0.46583412828E+01  0.11979890236E+02  0.00000000000E+00 0. -1.
         -4    1    6    6    0  503 -0.10776829726E+04  0.48232028518E+03  0.25276006393E+03  0.12074440346E+04  0.00000000000E+00 0.  1.
<mgrwt>
<rscale>  0 0.44505372E+04</rscale>
<asrwt>0</asrwt>
<pdfrwt beam="1">  1        1 0.31818393E+00 0.44505372E+04</pdfrwt>
<pdfrwt beam="2">  1       -2 0.36834937E+00 0.44505372E+04</pdfrwt>
<totfact> 0.21121736E-02</totfact>
</mgrwt>
</event>
<event>
12    5  0.5264288E-008  0.1808939E+04  0.7818608E-02  0.8701560E-01
          1   -1    0    0  501    0  0.00000000000E+00  0.00000000000E+00  0.21743241738E+04  0.21743241738E+04  0.00000000000E+00 0. -1.
         -2   -1    0    0    0  501 -0.00000000000E+00 -0.00000000000E+00 -0.37623864122E+03  0.37623864122E+03  0.00000000000E+00 0.  1.
        -24    2    1    2    0    0 -0.63618861164E+03 -0.15775440269E+03  0.92170626909E+03  0.11340823804E+04  0.83534411866E+02 0.  0.
        254    2    1    2    0    0  0.63618861164E+03  0.15775440269E+03  0.87637926349E+03  0.14164804346E+04  0.89930740403E+03 0.  0.
         23    2    4    4    0    0  0.27055694920E+02  0.81529413849E+02 -0.16312518985E+03  0.20592818190E+03  0.91747112143E+02 0.  0.
         23    2    4    4    0    0  0.60913291672E+03  0.76224988845E+02  0.10395044533E+04  0.12105522527E+04  0.89521443211E+02 0.  0.
          3    1    3    3  502    0 -0.57080075808E+03 -0.16217955508E+03  0.85333891978E+03  0.10393762675E+04  0.00000000000E+00 0. -1.
         -4    1    3    3    0  502 -0.65387853558E+02  0.44251523838E+01  0.68367349302E+02  0.94706112882E+02  0.00000000000E+00 0.  1.
         13    1    5    5    0    0 -0.29018418601E+01  0.63019989604E+02 -0.15827088791E+03  0.17038079039E+03  0.00000000000E+00 0. -1.
        -13    1    5    5    0    0  0.29957536780E+02  0.18509424245E+02 -0.48543019481E+01  0.35547391511E+02  0.00000000000E+00 0.  1.
          4    1    6    6  503    0  0.55877241609E+03  0.57395523693E+02  0.89836628640E+03  0.10595201006E+04  0.00000000000E+00 0. -1.
         -4    1    6    6    0  503  0.50360500627E+02  0.18829465153E+02  0.14113816694E+03  0.15103215203E+03  0.00000000000E+00 0.  1.
<mgrwt>
<rscale>  0 0.18089387E+04</rscale>
<asrwt>0</asrwt>
<pdfrwt beam="1">  1        1 0.33451140E+00 0.18089387E+04</pdfrwt>
<pdfrwt beam="2">  1       -2 0.57882869E-01 0.18089387E+04</pdfrwt>
<totfact> 0.52488028E+00</totfact>
</mgrwt>
</event>
<event>
12    5  0.5264288E-008  0.1598675E+04  0.7818608E-02  0.8821362E-01
         -2   -1    0    0    0  501 -0.00000000000E+00  0.00000000000E+00  0.10137430002E+04  0.10137430002E+04  0.00000000000E+00 0.  1.
          1   -1    0    0  501    0  0.00000000000E+00 -0.00000000000E+00 -0.63027857170E+03  0.63027857170E+03  0.00000000000E+00 0. -1.
        -24    2    1    2    0    0  0.33244831743E+02  0.16024074362E+03  0.64021870945E+03  0.66602866341E+03  0.83257851299E+02 0.  0.
        254    2    1    2    0    0 -0.33244831743E+02 -0.16024074362E+03 -0.25675428096E+03  0.97799290848E+03  0.92938961340E+03 0.  0.
         23    2    4    4    0    0  0.38716913577E+03 -0.26748921491E+03 -0.28660807589E+02  0.48035378165E+03  0.92021159872E+02 0.  0.
         23    2    4    4    0    0 -0.42041396751E+03  0.10724847130E+03 -0.22809347337E+03  0.49763912684E+03  0.85836643037E+02 0.  0.
          3    1    3    3  502    0  0.37221357237E+02  0.25004099526E+02  0.10925325528E+03  0.11809702883E+03  0.00000000000E+00 0. -1.
         -4    1    3    3    0  502 -0.39765254942E+01  0.13523664409E+03  0.53096545417E+03  0.54793163459E+03  0.00000000000E+00 0.  1.
         13    1    5    5    0    0  0.89084001696E+02 -0.10847804701E+03  0.75613004570E+01  0.14057246994E+03  0.00000000000E+00 0. -1.
        -13    1    5    5    0    0  0.29808513407E+03 -0.15901116791E+03 -0.36222108046E+02  0.33978131171E+03  0.00000000000E+00 0.  1.
          3    1    6    6  503    0 -0.17013421432E+02  0.23784977462E+02 -0.24399508574E+02  0.38085662399E+02  0.00000000000E+00 0. -1.
         -3    1    6    6    0  503 -0.40340054608E+03  0.83463493833E+02 -0.20369396480E+03  0.45955346444E+03  0.00000000000E+00 0.  1.
<mgrwt>
<rscale>  0 0.15986751E+04</rscale>
<asrwt>0</asrwt>
<pdfrwt beam="1">  1        1 0.96965934E-01 0.15986751E+04</pdfrwt>
<pdfrwt beam="2">  1       -2 0.15596046E+00 0.15986751E+04</pdfrwt>
<totfact> 0.72236478E+00</totfact>
</mgrwt>
</event>
<event>
12    5  0.5264288E-008  0.1369454E+04  0.7818608E-02  0.8976231E-01
          1   -1    0    0  501    0  0.00000000000E+00  0.00000000000E+00  0.48326854879E+03  0.48326854879E+03  0.00000000000E+00 0. -1.
         -2   -1    0    0    0  501 -0.00000000000E+00 -0.00000000000E+00 -0.97016605949E+03  0.97016605949E+03  0.00000000000E+00 0.  1.
        -24    2    1    2    0    0 -0.92946056340E+02 -0.48531881527E+02  0.25179995167E+03  0.28381150182E+03  0.78431116226E+02 0.  0.
        254    2    1    2    0    0  0.92946056340E+02  0.48531881527E+02 -0.73869746236E+03  0.11696231065E+04  0.90074966408E+03 0.  0.
         23    2    4    4    0    0  0.17885086909E+03 -0.34554397470E+03 -0.62379587417E+03  0.74025797055E+03  0.86442457754E+02 0.  0.
         23    2    4    4    0    0 -0.85904812754E+02  0.39407585623E+03 -0.11490158819E+03  0.42936513591E+03  0.92068602954E+02 0.  0.
          3    1    3    3  502    0 -0.56888884055E+02 -0.67276392576E+02  0.19490639890E+03  0.21389474622E+03  0.00000000000E+00 0. -1.
         -4    1    3    3    0  502 -0.36057172285E+02  0.18744511049E+02  0.56893552764E+02  0.69916755601E+02  0.00000000000E+00 0.  1.
         13    1    5    5    0    0  0.12331176334E+03 -0.16627218327E+03 -0.37838524906E+03  0.43130920071E+03  0.00000000000E+00 0. -1.
        -13    1    5    5    0    0  0.55539105752E+02 -0.17927179143E+03 -0.24541062511E+03  0.30894876984E+03  0.00000000000E+00 0.  1.
          3    1    6    6  503    0 -0.96297645076E+02  0.23170191497E+03 -0.73892019809E+02  0.26157034320E+03  0.00000000000E+00 0. -1.
         -3    1    6    6    0  503  0.10392832322E+02  0.16237394125E+03 -0.41009568384E+02  0.16779479271E+03  0.00000000000E+00 0.  1.
<mgrwt>
<rscale>  0 0.13694535E+04</rscale>
<asrwt>0</asrwt>
<pdfrwt beam="1">  1        1 0.74349008E-01 0.13694535E+04</pdfrwt>
<pdfrwt beam="2">  1       -2 0.14925632E+00 0.13694535E+04</pdfrwt>
<totfact> 0.12041761E+01</totfact>
</mgrwt>
</event>
<event>
12    5  0.5264288E-008  0.1014879E+04  0.7818608E-02  0.9292375E-01
          1   -1    0    0  501    0  0.00000000000E+00  0.00000000000E+00  0.16632670038E+04  0.16632670038E+04  0.00000000000E+00 0. -1.
         -2   -1    0    0    0  501 -0.00000000000E+00 -0.00000000000E+00 -0.15481268685E+03  0.15481268685E+03  0.00000000000E+00 0.  1.
        -24    2    1    2    0    0 -0.89555895171E+01 -0.32594477406E+02  0.25294055913E+03  0.26751597294E+03  0.80269961913E+02 0.  0.
        254    2    1    2    0    0  0.89555895171E+01  0.32594477406E+02  0.12555137578E+04  0.15505637177E+04  0.90928017907E+03 0.  0.
         23    2    4    4    0    0 -0.27177934414E+03 -0.28179762428E+03  0.91983888271E+03  0.10041198978E+04  0.94229964125E+02 0.  0.
         23    2    4    4    0    0  0.28073493365E+03  0.31439210169E+03  0.33567487513E+03  0.54644381988E+03  0.90932556974E+02 0.  0.
          1    1    3    3  502    0 -0.20447847895E+02 -0.11905895516E+02  0.23875365179E+03  0.23992326080E+03  0.00000000000E+00 0. -1.
         -2    1    3    3    0  502  0.11492258378E+02 -0.20688581890E+02  0.14186907337E+02  0.27592712136E+02  0.00000000000E+00 0.  1.
         13    1    5    5    0    0 -0.26474553351E+03 -0.25534571224E+03  0.89300360462E+03  0.96578831435E+03  0.00000000000E+00 0. -1.
        -13    1    5    5    0    0 -0.70338106308E+01 -0.26451912039E+02  0.26835278091E+02  0.38331583488E+02  0.00000000000E+00 0.  1.
          3    1    6    6  503    0  0.21571151161E+02  0.10751967870E+02 -0.11470390409E+01  0.24129547738E+02  0.00000000000E+00 0. -1.
         -3    1    6    6    0  503  0.25916378249E+03  0.30364013382E+03  0.33682191417E+03  0.52231427215E+03  0.00000000000E+00 0.  1.
<mgrwt>
<rscale>  0 0.10148790E+04</rscale>
<asrwt>0</asrwt>
<pdfrwt beam="1">  1        1 0.25588722E+00 0.10148790E+04</pdfrwt>
<pdfrwt beam="2">  1       -2 0.23817338E-01 0.10148790E+04</pdfrwt>
<totfact> 0.69603963E+01</totfact>
</mgrwt>
</event>
<event>
12    5  0.5264288E-008  0.1135793E+04  0.7818608E-02  0.9170991E-01
          1   -1    0    0  501    0  0.00000000000E+00  0.00000000000E+00  0.38868922526E+04  0.38868922526E+04  0.00000000000E+00 0. -1.
         -2   -1    0    0    0  501 -0.00000000000E+00 -0.00000000000E+00 -0.82972896177E+02  0.82972896177E+02  0.00000000000E+00 0.  1.
        -24    2    1    2    0    0 -0.14008296900E+03  0.66538260550E+02  0.10459122708E+04  0.10602942325E+04  0.78998752511E+02 0.  0.
        254    2    1    2    0    0  0.14008296900E+03 -0.66538260550E+02  0.27580070857E+04  0.29095709163E+04  0.91375557689E+03 0.  0.
         23    2    4    4    0    0  0.14432447700E+03  0.25207288953E+03  0.29342526066E+03  0.42276692231E+03  0.90902094070E+02 0.  0.
         23    2    4    4    0    0 -0.42415080050E+01 -0.31861115008E+03  0.24645818250E+04  0.24868039940E+04  0.92192609442E+02 0.  0.
          3    1    3    3  502    0 -0.14954838274E+03  0.56999479427E+02  0.98500909383E+03  0.99792613673E+03  0.00000000000E+00 0. -1.
         -4    1    3    3    0  502  0.94654137439E+01  0.95387811234E+01  0.60903176952E+02  0.62368095734E+02  0.00000000000E+00 0.  1.
         13    1    5    5    0    0  0.78432401913E+02  0.21195166842E+03  0.23462793743E+03  0.32576896789E+03  0.00000000000E+00 0.  1.
        -13    1    5    5    0    0  0.65892075090E+02  0.40121221117E+02  0.58797323230E+02  0.96997954425E+02  0.00000000000E+00 0. -1.
          4    1    6    6  503    0  0.34915190195E+01 -0.77029843719E+02  0.94265406199E+03  0.94580255239E+03  0.00000000000E+00 0. -1.
         -4    1    6    6    0  503 -0.77330270245E+01 -0.24158130636E+03  0.15219277630E+04  0.15410014416E+04  0.00000000000E+00 0.  1.
<mgrwt>
<rscale>  0 0.11357935E+04</rscale>
<asrwt>0</asrwt>
<pdfrwt beam="1">  1        1 0.59798328E+00 0.11357935E+04</pdfrwt>
<pdfrwt beam="2">  1       -2 0.12765064E-01 0.11357935E+04</pdfrwt>
<totfact> 0.50116088E+00</totfact>
</mgrwt>
</event>
<event>
12    5  0.5264288E-008  0.2124455E+04  0.7818608E-02  0.8550546E-01
         -4   -1    0    0    0  501 -0.00000000000E+00  0.00000000000E+00  0.22013105684E+04  0.22013105684E+04  0.00000000000E+00 0.  1.
          3   -1    0    0  501    0  0.00000000000E+00 -0.00000000000E+00 -0.51257082568E+03  0.51257082568E+03  0.00000000000E+00 0. -1.
        -24    2    1    2    0    0  0.31482803284E+03  0.52611681609E+03 -0.92978077274E+02  0.62534667727E+03  0.80609859656E+02 0.  0.
        254    2    1    2    0    0 -0.31482803284E+03 -0.52611681609E+03  0.17817178200E+04  0.20885347169E+04  0.90085696913E+03 0.  0.
         23    2    4    4    0    0  0.16389771575E+03 -0.21320407935E+03  0.86483202114E+02  0.29709743177E+03  0.92027707965E+02 0.  0.
         23    2    4    4    0    0 -0.47872574859E+03 -0.31291273674E+03  0.16952346179E+04  0.17914372851E+04  0.91293008597E+02 0.  0.
          1    1    3    3  502    0  0.19914163446E+03  0.37216166303E+03 -0.31807359178E+02  0.42328879279E+03  0.00000000000E+00 0. -1.
         -4    1    3    3    0  502  0.11568639839E+03  0.15395515306E+03 -0.61170718097E+02  0.20205788447E+03  0.00000000000E+00 0.  1.
         13    1    5    5    0    0  0.10722815509E+03 -0.19397652030E+03  0.84560189860E+02  0.23722393087E+03  0.00000000000E+00 0. -1.
        -13    1    5    5    0    0  0.56669560664E+02 -0.19227559057E+02  0.19230122541E+01  0.59873500894E+02  0.00000000000E+00 0.  1.
          1    1    6    6  503    0 -0.13739372580E+03 -0.63018992637E+02  0.55656886253E+03  0.57672985709E+03  0.00000000000E+00 0. -1.
         -1    1    6    6    0  503 -0.34133202280E+03 -0.24989374410E+03  0.11386657554E+04  0.12147074280E+04  0.00000000000E+00 0.  1.
<mgrwt>
<rscale>  0 0.21244553E+04</rscale>
<asrwt>0</asrwt>
<pdfrwt beam="1">  1        3 0.78857051E-01 0.21244553E+04</pdfrwt>
<pdfrwt beam="2">  1       -4 0.33866316E+00 0.21244553E+04</pdfrwt>
<totfact> 0.55463139E-02</totfact>
</mgrwt>
</event>
<event>
12    5  0.5264288E-008  0.1408271E+04  0.7818608E-02  0.8947853E-01
          1   -1    0    0  501    0  0.00000000000E+00  0.00000000000E+00  0.25464599513E+04  0.25464599513E+04  0.00000000000E+00 0. -1.
         -2   -1    0    0    0  501 -0.00000000000E+00 -0.00000000000E+00 -0.19470432896E+03  0.19470432896E+03  0.00000000000E+00 0.  1.
        -24    2    1    2    0    0 -0.20722271337E+03  0.32055632408E+03  0.40303324190E+03  0.56096687471E+03  0.80934730483E+02 0.  0.
        254    2    1    2    0    0  0.20722271337E+03 -0.32055632408E+03  0.19487223804E+04  0.21801974055E+04  0.90002455595E+03 0.  0.
         23    2    4    4    0    0  0.17959991445E+03 -0.17199238429E+03  0.43652272896E+02  0.26687741950E+03  0.86490037500E+02 0.  0.
         23    2    4    4    0    0  0.27622798920E+02 -0.14856393979E+03  0.19050701075E+04  0.19133199860E+04  0.93096676392E+02 0.  0.
          1    1    3    3  502    0  0.75803436726E+01  0.12971430945E+02  0.15311288689E+02  0.21451228223E+02  0.00000000000E+00 0. -1.
         -2    1    3    3    0  502 -0.21480305704E+03  0.30758489314E+03  0.38772195321E+03  0.53951564649E+03  0.00000000000E+00 0.  1.
         13    1    5    5    0    0  0.85205214799E+01 -0.20028474703E+02  0.30769302077E+02  0.37689375632E+02  0.00000000000E+00 0. -1.
        -13    1    5    5    0    0  0.17107939297E+03 -0.15196390959E+03  0.12882970820E+02  0.22918804387E+03  0.00000000000E+00 0.  1.
          2    1    6    6  503    0  0.13500239172E+02 -0.10841412322E+03  0.17179584861E+04  0.17214288364E+04  0.00000000000E+00 0. -1.
         -2    1    6    6    0  503  0.14122559748E+02 -0.40149816573E+02  0.18711162138E+03  0.19189114967E+03  0.00000000000E+00 0.  1.
<mgrwt>
<rscale>  0 0.14082710E+04</rscale>
<asrwt>0</asrwt>
<pdfrwt beam="1">  1        1 0.39176305E+00 0.14082710E+04</pdfrwt>
<pdfrwt beam="2">  1       -2 0.29954514E-01 0.14082710E+04</pdfrwt>
<totfact> 0.11106696E+01</totfact>
</mgrwt>
</event>
<event>
12    5  0.5264288E-008  0.1364656E+04  0.7818608E-02  0.8979807E-01
          3   -1    0    0  501    0  0.00000000000E+00  0.00000000000E+00  0.31715148262E+04  0.31715148262E+04  0.00000000000E+00 0. -1.
         -4   -1    0    0    0  501 -0.00000000000E+00 -0.00000000000E+00 -0.14679790559E+03  0.14679790559E+03  0.00000000000E+00 0.  1.
        -24    2    1    2    0    0  0.35893182150E+02 -0.13836406448E+03  0.25304918348E+01  0.16849652356E+03  0.89172530520E+02 0.  0.
        254    2    1    2    0    0 -0.35893182150E+02  0.13836406448E+03  0.30221864288E+04  0.31498162082E+04  0.87595570693E+03 0.  0.
         23    2    4    4    0    0 -0.74528710404E+02 -0.36089006843E+03  0.13556319339E+04  0.14075161812E+04  0.86992470982E+02 0.  0.
         23    2    4    4    0    0  0.38635528254E+02  0.49925413292E+03  0.16665544949E+04  0.17423000270E+04  0.86360329254E+02 0.  0.
          1    1    3    3  502    0 -0.29606946642E+02 -0.32398160155E+02 -0.27517368746E+00  0.43889495229E+02  0.00000000000E+00 0. -1.
         -2    1    3    3    0  502  0.65500128792E+02 -0.10596590433E+03  0.28056655222E+01  0.12460702834E+03  0.00000000000E+00 0.  1.
         13    1    5    5    0    0  0.46683399249E+01 -0.19657306934E+02  0.28528953975E+02  0.34958608789E+02  0.00000000000E+00 0. -1.
        -13    1    5    5    0    0 -0.79197050329E+02 -0.34123276150E+03  0.13271029800E+04  0.13725575725E+04  0.00000000000E+00 0.  1.
          4    1    6    6  503    0 -0.19892925629E+02  0.91721857661E+02  0.38295836261E+03  0.39429143429E+03  0.00000000000E+00 0. -1.
         -4    1    6    6    0  503  0.58528453883E+02  0.40753227526E+03  0.12835961323E+04  0.13480085927E+04  0.00000000000E+00 0.  1.
<mgrwt>
<rscale>  0 0.13646563E+04</rscale>
<asrwt>0</asrwt>
<pdfrwt beam="1">  1        3 0.48792531E+00 0.13646563E+04</pdfrwt>
<pdfrwt beam="2">  1       -4 0.22584295E-01 0.13646563E+04</pdfrwt>
<totfact> 0.16525636E-01</totfact>
</mgrwt>
</event>
<event>
12    5  0.5264288E-008  0.1365213E+04  0.7818608E-02  0.8979391E-01
          1   -1    0    0  501    0  0.00000000000E+00  0.00000000000E+00  0.27372296657E+04  0.27372296657E+04  0.00000000000E+00 0. -1.
         -2   -1    0    0    0  501 -0.00000000000E+00 -0.00000000000E+00 -0.17022747518E+03  0.17022747518E+03  0.00000000000E+00 0.  1.
        -24    2    1    2    0    0  0.26477296308E+03 -0.26243819255E+03  0.72085167458E+03  0.81559602115E+03  0.81186243224E+02 0.  0.
        254    2    1    2    0    0 -0.26477296308E+03  0.26243819255E+03  0.18461505159E+04  0.20918611197E+04  0.91029263966E+03 0.  0.
         23    2    4    4    0    0 -0.46811763170E+03  0.44785145311E+02  0.16642973937E+04  0.17318103777E+04  0.90230500376E+02 0.  0.
         23    2    4    4    0    0  0.20334466862E+03  0.21765304724E+03  0.18185312221E+03  0.36005074202E+03  0.88566785793E+02 0.  0.
          3    1    3    3  502    0  0.18720052930E+03 -0.22763916206E+03  0.59055519204E+03  0.66001444008E+03  0.00000000000E+00 0. -1.
         -4    1    3    3    0  502  0.77572433781E+02 -0.34799030489E+02  0.13029648254E+03  0.15558158107E+03  0.00000000000E+00 0.  1.
         13    1    5    5    0    0 -0.67700092196E+02  0.26657311232E+02  0.17514414187E+03  0.18965596526E+03  0.00000000000E+00 0.  1.
        -13    1    5    5    0    0 -0.40041753950E+03  0.18127834079E+02  0.14891532518E+04  0.15421544124E+04  0.00000000000E+00 0. -1.
          1    1    6    6  503    0  0.16850966969E+03  0.14390549697E+03  0.16621323002E+03  0.27700386039E+03  0.00000000000E+00 0.  1.
         -1    1    6    6    0  503  0.34834998931E+02  0.73747550270E+02  0.15639892187E+02  0.83046881633E+02  0.00000000000E+00 0. -1.
<mgrwt>
<rscale>  0 0.13652131E+04</rscale>
<asrwt>0</asrwt>
<pdfrwt beam="1">  1        1 0.42111222E+00 0.13652131E+04</pdfrwt>
<pdfrwt beam="2">  1       -2 0.26188844E-01 0.13652131E+04</pdfrwt>
<totfact> 0.10513234E+01</totfact>
</mgrwt>
</event>
<event>
12    5  0.5264288E-008  0.1555104E+04  0.7818608E-02  0.8848614E-01
          1   -1    0    0  501    0  0.00000000000E+00  0.00000000000E+00  0.15398479853E+04  0.15398479853E+04  0.00000000000E+00 0. -1.
         -2   -1    0    0    0  501 -0.00000000000E+00 -0.00000000000E+00 -0.39262804300E+03  0.39262804300E+03  0.00000000000E+00 0.  1.
        -24    2    1    2    0    0  0.28827840116E+03  0.35971491391E+02  0.89197357913E+03  0.94148718874E+03  0.79892902895E+02 0.  0.
        254    2    1    2    0    0 -0.28827840116E+03 -0.35971491391E+02  0.25524636314E+03  0.99098883953E+03  0.91241974409E+03 0.  0.
         23    2    4    4    0    0 -0.42625061382E+03 -0.30257156977E+03  0.38012511867E+03  0.65271585671E+03  0.91124876628E+02 0.  0.
         23    2    4    4    0    0  0.13797221266E+03  0.26660007838E+03 -0.12487875553E+03  0.33827298282E+03  0.93391509602E+02 0.  0.
          1    1    3    3  502    0  0.24008225273E+03  0.17847575734E+02  0.80686077927E+03  0.84201089135E+03  0.00000000000E+00 0. -1.
         -2    1    3    3    0  502  0.48196148426E+02  0.18123915657E+02  0.85112799858E+02  0.99476297386E+02  0.00000000000E+00 0.  1.
         13    1    5    5    0    0 -0.13145252428E+03 -0.10511244631E+03  0.17530963369E+03  0.24302645982E+03  0.00000000000E+00 0.  1.
        -13    1    5    5    0    0 -0.29479808954E+03 -0.19745912346E+03  0.20481548498E+03  0.40968939689E+03  0.00000000000E+00 0. -1.
          1    1    6    6  503    0  0.90898638856E+02  0.85869424949E+02 -0.29104759413E+02  0.12838694524E+03  0.00000000000E+00 0. -1.
         -1    1    6    6    0  503  0.47073573802E+02  0.18073065343E+03 -0.95773996118E+02  0.20988603758E+03  0.00000000000E+00 0.  1.
<mgrwt>
<rscale>  0 0.15551045E+04</rscale>
<asrwt>0</asrwt>
<pdfrwt beam="1">  1        1 0.23689969E+00 0.15551045E+04</pdfrwt>
<pdfrwt beam="2">  1       -2 0.60404315E-01 0.15551045E+04</pdfrwt>
<totfact> 0.13246660E+01</totfact>
</mgrwt>
</event>
<event>
12    5  0.5264288E-008  0.1265901E+04  0.7818608E-02  0.9057052E-01
         -2   -1    0    0    0  501 -0.00000000000E+00  0.00000000000E+00  0.18236703590E+04  0.18236703590E+04  0.00000000000E+00 0.  1.
          1   -1    0    0  501    0  0.00000000000E+00 -0.00000000000E+00 -0.21968142184E+03  0.21968142184E+03  0.00000000000E+00 0. -1.
        -24    2    1    2    0    0 -0.29050730901E+03 -0.61513533653E+02  0.27725140689E+03  0.41446703189E+03  0.82074152364E+02 0.  0.
        254    2    1    2    0    0  0.29050730901E+03  0.61513533653E+02  0.13267375303E+04  0.16288847490E+04  0.89713691249E+03 0.  0.
         23    2    4    4    0    0  0.46064064409E+03  0.21493917856E+03  0.12769297870E+04  0.13774363134E+04  0.91610388232E+02 0.  0.
         23    2    4    4    0    0 -0.17013333507E+03 -0.15342564491E+03  0.49807743364E+02  0.25144843558E+03  0.90888526452E+02 0.  0.
          3    1    3    3  502    0 -0.22424863536E+03 -0.57404917408E+02  0.16576349495E+03  0.28471092578E+03  0.00000000000E+00 0. -1.
         -4    1    3    3    0  502 -0.66258673653E+02 -0.41086162449E+01  0.11148791194E+03  0.12975610610E+03  0.00000000000E+00 0.  1.
         13    1    5    5    0    0  0.43182902463E+03  0.22242276684E+03  0.11809386128E+04  0.12769354725E+04  0.00000000000E+00 0.  1.
        -13    1    5    5    0    0  0.28811619459E+02 -0.74835882764E+01  0.95991174150E+02  0.10050084091E+03  0.00000000000E+00 0. -1.
          2    1    6    6  503    0 -0.32814611484E+02 -0.32265934817E+02  0.50492840621E+02  0.68318491131E+02  0.00000000000E+00 0.  1.
         -2    1    6    6    0  503 -0.13731872359E+03 -0.12115971009E+03 -0.68509725687E+00  0.18312994445E+03  0.00000000000E+00 0. -1.
<mgrwt>
<rscale>  0 0.12659013E+04</rscale>
<asrwt>0</asrwt>
<pdfrwt beam="1">  1        1 0.33797143E-01 0.12659013E+04</pdfrwt>
<pdfrwt beam="2">  1       -2 0.28056466E+00 0.12659013E+04</pdfrwt>
<totfact> 0.47464063E+00</totfact>
</mgrwt>
</event>
<event>
12    5  0.5264288E-008  0.1421501E+04  0.7818608E-02  0.8938400E-01
         -2   -1    0    0    0  501 -0.00000000000E+00  0.00000000000E+00  0.34525294205E+03  0.34525294205E+03  0.00000000000E+00 0.  1.
          1   -1    0    0  501    0  0.00000000000E+00 -0.00000000000E+00 -0.14631778582E+04  0.14631778582E+04  0.00000000000E+00 0. -1.
        -24    2    1    2    0    0  0.70337659644E+02 -0.80215307607E+02  0.18326314497E+03  0.22621954204E+03  0.78790982715E+02 0.  0.
        254    2    1    2    0    0 -0.70337659644E+02  0.80215307607E+02 -0.13011880612E+04  0.15822112583E+04  0.89382336806E+03 0.  0.
         23    2    4    4    0    0 -0.44173946061E+02  0.30209601319E+02 -0.14189800179E+04  0.14229104680E+04  0.91136991271E+02 0.  0.
         23    2    4    4    0    0 -0.26163713583E+02  0.50005706288E+02  0.11779195671E+03  0.15930079029E+03  0.91195866969E+02 0.  0.
          1    1    3    3  502    0  0.38276575057E+02 -0.87198915330E+02  0.10725284049E+03  0.14342914217E+03  0.00000000000E+00 0. -1.
         -2    1    3    3    0  502  0.32061084587E+02  0.69836077229E+01  0.76010304487E+02  0.82790399866E+02  0.00000000000E+00 0.  1.
         13    1    5    5    0    0 -0.36569756582E+02  0.61931928300E+02 -0.10673740869E+04  0.10697945373E+04  0.00000000000E+00 0. -1.
        -13    1    5    5    0    0 -0.76041894793E+01 -0.31722326981E+02 -0.35160593101E+03  0.35311593061E+03  0.00000000000E+00 0.  1.
          4    1    6    6  503    0 -0.51848602723E+02  0.48104131245E+02  0.11268819519E+03  0.13304478337E+03  0.00000000000E+00 0. -1.
         -4    1    6    6    0  503  0.25684889141E+02  0.19015750430E+01  0.51037615233E+01  0.26256006922E+02  0.00000000000E+00 0.  1.
<mgrwt>
<rscale>  0 0.14215013E+04</rscale>
<asrwt>0</asrwt>
<pdfrwt beam="1">  1        1 0.22510429E+00 0.14215013E+04</pdfrwt>
<pdfrwt beam="2">  1       -2 0.53115837E-01 0.14215013E+04</pdfrwt>
<totfact> 0.19806584E+01</totfact>
</mgrwt>
</event>
<event>
12    5  0.5264288E-008  0.1413264E+04  0.7818608E-02  0.8944273E-01
          1   -1    0    0  501    0  0.00000000000E+00  0.00000000000E+00  0.11077739370E+04  0.11077739370E+04  0.00000000000E+00 0. -1.
         -2   -1    0    0    0  501 -0.00000000000E+00 -0.00000000000E+00 -0.45074986286E+03  0.45074986286E+03  0.00000000000E+00 0.  1.
        -24    2    1    2    0    0  0.16141666748E+03 -0.15178710188E+03  0.60759753633E+03  0.65234166161E+03  0.85324161146E+02 0.  0.
        254    2    1    2    0    0 -0.16141666748E+03  0.15178710188E+03  0.49426537796E+02  0.90618213824E+03  0.87728468595E+03 0.  0.
         23    2    4    4    0    0 -0.47672041112E+03  0.90545235609E+02 -0.15365063414E+03  0.51628530740E+03  0.86493995149E+02 0.  0.
         23    2    4    4    0    0  0.31530374364E+03  0.61241866267E+02  0.20307717194E+03  0.38989683084E+03  0.87247830899E+02 0.  0.
          1    1    3    3  502    0  0.97006036347E+02 -0.13254019647E+03  0.49111639520E+03  0.51785363608E+03  0.00000000000E+00 0. -1.
         -2    1    3    3    0  502  0.64410631131E+02 -0.19246905409E+02  0.11648114113E+03  0.13448802553E+03  0.00000000000E+00 0.  1.
         13    1    5    5    0    0 -0.37584238774E+03  0.71610092598E+02 -0.15706726391E+03  0.41358872225E+03  0.00000000000E+00 0.  1.
        -13    1    5    5    0    0 -0.10087802338E+03  0.18935143011E+02  0.34166297683E+01  0.10269658515E+03  0.00000000000E+00 0. -1.
          3    1    6    6  503    0  0.11424564533E+03  0.59572189271E+02  0.54523399783E+02  0.13990609113E+03  0.00000000000E+00 0. -1.
         -3    1    6    6    0  503  0.20105809831E+03  0.16696769963E+01  0.14855377216E+03  0.24999073971E+03  0.00000000000E+00 0.  1.
<mgrwt>
<rscale>  0 0.14132642E+04</rscale>
<asrwt>0</asrwt>
<pdfrwt beam="1">  1        1 0.17042676E+00 0.14132642E+04</pdfrwt>
<pdfrwt beam="2">  1       -2 0.69346133E-01 0.14132642E+04</pdfrwt>
<totfact> 0.20273290E+01</totfact>
</mgrwt>
</event>
<event>
12    5  0.5264288E-008  0.1573727E+04  0.7818608E-02  0.8836853E-01
         -2   -1    0    0    0  501 -0.00000000000E+00  0.00000000000E+00  0.28555708424E+03  0.28555708424E+03  0.00000000000E+00 0.  1.
          1   -1    0    0  501    0  0.00000000000E+00 -0.00000000000E+00 -0.21682312356E+04  0.21682312356E+04  0.00000000000E+00 0. -1.
        -24    2    1    2    0    0 -0.39399762774E+03 -0.25484011086E+03 -0.26624818983E+03  0.54484761470E+03  0.76113151827E+02 0.  0.
        254    2    1    2    0    0  0.39399762774E+03  0.25484011086E+03 -0.16164259615E+04  0.19089407051E+04  0.90057987647E+03 0.  0.
         23    2    4    4    0    0  0.16333813746E+03  0.26569134113E+03 -0.16284057636E+04  0.16599738847E+04  0.80850053690E+02 0.  0.
         23    2    4    4    0    0  0.23065949028E+03 -0.10851230263E+02  0.11979802108E+02  0.24896682038E+03  0.92300662704E+02 0.  0.
          1    1    3    3  502    0 -0.84900571403E+02 -0.92438757971E+02 -0.57641392393E+02  0.13811430453E+03  0.00000000000E+00 0. -1.
         -2    1    3    3    0  502 -0.30909705634E+03 -0.16240135289E+03 -0.20860679744E+03  0.40673331016E+03  0.00000000000E+00 0.  1.
         13    1    5    5    0    0  0.14691233621E+03  0.20148495296E+03 -0.14045654931E+04  0.14265285294E+04  0.00000000000E+00 0.  1.
        -13    1    5    5    0    0  0.16425801244E+02  0.64206388166E+02 -0.22384027051E+03  0.23344535534E+03  0.00000000000E+00 0. -1.
          4    1    6    6  503    0  0.35369886283E+02 -0.37396200666E+02 -0.64593847075E+00  0.51477392284E+02  0.00000000000E+00 0. -1.
         -4    1    6    6    0  503  0.19528960400E+03  0.26544970403E+02  0.12625740579E+02  0.19748942810E+03  0.00000000000E+00 0.  1.
<mgrwt>
<rscale>  0 0.15737265E+04</rscale>
<asrwt>0</asrwt>
<pdfrwt beam="1">  1        1 0.33357404E+00 0.15737265E+04</pdfrwt>
<pdfrwt beam="2">  1       -2 0.43931858E-01 0.15737265E+04</pdfrwt>
<totfact> 0.95082121E+00</totfact>
</mgrwt>
</event>
<event>
12    5  0.5264288E-008  0.1702571E+04  0.7818608E-02  0.8759899E-01
         -2   -1    0    0    0  501 -0.00000000000E+00  0.00000000000E+00  0.28435249960E+03  0.28435249960E+03  0.00000000000E+00 0.  1.
          1   -1    0    0  501    0  0.00000000000E+00 -0.00000000000E+00 -0.25485513620E+04  0.25485513620E+04  0.00000000000E+00 0. -1.
        -24    2    1    2    0    0  0.34417655208E+02 -0.57648851953E+03 -0.11139461041E+04  0.12571742823E+04  0.78023490359E+02 0.  0.
        254    2    1    2    0    0 -0.34417655208E+02  0.57648851953E+03 -0.11502527582E+04  0.15757295793E+04  0.90902074289E+03 0.  0.
         23    2    4    4    0    0 -0.25021817960E+03  0.19092002164E+03  0.13413707473E+02  0.32779283053E+03  0.90601435596E+02 0.  0.
         23    2    4    4    0    0  0.21580052440E+03  0.38556849788E+03 -0.11636664657E+04  0.12479367487E+04  0.89406669347E+02 0.  0.
          3    1    3    3  502    0  0.31644566254E+02 -0.57218144993E+03 -0.11131410646E+04  0.12519888258E+04  0.00000000000E+00 0. -1.
         -4    1    3    3    0  502  0.27730889539E+01 -0.43070696020E+01 -0.80503956987E+00  0.51854565481E+01  0.00000000000E+00 0.  1.
         13    1    5    5    0    0 -0.14959313700E+03  0.57336445284E+02  0.31457781570E+01  0.16023567179E+03  0.00000000000E+00 0. -1.
        -13    1    5    5    0    0 -0.10062504261E+03  0.13358357636E+03  0.10267929316E+02  0.16755715874E+03  0.00000000000E+00 0.  1.
          2    1    6    6  503    0  0.14310070655E+03  0.28511330121E+03 -0.72500863599E+03  0.79208896533E+03  0.00000000000E+00 0. -1.
         -2    1    6    6    0  503  0.72699817849E+02  0.10045519667E+03 -0.43865782973E+03  0.45584778341E+03  0.00000000000E+00 0.  1.
<mgrwt>
<rscale>  0 0.17025709E+04</rscale>
<asrwt>0</asrwt>
<pdfrwt beam="1">  1        1 0.39208481E+00 0.17025709E+04</pdfrwt>
<pdfrwt beam="2">  1       -2 0.43746540E-01 0.17025709E+04</pdfrwt>
<totfact> 0.51979584E+00</totfact>
</mgrwt>
</event>
<event>
12    5  0.5264288E-008  0.1874213E+04  0.7818608E-02  0.8667800E-01
          1   -1    0    0  501    0  0.00000000000E+00  0.00000000000E+00  0.10022540746E+04  0.10022540746E+04  0.00000000000E+00 0. -1.
         -2   -1    0    0    0  501 -0.00000000000E+00 -0.00000000000E+00 -0.87619347049E+03  0.87619347049E+03  0.00000000000E+00 0.  1.
        -24    2    1    2    0    0  0.27495577994E+03  0.51166861378E+03  0.47493093489E+03  0.75451812053E+03  0.79578577811E+02 0.  0.
        254    2    1    2    0    0 -0.27495577994E+03 -0.51166861378E+03 -0.34887033073E+03  0.11239294246E+04  0.89671700808E+03 0.  0.
         23    2    4    4    0    0 -0.40457392922E+03 -0.19745583416E+03  0.17541832807E+03  0.49167938458E+03  0.91149090740E+02 0.  0.
         23    2    4    4    0    0  0.12961814929E+03 -0.31421277962E+03 -0.52428865880E+03  0.63225004003E+03  0.96596997211E+02 0.  0.
          3    1    3    3  502    0  0.26648150172E+03  0.46389364297E+03  0.45406376494E+03  0.70170050974E+03  0.00000000000E+00 0. -1.
         -4    1    3    3    0  502  0.84742782150E+01  0.47774970815E+02  0.20867169952E+02  0.52817610789E+02  0.00000000000E+00 0.  1.
         13    1    5    5    0    0 -0.39241194877E+03 -0.20678728693E+03  0.16555916490E+03  0.47345322542E+03  0.00000000000E+00 0. -1.
        -13    1    5    5    0    0 -0.12161980452E+02  0.93314527697E+01  0.98591631688E+01  0.18226159159E+02  0.00000000000E+00 0.  1.
          3    1    6    6  503    0  0.12031823259E+03 -0.20636352234E+03 -0.41226047688E+03  0.47646729294E+03  0.00000000000E+00 0. -1.
         -3    1    6    6    0  503  0.92999167007E+01 -0.10784925728E+03 -0.11202818192E+03  0.15578274709E+03  0.00000000000E+00 0.  1.
<mgrwt>
<rscale>  0 0.18742129E+04</rscale>
<asrwt>0</asrwt>
<pdfrwt beam="1">  1        1 0.15419293E+00 0.18742129E+04</pdfrwt>
<pdfrwt beam="2">  1       -2 0.13479900E+00 0.18742129E+04</pdfrwt>
<totfact> 0.49052861E+00</totfact>
</mgrwt>
</event>
<event>
12    5  0.5264288E-008  0.1274239E+04  0.7818608E-02  0.9050247E-01
          1   -1    0    0  501    0  0.00000000000E+00  0.00000000000E+00  0.85809134625E+03  0.85809134625E+03  0.00000000000E+00 0. -1.
         -2   -1    0    0    0  501 -0.00000000000E+00 -0.00000000000E+00 -0.47305161020E+03  0.47305161020E+03  0.00000000000E+00 0.  1.
        -24    2    1    2    0    0 -0.17503270199E+03  0.16855665433E+03 -0.97740519997E+02  0.27403216696E+03  0.80576837834E+02 0.  0.
        254    2    1    2    0    0  0.17503270199E+03 -0.16855665433E+03  0.48278025605E+03  0.10571107895E+04  0.90849251683E+03 0.  0.
         23    2    4    4    0    0 -0.30317703939E+03 -0.29989395163E+03  0.23305158445E+03  0.49415484407E+03  0.89572704907E+02 0.  0.
         23    2    4    4    0    0  0.47820974137E+03  0.13133729730E+03  0.24972867160E+03  0.56295594542E+03  0.92849042292E+02 0.  0.
          3    1    3    3  502    0  0.73545877594E+01  0.12111879363E+02  0.10860098634E+01  0.14211509428E+02  0.00000000000E+00 0. -1.
         -4    1    3    3    0  502 -0.18238728975E+03  0.15644477497E+03 -0.98826529860E+02  0.25982065753E+03  0.00000000000E+00 0.  1.
         13    1    5    5    0    0 -0.16505926108E+03 -0.21837756345E+03  0.16733652702E+03  0.32083458847E+03  0.00000000000E+00 0.  1.
        -13    1    5    5    0    0 -0.13811777830E+03 -0.81516388185E+02  0.65715057436E+02  0.17332025560E+03  0.00000000000E+00 0. -1.
          1    1    6    6  503    0  0.26039520583E+03  0.24763466407E+02  0.11738107236E+03  0.28670055569E+03  0.00000000000E+00 0. -1.
         -1    1    6    6    0  503  0.21781453555E+03  0.10657383090E+03  0.13234759924E+03  0.27625538972E+03  0.00000000000E+00 0.  1.
<mgrwt>
<rscale>  0 0.12742394E+04</rscale>
<asrwt>0</asrwt>
<pdfrwt beam="1">  1        1 0.13201405E+00 0.12742394E+04</pdfrwt>
<pdfrwt beam="2">  1       -2 0.72777171E-01 0.12742394E+04</pdfrwt>
<totfact> 0.29031579E+01</totfact>
</mgrwt>
</event>
<event>
12    5  0.5264288E-008  0.1571018E+04  0.7818608E-02  0.8838553E-01
         -2   -1    0    0    0  501 -0.00000000000E+00  0.00000000000E+00  0.32047450414E+03  0.32047450414E+03  0.00000000000E+00 0.  1.
          1   -1    0    0  501    0  0.00000000000E+00 -0.00000000000E+00 -0.19253454331E+04  0.19253454331E+04  0.00000000000E+00 0. -1.
        -24    2    1    2    0    0 -0.24407342957E+03 -0.20911344513E+03 -0.11527090763E+04  0.11993130185E+04  0.79455834774E+02 0.  0.
        254    2    1    2    0    0  0.24407342957E+03  0.20911344513E+03 -0.45216185263E+03  0.10465069188E+04  0.88737033875E+03 0.  0.
         23    2    4    4    0    0  0.47309233680E+03  0.21603464811E+03  0.15268446593E+01  0.53018550605E+03  0.10299034542E+03 0.  0.
         23    2    4    4    0    0 -0.22901890723E+03 -0.69212029841E+01 -0.45368869729E+03  0.51632141271E+03  0.90866959127E+02 0.  0.
          1    1    3    3  502    0 -0.24266564860E+03 -0.20222994725E+03 -0.11484414465E+04  0.11910924920E+04  0.00000000000E+00 0. -1.
         -2    1    3    3    0  502 -0.14077809709E+01 -0.68834978726E+01 -0.42676298079E+01  0.82205264066E+01  0.00000000000E+00 0.  1.
         13    1    5    5    0    0  0.14026602824E+03  0.60072072574E+02  0.47391859613E+02  0.15977859976E+03  0.00000000000E+00 0.  1.
        -13    1    5    5    0    0  0.33282630855E+03  0.15596257554E+03 -0.45865014953E+02  0.37040690629E+03  0.00000000000E+00 0. -1.
          3    1    6    6  503    0 -0.20122753048E+03 -0.33684743218E+02 -0.34292042307E+03  0.39902581057E+03  0.00000000000E+00 0. -1.
         -3    1    6    6    0  503 -0.27791376753E+02  0.26763540234E+02 -0.11076827422E+03  0.11729560214E+03  0.00000000000E+00 0.  1.
<mgrwt>
<rscale>  0 0.15710177E+04</rscale>
<asrwt>0</asrwt>
<pdfrwt beam="1">  1        1 0.29620699E+00 0.15710177E+04</pdfrwt>
<pdfrwt beam="2">  1       -2 0.49303769E-01 0.15710177E+04</pdfrwt>
<totfact> 0.11014369E+01</totfact>
</mgrwt>
</event>
<event>
12    5  0.5264288E-008  0.2427531E+04  0.7818608E-02  0.8429268E-01
          1   -1    0    0  501    0  0.00000000000E+00  0.00000000000E+00  0.13069978951E+04  0.13069978951E+04  0.00000000000E+00 0. -1.
         -2   -1    0    0    0  501 -0.00000000000E+00 -0.00000000000E+00 -0.11271839211E+04  0.11271839211E+04  0.00000000000E+00 0.  1.
        -24    2    1    2    0    0 -0.30932535140E+03 -0.13101284831E+03  0.10659982363E+04  0.11204967291E+04  0.79461568037E+02 0.  0.
        254    2    1    2    0    0  0.30932535140E+03  0.13101284831E+03 -0.88618426228E+03  0.13136850871E+04  0.90972491550E+03 0.  0.
         23    2    4    4    0    0 -0.26763490250E+03 -0.87330813791E+02 -0.49562795163E+03  0.57796944682E+03  0.95637351228E+02 0.  0.
         23    2    4    4    0    0  0.57696025391E+03  0.21834366210E+03 -0.39055631065E+03  0.73571564027E+03  0.90477523042E+02 0.  0.
          1    1    3    3  502    0 -0.25101874343E+03 -0.99689344611E+02  0.94179760347E+03  0.97976073655E+03  0.00000000000E+00 0. -1.
         -2    1    3    3    0  502 -0.58306607971E+02 -0.31323503703E+02  0.12420063282E+03  0.14073599259E+03  0.00000000000E+00 0.  1.
         13    1    5    5    0    0 -0.20261894553E+03 -0.93891613084E+02 -0.31697937304E+03  0.38774475500E+03  0.00000000000E+00 0.  1.
        -13    1    5    5    0    0 -0.65015956973E+02  0.65607992928E+01 -0.17864857859E+03  0.19022469182E+03  0.00000000000E+00 0. -1.
          4    1    6    6  503    0  0.39657908249E+02  0.50363065170E+00 -0.63019311769E+01  0.40158656191E+02  0.00000000000E+00 0. -1.
         -4    1    6    6    0  503  0.53730234566E+03  0.21784003145E+03 -0.38425437947E+03  0.69555698408E+03  0.00000000000E+00 0.  1.
<mgrwt>
<rscale>  0 0.24275313E+04</rscale>
<asrwt>0</asrwt>
<pdfrwt beam="1">  1        1 0.20107660E+00 0.24275313E+04</pdfrwt>
<pdfrwt beam="2">  1       -2 0.17341291E+00 0.24275313E+04</pdfrwt>
<totfact> 0.14144429E+00</totfact>
</mgrwt>
</event>
<event>
12    5  0.5264288E-008  0.2382026E+04  0.7818608E-02  0.8446264E-01
          1   -1    0    0  501    0  0.00000000000E+00  0.00000000000E+00  0.11604910134E+04  0.11604910134E+04  0.00000000000E+00 0. -1.
         -2   -1    0    0    0  501 -0.00000000000E+00 -0.00000000000E+00 -0.12223374459E+04  0.12223374459E+04  0.00000000000E+00 0.  1.
        -24    2    1    2    0    0 -0.59278245621E+03 -0.25658268562E+03 -0.81777737609E+03  0.10451630035E+04  0.79875854559E+02 0.  0.
        254    2    1    2    0    0  0.59278245621E+03  0.25658268562E+03  0.75593094368E+03  0.13376654558E+04  0.89481370409E+03 0.  0.
         23    2    4    4    0    0  0.72405802836E+03  0.69314517118E+02  0.80271729597E+03  0.10871959229E+04  0.92603384535E+02 0.  0.
         23    2    4    4    0    0 -0.13127557215E+03  0.18726816850E+03 -0.46786352292E+02  0.25046953287E+03  0.90793068876E+02 0.  0.
          1    1    3    3  502    0 -0.20446233096E+03 -0.65223008180E+02 -0.22273429889E+03  0.30930479059E+03  0.00000000000E+00 0. -1.
         -2    1    3    3    0  502 -0.38832012525E+03 -0.19135967744E+03 -0.59504307720E+03  0.73585821294E+03  0.00000000000E+00 0.  1.
         13    1    5    5    0    0  0.65040389244E+03  0.90326940844E+02  0.71852218219E+03  0.97337469961E+03  0.00000000000E+00 0. -1.
        -13    1    5    5    0    0  0.73654135922E+02 -0.21012423726E+02  0.84195113784E+02  0.11382122330E+03  0.00000000000E+00 0.  1.
          1    1    6    6  503    0 -0.14112278277E+03  0.18647706829E+03 -0.37375146727E+02  0.23682533312E+03  0.00000000000E+00 0. -1.
         -1    1    6    6    0  503  0.98472106198E+01  0.79110021361E+00 -0.94112055651E+01  0.13644199747E+02  0.00000000000E+00 0.  1.
<mgrwt>
<rscale>  0 0.23820257E+04</rscale>
<asrwt>0</asrwt>
<pdfrwt beam="1">  1        1 0.17853708E+00 0.23820257E+04</pdfrwt>
<pdfrwt beam="2">  1       -2 0.18805191E+00 0.23820257E+04</pdfrwt>
<totfact> 0.14371587E+00</totfact>
</mgrwt>
</event>
<event>
12    5  0.5264288E-008  0.1824257E+04  0.7818608E-02  0.8693505E-01
          1   -1    0    0  501    0  0.00000000000E+00  0.00000000000E+00  0.17369772317E+04  0.17369772317E+04  0.00000000000E+00 0. -1.
         -2   -1    0    0    0  501 -0.00000000000E+00 -0.00000000000E+00 -0.47898043567E+03  0.47898043567E+03  0.00000000000E+00 0.  1.
        -24    2    1    2    0    0  0.60527552220E+03  0.15676687155E+03  0.12034599922E+03  0.64173782669E+03  0.80062281284E+02 0.  0.
        254    2    1    2    0    0 -0.60527552220E+03 -0.15676687155E+03  0.11376507968E+04  0.15742198407E+04  0.89049674985E+03 0.  0.
         23    2    4    4    0    0  0.13677684966E+03 -0.16282540187E+03  0.24083254911E+02  0.23286757229E+03  0.91800244890E+02 0.  0.
         23    2    4    4    0    0 -0.74205237185E+03  0.60585303125E+01  0.11135675419E+04  0.13413522684E+04  0.92275723612E+02 0.  0.
          1    1    3    3  502    0  0.50069841446E+03  0.14208283412E+03  0.71396287372E+02  0.52534166391E+03  0.00000000000E+00 0. -1.
         -2    1    3    3    0  502  0.10457710774E+03  0.14684037438E+02  0.48949711851E+02  0.11639616278E+03  0.00000000000E+00 0.  1.
         13    1    5    5    0    0  0.68620719188E+02 -0.48071499177E+02 -0.29811020844E+02  0.88929011570E+02  0.00000000000E+00 0. -1.
        -13    1    5    5    0    0  0.68156130470E+02 -0.11475390269E+03  0.53894275754E+02  0.14393856072E+03  0.00000000000E+00 0.  1.
          4    1    6    6  503    0 -0.23383872848E+03 -0.35776286372E+02  0.39038467414E+03  0.45646542849E+03  0.00000000000E+00 0. -1.
         -4    1    6    6    0  503 -0.50821364337E+03  0.41834816684E+02  0.72318286774E+03  0.88488683988E+03  0.00000000000E+00 0.  1.
<mgrwt>
<rscale>  0 0.18242567E+04</rscale>
<asrwt>0</asrwt>
<pdfrwt beam="1">  1        1 0.26722726E+00 0.18242567E+04</pdfrwt>
<pdfrwt beam="2">  1       -2 0.73689299E-01 0.18242567E+04</pdfrwt>
<totfact> 0.61723175E+00</totfact>
</mgrwt>
</event>
<event>
12    5  0.5264288E-008  0.2083569E+04  0.7818608E-02  0.8568516E-01
         -2   -1    0    0    0  501 -0.00000000000E+00  0.00000000000E+00  0.61113091114E+03  0.61113091114E+03  0.00000000000E+00 0.  1.
          1   -1    0    0  501    0  0.00000000000E+00 -0.00000000000E+00 -0.17759126598E+04  0.17759126598E+04  0.00000000000E+00 0. -1.
        -24    2    1    2    0    0  0.22206287868E+03  0.65356236043E+03 -0.10245899395E+04  0.12378433034E+04  0.77561708508E+02 0.  0.
        254    2    1    2    0    0 -0.22206287868E+03 -0.65356236043E+03 -0.14019180915E+03  0.11492002675E+04  0.90804836350E+03 0.  0.
         23    2    4    4    0    0  0.59009705520E+02 -0.67382133035E+03  0.18707344979E+03  0.70777606306E+03  0.91832179767E+02 0.  0.
         23    2    4    4    0    0 -0.28107258420E+03  0.20258969926E+02 -0.32726525894E+03  0.44142420446E+03  0.91326639698E+02 0.  0.
          3    1    3    3  502    0  0.21788689633E+03  0.56341738077E+03 -0.87931538503E+03  0.10668220990E+04  0.00000000000E+00 0. -1.
         -4    1    3    3    0  502  0.41759823527E+01  0.90144979661E+02 -0.14527455444E+03  0.17102120440E+03  0.00000000000E+00 0.  1.
         13    1    5    5    0    0  0.70959309897E+02 -0.54672533255E+03  0.17989065471E+03  0.57991763257E+03  0.00000000000E+00 0.  1.
        -13    1    5    5    0    0 -0.11949604378E+02 -0.12709599781E+03  0.71827950796E+01  0.12785843050E+03  0.00000000000E+00 0. -1.
          3    1    6    6  503    0 -0.16779857467E+02  0.18541399798E+02 -0.62511256727E+02  0.67327589744E+02  0.00000000000E+00 0. -1.
         -3    1    6    6    0  503 -0.26429272673E+03  0.17175701279E+01 -0.26475400221E+03  0.37409661471E+03  0.00000000000E+00 0.  1.
<mgrwt>
<rscale>  0 0.20835692E+04</rscale>
<asrwt>0</asrwt>
<pdfrwt beam="1">  1        1 0.27321733E+00 0.20835692E+04</pdfrwt>
<pdfrwt beam="2">  1       -2 0.94020141E-01 0.20835692E+04</pdfrwt>
<totfact> 0.32669497E+00</totfact>
</mgrwt>
</event>
<event>
12    5  0.5264288E-008  0.1378099E+04  0.7818608E-02  0.8969826E-01
          1   -1    0    0  501    0  0.00000000000E+00  0.00000000000E+00  0.16705318856E+04  0.16705318856E+04  0.00000000000E+00 0. -1.
         -2   -1    0    0    0  501 -0.00000000000E+00 -0.00000000000E+00 -0.28421428973E+03  0.28421428973E+03  0.00000000000E+00 0.  1.
        -24    2    1    2    0    0 -0.15339900814E+03 -0.21605216376E+03 -0.51605229409E+01  0.27621566652E+03  0.77837460588E+02 0.  0.
        254    2    1    2    0    0  0.15339900814E+03  0.21605216376E+03  0.13914781188E+04  0.16785305088E+04  0.90057954712E+03 0.  0.
         23    2    4    4    0    0  0.14408077381E+03  0.47256123248E+03  0.37751661194E+03  0.62849123047E+03  0.91700854232E+02 0.  0.
         23    2    4    4    0    0  0.93182343344E+01 -0.25650906872E+03  0.10139615068E+04  0.10500392783E+04  0.92632698441E+02 0.  0.
          1    1    3    3  502    0  0.56271934128E+01 -0.13057810481E+02  0.10797969815E+02  0.17854071591E+02  0.00000000000E+00 0. -1.
         -2    1    3    3    0  502 -0.15902620156E+03 -0.20299435328E+03 -0.15958492756E+02  0.25836159493E+03  0.00000000000E+00 0.  1.
         13    1    5    5    0    0  0.14582441555E+03  0.42053599757E+03  0.30643116044E+03  0.54038443863E+03  0.00000000000E+00 0. -1.
        -13    1    5    5    0    0 -0.17436417370E+01  0.52025234901E+02  0.71085451507E+02  0.88106791844E+02  0.00000000000E+00 0.  1.
          1    1    6    6  503    0  0.15144773309E+02 -0.12823325066E+03  0.68183792122E+03  0.69395682974E+03  0.00000000000E+00 0. -1.
         -1    1    6    6    0  503 -0.58265389748E+01 -0.12827581805E+03  0.33212358561E+03  0.35608244856E+03  0.00000000000E+00 0.  1.
<mgrwt>
<rscale>  0 0.13780987E+04</rscale>
<asrwt>0</asrwt>
<pdfrwt beam="1">  1        1 0.25700490E+00 0.13780987E+04</pdfrwt>
<pdfrwt beam="2">  1       -2 0.43725276E-01 0.13780987E+04</pdfrwt>
<totfact> 0.21227723E+01</totfact>
</mgrwt>
</event>
<event>
12    5  0.5264288E-008  0.1656777E+04  0.7818608E-02  0.8786407E-01
         -2   -1    0    0    0  501 -0.00000000000E+00  0.00000000000E+00  0.42315872209E+03  0.42315872209E+03  0.00000000000E+00 0.  1.
          1   -1    0    0  501    0  0.00000000000E+00 -0.00000000000E+00 -0.16216795325E+04  0.16216795325E+04  0.00000000000E+00 0. -1.
        -24    2    1    2    0    0 -0.25055546501E+03 -0.38797239988E+03 -0.84885614042E+03  0.96950147151E+03  0.77946982029E+02 0.  0.
        254    2    1    2    0    0  0.25055546501E+03  0.38797239988E+03 -0.34966466998E+03  0.10753367831E+04  0.90597085575E+03 0.  0.
         23    2    4    4    0    0  0.42808393870E+03 -0.13103558291E+03 -0.11321531791E+03  0.47096868288E+03  0.92561382222E+02 0.  0.
         23    2    4    4    0    0 -0.17752847370E+03  0.51900798279E+03 -0.23644935207E+03  0.60436810018E+03  0.92015538084E+02 0.  0.
          3    1    3    3  502    0 -0.20951670390E+03 -0.32998466939E+03 -0.65166755838E+03  0.75990640074E+03  0.00000000000E+00 0. -1.
         -4    1    3    3    0  502 -0.41038761103E+02 -0.57987730493E+02 -0.19718858204E+03  0.20959507076E+03  0.00000000000E+00 0.  1.
         13    1    5    5    0    0  0.34337564239E+03 -0.13568483157E+03 -0.70107398425E+02  0.37580879795E+03  0.00000000000E+00 0. -1.
        -13    1    5    5    0    0  0.84708296311E+02  0.46492486530E+01 -0.43107919482E+02  0.95159884925E+02  0.00000000000E+00 0.  1.
          1    1    6    6  503    0 -0.17326472974E+03  0.46483241899E+03 -0.23754076403E+03  0.55001405336E+03  0.00000000000E+00 0. -1.
         -1    1    6    6    0  503 -0.42637439569E+01  0.54175563809E+02  0.10914119632E+01  0.54354046828E+02  0.00000000000E+00 0.  1.
<mgrwt>
<rscale>  0 0.16567774E+04</rscale>
<asrwt>0</asrwt>
<pdfrwt beam="1">  1        1 0.24948916E+00 0.16567774E+04</pdfrwt>
<pdfrwt beam="2">  1       -2 0.65101343E-01 0.16567774E+04</pdfrwt>
<totfact> 0.98338632E+00</totfact>
</mgrwt>
</event>
<event>
12    5  0.5264288E-008  0.1281836E+04  0.7818608E-02  0.9044095E-01
          1   -1    0    0  501    0  0.00000000000E+00  0.00000000000E+00  0.15125997811E+04  0.15125997811E+04  0.00000000000E+00 0. -1.
         -2   -1    0    0    0  501 -0.00000000000E+00 -0.00000000000E+00 -0.27156925880E+03  0.27156925880E+03  0.00000000000E+00 0.  1.
        -24    2    1    2    0    0  0.18853365094E+03  0.14636168292E+03  0.50934494476E+03  0.56623465492E+03  0.64982550799E+02 0.  0.
        254    2    1    2    0    0 -0.18853365094E+03 -0.14636168292E+03  0.73168557757E+03  0.12179343850E+04  0.94394581518E+03 0.  0.
         23    2    4    4    0    0 -0.44663724772E+03 -0.39288365215E+03  0.41770556956E+03  0.73320925309E+03  0.96309245610E+02 0.  0.
         23    2    4    4    0    0  0.25810359678E+03  0.24652196922E+03  0.31398000801E+03  0.48472513193E+03  0.94786392001E+02 0.  0.
          1    1    3    3  502    0  0.15051703857E+03  0.93729592758E+02  0.41905185816E+03  0.45502206022E+03  0.00000000000E+00 0. -1.
         -2    1    3    3    0  502  0.38016612367E+02  0.52632090167E+02  0.90293086609E+02  0.11121259470E+03  0.00000000000E+00 0.  1.
         13    1    5    5    0    0 -0.37024945610E+03 -0.27915392253E+03  0.29729877028E+03  0.55081587760E+03  0.00000000000E+00 0. -1.
        -13    1    5    5    0    0 -0.76387791623E+02 -0.11372972962E+03  0.12040679928E+03  0.18239337549E+03  0.00000000000E+00 0.  1.
          1    1    6    6  503    0  0.16592293574E+03  0.12648721303E+03  0.12731774707E+03  0.24441612955E+03  0.00000000000E+00 0. -1.
         -1    1    6    6    0  503  0.92180661044E+02  0.12003475619E+03  0.18666226094E+03  0.24030900238E+03  0.00000000000E+00 0.  1.
<mgrwt>
<rscale>  0 0.12818356E+04</rscale>
<asrwt>0</asrwt>
<pdfrwt beam="1">  1        1 0.23270765E+00 0.12818356E+04</pdfrwt>
<pdfrwt beam="2">  1       -2 0.41779887E-01 0.12818356E+04</pdfrwt>
<totfact> 0.30045006E+01</totfact>
</mgrwt>
</event>
<event>
12    5  0.5264288E-008  0.1318340E+04  0.7818608E-02  0.9015146E-01
         -2   -1    0    0    0  501 -0.00000000000E+00  0.00000000000E+00  0.35175892164E+03  0.35175892164E+03  0.00000000000E+00 0.  1.
          1   -1    0    0  501    0  0.00000000000E+00 -0.00000000000E+00 -0.12352362425E+04  0.12352362425E+04  0.00000000000E+00 0. -1.
        -24    2    1    2    0    0 -0.15275950059E+03 -0.28761045807E+03 -0.13221836067E+03  0.36041813748E+03  0.79776552416E+02 0.  0.
        254    2    1    2    0    0  0.15275950059E+03  0.28761045807E+03 -0.75125896024E+03  0.12265770267E+04  0.91326115459E+03 0.  0.
         23    2    4    4    0    0 -0.39273789542E+02 -0.27793340461E+03 -0.48280851150E+03  0.56556399733E+03  0.89270198547E+02 0.  0.
         23    2    4    4    0    0  0.19203329013E+03  0.56554386268E+03 -0.26845044873E+03  0.66101302937E+03  0.90310223371E+02 0.  0.
          1    1    3    3  502    0 -0.95442645463E+02 -0.96423128693E+02 -0.55655409759E+02  0.14664325063E+03  0.00000000000E+00 0. -1.
         -2    1    3    3    0  502 -0.57316855128E+02 -0.19118732938E+03 -0.76562950916E+02  0.21377488685E+03  0.00000000000E+00 0.  1.
         13    1    5    5    0    0 -0.58441950585E+02 -0.14171735327E+03 -0.20955109365E+03  0.25963615052E+03  0.00000000000E+00 0. -1.
        -13    1    5    5    0    0  0.19168161042E+02 -0.13621605133E+03 -0.27325741786E+03  0.30592784681E+03  0.00000000000E+00 0.  1.
          4    1    6    6  503    0  0.54122723880E+02  0.76772255894E+02 -0.63391419133E+02  0.11332131545E+03  0.00000000000E+00 0. -1.
         -4    1    6    6    0  503  0.13791056625E+03  0.48877160678E+03 -0.20505902960E+03  0.54769171393E+03  0.00000000000E+00 0.  1.
<mgrwt>
<rscale>  0 0.13183404E+04</rscale>
<asrwt>0</asrwt>
<pdfrwt beam="1">  1        1 0.19003635E+00 0.13183404E+04</pdfrwt>
<pdfrwt beam="2">  1       -2 0.54116757E-01 0.13183404E+04</pdfrwt>
<totfact> 0.27868214E+01</totfact>
</mgrwt>
</event>
<event>
12    5  0.5264288E-008  0.2032823E+04  0.7818608E-02  0.8591427E-01
          1   -1    0    0  501    0  0.00000000000E+00  0.00000000000E+00  0.57814102256E+03  0.57814102256E+03  0.00000000000E+00 0. -1.
         -2   -1    0    0    0  501 -0.00000000000E+00 -0.00000000000E+00 -0.17869210431E+04  0.17869210431E+04  0.00000000000E+00 0.  1.
        -24    2    1    2    0    0  0.31771058408E+02 -0.71863892063E+03 -0.94630314079E+03  0.11913538857E+04  0.79894607747E+02 0.  0.
        254    2    1    2    0    0 -0.31771058408E+02  0.71863892063E+03 -0.26247687974E+03  0.11737081799E+04  0.88951980353E+03 0.  0.
         23    2    4    4    0    0 -0.59655063602E+02  0.49442666576E+02  0.28153665939E+03  0.30612588010E+03  0.91906800590E+02 0.  0.
         23    2    4    4    0    0  0.27884005194E+02  0.66919625405E+03 -0.54401353912E+03  0.86758229984E+03  0.90261686628E+02 0.  0.
          3    1    3    3  502    0  0.14575504957E+02 -0.19593395090E+02 -0.35374533505E+02  0.42984928714E+02  0.00000000000E+00 0. -1.
         -4    1    3    3    0  502  0.17195553451E+02 -0.69904552554E+03 -0.91092860728E+03  0.11483689570E+04  0.00000000000E+00 0.  1.
         13    1    5    5    0    0 -0.14107893973E+02 -0.51872132075E+01  0.18809040465E+03  0.18869006379E+03  0.00000000000E+00 0. -1.
        -13    1    5    5    0    0 -0.45547169630E+02  0.54629879783E+02  0.93446254739E+02  0.11743581630E+03  0.00000000000E+00 0.  1.
          1    1    6    6  503    0 -0.28918020267E+02  0.30024297594E+03 -0.26544223813E+03  0.40179805659E+03  0.00000000000E+00 0. -1.
         -1    1    6    6    0  503  0.56802025461E+02  0.36895327811E+03 -0.27857130099E+03  0.46578424325E+03  0.00000000000E+00 0.  1.
<mgrwt>
<rscale>  0 0.20328230E+04</rscale>
<asrwt>0</asrwt>
<pdfrwt beam="1">  1        1 0.88944774E-01 0.20328230E+04</pdfrwt>
<pdfrwt beam="2">  1       -2 0.27491093E+00 0.20328230E+04</pdfrwt>
<totfact> 0.13242103E+00</totfact>
</mgrwt>
</event>
<event>
12    5  0.5264288E-008  0.1013295E+04  0.7818608E-02  0.9294082E-01
         -2   -1    0    0    0  501 -0.00000000000E+00  0.00000000000E+00  0.27178288299E+03  0.27178288299E+03  0.00000000000E+00 0.  1.
          1   -1    0    0  501    0  0.00000000000E+00 -0.00000000000E+00 -0.94447416128E+03  0.94447416128E+03  0.00000000000E+00 0. -1.
        -24    2    1    2    0    0  0.39625626433E+02 -0.60542089961E+02 -0.47311109952E+02  0.11597312128E+03  0.77303873170E+02 0.  0.
        254    2    1    2    0    0 -0.39625626433E+02  0.60542089961E+02 -0.62538016834E+03  0.11002839230E+04  0.90237953287E+03 0.  0.
         23    2    4    4    0    0  0.21230205859E+03 -0.18309510711E+03  0.81348341561E+02  0.30627918735E+03  0.92700623504E+02 0.  0.
         23    2    4    4    0    0 -0.25192768503E+03  0.24363719707E+03 -0.70672850990E+03  0.79400473565E+03  0.90286716904E+02 0.  0.
          3    1    3    3  502    0  0.16508400661E+02 -0.26235445101E+00 -0.48674289412E+02  0.51398274017E+02  0.00000000000E+00 0. -1.
         -4    1    3    3    0  502  0.23117225772E+02 -0.60279735510E+02  0.13631794592E+01  0.64574847261E+02  0.00000000000E+00 0.  1.
         13    1    5    5    0    0  0.20780012146E+03 -0.16672648524E+03  0.96666708943E+02  0.28341323888E+03  0.00000000000E+00 0.  1.
        -13    1    5    5    0    0  0.45019371378E+01 -0.16368621877E+02 -0.15318367381E+02  0.22865948469E+02  0.00000000000E+00 0. -1.
          3    1    6    6  503    0 -0.64451074125E+01  0.41951290017E+02 -0.60536476863E+02  0.73933180472E+02  0.00000000000E+00 0. -1.
         -3    1    6    6    0  503 -0.24548257761E+03  0.20168590706E+03 -0.64619203303E+03  0.72007155518E+03  0.00000000000E+00 0.  1.
<mgrwt>
<rscale>  0 0.10132954E+04</rscale>
<asrwt>0</asrwt>
<pdfrwt beam="1">  1        1 0.14530372E+00 0.10132954E+04</pdfrwt>
<pdfrwt beam="2">  1       -2 0.41812751E-01 0.10132954E+04</pdfrwt>
<totfact> 0.79671319E+01</totfact>
</mgrwt>
</event>
<event>
12    5  0.5264288E-008  0.2490098E+04  0.7818608E-02  0.8406522E-01
         -2   -1    0    0    0  501 -0.00000000000E+00  0.00000000000E+00  0.24030351693E+04  0.24030351693E+04  0.00000000000E+00 0.  1.
          1   -1    0    0  501    0  0.00000000000E+00 -0.00000000000E+00 -0.64507860610E+03  0.64507860610E+03  0.00000000000E+00 0. -1.
        -24    2    1    2    0    0  0.56335462800E+03  0.63186717773E+03  0.15842096992E+04  0.17978188622E+04  0.76208418028E+02 0.  0.
        254    2    1    2    0    0 -0.56335462800E+03 -0.63186717773E+03  0.17374686397E+03  0.12502949132E+04  0.90356230005E+03 0.  0.
         23    2    4    4    0    0 -0.41405098923E+03  0.13885116337E+03  0.34346344097E+02  0.44793992512E+03  0.93555533804E+02 0.  0.
         23    2    4    4    0    0 -0.14930363876E+03 -0.77071834110E+03  0.13940051988E+03  0.80235498809E+03  0.89681013091E+02 0.  0.
          1    1    3    3  502    0  0.10471172173E+03  0.14111118679E+03  0.38754997383E+03  0.42552543275E+03  0.00000000000E+00 0. -1.
         -2    1    3    3    0  502  0.45864290627E+03  0.49075599094E+03  0.11966597254E+04  0.13722934295E+04  0.00000000000E+00 0.  1.
         13    1    5    5    0    0 -0.30665894542E+03  0.14185127215E+03  0.11328129179E+02  0.33806777239E+03  0.00000000000E+00 0.  1.
        -13    1    5    5    0    0 -0.10739204381E+03 -0.30001087777E+01  0.23018214918E+02  0.10987215273E+03  0.00000000000E+00 0. -1.
          1    1    6    6  503    0 -0.83662691874E+02 -0.26348291080E+03  0.20201600129E+02  0.27718368449E+03  0.00000000000E+00 0. -1.
         -1    1    6    6    0  503 -0.65640946888E+02 -0.50723543030E+03  0.11919891975E+03  0.52517130360E+03  0.00000000000E+00 0.  1.
<mgrwt>
<rscale>  0 0.24900977E+04</rscale>
<asrwt>0</asrwt>
<pdfrwt beam="1">  1        1 0.99242864E-01 0.24900977E+04</pdfrwt>
<pdfrwt beam="2">  1       -2 0.36969771E+00 0.24900977E+04</pdfrwt>
<totfact> 0.28009043E-01</totfact>
</mgrwt>
</event>
<event>
12    5  0.5264288E-008  0.1735676E+04  0.7818608E-02  0.8741275E-01
          1   -1    0    0  501    0  0.00000000000E+00  0.00000000000E+00  0.44174131808E+03  0.44174131808E+03  0.00000000000E+00 0. -1.
         -2   -1    0    0    0  501 -0.00000000000E+00 -0.00000000000E+00 -0.17049400796E+04  0.17049400796E+04  0.00000000000E+00 0.  1.
        -24    2    1    2    0    0 -0.46688299578E+03  0.74434100638E+02  0.52966432319E+02  0.48200751650E+03  0.77496038126E+02 0.  0.
        254    2    1    2    0    0  0.46688299578E+03 -0.74434100638E+02 -0.13161651939E+04  0.16646738812E+04  0.90295522932E+03 0.  0.
         23    2    4    4    0    0  0.45420430110E+03  0.17067496837E+03 -0.13135342513E+04  0.14034763126E+04  0.94562353001E+02 0.  0.
         23    2    4    4    0    0  0.12678694679E+02 -0.24510906901E+03 -0.26309425415E+01  0.26119756863E+03  0.89319891350E+02 0.  0.
          1    1    3    3  502    0 -0.37504642912E+03  0.73515615766E+02  0.14564764704E+02  0.38246111191E+03  0.00000000000E+00 0. -1.
         -2    1    3    3    0  502 -0.91836566661E+02  0.91848487176E+00  0.38401667615E+02  0.99546404587E+02  0.00000000000E+00 0.  1.
         13    1    5    5    0    0  0.87422609724E+02  0.41466341353E+02 -0.16971516591E+03  0.19535968800E+03  0.00000000000E+00 0. -1.
        -13    1    5    5    0    0  0.36678169137E+03  0.12920862702E+03 -0.11438190854E+04  0.12081166246E+04  0.00000000000E+00 0.  1.
          4    1    6    6  503    0  0.91566954100E+01 -0.37544312806E+02 -0.33719897141E+02  0.51287931895E+02  0.00000000000E+00 0. -1.
         -4    1    6    6    0  503  0.35219992689E+01 -0.20756475620E+03  0.31088954599E+02  0.20990963674E+03  0.00000000000E+00 0.  1.
<mgrwt>
<rscale>  0 0.17356756E+04</rscale>
<asrwt>0</asrwt>
<pdfrwt beam="1">  1        1 0.67960201E-01 0.17356756E+04</pdfrwt>
<pdfrwt beam="2">  1       -2 0.26229848E+00 0.17356756E+04</pdfrwt>
<totfact> 0.23546624E+00</totfact>
</mgrwt>
</event>
<event>
12    5  0.5264288E-008  0.1523757E+04  0.7818608E-02  0.8868807E-01
         -2   -1    0    0    0  501 -0.00000000000E+00  0.00000000000E+00  0.11926145286E+04  0.11926145286E+04  0.00000000000E+00 0.  1.
          1   -1    0    0  501    0  0.00000000000E+00 -0.00000000000E+00 -0.48671110078E+03  0.48671110078E+03  0.00000000000E+00 0. -1.
        -24    2    1    2    0    0 -0.24240987993E+03  0.38497865874E+03  0.41304352630E+02  0.46427959869E+03  0.82935991196E+02 0.  0.
        254    2    1    2    0    0  0.24240987993E+03 -0.38497865874E+03  0.66459907519E+03  0.12150460307E+04  0.90976579866E+03 0.  0.
         23    2    4    4    0    0  0.21825765069E+03 -0.63988458499E+03  0.64927632604E+03  0.94178718073E+03  0.91184768626E+02 0.  0.
         23    2    4    4    0    0  0.24152229244E+02  0.25490592625E+03  0.15322749150E+02  0.27325884998E+03  0.94208550751E+02 0.  0.
          3    1    3    3  502    0 -0.17666233477E+03  0.27141195832E+03 -0.84122768080E+01  0.32395184526E+03  0.00000000000E+00 0. -1.
         -4    1    3    3    0  502 -0.65747545162E+02  0.11356670042E+03  0.49716629438E+02  0.14032775343E+03  0.00000000000E+00 0.  1.
         13    1    5    5    0    0  0.16838252130E+03 -0.58133842197E+03  0.57202603618E+03  0.83277897453E+03  0.00000000000E+00 0. -1.
        -13    1    5    5    0    0  0.49875129391E+02 -0.58546163018E+02  0.77250289860E+02  0.10900820620E+03  0.00000000000E+00 0.  1.
          3    1    6    6  503    0  0.40655325122E+02  0.22236407801E+03 -0.13950504128E+02  0.22648014309E+03  0.00000000000E+00 0. -1.
         -3    1    6    6    0  503 -0.16503095878E+02  0.32541848247E+02  0.29273253279E+02  0.46778706891E+02  0.00000000000E+00 0.  1.
<mgrwt>
<rscale>  0 0.15237568E+04</rscale>
<asrwt>0</asrwt>
<pdfrwt beam="1">  1        1 0.74878631E-01 0.15237568E+04</pdfrwt>
<pdfrwt beam="2">  1       -2 0.18347916E+00 0.15237568E+04</pdfrwt>
<totfact> 0.66587983E+00</totfact>
</mgrwt>
</event>
<event>
12    5  0.5264288E-008  0.1485487E+04  0.7818608E-02  0.8894162E-01
          1   -1    0    0  501    0  0.00000000000E+00  0.00000000000E+00  0.12852998801E+04  0.12852998801E+04  0.00000000000E+00 0. -1.
         -2   -1    0    0    0  501 -0.00000000000E+00 -0.00000000000E+00 -0.42921348111E+03  0.42921348111E+03  0.00000000000E+00 0.  1.
        -24    2    1    2    0    0 -0.45505395304E+02  0.37121865574E+03  0.57560660013E+03  0.69219220194E+03  0.89067698638E+02 0.  0.
        254    2    1    2    0    0  0.45505395304E+02 -0.37121865574E+03  0.28047979890E+03  0.10223211593E+04  0.90917413282E+03 0.  0.
         23    2    4    4    0    0 -0.20814775378E+03 -0.43766951200E+03 -0.14581093120E+03  0.51413033316E+03  0.90493550507E+02 0.  0.
         23    2    4    4    0    0  0.25365314909E+03  0.66450856259E+02  0.42629073010E+03  0.50819082614E+03  0.88195764439E+02 0.  0.
          3    1    3    3  502    0 -0.27404289652E+01  0.10862559174E+03  0.24360711261E+03  0.26674229969E+03  0.00000000000E+00 0. -1.
         -4    1    3    3    0  502 -0.42764966339E+02  0.26259306400E+03  0.33199948752E+03  0.42544990225E+03  0.00000000000E+00 0.  1.
         13    1    5    5    0    0 -0.97013212329E+02 -0.11977560845E+03 -0.68160596204E+02  0.16853375514E+03  0.00000000000E+00 0. -1.
        -13    1    5    5    0    0 -0.11113454145E+03 -0.31789390355E+03 -0.77650334992E+02  0.34559657803E+03  0.00000000000E+00 0.  1.
          1    1    6    6  503    0  0.92681362076E+02 -0.93991611660E+01  0.10094784501E+03  0.13736319201E+03  0.00000000000E+00 0. -1.
         -1    1    6    6    0  503  0.16097178701E+03  0.75850017425E+02  0.32534288508E+03  0.37082763413E+03  0.00000000000E+00 0.  1.
<mgrwt>
<rscale>  0 0.14854872E+04</rscale>
<asrwt>0</asrwt>
<pdfrwt beam="1">  1        1 0.19773844E+00 0.14854872E+04</pdfrwt>
<pdfrwt beam="2">  1       -2 0.66032844E-01 0.14854872E+04</pdfrwt>
<totfact> 0.16614038E+01</totfact>
</mgrwt>
</event>
<event>
12    5  0.5264288E-008  0.1454693E+04  0.7818608E-02  0.8915153E-01
          1   -1    0    0  501    0  0.00000000000E+00  0.00000000000E+00  0.40308654175E+03  0.40308654175E+03  0.00000000000E+00 0. -1.
         -2   -1    0    0    0  501 -0.00000000000E+00 -0.00000000000E+00 -0.13124552655E+04  0.13124552655E+04  0.00000000000E+00 0.  1.
        -24    2    1    2    0    0  0.10019273621E+03 -0.38721608799E+03 -0.45147399754E+03  0.60839565101E+03  0.79634254721E+02 0.  0.
        254    2    1    2    0    0 -0.10019273621E+03  0.38721608799E+03 -0.45789472620E+03  0.11071461562E+04  0.92527301257E+03 0.  0.
         23    2    4    4    0    0 -0.31449142216E+03 -0.14401371629E+03  0.15449497664E+02  0.35840890137E+03  0.92592918247E+02 0.  0.
         23    2    4    4    0    0  0.21429868595E+03  0.53122980428E+03 -0.47334422387E+03  0.74873725487E+03  0.91780666857E+02 0.  0.
          3    1    3    3  502    0 -0.84622890435E+01 -0.10604385078E+03 -0.11691168708E+03  0.15806723632E+03  0.00000000000E+00 0. -1.
         -4    1    3    3    0  502  0.10865502525E+03 -0.28117223722E+03 -0.33456231046E+03  0.45032841469E+03  0.00000000000E+00 0.  1.
         13    1    5    5    0    0 -0.77920202973E+02  0.56321905913E+01  0.50854443889E+01  0.78288832836E+02  0.00000000000E+00 0.  1.
        -13    1    5    5    0    0 -0.23657121919E+03 -0.14964590688E+03  0.10364053275E+02  0.28012006853E+03  0.00000000000E+00 0. -1.
          1    1    6    6  503    0  0.12911579209E+03  0.20104700418E+03 -0.20475157003E+03  0.31466488696E+03  0.00000000000E+00 0. -1.
         -1    1    6    6    0  503  0.85182893866E+02  0.33018280010E+03 -0.26859265383E+03  0.43407236791E+03  0.00000000000E+00 0.  1.
<mgrwt>
<rscale>  0 0.14546932E+04</rscale>
<asrwt>0</asrwt>
<pdfrwt beam="1">  1        1 0.62013314E-01 0.14546932E+04</pdfrwt>
<pdfrwt beam="2">  1       -2 0.20191620E+00 0.14546932E+04</pdfrwt>
<totfact> 0.65046381E+00</totfact>
</mgrwt>
</event>
<event>
12    5  0.5264288E-008  0.1496174E+04  0.7818608E-02  0.8887001E-01
          1   -1    0    0  501    0  0.00000000000E+00  0.00000000000E+00  0.12902294730E+04  0.12902294730E+04  0.00000000000E+00 0. -1.
         -2   -1    0    0    0  501 -0.00000000000E+00 -0.00000000000E+00 -0.43374774518E+03  0.43374774518E+03  0.00000000000E+00 0.  1.
        -24    2    1    2    0    0 -0.35762945519E+03  0.40448027988E+02  0.64551285570E+03  0.74326403957E+03  0.78865172626E+02 0.  0.
        254    2    1    2    0    0  0.35762945519E+03 -0.40448027988E+02  0.21096887208E+03  0.98071317858E+03  0.88755597202E+03 0.  0.
         23    2    4    4    0    0 -0.15422992280E+03 -0.30166436922E+03  0.18353229982E+03  0.39759616734E+03  0.98032374566E+02 0.  0.
         23    2    4    4    0    0  0.51185937799E+03  0.26121634123E+03  0.27436572265E+02  0.58311701124E+03  0.95071991339E+02 0.  0.
          3    1    3    3  502    0 -0.32943881253E+03  0.26563752279E+02  0.62075579489E+03  0.70325907106E+03  0.00000000000E+00 0. -1.
         -4    1    3    3    0  502 -0.28190642662E+02  0.13884275709E+02  0.24757060814E+02  0.40004968514E+02  0.00000000000E+00 0.  1.
         13    1    5    5    0    0 -0.85941913456E+02 -0.90496337137E+02  0.10191919481E+03  0.16113075993E+03  0.00000000000E+00 0. -1.
        -13    1    5    5    0    0 -0.68288009345E+02 -0.21116803208E+03  0.81613105005E+02  0.23646540741E+03  0.00000000000E+00 0.  1.
          1    1    6    6  503    0  0.35949780757E+02 -0.33689759335E+01 -0.95486006016E+01  0.37348527531E+02  0.00000000000E+00 0. -1.
         -1    1    6    6    0  503  0.47590959724E+03  0.26458531716E+03  0.36985172867E+02  0.54576848371E+03  0.00000000000E+00 0.  1.
<mgrwt>
<rscale>  0 0.14961740E+04</rscale>
<asrwt>0</asrwt>
<pdfrwt beam="1">  1        1 0.19849684E+00 0.14961740E+04</pdfrwt>
<pdfrwt beam="2">  1       -2 0.66730423E-01 0.14961740E+04</pdfrwt>
<totfact> 0.16095400E+01</totfact>
</mgrwt>
</event>
<event>
12    5  0.5264288E-008  0.1322965E+04  0.7818608E-02  0.9011549E-01
          1   -1    0    0  501    0  0.00000000000E+00  0.00000000000E+00  0.19616009014E+04  0.19616009014E+04  0.00000000000E+00 0. -1.
         -2   -1    0    0    0  501 -0.00000000000E+00 -0.00000000000E+00 -0.22306231938E+03  0.22306231938E+03  0.00000000000E+00 0.  1.
        -24    2    1    2    0    0  0.70576419397E+02  0.30192714831E+03  0.19623416389E+03  0.37580507063E+03  0.81120713586E+02 0.  0.
        254    2    1    2    0    0 -0.70576419397E+02 -0.30192714831E+03  0.15423044182E+04  0.18088581502E+04  0.89281792955E+03 0.  0.
         23    2    4    4    0    0 -0.41312131189E+03  0.61784125840E+02  0.57899586192E+03  0.71986804304E+03  0.92126514824E+02 0.  0.
         23    2    4    4    0    0  0.34254489249E+03 -0.36371127415E+03  0.96330855626E+03  0.10889901072E+04  0.91176666965E+02 0.  0.
          3    1    3    3  502    0  0.15822285060E+02  0.13182080838E+03  0.12829199963E+03  0.18462369132E+03  0.00000000000E+00 0. -1.
         -4    1    3    3    0  502  0.54754134337E+02  0.17010633993E+03  0.67942164252E+02  0.19118137931E+03  0.00000000000E+00 0.  1.
         13    1    5    5    0    0 -0.17283506770E+03 -0.36930526293E+01  0.29693510619E+03  0.34359286453E+03  0.00000000000E+00 0.  1.
        -13    1    5    5    0    0 -0.24028624419E+03  0.65477178469E+02  0.28206075573E+03  0.37627517852E+03  0.00000000000E+00 0. -1.
          2    1    6    6  503    0  0.19079353223E+03 -0.13706306252E+03  0.43085140166E+03  0.49073555542E+03  0.00000000000E+00 0.  1.
         -2    1    6    6    0  503  0.15175136026E+03 -0.22664821163E+03  0.53245715460E+03  0.59825455173E+03  0.00000000000E+00 0. -1.
<mgrwt>
<rscale>  0 0.13229652E+04</rscale>
<asrwt>0</asrwt>
<pdfrwt beam="1">  1        1 0.30178474E+00 0.13229652E+04</pdfrwt>
<pdfrwt beam="2">  1       -2 0.34317281E-01 0.13229652E+04</pdfrwt>
<totfact> 0.21695944E+01</totfact>
</mgrwt>
</event>
<event>
12    5  0.5264288E-008  0.1194102E+04  0.7818608E-02  0.9118035E-01
          1   -1    0    0  501    0  0.00000000000E+00  0.00000000000E+00  0.14981500119E+04  0.14981500119E+04  0.00000000000E+00 0. -1.
         -2   -1    0    0    0  501 -0.00000000000E+00 -0.00000000000E+00 -0.23793995142E+03  0.23793995142E+03  0.00000000000E+00 0.  1.
        -24    2    1    2    0    0 -0.18894709273E+03 -0.15169080008E+03  0.16067357106E+03  0.30200579661E+03  0.81733726605E+02 0.  0.
        254    2    1    2    0    0  0.18894709273E+03  0.15169080008E+03  0.10995364894E+04  0.14340841667E+04  0.88820369451E+03 0.  0.
         23    2    4    4    0    0  0.42756726715E+03  0.34001409423E+03  0.45960219345E+03  0.71977961407E+03  0.91788694264E+02 0.  0.
         23    2    4    4    0    0 -0.23862017443E+03 -0.18832329414E+03  0.63993429594E+03  0.71430455261E+03  0.91158323777E+02 0.  0.
          3    1    3    3  502    0 -0.98534032988E+01  0.22980997580E+01 -0.70390416022E+01  0.12325539572E+02  0.00000000000E+00 0. -1.
         -4    1    3    3    0  502 -0.17909368943E+03 -0.15398889984E+03  0.16771261267E+03  0.28968025703E+03  0.00000000000E+00 0.  1.
         13    1    5    5    0    0  0.16345066764E+02  0.44539560595E+02  0.35149122468E+02  0.59045698199E+02  0.00000000000E+00 0.  1.
        -13    1    5    5    0    0  0.41122220039E+03  0.29547453363E+03  0.42445307098E+03  0.66073391587E+03  0.00000000000E+00 0. -1.
          2    1    6    6  503    0 -0.20352004507E+03 -0.17774841190E+03  0.60930617687E+03  0.66653501322E+03  0.00000000000E+00 0. -1.
         -2    1    6    6    0  503 -0.35100129358E+02 -0.10574882247E+02  0.30628119073E+02  0.47769539389E+02  0.00000000000E+00 0.  1.
<mgrwt>
<rscale>  0 0.11941017E+04</rscale>
<asrwt>0</asrwt>
<pdfrwt beam="1">  1        1 0.23048461E+00 0.11941017E+04</pdfrwt>
<pdfrwt beam="2">  1       -2 0.36606147E-01 0.11941017E+04</pdfrwt>
<totfact> 0.40054469E+01</totfact>
</mgrwt>
</event>
<event>
12    5  0.5264288E-008  0.2869747E+04  0.7818608E-02  0.8281936E-01
          1   -1    0    0  501    0  0.00000000000E+00  0.00000000000E+00  0.13474385326E+04  0.13474385326E+04  0.00000000000E+00 0. -1.
         -2   -1    0    0    0  501 -0.00000000000E+00 -0.00000000000E+00 -0.15279819730E+04  0.15279819730E+04  0.00000000000E+00 0.  1.
        -24    2    1    2    0    0 -0.20523939143E+03 -0.10734034189E+04 -0.73919299449E+03  0.13218782018E+04  0.81471403964E+02 0.  0.
        254    2    1    2    0    0  0.20523939143E+03  0.10734034189E+04  0.55864955414E+03  0.15535423039E+04  0.95241076123E+03 0.  0.
         23    2    4    4    0    0 -0.12211011535E+03 -0.21383941460E+02  0.35826733594E+03  0.38990625441E+03  0.91122170790E+02 0.  0.
         23    2    4    4    0    0  0.32734950677E+03  0.10947873604E+04  0.20038221820E+03  0.11636360495E+04  0.90436487408E+02 0.  0.
          1    1    3    3  502    0 -0.47188548998E+02 -0.30339888748E+03 -0.16616434350E+03  0.34912495346E+03  0.00000000000E+00 0. -1.
         -2    1    3    3    0  502 -0.15805084243E+03 -0.77000453143E+03 -0.57302865099E+03  0.97275324830E+03  0.00000000000E+00 0.  1.
         13    1    5    5    0    0 -0.37497184181E+02 -0.49061870921E+02  0.10981531150E+03  0.12598614463E+03  0.00000000000E+00 0.  1.
        -13    1    5    5    0    0 -0.84612931165E+02  0.27677929460E+02  0.24845202444E+03  0.26392010979E+03  0.00000000000E+00 0. -1.
          3    1    6    6  503    0  0.32231920657E+03  0.10742886671E+04  0.18329219187E+03  0.11364778215E+04  0.00000000000E+00 0. -1.
         -3    1    6    6    0  503  0.50303002076E+01  0.20498693242E+02  0.17090026331E+02  0.27158227939E+02  0.00000000000E+00 0.  1.
<mgrwt>
<rscale>  0 0.28697469E+04</rscale>
<asrwt>0</asrwt>
<pdfrwt beam="1">  1        1 0.20729824E+00 0.28697469E+04</pdfrwt>
<pdfrwt beam="2">  1       -2 0.23507415E+00 0.28697469E+04</pdfrwt>
<totfact> 0.50254324E-01</totfact>
</mgrwt>
</event>
<event>
12    5  0.5264288E-008  0.1225020E+04  0.7818608E-02  0.9091235E-01
          1   -1    0    0  501    0  0.00000000000E+00  0.00000000000E+00  0.57856180538E+03  0.57856180538E+03  0.00000000000E+00 0. -1.
         -2   -1    0    0    0  501 -0.00000000000E+00 -0.00000000000E+00 -0.64844967450E+03  0.64844967450E+03  0.00000000000E+00 0.  1.
        -24    2    1    2    0    0 -0.23797916392E+03 -0.74539698168E+02 -0.12213189543E+03  0.28884728269E+03  0.79538064948E+02 0.  0.
        254    2    1    2    0    0  0.23797916392E+03  0.74539698168E+02  0.52244026314E+02  0.93816419719E+03  0.90290219489E+03 0.  0.
         23    2    4    4    0    0 -0.16748633579E+03  0.37007550160E+03  0.91828020578E+02  0.42676640514E+03  0.93218182962E+02 0.  0.
         23    2    4    4    0    0  0.40546549970E+03 -0.29553580343E+03 -0.39583994263E+02  0.51139779205E+03  0.90648367638E+02 0.  0.
          1    1    3    3  502    0 -0.24647076304E+02  0.16444602499E+02 -0.10297404627E+02  0.31367815731E+02  0.00000000000E+00 0. -1.
         -2    1    3    3    0  502 -0.21333208761E+03 -0.90984300668E+02 -0.11183449081E+03  0.25747946696E+03  0.00000000000E+00 0.  1.
         13    1    5    5    0    0 -0.31299125476E+02  0.15237069607E+03  0.47948327609E+01  0.15562600906E+03  0.00000000000E+00 0. -1.
        -13    1    5    5    0    0 -0.13618721031E+03  0.21770480553E+03  0.87033187817E+02  0.27114039608E+03  0.00000000000E+00 0.  1.
          1    1    6    6  503    0  0.29518086011E+02 -0.56868714404E+02  0.23833660753E+01  0.64117458727E+02  0.00000000000E+00 0. -1.
         -1    1    6    6    0  503  0.37594741369E+03 -0.23866708902E+03 -0.41967360339E+02  0.44728033332E+03  0.00000000000E+00 0.  1.
<mgrwt>
<rscale>  0 0.12250195E+04</rscale>
<asrwt>0</asrwt>
<pdfrwt beam="1">  1        1 0.89009508E-01 0.12250195E+04</pdfrwt>
<pdfrwt beam="2">  1       -2 0.99761489E-01 0.12250195E+04</pdfrwt>
<totfact> 0.25921343E+01</totfact>
</mgrwt>
</event>
<event>
12    5  0.5264288E-008  0.2208942E+04  0.7818608E-02  0.8514715E-01
         -2   -1    0    0    0  501 -0.00000000000E+00  0.00000000000E+00  0.40226741292E+03  0.40226741292E+03  0.00000000000E+00 0.  1.
          1   -1    0    0  501    0  0.00000000000E+00 -0.00000000000E+00 -0.30324519263E+04  0.30324519263E+04  0.00000000000E+00 0. -1.
        -24    2    1    2    0    0 -0.41596790920E+03  0.14001944389E+03  0.15620786915E+03  0.47292551315E+03  0.81381179979E+02 0.  0.
        254    2    1    2    0    0  0.41596790920E+03 -0.14001944389E+03 -0.27863923826E+04  0.29617938261E+04  0.90310874902E+03 0.  0.
         23    2    4    4    0    0 -0.24280493732E+03 -0.12956754668E+01 -0.13311822896E+04  0.13557542513E+04  0.84067743572E+02 0.  0.
         23    2    4    4    0    0  0.65877284652E+03 -0.13872376842E+03 -0.14552100930E+04  0.16060395748E+04  0.92199532551E+02 0.  0.
          1    1    3    3  502    0 -0.22538269844E+02  0.12048827217E+02 -0.94852703657E+01  0.27260194401E+02  0.00000000000E+00 0. -1.
         -2    1    3    3    0  502 -0.39342963935E+03  0.12797061667E+03  0.16569313951E+03  0.44566531875E+03  0.00000000000E+00 0.  1.
         13    1    5    5    0    0 -0.16005998350E+03 -0.40347130456E+02 -0.89145678323E+03  0.90661032733E+03  0.00000000000E+00 0. -1.
        -13    1    5    5    0    0 -0.82744953818E+02  0.39051454990E+02 -0.43972550637E+03  0.44914392400E+03  0.00000000000E+00 0.  1.
          3    1    6    6  503    0  0.50609492963E+03 -0.67093641831E+02 -0.10716803602E+04  0.11870688392E+04  0.00000000000E+00 0. -1.
         -3    1    6    6    0  503  0.15267791689E+03 -0.71630126588E+02 -0.38352973271E+03  0.41897073551E+03  0.00000000000E+00 0.  1.
<mgrwt>
<rscale>  0 0.22089424E+04</rscale>
<asrwt>0</asrwt>
<pdfrwt beam="1">  1        1 0.46653106E+00 0.22089424E+04</pdfrwt>
<pdfrwt beam="2">  1       -2 0.61887295E-01 0.22089424E+04</pdfrwt>
<totfact> 0.10998800E+00</totfact>
</mgrwt>
</event>
<event>
12    5  0.5264288E-008  0.1707022E+04  0.7818608E-02  0.8757369E-01
         -2   -1    0    0    0  501 -0.00000000000E+00  0.00000000000E+00  0.20685008075E+03  0.20685008075E+03  0.00000000000E+00 0.  1.
          1   -1    0    0  501    0  0.00000000000E+00 -0.00000000000E+00 -0.35217834857E+04  0.35217834857E+04  0.00000000000E+00 0. -1.
        -24    2    1    2    0    0  0.19841475758E+03 -0.39733792636E+03 -0.29718155202E+03  0.54037953886E+03  0.80295251494E+02 0.  0.
        254    2    1    2    0    0 -0.19841475758E+03  0.39733792636E+03 -0.30177518529E+04  0.31882540276E+04  0.92784247308E+03 0.  0.
         23    2    4    4    0    0 -0.35157984200E+03  0.80529973211E+02 -0.40363178554E+03  0.54872813457E+03  0.89947126020E+02 0.  0.
         23    2    4    4    0    0  0.15316508442E+03  0.31680795315E+03 -0.26141200674E+04  0.26395258930E+04  0.98216042268E+02 0.  0.
          3    1    3    3  502    0  0.18805136773E+02 -0.52335967890E+02 -0.90853554412E+01  0.56349182669E+02  0.00000000000E+00 0. -1.
         -2    1    3    3    0  502  0.17960962081E+03 -0.34500195847E+03 -0.28809619658E+03  0.48403035619E+03  0.00000000000E+00 0.  1.
         13    1    5    5    0    0 -0.26543095489E+03  0.61316280198E+02 -0.35648855418E+03  0.44866175154E+03  0.00000000000E+00 0. -1.
        -13    1    5    5    0    0 -0.86148887107E+02  0.19213693013E+02 -0.47143231361E+02  0.10006638303E+03  0.00000000000E+00 0.  1.
          3    1    6    6  503    0  0.14343707285E+03  0.27691636972E+03 -0.20139371543E+04  0.20379400705E+04  0.00000000000E+00 0. -1.
         -3    1    6    6    0  503  0.97280115715E+01  0.39891583431E+02 -0.60018291313E+03  0.60158582252E+03  0.00000000000E+00 0.  1.
<mgrwt>
<rscale>  0 0.17070222E+04</rscale>
<asrwt>0</asrwt>
<pdfrwt beam="1">  1        1 0.54181279E+00 0.17070222E+04</pdfrwt>
<pdfrwt beam="2">  1       -2 0.31823093E-01 0.17070222E+04</pdfrwt>
<totfact> 0.18567022E+00</totfact>
</mgrwt>
</event>
<event>
12    5  0.6112970E-008  0.2348871E+04  0.7818608E-02  0.8458898E-01
          1   -1    0    0  501    0  0.00000000000E+00  0.00000000000E+00  0.13851991687E+04  0.13851991687E+04  0.00000000000E+00 0. -1.
         -2   -1    0    0    0  501 -0.00000000000E+00 -0.00000000000E+00 -0.99574016545E+03  0.99574016545E+03  0.00000000000E+00 0.  1.
        -24    2    1    2    0    0  0.84877021621E+03 -0.27361965971E+03 -0.29398129748E+03  0.94251612923E+03  0.81443553994E+02 0.  0.
        254    2    1    2    0    0 -0.84877021621E+03  0.27361965971E+03  0.68344030074E+03  0.14384232049E+04  0.89816038306E+03 0.  0.
         23    2    4    4    0    0 -0.55810786566E+03  0.51729687683E+03  0.15578877135E+03  0.78212925920E+03  0.91518240363E+02 0.  0.
         23    2    4    4    0    0 -0.29066235055E+03 -0.24367721712E+03  0.52765152939E+03  0.65629394573E+03  0.91882634752E+02 0.  0.
          3    1    3    3  502    0  0.35128002694E+02  0.27445433468E+01 -0.33176527158E+01  0.35390901529E+02  0.00000000000E+00 0. -1.
         -4    1    3    3    0  502  0.81364221351E+03 -0.27636420305E+03 -0.29066364477E+03  0.90712522770E+03  0.00000000000E+00 0.  1.
         13    1    5    5    0    0 -0.22130898869E+03  0.21160352960E+03  0.17343239037E+02  0.30668307771E+03  0.00000000000E+00 0.  1.
        -13    1    5    5    0    0 -0.33679887697E+03  0.30569334723E+03  0.13844553231E+03  0.47544618148E+03  0.00000000000E+00 0. -1.
          3    1    6    6  503    0 -0.17759152871E+01 -0.22174979568E+02  0.12549982555E+02  0.25541841282E+02  0.00000000000E+00 0. -1.
         -3    1    6    6    0  503 -0.28888643526E+03 -0.22150223756E+03  0.51510154683E+03  0.63075210445E+03  0.00000000000E+00 0.  1.
<mgrwt>
<rscale>  0 0.23488707E+04</rscale>
<asrwt>0</asrwt>
<pdfrwt beam="1">  1        1 0.21310756E+00 0.23488707E+04</pdfrwt>
<pdfrwt beam="2">  1       -2 0.15319080E+00 0.23488707E+04</pdfrwt>
<totfact> 0.17613706E+00</totfact>
</mgrwt>
</event>
<event>
12    5  0.5264288E-008  0.1333299E+04  0.7818608E-02  0.9003568E-01
          1   -1    0    0  501    0  0.00000000000E+00  0.00000000000E+00  0.13103496280E+04  0.13103496280E+04  0.00000000000E+00 0. -1.
         -2   -1    0    0    0  501 -0.00000000000E+00 -0.00000000000E+00 -0.33916258892E+03  0.33916258892E+03  0.00000000000E+00 0.  1.
        -24    2    1    2    0    0 -0.19705526496E+03  0.67181895895E+02 -0.44274922022E+02  0.22697425675E+03  0.78821697026E+02 0.  0.
        254    2    1    2    0    0  0.19705526496E+03 -0.67181895895E+02  0.10154619611E+04  0.14225379602E+04  0.97422126291E+03 0.  0.
         23    2    4    4    0    0 -0.22831591302E+03 -0.38489605596E+03  0.49608277498E+03  0.67434632410E+03  0.91497077345E+02 0.  0.
         23    2    4    4    0    0  0.42537117798E+03  0.31771416006E+03  0.51937918612E+03  0.74819163608E+03  0.90294289751E+02 0.  0.
          1    1    3    3  502    0 -0.12789385284E+03  0.50844560435E+02  0.93497945103E+01  0.13794718402E+03  0.00000000000E+00 0. -1.
         -2    1    3    3    0  502 -0.69161412119E+02  0.16337335459E+02 -0.53624716533E+02  0.89027072733E+02  0.00000000000E+00 0.  1.
         13    1    5    5    0    0 -0.19139646114E+03 -0.25782222681E+03  0.38690706623E+03  0.50279417645E+03  0.00000000000E+00 0. -1.
        -13    1    5    5    0    0 -0.36919451875E+02 -0.12707382914E+03  0.10917570875E+03  0.17155214764E+03  0.00000000000E+00 0.  1.
          3    1    6    6  503    0  0.38538067533E+03  0.30919191288E+03  0.45350893619E+03  0.67066255234E+03  0.00000000000E+00 0. -1.
         -3    1    6    6    0  503  0.39990502646E+02  0.85222471840E+01  0.65870249931E+02  0.77529083735E+02  0.00000000000E+00 0.  1.
<mgrwt>
<rscale>  0 0.13332990E+04</rscale>
<asrwt>0</asrwt>
<pdfrwt beam="1">  1        1 0.20159225E+00 0.13332990E+04</pdfrwt>
<pdfrwt beam="2">  1       -2 0.52178860E-01 0.13332990E+04</pdfrwt>
<totfact> 0.26505710E+01</totfact>
</mgrwt>
</event>
<event>
12    5  0.5264288E-008  0.2318446E+04  0.7818608E-02  0.8470683E-01
          1   -1    0    0  501    0  0.00000000000E+00  0.00000000000E+00  0.98646900829E+03  0.98646900829E+03  0.00000000000E+00 0. -1.
         -2   -1    0    0    0  501 -0.00000000000E+00 -0.00000000000E+00 -0.13622301359E+04  0.13622301359E+04  0.00000000000E+00 0.  1.
        -24    2    1    2    0    0  0.44536531471E+03 -0.87122685138E+03 -0.26027771355E+03  0.10156048467E+04  0.79512428922E+02 0.  0.
        254    2    1    2    0    0 -0.44536531471E+03  0.87122685138E+03 -0.11548341404E+03  0.13330942975E+04  0.89800751497E+03 0.  0.
         23    2    4    4    0    0 -0.53228850359E+02  0.40157087937E+03 -0.46338503139E+03  0.62305223686E+03  0.96829338879E+02 0.  0.
         23    2    4    4    0    0 -0.39213646435E+03  0.46965597201E+03  0.34790161735E+03  0.71004206062E+03  0.93682729312E+02 0.  0.
          3    1    3    3  502    0  0.93457244607E+02 -0.12503897028E+03 -0.54230454277E+02  0.16525720205E+03  0.00000000000E+00 0. -1.
         -4    1    3    3    0  502  0.35190807011E+03 -0.74618788110E+03 -0.20604725927E+03  0.85034764465E+03  0.00000000000E+00 0.  1.
         13    1    5    5    0    0 -0.38727857559E+02  0.45064707129E+02 -0.74294875731E+02  0.95133607835E+02  0.00000000000E+00 0.  1.
        -13    1    5    5    0    0 -0.14500992800E+02  0.35650617224E+03 -0.38909015566E+03  0.52791862903E+03  0.00000000000E+00 0. -1.
          1    1    6    6  503    0 -0.38504409921E+03  0.45379056619E+03  0.31627316185E+03  0.67395366993E+03  0.00000000000E+00 0. -1.
         -1    1    6    6    0  503 -0.70923651382E+01  0.15865405818E+02  0.31628455504E+02  0.36088390690E+02  0.00000000000E+00 0.  1.
<mgrwt>
<rscale>  0 0.23184459E+04</rscale>
<asrwt>0</asrwt>
<pdfrwt beam="1">  1        1 0.15176446E+00 0.23184459E+04</pdfrwt>
<pdfrwt beam="2">  1       -2 0.20957387E+00 0.23184459E+04</pdfrwt>
<totfact> 0.14137126E+00</totfact>
</mgrwt>
</event>
<event>
12    5  0.5264288E-008  0.1582688E+04  0.7818608E-02  0.8831255E-01
          1   -1    0    0  501    0  0.00000000000E+00  0.00000000000E+00  0.12965228226E+04  0.12965228226E+04  0.00000000000E+00 0. -1.
         -2   -1    0    0    0  501 -0.00000000000E+00 -0.00000000000E+00 -0.48300366455E+03  0.48300366455E+03  0.00000000000E+00 0.  1.
        -24    2    1    2    0    0  0.13831617790E+03  0.35794807310E+03 -0.14221384169E+03  0.41710673122E+03  0.80591937284E+02 0.  0.
        254    2    1    2    0    0 -0.13831617790E+03 -0.35794807310E+03  0.95573299970E+03  0.13624197559E+04  0.89191021769E+03 0.  0.
         23    2    4    4    0    0 -0.25863993770E+03 -0.59765598670E+03  0.80910388141E+03  0.10435958248E+04  0.10176374052E+03 0.  0.
         23    2    4    4    0    0  0.12032375980E+03  0.23970791360E+03  0.14662911829E+03  0.31882393106E+03  0.90614069931E+02 0.  0.
          3    1    3    3  502    0  0.92912276040E+01  0.70755116453E+02 -0.55885573927E+02  0.90641109811E+02  0.00000000000E+00 0. -1.
         -4    1    3    3    0  502  0.12902495029E+03  0.28719295665E+03 -0.86328267764E+02  0.32646562141E+03  0.00000000000E+00 0.  1.
         13    1    5    5    0    0 -0.52730988888E+02 -0.84004168121E+02  0.18173524601E+03  0.20703854012E+03  0.00000000000E+00 0. -1.
        -13    1    5    5    0    0 -0.20590894881E+03 -0.51365181858E+03  0.62736863540E+03  0.83655728472E+03  0.00000000000E+00 0.  1.
          1    1    6    6  503    0  0.21239397069E+02  0.14190929172E+03  0.82836747673E+02  0.16568429566E+03  0.00000000000E+00 0. -1.
         -1    1    6    6    0  503  0.99084362733E+02  0.97798621878E+02  0.63792370618E+02  0.15313963539E+03  0.00000000000E+00 0.  1.
<mgrwt>
<rscale>  0 0.15826879E+04</rscale>
<asrwt>0</asrwt>
<pdfrwt beam="1">  1        1 0.19946505E+00 0.15826879E+04</pdfrwt>
<pdfrwt beam="2">  1       -2 0.74308257E-01 0.15826879E+04</pdfrwt>
<totfact> 0.12499272E+01</totfact>
</mgrwt>
</event>
<event>
12    5  0.5264288E-008  0.3214743E+04  0.7818608E-02  0.8184935E-01
          1   -1    0    0  501    0  0.00000000000E+00  0.00000000000E+00  0.23747776449E+04  0.23747776449E+04  0.00000000000E+00 0. -1.
         -2   -1    0    0    0  501 -0.00000000000E+00 -0.00000000000E+00 -0.10879512874E+04  0.10879512874E+04  0.00000000000E+00 0.  1.
        -24    2    1    2    0    0 -0.61161738085E+03  0.22324904236E+03  0.20260656049E+04  0.21296350248E+04  0.80545314942E+02 0.  0.
        254    2    1    2    0    0  0.61161738085E+03 -0.22324904236E+03 -0.73923924748E+03  0.13330939075E+04  0.89819193146E+03 0.  0.
         23    2    4    4    0    0  0.29185413900E+03  0.27346261533E+03 -0.39289708897E+02  0.41201088368E+03  0.90822060187E+02 0.  0.
         23    2    4    4    0    0  0.31976324185E+03 -0.49671165769E+03 -0.69994953859E+03  0.92108302382E+03  0.97434996186E+02 0.  0.
          1    1    3    3  502    0 -0.56504538757E+03  0.18638191039E+03  0.18817118219E+04  0.19735384180E+04  0.00000000000E+00 0. -1.
         -2    1    3    3    0  502 -0.46571993280E+02  0.36867131969E+02  0.14435378305E+03  0.15609660682E+03  0.00000000000E+00 0.  1.
         13    1    5    5    0    0  0.44842542738E+02  0.87897909663E+02 -0.29170119814E+02  0.10289699729E+03  0.00000000000E+00 0. -1.
        -13    1    5    5    0    0  0.24701159626E+03  0.18556470566E+03 -0.10119589084E+02  0.30911388639E+03  0.00000000000E+00 0.  1.
          2    1    6    6  503    0  0.17417453574E+03 -0.30117901656E+03 -0.34087501889E+03  0.48707427300E+03  0.00000000000E+00 0. -1.
         -2    1    6    6    0  503  0.14558870611E+03 -0.19553264113E+03 -0.35907451969E+03  0.43400875082E+03  0.00000000000E+00 0.  1.
<mgrwt>
<rscale>  0 0.32147425E+04</rscale>
<asrwt>0</asrwt>
<pdfrwt beam="1">  1        1 0.36535041E+00 0.32147425E+04</pdfrwt>
<pdfrwt beam="2">  1       -2 0.16737712E+00 0.32147425E+04</pdfrwt>
<totfact> 0.27047118E-01</totfact>
</mgrwt>
</event>
<event>
12    5  0.5264288E-008  0.2091201E+04  0.7818608E-02  0.8565129E-01
          1   -1    0    0  501    0  0.00000000000E+00  0.00000000000E+00  0.10113723407E+04  0.10113723407E+04  0.00000000000E+00 0. -1.
         -2   -1    0    0    0  501 -0.00000000000E+00 -0.00000000000E+00 -0.10809867629E+04  0.10809867629E+04  0.00000000000E+00 0.  1.
        -24    2    1    2    0    0  0.77835591907E+03 -0.23331051882E+03 -0.27296588656E+03  0.86083436917E+03  0.79080345077E+02 0.  0.
        254    2    1    2    0    0 -0.77835591907E+03  0.23331051882E+03  0.20335146437E+03  0.12315247345E+04  0.90278990837E+03 0.  0.
         23    2    4    4    0    0 -0.73360753693E+02 -0.28421607986E+03 -0.58021911100E+02  0.31411127066E+03  0.95596903481E+02 0.  0.
         23    2    4    4    0    0 -0.70499516537E+03  0.51752659868E+03  0.26137337547E+03  0.91741346383E+03  0.92083976137E+02 0.  0.
          3    1    3    3  502    0  0.65712776082E+03 -0.21092033172E+03 -0.25735968451E+03  0.73657198398E+03  0.00000000000E+00 0. -1.
         -4    1    3    3    0  502  0.12122815825E+03 -0.22390187100E+02 -0.15606202051E+02  0.12426238519E+03  0.00000000000E+00 0.  1.
         13    1    5    5    0    0 -0.76323445362E+02 -0.28341185492E+03 -0.70004312335E+02  0.30174186247E+03  0.00000000000E+00 0. -1.
        -13    1    5    5    0    0  0.29626916685E+01 -0.80422494098E+00  0.11982401235E+02  0.12369408192E+02  0.00000000000E+00 0.  1.
          2    1    6    6  503    0 -0.32278332803E+03  0.27818682224E+03  0.93797224802E+02  0.43631972716E+03  0.00000000000E+00 0. -1.
         -2    1    6    6    0  503 -0.38221183734E+03  0.23933977644E+03  0.16757615067E+03  0.48109373667E+03  0.00000000000E+00 0.  1.
<mgrwt>
<rscale>  0 0.20912007E+04</rscale>
<asrwt>0</asrwt>
<pdfrwt beam="1">  1        1 0.15559575E+00 0.20912007E+04</pdfrwt>
<pdfrwt beam="2">  1       -2 0.16630566E+00 0.20912007E+04</pdfrwt>
<totfact> 0.27096030E+00</totfact>
</mgrwt>
</event>
<event>
12    5  0.5264288E-008  0.2065663E+04  0.7818608E-02  0.8576522E-01
          1   -1    0    0  501    0  0.00000000000E+00  0.00000000000E+00  0.25717267940E+04  0.25717267940E+04  0.00000000000E+00 0. -1.
         -2   -1    0    0    0  501 -0.00000000000E+00 -0.00000000000E+00 -0.41479561389E+03  0.41479561389E+03  0.00000000000E+00 0.  1.
        -24    2    1    2    0    0  0.44255588438E+03 -0.26049260290E+03 -0.75977974820E+02  0.52514318540E+03  0.79313337774E+02 0.  0.
        254    2    1    2    0    0 -0.44255588438E+03  0.26049260290E+03  0.22329091550E+04  0.24613792225E+04  0.89932879181E+03 0.  0.
         23    2    4    4    0    0  0.10899296503E+03  0.39311378819E+03  0.13086148144E+04  0.13738199020E+04  0.92143766632E+02 0.  0.
         23    2    4    4    0    0 -0.55154884940E+03 -0.13262118529E+03  0.92429434060E+03  0.10875593206E+04  0.81674571515E+02 0.  0.
          1    1    3    3  502    0  0.39109544114E+02 -0.29919784108E+02 -0.31225161592E+02  0.58307466403E+02  0.00000000000E+00 0. -1.
         -2    1    3    3    0  502  0.40344634026E+03 -0.23057281879E+03 -0.44752813229E+02  0.46683571899E+03  0.00000000000E+00 0.  1.
         13    1    5    5    0    0  0.41389785293E+02  0.65570815938E+02  0.35159564133E+03  0.36004463783E+03  0.00000000000E+00 0.  1.
        -13    1    5    5    0    0  0.67603179734E+02  0.32754297225E+03  0.95701917304E+03  0.10137752641E+04  0.00000000000E+00 0. -1.
          1    1    6    6  503    0 -0.53603153464E+03 -0.11547320075E+03  0.86785092518E+03  0.10265617831E+04  0.00000000000E+00 0. -1.
         -1    1    6    6    0  503 -0.15517314763E+02 -0.17147984544E+02  0.56443415420E+02  0.60997537456E+02  0.00000000000E+00 0.  1.
<mgrwt>
<rscale>  0 0.20656631E+04</rscale>
<asrwt>0</asrwt>
<pdfrwt beam="1">  1        1 0.39565027E+00 0.20656631E+04</pdfrwt>
<pdfrwt beam="2">  1       -2 0.63814711E-01 0.20656631E+04</pdfrwt>
<totfact> 0.22236707E+00</totfact>
</mgrwt>
</event>
<event>
12    5  0.5264288E-008  0.3139523E+04  0.7818608E-02  0.8204974E-01
         -2   -1    0    0    0  501 -0.00000000000E+00  0.00000000000E+00  0.27470730641E+04  0.27470730641E+04  0.00000000000E+00 0.  1.
          1   -1    0    0  501    0  0.00000000000E+00 -0.00000000000E+00 -0.89700954361E+03  0.89700954361E+03  0.00000000000E+00 0. -1.
        -24    2    1    2    0    0  0.10640062618E+04  0.13110738448E+03  0.19691859688E+04  0.22435102136E+04  0.79663211300E+02 0.  0.
        254    2    1    2    0    0 -0.10640062618E+04 -0.13110738448E+03 -0.11912244829E+03  0.14005723942E+04  0.89337248800E+03 0.  0.
         23    2    4    4    0    0 -0.21376237008E+02  0.12730730432E+03  0.22151850155E+03  0.27046922517E+03  0.86133977004E+02 0.  0.
         23    2    4    4    0    0 -0.10426300248E+04 -0.25841468880E+03 -0.34064094984E+03  0.11301031690E+04  0.85096392395E+02 0.  0.
          3    1    3    3  502    0  0.35417011365E+03  0.59288375006E+01  0.64812345955E+03  0.73860384466E+03  0.00000000000E+00 0. -1.
         -4    1    3    3    0  502  0.70983614811E+03  0.12517854698E+03  0.13210625093E+04  0.15049063689E+04  0.00000000000E+00 0.  1.
         13    1    5    5    0    0 -0.78484518063E+01  0.11271593595E+03  0.11176732055E+03  0.15892896009E+03  0.00000000000E+00 0. -1.
        -13    1    5    5    0    0 -0.13527785201E+02  0.14591368367E+02  0.10975118100E+03  0.11154026508E+03  0.00000000000E+00 0.  1.
          2    1    6    6  503    0 -0.26471095141E+03 -0.85594339538E+02 -0.55128430742E+02  0.28361491962E+03  0.00000000000E+00 0. -1.
         -2    1    6    6    0  503 -0.77791907334E+03 -0.17282034926E+03 -0.28551251910E+03  0.84648824939E+03  0.00000000000E+00 0.  1.
<mgrwt>
<rscale>  0 0.31395227E+04</rscale>
<asrwt>0</asrwt>
<pdfrwt beam="1">  1        1 0.13800147E+00 0.31395227E+04</pdfrwt>
<pdfrwt beam="2">  1       -2 0.42262662E+00 0.31395227E+04</pdfrwt>
<totfact> 0.71057770E-02</totfact>
</mgrwt>
</event>
<event>
12    5  0.5264288E-008  0.4227224E+04  0.7818608E-02  0.7960214E-01
         -2   -1    0    0    0  501 -0.00000000000E+00  0.00000000000E+00  0.14888846758E+04  0.14888846758E+04  0.00000000000E+00 0.  1.
          1   -1    0    0  501    0  0.00000000000E+00 -0.00000000000E+00 -0.30004717709E+04  0.30004717709E+04  0.00000000000E+00 0. -1.
        -24    2    1    2    0    0 -0.71788868650E+03 -0.11996732883E+04 -0.22645369071E+04  0.26625400282E+04  0.80073923877E+02 0.  0.
        254    2    1    2    0    0  0.71788868650E+03  0.11996732883E+04  0.75294981204E+03  0.18268164185E+04  0.90318582945E+03 0.  0.
         23    2    4    4    0    0  0.92280003987E+03  0.93954298873E+03  0.61820021349E+03  0.14577783301E+04  0.92979645329E+02 0.  0.
         23    2    4    4    0    0 -0.20491135337E+03  0.26013029959E+03  0.13474959854E+03  0.36903808841E+03  0.91516232897E+02 0.  0.
          1    1    3    3  502    0 -0.71010425599E+03 -0.11684510934E+04 -0.22252809730E+04  0.26117812735E+04  0.00000000000E+00 0. -1.
         -2    1    3    3    0  502 -0.77844305171E+01 -0.31222194879E+02 -0.39255934121E+02  0.50758754666E+02  0.00000000000E+00 0.  1.
         13    1    5    5    0    0  0.73686171735E+02  0.62707184338E+02  0.71719863976E+02  0.12043912056E+03  0.00000000000E+00 0.  1.
        -13    1    5    5    0    0  0.84911386814E+03  0.87683580440E+03  0.54648034952E+03  0.13373392095E+04  0.00000000000E+00 0. -1.
          3    1    6    6  503    0 -0.13511304626E+03  0.20208085246E+03  0.57405397411E+02  0.24977507052E+03  0.00000000000E+00 0. -1.
         -3    1    6    6    0  503 -0.69798307110E+02  0.58049447132E+02  0.77344201132E+02  0.11926301789E+03  0.00000000000E+00 0.  1.
<mgrwt>
<rscale>  0 0.42272244E+04</rscale>
<asrwt>0</asrwt>
<pdfrwt beam="1">  1        1 0.46161104E+00 0.42272244E+04</pdfrwt>
<pdfrwt beam="2">  1       -2 0.22905918E+00 0.42272244E+04</pdfrwt>
<totfact> 0.35000252E-02</totfact>
</mgrwt>
</event>
<event>
12    5  0.5264288E-008  0.1828052E+04  0.7818608E-02  0.8691523E-01
         -2   -1    0    0    0  501 -0.00000000000E+00  0.00000000000E+00  0.60690592691E+03  0.60690592691E+03  0.00000000000E+00 0.  1.
          1   -1    0    0  501    0  0.00000000000E+00 -0.00000000000E+00 -0.13765611505E+04  0.13765611505E+04  0.00000000000E+00 0. -1.
        -24    2    1    2    0    0  0.13704160161E+03  0.37038614021E+03  0.32045682062E+03  0.51470163135E+03  0.79113222683E+02 0.  0.
        254    2    1    2    0    0 -0.13704160161E+03 -0.37038614021E+03 -0.10901120442E+04  0.14687654460E+04  0.90164370633E+03 0.  0.
         23    2    4    4    0    0  0.32708078760E+03 -0.30258712250E+03 -0.76865979800E+03  0.89320780902E+03  0.91877618034E+02 0.  0.
         23    2    4    4    0    0 -0.46412238922E+03 -0.67799017711E+02 -0.32145224616E+03  0.57555763701E+03  0.89043517345E+02 0.  0.
          1    1    3    3  502    0  0.29668811170E+01  0.57235208422E+02  0.77056510238E+02  0.96033209031E+02  0.00000000000E+00 0. -1.
         -2    1    3    3    0  502  0.13407472050E+03  0.31315093179E+03  0.24340031038E+03  0.41866842232E+03  0.00000000000E+00 0.  1.
         13    1    5    5    0    0  0.31805628178E+02 -0.47417785376E+02 -0.52227502866E+02  0.77380594528E+02  0.00000000000E+00 0.  1.
        -13    1    5    5    0    0  0.29527515943E+03 -0.25516933712E+03 -0.71643229514E+03  0.81582721449E+03  0.00000000000E+00 0. -1.
          3    1    6    6  503    0 -0.42835154176E+03 -0.50278207995E+02 -0.26409435683E+03  0.50572598395E+03  0.00000000000E+00 0. -1.
         -3    1    6    6    0  503 -0.35770847455E+02 -0.17520809716E+02 -0.57357889332E+02  0.69831653062E+02  0.00000000000E+00 0.  1.
<mgrwt>
<rscale>  0 0.18280516E+04</rscale>
<asrwt>0</asrwt>
<pdfrwt beam="1">  1        1 0.21177864E+00 0.18280516E+04</pdfrwt>
<pdfrwt beam="2">  1       -2 0.93370142E-01 0.18280516E+04</pdfrwt>
<totfact> 0.63969681E+00</totfact>
</mgrwt>
</event>
<event>
12    5  0.5264288E-008  0.1327612E+04  0.7818608E-02  0.9007951E-01
         -2   -1    0    0    0  501 -0.00000000000E+00  0.00000000000E+00  0.19270553664E+03  0.19270553664E+03  0.00000000000E+00 0.  1.
          1   -1    0    0  501    0  0.00000000000E+00 -0.00000000000E+00 -0.22865886433E+04  0.22865886433E+04  0.00000000000E+00 0. -1.
        -24    2    1    2    0    0 -0.18128609156E+03  0.57573608167E-01 -0.11655659688E+04  0.11822544940E+04  0.79479623425E+02 0.  0.
        254    2    1    2    0    0  0.18128609156E+03 -0.57573608167E-01 -0.92831713786E+03  0.12970396860E+04  0.88751033136E+03 0.  0.
         23    2    4    4    0    0  0.11487576652E+03 -0.26215999218E+03  0.24990139888E+02  0.30190954628E+03  0.92739224765E+02 0.  0.
         23    2    4    4    0    0  0.66410325037E+02  0.26210241857E+03 -0.95330727775E+03  0.99513013971E+03  0.91549003615E+02 0.  0.
          3    1    3    3  502    0 -0.14198358774E+03 -0.31893474768E+02 -0.92883884024E+03  0.94016919970E+03  0.00000000000E+00 0. -1.
         -4    1    3    3    0  502 -0.39302503816E+02  0.31951048376E+02 -0.23672712856E+03  0.24208529426E+03  0.00000000000E+00 0.  1.
         13    1    5    5    0    0  0.84497366065E+02 -0.23815597790E+03 -0.52908661613E+01  0.25275693452E+03  0.00000000000E+00 0. -1.
        -13    1    5    5    0    0  0.30378400454E+02 -0.24004014278E+02  0.30281006050E+02  0.49152611761E+02  0.00000000000E+00 0.  1.
          2    1    6    6  503    0  0.51326130283E+02  0.24357293956E+03 -0.74562768045E+03  0.78608064879E+03  0.00000000000E+00 0. -1.
         -2    1    6    6    0  503  0.15084194754E+02  0.18529479005E+02 -0.20767959730E+03  0.20904949093E+03  0.00000000000E+00 0.  1.
<mgrwt>
<rscale>  0 0.13276118E+04</rscale>
<asrwt>0</asrwt>
<pdfrwt beam="1">  1        1 0.35178287E+00 0.13276118E+04</pdfrwt>
<pdfrwt beam="2">  1       -2 0.29647006E-01 0.13276118E+04</pdfrwt>
<totfact> 0.17202400E+01</totfact>
</mgrwt>
</event>
<event>
12    5  0.5264288E-008  0.1583517E+04  0.7818608E-02  0.8830739E-01
         -2   -1    0    0    0  501 -0.00000000000E+00  0.00000000000E+00  0.28099099550E+03  0.28099099550E+03  0.00000000000E+00 0.  1.
          1   -1    0    0  501    0  0.00000000000E+00 -0.00000000000E+00 -0.22309664858E+04  0.22309664858E+04  0.00000000000E+00 0. -1.
        -24    2    1    2    0    0 -0.25217828819E+02  0.53054884021E+03 -0.72174136893E+03  0.89956218029E+03  0.78635245507E+02 0.  0.
        254    2    1    2    0    0  0.25217828819E+02 -0.53054884021E+03 -0.12282341214E+04  0.16123953011E+04  0.89952295087E+03 0.  0.
         23    2    4    4    0    0  0.67718344372E+02 -0.61535976272E+02  0.12301962315E+03  0.17847077152E+03  0.91353916542E+02 0.  0.
         23    2    4    4    0    0 -0.42500515553E+02 -0.46901286394E+03 -0.13512537446E+04  0.14339245295E+04  0.92051691230E+02 0.  0.
          3    1    3    3  502    0  0.23477284039E+01 -0.10722170053E+01 -0.12523405730E+02  0.12786601153E+02  0.00000000000E+00 0. -1.
         -4    1    3    3    0  502 -0.27565557223E+02  0.53162105722E+03 -0.70921796320E+03  0.88677557913E+03  0.00000000000E+00 0.  1.
         13    1    5    5    0    0  0.17566131506E+02 -0.27532121434E+02  0.11228021078E+03  0.11693345295E+03  0.00000000000E+00 0.  1.
        -13    1    5    5    0    0  0.50152212866E+02 -0.34003854838E+02  0.10739412376E+02  0.61537318575E+02  0.00000000000E+00 0. -1.
          2    1    6    6  503    0 -0.19548608930E+01 -0.77334502335E+02 -0.34047672684E+03  0.34915447620E+03  0.00000000000E+00 0. -1.
         -2    1    6    6    0  503 -0.40545654660E+02 -0.39167836161E+03 -0.10107770177E+04  0.10847700533E+04  0.00000000000E+00 0.  1.
<mgrwt>
<rscale>  0 0.15835170E+04</rscale>
<asrwt>0</asrwt>
<pdfrwt beam="1">  1        1 0.34322561E+00 0.15835170E+04</pdfrwt>
<pdfrwt beam="2">  1       -2 0.43229384E-01 0.15835170E+04</pdfrwt>
<totfact> 0.88914161E+00</totfact>
</mgrwt>
</event>
<event>
12    5  0.5264288E-008  0.1469096E+04  0.7818608E-02  0.8905268E-01
         -2   -1    0    0    0  501 -0.00000000000E+00  0.00000000000E+00  0.51010248885E+03  0.51010248885E+03  0.00000000000E+00 0.  1.
          1   -1    0    0  501    0  0.00000000000E+00 -0.00000000000E+00 -0.10577496673E+04  0.10577496673E+04  0.00000000000E+00 0. -1.
        -24    2    1    2    0    0 -0.18408774250E+03 -0.28666383241E+03 -0.49016425396E+03  0.60208524709E+03  0.78620602587E+02 0.  0.
        254    2    1    2    0    0  0.18408774250E+03  0.28666383241E+03 -0.57482924473E+02  0.96576690904E+03  0.90185197579E+03 0.  0.
         23    2    4    4    0    0 -0.24176007695E+03 -0.17801175678E+03 -0.95933717738E+02  0.32769517325E+03  0.89692407784E+02 0.  0.
         23    2    4    4    0    0  0.42584781945E+03  0.46467558919E+03  0.38450793264E+02  0.63807173579E+03  0.91582247116E+02 0.  0.
          3    1    3    3  502    0 -0.18658992582E+03 -0.24789814909E+03 -0.44537804791E+03  0.54279913256E+03  0.00000000000E+00 0. -1.
         -4    1    3    3    0  502  0.25021833155E+01 -0.38765683319E+02 -0.44786206047E+02  0.59286114535E+02  0.00000000000E+00 0.  1.
         13    1    5    5    0    0 -0.23289882074E+03 -0.14191325678E+03 -0.67668022989E+02  0.28099856670E+03  0.00000000000E+00 0.  1.
        -13    1    5    5    0    0 -0.88612562104E+01 -0.36098499996E+02 -0.28265694749E+02  0.46696606550E+02  0.00000000000E+00 0. -1.
          4    1    6    6  503    0  0.57961268275E+02  0.70004278164E+02 -0.26410456566E+02  0.94644702954E+02  0.00000000000E+00 0. -1.
         -4    1    6    6    0  503  0.36788655118E+03  0.39467131102E+03  0.64861249831E+02  0.54342703283E+03  0.00000000000E+00 0.  1.
<mgrwt>
<rscale>  0 0.14690960E+04</rscale>
<asrwt>0</asrwt>
<pdfrwt beam="1">  1        1 0.16273072E+00 0.14690960E+04</pdfrwt>
<pdfrwt beam="2">  1       -2 0.78477307E-01 0.14690960E+04</pdfrwt>
<totfact> 0.16753260E+01</totfact>
</mgrwt>
</event>
<event>
12    5  0.5264288E-008  0.1248946E+04  0.7818608E-02  0.9071061E-01
          1   -1    0    0  501    0  0.00000000000E+00  0.00000000000E+00  0.64423829553E+03  0.64423829553E+03  0.00000000000E+00 0. -1.
         -2   -1    0    0    0  501 -0.00000000000E+00 -0.00000000000E+00 -0.60531418751E+03  0.60531418751E+03  0.00000000000E+00 0.  1.
        -24    2    1    2    0    0 -0.16492403588E+03 -0.20713933208E+03  0.10383691990E+03  0.29388939820E+03  0.74042095662E+02 0.  0.
        254    2    1    2    0    0  0.16492403588E+03  0.20713933208E+03 -0.64912811882E+02  0.95566308484E+03  0.91595393884E+03 0.  0.
         23    2    4    4    0    0 -0.23027665368E+03  0.17690786816E+03  0.28699137557E+03  0.41824145796E+03  0.90764180472E+02 0.  0.
         23    2    4    4    0    0  0.39520068957E+03  0.30231463919E+02 -0.35190418745E+03  0.53742162688E+03  0.88813971016E+02 0.  0.
          3    1    3    3  502    0 -0.24153843508E+01  0.72499440888E+00  0.15411847739E+02  0.15616809828E+02  0.00000000000E+00 0. -1.
         -4    1    3    3    0  502 -0.16250865153E+03 -0.20786432649E+03  0.88425072164E+02  0.27827258837E+03  0.00000000000E+00 0.  1.
         13    1    5    5    0    0 -0.23778403610E+03  0.16905536273E+03  0.26699051861E+03  0.39548059436E+03  0.00000000000E+00 0.  1.
        -13    1    5    5    0    0  0.75073824209E+01  0.78525054343E+01  0.20000856962E+02  0.22760863596E+02  0.00000000000E+00 0. -1.
          1    1    6    6  503    0  0.51993777774E+02 -0.10049747077E+02 -0.87628034285E+02  0.10238663358E+03  0.00000000000E+00 0. -1.
         -1    1    6    6    0  503  0.34320691179E+03  0.40281210996E+02 -0.26427615316E+03  0.43503499330E+03  0.00000000000E+00 0.  1.
<mgrwt>
<rscale>  0 0.12489461E+04</rscale>
<asrwt>0</asrwt>
<pdfrwt beam="1">  1        1 0.99113584E-01 0.12489461E+04</pdfrwt>
<pdfrwt beam="2">  1       -2 0.93125260E-01 0.12489461E+04</pdfrwt>
<totfact> 0.26019574E+01</totfact>
</mgrwt>
</event>
<event>
12    5  0.5264288E-008  0.2451729E+04  0.7818608E-02  0.8420387E-01
          1   -1    0    0  501    0  0.00000000000E+00  0.00000000000E+00  0.33040525729E+04  0.33040525729E+04  0.00000000000E+00 0. -1.
         -2   -1    0    0    0  501 -0.00000000000E+00 -0.00000000000E+00 -0.45481843248E+03  0.45481843248E+03  0.00000000000E+00 0.  1.
        -24    2    1    2    0    0  0.41606553318E+03  0.62098153227E+03  0.87665803511E+02  0.75637062879E+03  0.75383311610E+02 0.  0.
        254    2    1    2    0    0 -0.41606553318E+03 -0.62098153227E+03  0.27615683369E+04  0.30025003766E+04  0.91105446636E+03 0.  0.
         23    2    4    4    0    0  0.28149499110E+03 -0.14845889445E+03  0.76575168522E+03  0.83420498709E+03  0.90790108031E+02 0.  0.
         23    2    4    4    0    0 -0.69756052428E+03 -0.47252263782E+03  0.19958166517E+04  0.21682953895E+04  0.91391797569E+02 0.  0.
          1    1    3    3  502    0  0.23026396272E+03  0.32760778924E+03  0.10154346816E+02  0.40056393604E+03  0.00000000000E+00 0. -1.
         -2    1    3    3    0  502  0.18580157046E+03  0.29337374303E+03  0.77511456695E+02  0.35580669274E+03  0.00000000000E+00 0.  1.
         13    1    5    5    0    0  0.56081618896E+02  0.57173873337E+01  0.16296674879E+03  0.17244128771E+03  0.00000000000E+00 0. -1.
        -13    1    5    5    0    0  0.22541337220E+03 -0.15417628178E+03  0.60278493643E+03  0.66176369938E+03  0.00000000000E+00 0.  1.
          1    1    6    6  503    0 -0.58051799482E+03 -0.42241664376E+03  0.16352671758E+04  0.17859271260E+04  0.00000000000E+00 0. -1.
         -1    1    6    6    0  503 -0.11704252945E+03 -0.50105994060E+02  0.36054947589E+03  0.38236826346E+03  0.00000000000E+00 0.  1.
<mgrwt>
<rscale>  0 0.24517292E+04</rscale>
<asrwt>0</asrwt>
<pdfrwt beam="1">  1        1 0.50831577E+00 0.24517292E+04</pdfrwt>
<pdfrwt beam="2">  1       -2 0.69972069E-01 0.24517292E+04</pdfrwt>
<totfact> 0.51784191E-01</totfact>
</mgrwt>
</event>
<event>
12    5  0.5264288E-008  0.1259801E+04  0.7818608E-02  0.9062065E-01
         -2   -1    0    0    0  501 -0.00000000000E+00  0.00000000000E+00  0.20265904706E+03  0.20265904706E+03  0.00000000000E+00 0.  1.
          1   -1    0    0  501    0  0.00000000000E+00 -0.00000000000E+00 -0.19578444713E+04  0.19578444713E+04  0.00000000000E+00 0. -1.
        -24    2    1    2    0    0 -0.16989729621E+03  0.51902402952E+02 -0.84828881550E+03  0.87035283136E+03  0.79757042706E+02 0.  0.
        254    2    1    2    0    0  0.16989729621E+03 -0.51902402952E+02 -0.90689660875E+03  0.12901506870E+04  0.90026017658E+03 0.  0.
         23    2    4    4    0    0  0.40726318476E+03 -0.38102792495E+01 -0.80476553208E+02  0.42413254268E+03  0.86799298702E+02 0.  0.
         23    2    4    4    0    0 -0.23736588855E+03 -0.48092123703E+02 -0.82642005555E+03  0.86601814434E+03  0.91443428975E+02 0.  0.
          3    1    3    3  502    0 -0.10084438975E+03 -0.99545418586E+01 -0.47942035584E+03  0.49001281763E+03  0.00000000000E+00 0. -1.
         -4    1    3    3    0  502 -0.69052906458E+02  0.61856944811E+02 -0.36886845966E+03  0.38034001373E+03  0.00000000000E+00 0.  1.
         13    1    5    5    0    0  0.29355458401E+03 -0.34302283347E+02 -0.80831360260E+02  0.30640602023E+03  0.00000000000E+00 0.  1.
        -13    1    5    5    0    0  0.11370860075E+03  0.30492004097E+02  0.35480705207E+00  0.11772652245E+03  0.00000000000E+00 0. -1.
          2    1    6    6  503    0 -0.82599402885E+02 -0.23657079039E+02 -0.45270626131E+03  0.46078767104E+03  0.00000000000E+00 0. -1.
         -2    1    6    6    0  503 -0.15476648566E+03 -0.24435044664E+02 -0.37371379423E+03  0.40523047330E+03  0.00000000000E+00 0.  1.
<mgrwt>
<rscale>  0 0.12598014E+04</rscale>
<asrwt>0</asrwt>
<pdfrwt beam="1">  1        1 0.30120685E+00 0.12598014E+04</pdfrwt>
<pdfrwt beam="2">  1       -2 0.31178314E-01 0.12598014E+04</pdfrwt>
<totfact> 0.26301863E+01</totfact>
</mgrwt>
</event>
<event>
12    5  0.5264288E-008  0.1917402E+04  0.7818608E-02  0.8646242E-01
          1   -1    0    0  501    0  0.00000000000E+00  0.00000000000E+00  0.84790636615E+03  0.84790636615E+03  0.00000000000E+00 0. -1.
         -2   -1    0    0    0  501 -0.00000000000E+00 -0.00000000000E+00 -0.10839732504E+04  0.10839732504E+04  0.00000000000E+00 0.  1.
        -24    2    1    2    0    0 -0.39075763405E+03 -0.53113759235E+03  0.25360058623E+03  0.71117761838E+03  0.81619096814E+02 0.  0.
        254    2    1    2    0    0  0.39075763405E+03  0.53113759235E+03 -0.48966747051E+03  0.12207019982E+04  0.90307279118E+03 0.  0.
         23    2    4    4    0    0  0.66845276298E+03  0.46765930776E+03 -0.34924487908E+03  0.89216821695E+03  0.91966392238E+02 0.  0.
         23    2    4    4    0    0 -0.27769512893E+03  0.63478284593E+02 -0.14042259143E+03  0.32853378125E+03  0.84094375516E+02 0.  0.
          1    1    3    3  502    0 -0.26368875169E+03 -0.40420352256E+03  0.21021045105E+03  0.52640353261E+03  0.00000000000E+00 0. -1.
         -2    1    3    3    0  502 -0.12706888237E+03 -0.12693406979E+03  0.43390135185E+02  0.18477408577E+03  0.00000000000E+00 0.  1.
         13    1    5    5    0    0  0.63058993659E+03  0.45552284932E+03 -0.31351034184E+03  0.83870940666E+03  0.00000000000E+00 0. -1.
        -13    1    5    5    0    0  0.37862826398E+02  0.12136458438E+02 -0.35734537239E+02  0.53458810293E+02  0.00000000000E+00 0.  1.
          4    1    6    6  503    0 -0.23288905222E+03  0.35993281274E+02 -0.14345104072E+03  0.27588227204E+03  0.00000000000E+00 0. -1.
         -4    1    6    6    0  503 -0.44806076708E+02  0.27485003320E+02  0.30284492874E+01  0.52651509214E+02  0.00000000000E+00 0.  1.
<mgrwt>
<rscale>  0 0.19174022E+04</rscale>
<asrwt>0</asrwt>
<pdfrwt beam="1">  1        1 0.13044713E+00 0.19174022E+04</pdfrwt>
<pdfrwt beam="2">  1       -2 0.16676512E+00 0.19174022E+04</pdfrwt>
<totfact> 0.36994979E+00</totfact>
</mgrwt>
</event>
<event>
12    5  0.5264288E-008  0.2908848E+04  0.7818608E-02  0.8270250E-01
         -2   -1    0    0    0  501 -0.00000000000E+00  0.00000000000E+00  0.75279919318E+03  0.75279919318E+03  0.00000000000E+00 0.  1.
          1   -1    0    0  501    0  0.00000000000E+00 -0.00000000000E+00 -0.28099781851E+04  0.28099781851E+04  0.00000000000E+00 0. -1.
        -24    2    1    2    0    0  0.10866288524E+04 -0.73301428115E+03 -0.10678247345E+04  0.16927527511E+04  0.84202219041E+02 0.  0.
        254    2    1    2    0    0 -0.10866288524E+04  0.73301428115E+03 -0.98935425750E+03  0.18700246272E+04  0.89448200668E+03 0.  0.
         23    2    4    4    0    0 -0.44566804161E+03 -0.15313264639E+03 -0.21985502215E+03  0.52957625357E+03  0.10022557996E+03 0.  0.
         23    2    4    4    0    0 -0.64096081079E+03  0.88614692753E+03 -0.76949923535E+03  0.13404483736E+04  0.92658680285E+02 0.  0.
          3    1    3    3  502    0  0.66421590661E+03 -0.46191810636E+03 -0.60788358733E+03  0.10119651987E+04  0.00000000000E+00 0. -1.
         -4    1    3    3    0  502  0.42241294579E+03 -0.27109617478E+03 -0.45994114713E+03  0.68078755245E+03  0.00000000000E+00 0.  1.
         13    1    5    5    0    0 -0.32446341727E+03 -0.64340731748E+02 -0.16477802605E+03  0.36955112877E+03  0.00000000000E+00 0. -1.
        -13    1    5    5    0    0 -0.12120462434E+03 -0.88791914637E+02 -0.55076996099E+02  0.16002512480E+03  0.00000000000E+00 0.  1.
          3    1    6    6  503    0 -0.50567607951E+03  0.75727595526E+03 -0.64658348127E+03  0.11168014005E+04  0.00000000000E+00 0. -1.
         -3    1    6    6    0  503 -0.13528473128E+03  0.12887097227E+03 -0.12291575408E+03  0.22364697318E+03  0.00000000000E+00 0.  1.
<mgrwt>
<rscale>  0 0.29088481E+04</rscale>
<asrwt>0</asrwt>
<pdfrwt beam="1">  1        1 0.43230434E+00 0.29088481E+04</pdfrwt>
<pdfrwt beam="2">  1       -2 0.11581526E+00 0.29088481E+04</pdfrwt>
<totfact> 0.35838056E-01</totfact>
</mgrwt>
</event>
<event>
12    5  0.5264288E-008  0.1606945E+04  0.7818608E-02  0.8816293E-01
          1   -1    0    0  501    0  0.00000000000E+00  0.00000000000E+00  0.20630796425E+04  0.20630796425E+04  0.00000000000E+00 0. -1.
         -2   -1    0    0    0  501 -0.00000000000E+00 -0.00000000000E+00 -0.31291458770E+03  0.31291458770E+03  0.00000000000E+00 0.  1.
        -24    2    1    2    0    0  0.22568237185E+03 -0.50629992711E+03  0.63204724988E+03  0.84447230604E+03  0.79859879944E+02 0.  0.
        254    2    1    2    0    0 -0.22568237185E+03  0.50629992711E+03  0.11181178049E+04  0.15315219241E+04  0.88774986868E+03 0.  0.
         23    2    4    4    0    0  0.25671256747E+03  0.18535604113E+03  0.76091333450E+02  0.33584352879E+03  0.82114435547E+02 0.  0.
         23    2    4    4    0    0 -0.48239493932E+03  0.32094388598E+03  0.10420264714E+04  0.11956783953E+04  0.90098848369E+02 0.  0.
          3    1    3    3  502    0  0.15990037592E+03 -0.33511672565E+03  0.47588345030E+03  0.60360285644E+03  0.00000000000E+00 0. -1.
         -4    1    3    3    0  502  0.65781995929E+02 -0.17118320146E+03  0.15616379958E+03  0.24086944960E+03  0.00000000000E+00 0.  1.
         13    1    5    5    0    0  0.46374655882E+02  0.54877977974E+00  0.30355568163E+01  0.46477139247E+02  0.00000000000E+00 0. -1.
        -13    1    5    5    0    0  0.21033791159E+03  0.18480726135E+03  0.73055776634E+02  0.28936638955E+03  0.00000000000E+00 0.  1.
          1    1    6    6  503    0 -0.25319628711E+02  0.18887583462E+02  0.24287554948E+02  0.39846075496E+02  0.00000000000E+00 0. -1.
         -1    1    6    6    0  503 -0.45707531061E+03  0.30205630252E+03  0.10177389165E+04  0.11558323198E+04  0.00000000000E+00 0.  1.
<mgrwt>
<rscale>  0 0.16069446E+04</rscale>
<asrwt>0</asrwt>
<pdfrwt beam="1">  1        1 0.31739686E+00 0.16069446E+04</pdfrwt>
<pdfrwt beam="2">  1       -2 0.48140707E-01 0.16069446E+04</pdfrwt>
<totfact> 0.92980268E+00</totfact>
</mgrwt>
</event>
<event>
12    5  0.5264288E-008  0.2028443E+04  0.7818608E-02  0.8593437E-01
         -2   -1    0    0    0  501 -0.00000000000E+00  0.00000000000E+00  0.53314330801E+03  0.53314330801E+03  0.00000000000E+00 0.  1.
          1   -1    0    0  501    0  0.00000000000E+00 -0.00000000000E+00 -0.19293980835E+04  0.19293980835E+04  0.00000000000E+00 0. -1.
        -24    2    1    2    0    0  0.71458708451E+03  0.19594849365E+03 -0.14844954936E+03  0.75895312290E+03  0.70299790567E+02 0.  0.
        254    2    1    2    0    0 -0.71458708451E+03 -0.19594849365E+03 -0.12478052261E+04  0.17035882686E+04  0.89228055735E+03 0.  0.
         23    2    4    4    0    0 -0.19719687897E+03 -0.11031008401E+03  0.90037625327E+02  0.26376737128E+03  0.10203689758E+03 0.  0.
         23    2    4    4    0    0 -0.51739020553E+03 -0.85638409644E+02 -0.13378428514E+04  0.14398208973E+04  0.90742267831E+02 0.  0.
          3    1    3    3  502    0  0.47016718565E+03  0.14221579035E+03 -0.66872404724E+02  0.49573625246E+03  0.00000000000E+00 0. -1.
         -4    1    3    3    0  502  0.24441989885E+03  0.53732703305E+02 -0.81577144637E+02  0.26321687045E+03  0.00000000000E+00 0.  1.
         13    1    5    5    0    0 -0.18585628498E+01  0.12432650663E+02 -0.59335581087E+01  0.13900797466E+02  0.00000000000E+00 0. -1.
        -13    1    5    5    0    0 -0.19533831612E+03 -0.12274273467E+03  0.95971183435E+02  0.24986657382E+03  0.00000000000E+00 0.  1.
          2    1    6    6  503    0 -0.32029277727E+03 -0.81130113738E+02 -0.74285779648E+03  0.81302353245E+03  0.00000000000E+00 0. -1.
         -2    1    6    6    0  503 -0.19709742826E+03 -0.45082959059E+01 -0.59498505494E+03  0.62679736483E+03  0.00000000000E+00 0.  1.
<mgrwt>
<rscale>  0 0.20284434E+04</rscale>
<asrwt>0</asrwt>
<pdfrwt beam="1">  1        1 0.29683047E+00 0.20284434E+04</pdfrwt>
<pdfrwt beam="2">  1       -2 0.82022048E-01 0.20284434E+04</pdfrwt>
<totfact> 0.35331691E+00</totfact>
</mgrwt>
</event>
<event>
12    5  0.5264288E-008  0.3348195E+04  0.7818608E-02  0.8150739E-01
         -2   -1    0    0    0  501 -0.00000000000E+00  0.00000000000E+00  0.71812522047E+03  0.71812522047E+03  0.00000000000E+00 0.  1.
          1   -1    0    0  501    0  0.00000000000E+00 -0.00000000000E+00 -0.39026646337E+04  0.39026646337E+04  0.00000000000E+00 0. -1.
        -24    2    1    2    0    0 -0.95474686156E+03 -0.92400167929E+02 -0.31577350367E+04  0.33012438955E+04  0.82712365718E+02 0.  0.
        254    2    1    2    0    0  0.95474686156E+03  0.92400167929E+02 -0.26804376624E+02  0.13195459587E+04  0.90576139339E+03 0.  0.
         23    2    4    4    0    0  0.46783530462E+02  0.30167776618E+02  0.32300944976E+03  0.34014470197E+03  0.90909406396E+02 0.  0.
         23    2    4    4    0    0  0.90796333110E+03  0.62232391311E+02 -0.34981382639E+03  0.97940125671E+03  0.92665135651E+02 0.  0.
          3    1    3    3  502    0 -0.93487284705E+03 -0.78357545538E+02 -0.30895901317E+04  0.32288843781E+04  0.00000000000E+00 0. -1.
         -4    1    3    3    0  502 -0.19874014512E+02 -0.14042622391E+02 -0.68144904937E+02  0.72359517448E+02  0.00000000000E+00 0.  1.
         13    1    5    5    0    0  0.32480218644E+02  0.62898361486E+02  0.22118582871E+03  0.23223767848E+03  0.00000000000E+00 0. -1.
        -13    1    5    5    0    0  0.14303311818E+02 -0.32730584868E+02  0.10182362105E+03  0.10790702349E+03  0.00000000000E+00 0.  1.
          1    1    6    6  503    0  0.31851321584E+03 -0.11647991913E+02 -0.15332502960E+03  0.35368758683E+03  0.00000000000E+00 0. -1.
         -1    1    6    6    0  503  0.58945011527E+03  0.73880383224E+02 -0.19648879679E+03  0.62571366988E+03  0.00000000000E+00 0.  1.
<mgrwt>
<rscale>  0 0.33481947E+04</rscale>
<asrwt>0</asrwt>
<pdfrwt beam="1">  1        1 0.60040995E+00 0.33481947E+04</pdfrwt>
<pdfrwt beam="2">  1       -2 0.11048080E+00 0.33481947E+04</pdfrwt>
<totfact> 0.55065924E-02</totfact>
</mgrwt>
</event>
<event>
12    5  0.5264288E-008  0.1403910E+04  0.7818608E-02  0.8950993E-01
          1   -1    0    0  501    0  0.00000000000E+00  0.00000000000E+00  0.14413308247E+04  0.14413308247E+04  0.00000000000E+00 0. -1.
         -2   -1    0    0    0  501 -0.00000000000E+00 -0.00000000000E+00 -0.34186537256E+03  0.34186537256E+03  0.00000000000E+00 0.  1.
        -24    2    1    2    0    0  0.14642784707E+03  0.15782102890E+03 -0.90916305306E+02  0.24983230617E+03  0.88327883905E+02 0.  0.
        254    2    1    2    0    0 -0.14642784707E+03 -0.15782102890E+03  0.11903817574E+04  0.15333638911E+04  0.94225660118E+03 0.  0.
         23    2    4    4    0    0 -0.22241881809E+03 -0.10313991647E+03 -0.66085146083E+02  0.26970584304E+03  0.90917667297E+02 0.  0.
         23    2    4    4    0    0  0.75990971020E+02 -0.54681112430E+02  0.12564669035E+04  0.12636580480E+04  0.96736399676E+02 0.  0.
          3    1    3    3  502    0  0.13023716425E+03  0.89483729698E+02 -0.39744489440E+02  0.16293766070E+03  0.00000000000E+00 0. -1.
         -4    1    3    3    0  502  0.16190682813E+02  0.68337299199E+02 -0.51171815865E+02  0.86894645466E+02  0.00000000000E+00 0.  1.
         13    1    5    5    0    0 -0.44109631983E+02 -0.56710420282E+02  0.54503260426E+01  0.72051630490E+02  0.00000000000E+00 0. -1.
        -13    1    5    5    0    0 -0.17830918610E+03 -0.46429496185E+02 -0.71535472125E+02  0.19765421255E+03  0.00000000000E+00 0.  1.
          4    1    6    6  503    0 -0.13976613351E+02  0.43196728040E+01  0.42785120936E+02  0.45216942260E+02  0.00000000000E+00 0. -1.
         -4    1    6    6    0  503  0.89967584372E+02 -0.59000785234E+02  0.12136817826E+04  0.12184411058E+04  0.00000000000E+00 0.  1.
<mgrwt>
<rscale>  0 0.14039104E+04</rscale>
<asrwt>0</asrwt>
<pdfrwt beam="1">  1        1 0.22174320E+00 0.14039104E+04</pdfrwt>
<pdfrwt beam="2">  1       -2 0.52594673E-01 0.14039104E+04</pdfrwt>
<totfact> 0.20964496E+01</totfact>
</mgrwt>
</event>
<event>
12    5  0.5264288E-008  0.1595172E+04  0.7818608E-02  0.8823520E-01
         -2   -1    0    0    0  501 -0.00000000000E+00  0.00000000000E+00  0.35147843553E+03  0.35147843553E+03  0.00000000000E+00 0.  1.
          1   -1    0    0  501    0  0.00000000000E+00 -0.00000000000E+00 -0.18099064604E+04  0.18099064604E+04  0.00000000000E+00 0. -1.
        -24    2    1    2    0    0 -0.27991213987E+03  0.45681483634E+03 -0.56203328881E+03  0.78077258821E+03  0.81815744289E+02 0.  0.
        254    2    1    2    0    0  0.27991213987E+03 -0.45681483634E+03 -0.89639473606E+03  0.13806123077E+04  0.90307044059E+03 0.  0.
         23    2    4    4    0    0  0.23398756916E+02 -0.49108525055E+03 -0.97445355133E+03  0.10953339186E+04  0.92111044269E+02 0.  0.
         23    2    4    4    0    0  0.25651338296E+03  0.34270414208E+02  0.78058815272E+02  0.28527838909E+03  0.91197608054E+02 0.  0.
          1    1    3    3  502    0 -0.28533463311E+03  0.44616035134E+03 -0.54472508805E+03  0.75973701602E+03  0.00000000000E+00 0. -1.
         -2    1    3    3    0  502  0.54224932407E+01  0.10654485001E+02 -0.17308200759E+02  0.21035572184E+02  0.00000000000E+00 0.  1.
         13    1    5    5    0    0 -0.12405080068E+01 -0.18081479116E+03 -0.26730472597E+03  0.32271867638E+03  0.00000000000E+00 0. -1.
        -13    1    5    5    0    0  0.24639264923E+02 -0.31027045939E+03 -0.70714882536E+03  0.77261524225E+03  0.00000000000E+00 0.  1.
          1    1    6    6  503    0  0.13270768303E+03  0.42267003476E+01 -0.55557271757E+01  0.13289115936E+03  0.00000000000E+00 0. -1.
         -1    1    6    6    0  503  0.12380569993E+03  0.30043713860E+02  0.83614542448E+02  0.15238722973E+03  0.00000000000E+00 0.  1.
<mgrwt>
<rscale>  0 0.15951716E+04</rscale>
<asrwt>0</asrwt>
<pdfrwt beam="1">  1        1 0.27844714E+00 0.15951716E+04</pdfrwt>
<pdfrwt beam="2">  1       -2 0.54073606E-01 0.15951716E+04</pdfrwt>
<totfact> 0.10887446E+01</totfact>
</mgrwt>
</event>
<event>
12    5  0.5264288E-008  0.2030635E+04  0.7818608E-02  0.8592430E-01
          1   -1    0    0  501    0  0.00000000000E+00  0.00000000000E+00  0.13570972167E+04  0.13570972167E+04  0.00000000000E+00 0. -1.
         -2   -1    0    0    0  501 -0.00000000000E+00 -0.00000000000E+00 -0.75961374643E+03  0.75961374643E+03  0.00000000000E+00 0.  1.
        -24    2    1    2    0    0  0.39684090672E+03  0.66099104589E+03  0.49513386411E+03  0.91993057172E+03  0.81992959503E+02 0.  0.
        254    2    1    2    0    0 -0.39684090672E+03 -0.66099104589E+03  0.10234960618E+03  0.11967803914E+04  0.90962409567E+03 0.  0.
         23    2    4    4    0    0 -0.23373672710E+02  0.10351192773E+03 -0.23754717184E+03  0.27529687821E+03  0.89992580496E+02 0.  0.
         23    2    4    4    0    0 -0.37346723401E+03 -0.76450297363E+03  0.33989677801E+03  0.92148351322E+03  0.98282622420E+02 0.  0.
          3    1    3    3  502    0  0.80074391448E+02  0.12823129531E+03  0.60136039196E+02  0.16270069598E+03  0.00000000000E+00 0. -1.
         -4    1    3    3    0  502  0.31676651527E+03  0.53275975059E+03  0.43499782491E+03  0.75722987574E+03  0.00000000000E+00 0.  1.
         13    1    5    5    0    0 -0.36974328044E+02  0.93532490721E+02 -0.23804553731E+03  0.25842040474E+03  0.00000000000E+00 0. -1.
        -13    1    5    5    0    0  0.13600655333E+02  0.99794370120E+01  0.49836546902E+00  0.16876473468E+02  0.00000000000E+00 0.  1.
          2    1    6    6  503    0 -0.24755674611E+03 -0.40707572600E+03  0.21256040886E+03  0.52170577595E+03  0.00000000000E+00 0. -1.
         -2    1    6    6    0  503 -0.12591048790E+03 -0.35742724763E+03  0.12733636915E+03  0.39977773727E+03  0.00000000000E+00 0.  1.
<mgrwt>
<rscale>  0 0.20306351E+04</rscale>
<asrwt>0</asrwt>
<pdfrwt beam="1">  1        1 0.20878419E+00 0.20306351E+04</pdfrwt>
<pdfrwt beam="2">  1       -2 0.11686365E+00 0.20306351E+04</pdfrwt>
<totfact> 0.37915011E+00</totfact>
</mgrwt>
</event>
<event>
12    5  0.5264288E-008  0.1790676E+04  0.7818608E-02  0.8711274E-01
         -2   -1    0    0    0  501 -0.00000000000E+00  0.00000000000E+00  0.37346362702E+03  0.37346362702E+03  0.00000000000E+00 0.  1.
          1   -1    0    0  501    0  0.00000000000E+00 -0.00000000000E+00 -0.21464738339E+04  0.21464738339E+04  0.00000000000E+00 0. -1.
        -24    2    1    2    0    0 -0.40012362707E+03  0.23619229418E+03  0.91739597517E+01  0.47139744599E+03  0.79029575351E+02 0.  0.
        254    2    1    2    0    0  0.40012362707E+03 -0.23619229418E+03 -0.17821841666E+04  0.20485400149E+04  0.89691140712E+03 0.  0.
         23    2    4    4    0    0  0.30387015109E+03  0.61613342345E+02 -0.16735535924E+04  0.17045137654E+04  0.91936266150E+02 0.  0.
         23    2    4    4    0    0  0.96253475972E+02 -0.29780563653E+03 -0.10863057419E+03  0.34402624952E+03  0.92739042072E+02 0.  0.
          3    1    3    3  502    0 -0.19797258033E+03  0.74858749772E+02 -0.11270182373E+02  0.21195280604E+03  0.00000000000E+00 0. -1.
         -4    1    3    3    0  502 -0.20215104674E+03  0.16133354441E+03  0.20444142125E+02  0.25944463995E+03  0.00000000000E+00 0.  1.
         13    1    5    5    0    0  0.25101856371E+03  0.12839147886E+02 -0.12805875015E+04  0.13050208857E+04  0.00000000000E+00 0. -1.
        -13    1    5    5    0    0  0.52851587380E+02  0.48774194459E+02 -0.39296609091E+03  0.39949287971E+03  0.00000000000E+00 0.  1.
          1    1    6    6  503    0  0.91858754562E+02 -0.23004339393E+03 -0.46592504897E+02  0.25204931143E+03  0.00000000000E+00 0. -1.
         -1    1    6    6    0  503  0.43947214102E+01 -0.67762242600E+02 -0.62038069296E+02  0.91976938090E+02  0.00000000000E+00 0.  1.
<mgrwt>
<rscale>  0 0.17906757E+04</rscale>
<asrwt>0</asrwt>
<pdfrwt beam="1">  1        1 0.33022674E+00 0.17906757E+04</pdfrwt>
<pdfrwt beam="2">  1       -2 0.57455942E-01 0.17906757E+04</pdfrwt>
<totfact> 0.55775881E+00</totfact>
</mgrwt>
</event>
<event>
12    5  0.5264288E-008  0.1443465E+04  0.7818608E-02  0.8922943E-01
         -2   -1    0    0    0  501 -0.00000000000E+00  0.00000000000E+00  0.41601636701E+03  0.41601636701E+03  0.00000000000E+00 0.  1.
          1   -1    0    0  501    0  0.00000000000E+00 -0.00000000000E+00 -0.12521093117E+04  0.12521093117E+04  0.00000000000E+00 0. -1.
        -24    2    1    2    0    0 -0.62578996744E+02  0.30402466180E+03  0.98853088199E+02  0.33543201271E+03  0.79972347018E+02 0.  0.
        254    2    1    2    0    0  0.62578996744E+02 -0.30402466180E+03 -0.93494603287E+03  0.13326936660E+04  0.89755289381E+03 0.  0.
         23    2    4    4    0    0  0.92958581863E+02  0.30544483086E+03 -0.30543506737E+03  0.45116654099E+03  0.91229516532E+02 0.  0.
         23    2    4    4    0    0 -0.30379585119E+02 -0.60946949265E+03 -0.62951096550E+03  0.88152712501E+03  0.91815220782E+02 0.  0.
          1    1    3    3  502    0 -0.12766498067E+01  0.50936824329E+01 -0.10123851679E+02  0.11404727453E+02  0.00000000000E+00 0. -1.
         -2    1    3    3    0  502 -0.61302346938E+02  0.29893097936E+03  0.10897693988E+03  0.32402728525E+03  0.00000000000E+00 0.  1.
         13    1    5    5    0    0  0.76674778328E+02  0.10426404329E+03 -0.13471326293E+03  0.18680919561E+03  0.00000000000E+00 0.  1.
        -13    1    5    5    0    0  0.16283803535E+02  0.20118078757E+03 -0.17072180444E+03  0.26435734538E+03  0.00000000000E+00 0. -1.
          2    1    6    6  503    0 -0.24651184424E+02 -0.60953900414E+03 -0.62817981795E+03  0.87564568299E+03  0.00000000000E+00 0. -1.
         -2    1    6    6    0  503 -0.57284006951E+01  0.69511486122E-01 -0.13311475513E+01  0.58814420149E+01  0.00000000000E+00 0.  1.
<mgrwt>
<rscale>  0 0.14434652E+04</rscale>
<asrwt>0</asrwt>
<pdfrwt beam="1">  1        1 0.19263220E+00 0.14434652E+04</pdfrwt>
<pdfrwt beam="2">  1       -2 0.64002519E-01 0.14434652E+04</pdfrwt>
<totfact> 0.18837018E+01</totfact>
</mgrwt>
</event>
<event>
12    5  0.5264288E-008  0.1857449E+04  0.7818608E-02  0.8676331E-01
          1   -1    0    0  501    0  0.00000000000E+00  0.00000000000E+00  0.13125209434E+04  0.13125209434E+04  0.00000000000E+00 0. -1.
         -2   -1    0    0    0  501 -0.00000000000E+00 -0.00000000000E+00 -0.65715479174E+03  0.65715479174E+03  0.00000000000E+00 0.  1.
        -24    2    1    2    0    0  0.64716849664E+03  0.73077903115E+02 -0.86924717786E+02  0.66191573395E+03  0.80056788118E+02 0.  0.
        254    2    1    2    0    0 -0.64716849664E+03 -0.73077903115E+02  0.74229086940E+03  0.13077600011E+04  0.85736400836E+03 0.  0.
         23    2    4    4    0    0 -0.13749845701E+03 -0.19418957850E+03 -0.13015883066E+03  0.28588301650E+03  0.90401105335E+02 0.  0.
         23    2    4    4    0    0 -0.50967003963E+03  0.12111167539E+03  0.87244970006E+03  0.10218769846E+04  0.92911277080E+02 0.  0.
          1    1    3    3  502    0  0.30197656003E+03  0.15064624134E+02 -0.48580492182E+01  0.30239111487E+03  0.00000000000E+00 0. -1.
         -2    1    3    3    0  502  0.34519193661E+03  0.58013278981E+02 -0.82066668568E+02  0.35952461908E+03  0.00000000000E+00 0.  1.
         13    1    5    5    0    0 -0.17156808146E+02  0.36614720905E+01 -0.27394208484E+02  0.32530064588E+02  0.00000000000E+00 0.  1.
        -13    1    5    5    0    0 -0.12034164886E+03 -0.19785105059E+03 -0.10276462217E+03  0.25335295191E+03  0.00000000000E+00 0. -1.
          3    1    6    6  503    0 -0.30416745565E+03  0.44454839759E+02  0.57868637460E+03  0.65526482739E+03  0.00000000000E+00 0.  1.
         -3    1    6    6    0  503 -0.20550258398E+03  0.76656835629E+02  0.29376332545E+03  0.36661215726E+03  0.00000000000E+00 0. -1.
<mgrwt>
<rscale>  0 0.18574492E+04</rscale>
<asrwt>0</asrwt>
<pdfrwt beam="1">  1        1 0.20192630E+00 0.18574492E+04</pdfrwt>
<pdfrwt beam="2">  1       -2 0.10110074E+00 0.18574492E+04</pdfrwt>
<totfact> 0.58750704E+00</totfact>
</mgrwt>
</event>
<event>
12    5  0.5264288E-008  0.1211679E+04  0.7818608E-02  0.9102695E-01
         -2   -1    0    0    0  501 -0.00000000000E+00  0.00000000000E+00  0.19094419914E+03  0.19094419914E+03  0.00000000000E+00 0.  1.
          1   -1    0    0  501    0  0.00000000000E+00 -0.00000000000E+00 -0.19222453632E+04  0.19222453632E+04  0.00000000000E+00 0. -1.
        -24    2    1    2    0    0  0.20481162929E+03  0.63933639835E+02 -0.51915966580E+03  0.56739943487E+03  0.79875192014E+02 0.  0.
        254    2    1    2    0    0 -0.20481162929E+03 -0.63933639835E+02 -0.12121414983E+04  0.15457901275E+04  0.93495710737E+03 0.  0.
         23    2    4    4    0    0 -0.23757644795E+03 -0.10851811851E+03 -0.13485572890E+04  0.13760059802E+04  0.81036690607E+02 0.  0.
         23    2    4    4    0    0  0.32764818654E+02  0.44584478671E+02  0.13641579066E+03  0.16978414733E+03  0.84593614794E+02 0.  0.
          1    1    3    3  502    0  0.12332235110E+03  0.78376286452E+02 -0.33785120311E+03  0.36809602009E+03  0.00000000000E+00 0. -1.
         -2    1    3    3    0  502  0.81489278194E+02 -0.14442646617E+02 -0.18130846268E+03  0.19930341478E+03  0.00000000000E+00 0.  1.
         13    1    5    5    0    0 -0.31259095875E+02 -0.36253018837E+02 -0.38483245747E+03  0.38779818562E+03  0.00000000000E+00 0. -1.
        -13    1    5    5    0    0 -0.20631735207E+03 -0.72265099669E+02 -0.96372483149E+03  0.98820779455E+03  0.00000000000E+00 0.  1.
          1    1    6    6  503    0  0.31378818798E+02  0.27556144731E+02  0.10966433840E+02  0.43176776776E+02  0.00000000000E+00 0. -1.
         -1    1    6    6    0  503  0.13859998559E+01  0.17028333940E+02  0.12544935682E+03  0.12660737056E+03  0.00000000000E+00 0.  1.
<mgrwt>
<rscale>  0 0.12116792E+04</rscale>
<asrwt>0</asrwt>
<pdfrwt beam="1">  1        1 0.29573006E+00 0.12116792E+04</pdfrwt>
<pdfrwt beam="2">  1       -2 0.29376030E-01 0.12116792E+04</pdfrwt>
<totfact> 0.31194091E+01</totfact>
</mgrwt>
</event>
<event>
12    5  0.5264288E-008  0.1453393E+04  0.7818608E-02  0.8916052E-01
          1   -1    0    0  501    0  0.00000000000E+00  0.00000000000E+00  0.10052584490E+04  0.10052584490E+04  0.00000000000E+00 0. -1.
         -2   -1    0    0    0  501 -0.00000000000E+00 -0.00000000000E+00 -0.52532521410E+03  0.52532521410E+03  0.00000000000E+00 0.  1.
        -24    2    1    2    0    0 -0.59525044825E+02 -0.35762957201E+03  0.38665446403E+03  0.53598484357E+03  0.79598594477E+02 0.  0.
        254    2    1    2    0    0  0.59525044825E+02  0.35762957201E+03  0.93278770824E+02  0.99459881949E+03  0.92145740048E+03 0.  0.
         23    2    4    4    0    0  0.12305580062E+03  0.55094512316E+03  0.33812408687E+03  0.66454116092E+03  0.92756658228E+02 0.  0.
         23    2    4    4    0    0 -0.63530755790E+02 -0.19331555115E+03 -0.24484531604E+03  0.33005765857E+03  0.87073359554E+02 0.  0.
          1    1    3    3  502    0 -0.12169403087E+02 -0.23478556798E+03  0.28620016577E+03  0.37038208945E+03  0.00000000000E+00 0. -1.
         -2    1    3    3    0  502 -0.47355641738E+02 -0.12284400403E+03  0.10045429826E+03  0.16560275411E+03  0.00000000000E+00 0.  1.
         13    1    5    5    0    0  0.28628028165E+02  0.25964412930E+02  0.20989833316E+02  0.43980539311E+02  0.00000000000E+00 0. -1.
        -13    1    5    5    0    0  0.94427772450E+02  0.52498071023E+03  0.31713425355E+03  0.62056062161E+03  0.00000000000E+00 0.  1.
          3    1    6    6  503    0 -0.44877283372E+02 -0.48945156868E+02 -0.36146381865E+02  0.75605289931E+02  0.00000000000E+00 0. -1.
         -3    1    6    6    0  503 -0.18653472418E+02 -0.14437039428E+03 -0.20869893418E+03  0.25445236864E+03  0.00000000000E+00 0.  1.
<mgrwt>
<rscale>  0 0.14533927E+04</rscale>
<asrwt>0</asrwt>
<pdfrwt beam="1">  1        1 0.15465515E+00 0.14533927E+04</pdfrwt>
<pdfrwt beam="2">  1       -2 0.80819264E-01 0.14533927E+04</pdfrwt>
<totfact> 0.17236701E+01</totfact>
</mgrwt>
</event>
<event>
12    5  0.5264288E-008  0.1706411E+04  0.7818608E-02  0.8757717E-01
          1   -1    0    0  501    0  0.00000000000E+00  0.00000000000E+00  0.13543710199E+04  0.13543710199E+04  0.00000000000E+00 0. -1.
         -2   -1    0    0    0  501 -0.00000000000E+00 -0.00000000000E+00 -0.53748876147E+03  0.53748876147E+03  0.00000000000E+00 0.  1.
        -24    2    1    2    0    0 -0.27650871462E+03 -0.36687424966E+03 -0.15029406592E+03  0.49127043360E+03  0.87775556705E+02 0.  0.
        254    2    1    2    0    0  0.27650871462E+03  0.36687424966E+03  0.96717632434E+03  0.14005893478E+04  0.90286582301E+03 0.  0.
         23    2    4    4    0    0 -0.31885584001E+03  0.18292761547E+03  0.43758682933E+03  0.57846676449E+03  0.89498632423E+02 0.  0.
         23    2    4    4    0    0  0.59536455463E+03  0.18394663419E+03  0.52958949501E+03  0.82212258327E+03  0.84410849775E+02 0.  0.
          1    1    3    3  502    0 -0.88395735951E+02 -0.56910817625E+02 -0.34742371443E+02  0.11072343777E+03  0.00000000000E+00 0. -1.
         -2    1    3    3    0  502 -0.18811297867E+03 -0.30996343204E+03 -0.11555169448E+03  0.38054699584E+03  0.00000000000E+00 0.  1.
         13    1    5    5    0    0 -0.28900363317E+03  0.15074614652E+03  0.33764308162E+03  0.46930837542E+03  0.00000000000E+00 0.  1.
        -13    1    5    5    0    0 -0.29852206838E+02  0.32181468956E+02  0.99943747716E+02  0.10915838907E+03  0.00000000000E+00 0. -1.
          2    1    6    6  503    0  0.15754525599E+02  0.69033493526E+01 -0.13347383818E+00  0.17201137300E+02  0.00000000000E+00 0. -1.
         -2    1    6    6    0  503  0.57961002903E+03  0.17704328483E+03  0.52972296885E+03  0.80492144597E+03  0.00000000000E+00 0.  1.
<mgrwt>
<rscale>  0 0.17064105E+04</rscale>
<asrwt>0</asrwt>
<pdfrwt beam="1">  1        1 0.20836477E+00 0.17064105E+04</pdfrwt>
<pdfrwt beam="2">  1       -2 0.82690579E-01 0.17064105E+04</pdfrwt>
<totfact> 0.88565885E+00</totfact>
</mgrwt>
</event>
<event>
12    5  0.5264288E-008  0.1657020E+04  0.7818608E-02  0.8786264E-01
         -2   -1    0    0    0  501 -0.00000000000E+00  0.00000000000E+00  0.28463383520E+03  0.28463383520E+03  0.00000000000E+00 0.  1.
          1   -1    0    0  501    0  0.00000000000E+00 -0.00000000000E+00 -0.24116200518E+04  0.24116200518E+04  0.00000000000E+00 0. -1.
        -24    2    1    2    0    0 -0.41052420839E+03  0.32891269658E+03 -0.11629549352E+04  0.12788231588E+04  0.78808643881E+02 0.  0.
        254    2    1    2    0    0  0.41052420839E+03 -0.32891269658E+03 -0.96403128132E+03  0.14174307282E+04  0.89612491888E+03 0.  0.
         23    2    4    4    0    0  0.37022378958E+03 -0.57740776326E+03 -0.41542048794E+03  0.80699656834E+03  0.90575383309E+02 0.  0.
         23    2    4    4    0    0  0.40300418811E+02  0.24849506668E+03 -0.54861079338E+03  0.61043415987E+03  0.91006258016E+02 0.  0.
          3    1    3    3  502    0 -0.26032877345E+03  0.21896938218E+03 -0.65954975969E+03  0.74210817683E+03  0.00000000000E+00 0. -1.
         -4    1    3    3    0  502 -0.15019543494E+03  0.10994331440E+03 -0.50340517555E+03  0.53671498193E+03  0.00000000000E+00 0.  1.
         13    1    5    5    0    0  0.23149265828E+03 -0.32664360983E+03 -0.19423520101E+03  0.44498563122E+03  0.00000000000E+00 0. -1.
        -13    1    5    5    0    0  0.13873113130E+03 -0.25076415343E+03 -0.22118528693E+03  0.36201093711E+03  0.00000000000E+00 0.  1.
          2    1    6    6  503    0  0.29952352977E+02  0.22077945356E+03 -0.53137653743E+03  0.57619591729E+03  0.00000000000E+00 0. -1.
         -2    1    6    6    0  503  0.10348065834E+02  0.27715613114E+02 -0.17234255949E+02  0.34238242579E+02  0.00000000000E+00 0.  1.
<mgrwt>
<rscale>  0 0.16570198E+04</rscale>
<asrwt>0</asrwt>
<pdfrwt beam="1">  1        1 0.37101846E+00 0.16570198E+04</pdfrwt>
<pdfrwt beam="2">  1       -2 0.43789822E-01 0.16570198E+04</pdfrwt>
<totfact> 0.64774983E+00</totfact>
</mgrwt>
</event>
<event>
12    5  0.5264288E-008  0.1351636E+04  0.7818608E-02  0.8989591E-01
          1   -1    0    0  501    0  0.00000000000E+00  0.00000000000E+00  0.17370461557E+04  0.17370461557E+04  0.00000000000E+00 0. -1.
         -2   -1    0    0    0  501 -0.00000000000E+00 -0.00000000000E+00 -0.26293482616E+03  0.26293482616E+03  0.00000000000E+00 0.  1.
        -24    2    1    2    0    0 -0.27301384811E+03  0.25025335165E+03  0.34183349285E+03  0.51029051374E+03  0.79893493525E+02 0.  0.
        254    2    1    2    0    0  0.27301384811E+03 -0.25025335165E+03  0.11322778367E+04  0.14896904681E+04  0.89440555123E+03 0.  0.
         23    2    4    4    0    0  0.17870400100E+03  0.31248705011E+03  0.59023707022E+03  0.69728546200E+03  0.90796145234E+02 0.  0.
         23    2    4    4    0    0  0.94309847103E+02 -0.56274040176E+03  0.54204076644E+03  0.79240500610E+03  0.92338476075E+02 0.  0.
          3    1    3    3  502    0 -0.27056792802E+03  0.24170068214E+03  0.30990177762E+03  0.47714288761E+03  0.00000000000E+00 0. -1.
         -2    1    3    3    0  502 -0.24459200835E+01  0.85526695146E+01  0.31931715226E+02  0.33147626132E+02  0.00000000000E+00 0.  1.
         13    1    5    5    0    0  0.15668441029E+03  0.20774546985E+03  0.36900557266E+03  0.45152330762E+03  0.00000000000E+00 0.  1.
        -13    1    5    5    0    0  0.22019590713E+02  0.10474158027E+03  0.22123149757E+03  0.24576215438E+03  0.00000000000E+00 0. -1.
          4    1    6    6  503    0  0.33982854268E+02 -0.15133430871E+03  0.20554987623E+03  0.25750273590E+03  0.00000000000E+00 0. -1.
         -4    1    6    6    0  503  0.60326992835E+02 -0.41140609306E+03  0.33649089021E+03  0.53490227020E+03  0.00000000000E+00 0.  1.
<mgrwt>
<rscale>  0 0.13516359E+04</rscale>
<asrwt>0</asrwt>
<pdfrwt beam="1">  1        1 0.26723786E+00 0.13516359E+04</pdfrwt>
<pdfrwt beam="2">  1       -2 0.40451513E-01 0.13516359E+04</pdfrwt>
<totfact> 0.22352598E+01</totfact>
</mgrwt>
</event>
<event>
12    5  0.5264288E-008  0.1894023E+04  0.7818608E-02  0.8657837E-01
         -4   -1    0    0    0  501 -0.00000000000E+00  0.00000000000E+00  0.10184040583E+04  0.10184040583E+04  0.00000000000E+00 0.  1.
          3   -1    0    0  501    0  0.00000000000E+00 -0.00000000000E+00 -0.88062418994E+03  0.88062418994E+03  0.00000000000E+00 0. -1.
        -24    2    1    2    0    0  0.55074125041E+03  0.46735233440E+03  0.16320984866E+03  0.74482536319E+03  0.79957723725E+02 0.  0.
        254    2    1    2    0    0 -0.55074125041E+03 -0.46735233440E+03 -0.25429980247E+02  0.11542028851E+04  0.89989081931E+03 0.  0.
         23    2    4    4    0    0  0.18885422721E+02  0.49329892050E+02 -0.31123598852E+03  0.32869574718E+03  0.91558485260E+02 0.  0.
         23    2    4    4    0    0 -0.56962667313E+03 -0.51668222645E+03  0.28580600828E+03  0.82550713791E+03  0.91333950395E+02 0.  0.
          1    1    3    3  502    0  0.70630849269E+02  0.67511277671E+02 -0.48115693771E+01  0.97824540281E+02  0.00000000000E+00 0. -1.
         -2    1    3    3    0  502  0.48011040114E+03  0.39984105673E+03  0.16802141804E+03  0.64700082291E+03  0.00000000000E+00 0.  1.
         13    1    5    5    0    0  0.39110883836E+02  0.41021645023E+02 -0.89852959949E+02  0.10623554493E+03  0.00000000000E+00 0. -1.
        -13    1    5    5    0    0 -0.20225461115E+02  0.83082470271E+01 -0.22138302858E+03  0.22246020226E+03  0.00000000000E+00 0.  1.
          4    1    6    6  503    0 -0.12278182336E+03 -0.12040594583E+03  0.24913360938E+02  0.17376318221E+03  0.00000000000E+00 0. -1.
         -4    1    6    6    0  503 -0.44684484977E+03 -0.39627628061E+03  0.26089264734E+03  0.65174395569E+03  0.00000000000E+00 0.  1.
<mgrwt>
<rscale>  0 0.18940235E+04</rscale>
<asrwt>0</asrwt>
<pdfrwt beam="1">  1        3 0.13548064E+00 0.18940235E+04</pdfrwt>
<pdfrwt beam="2">  1       -4 0.15667755E+00 0.18940235E+04</pdfrwt>
<totfact> 0.23831427E-01</totfact>
</mgrwt>
</event>
<event>
12    5  0.5264288E-008  0.1649524E+04  0.7818608E-02  0.8790688E-01
         -2   -1    0    0    0  501 -0.00000000000E+00  0.00000000000E+00  0.11532712383E+04  0.11532712383E+04  0.00000000000E+00 0.  1.
          1   -1    0    0  501    0  0.00000000000E+00 -0.00000000000E+00 -0.58982878840E+03  0.58982878840E+03  0.00000000000E+00 0. -1.
        -24    2    1    2    0    0 -0.21470840431E+03  0.42903579970E+03 -0.11308673060E+03  0.49914310038E+03  0.78637203115E+02 0.  0.
        254    2    1    2    0    0  0.21470840431E+03 -0.42903579970E+03  0.67652918053E+03  0.12439569263E+04  0.92712765367E+03 0.  0.
         23    2    4    4    0    0 -0.18725284349E+03 -0.51251752738E+03  0.15571152944E+03  0.57465635923E+03  0.90807530186E+02 0.  0.
         23    2    4    4    0    0  0.40196124780E+03  0.83481727677E+02  0.52081765109E+03  0.66930056712E+03  0.90389047304E+02 0.  0.
          3    1    3    3  502    0 -0.18407102255E+03  0.30135402265E+03 -0.10098968019E+03  0.36728096032E+03  0.00000000000E+00 0. -1.
         -4    1    3    3    0  502 -0.30637381757E+02  0.12768177705E+03 -0.12097050408E+02  0.13186214006E+03  0.00000000000E+00 0.  1.
         13    1    5    5    0    0  0.76037109968E+01 -0.39831453838E+02  0.22233313828E+02  0.46245879595E+02  0.00000000000E+00 0. -1.
        -13    1    5    5    0    0 -0.19485655449E+03 -0.47268607354E+03  0.13347821562E+03  0.52841047964E+03  0.00000000000E+00 0.  1.
          3    1    6    6  503    0  0.31281781099E+02 -0.23018548010E+01  0.85893655160E+02  0.91441611758E+02  0.00000000000E+00 0. -1.
         -3    1    6    6    0  503  0.37067946670E+03  0.85783582478E+02  0.43492399593E+03  0.57785895536E+03  0.00000000000E+00 0.  1.
<mgrwt>
<rscale>  0 0.16495243E+04</rscale>
<asrwt>0</asrwt>
<pdfrwt beam="1">  1        1 0.90742891E-01 0.16495243E+04</pdfrwt>
<pdfrwt beam="2">  1       -2 0.17742634E+00 0.16495243E+04</pdfrwt>
<totfact> 0.55425702E+00</totfact>
</mgrwt>
</event>
<event>
12    5  0.5264288E-008  0.1757875E+04  0.7818608E-02  0.8729027E-01
         -2   -1    0    0    0  501 -0.00000000000E+00  0.00000000000E+00  0.38982663186E+03  0.38982663186E+03  0.00000000000E+00 0.  1.
          1   -1    0    0  501    0  0.00000000000E+00 -0.00000000000E+00 -0.19817307649E+04  0.19817307649E+04  0.00000000000E+00 0. -1.
        -24    2    1    2    0    0  0.78838932552E+02 -0.31577494307E+03 -0.13183349480E+04  0.13602263304E+04  0.79241673383E+02 0.  0.
        254    2    1    2    0    0 -0.78838932552E+02  0.31577494307E+03 -0.27356918504E+03  0.10113310664E+04  0.91761704150E+03 0.  0.
         23    2    4    4    0    0  0.15644965873E+03  0.15757887795E+03  0.28792044349E+03  0.37444092234E+03  0.89443971596E+02 0.  0.
         23    2    4    4    0    0 -0.23528859128E+03  0.15819606513E+03 -0.56148962853E+03  0.63689014403E+03  0.99858582041E+02 0.  0.
          1    1    3    3  502    0  0.92582714622E+02 -0.25755990883E+03 -0.11271110909E+04  0.11598655426E+04  0.00000000000E+00 0. -1.
         -2    1    3    3    0  502 -0.13743782071E+02 -0.58215034246E+02 -0.19122385706E+03  0.20036078775E+03  0.00000000000E+00 0.  1.
         13    1    5    5    0    0  0.46543984670E+00  0.46822766600E+02  0.72824261174E+02  0.86579218765E+02  0.00000000000E+00 0.  1.
        -13    1    5    5    0    0  0.15598421888E+03  0.11075611135E+03  0.21509618232E+03  0.28786170358E+03  0.00000000000E+00 0. -1.
          4    1    6    6  503    0 -0.24055555794E+03  0.13361284204E+03 -0.52172671579E+03  0.58984585613E+03  0.00000000000E+00 0. -1.
         -4    1    6    6    0  503  0.52669666643E+01  0.24583223085E+02 -0.39762912739E+02  0.47044287906E+02  0.00000000000E+00 0.  1.
<mgrwt>
<rscale>  0 0.17578753E+04</rscale>
<asrwt>0</asrwt>
<pdfrwt beam="1">  1        1 0.30488165E+00 0.17578753E+04</pdfrwt>
<pdfrwt beam="2">  1       -2 0.59973330E-01 0.17578753E+04</pdfrwt>
<totfact> 0.66105145E+00</totfact>
</mgrwt>
</event>
<event>
12    5  0.5264288E-008  0.1478150E+04  0.7818608E-02  0.8899114E-01
         -2   -1    0    0    0  501 -0.00000000000E+00  0.00000000000E+00  0.67012650800E+03  0.67012650800E+03  0.00000000000E+00 0.  1.
          1   -1    0    0  501    0  0.00000000000E+00 -0.00000000000E+00 -0.81511751309E+03  0.81511751309E+03  0.00000000000E+00 0. -1.
        -24    2    1    2    0    0  0.22047454923E+03  0.35356908638E+03  0.13971899400E+03  0.44683238577E+03  0.80732013375E+02 0.  0.
        254    2    1    2    0    0 -0.22047454923E+03 -0.35356908638E+03 -0.28470999909E+03  0.10384116353E+04  0.90753447047E+03 0.  0.
         23    2    4    4    0    0 -0.70697328723E+02 -0.42679842926E+03 -0.55552400631E+03  0.70988674492E+03  0.90428189865E+02 0.  0.
         23    2    4    4    0    0 -0.14977722051E+03  0.73229342880E+02  0.27081400721E+03  0.32852489041E+03  0.82417380902E+02 0.  0.
          1    1    3    3  502    0  0.12975534860E+03  0.20887338139E+03  0.40173235449E+02  0.24915543099E+03  0.00000000000E+00 0. -1.
         -2    1    3    3    0  502  0.90719200633E+02  0.14469570499E+03  0.99545758553E+02  0.19767695478E+03  0.00000000000E+00 0.  1.
         13    1    5    5    0    0 -0.13488729656E+02 -0.41487227162E+02 -0.10857606845E+03  0.11701238604E+03  0.00000000000E+00 0.  1.
        -13    1    5    5    0    0 -0.57208599067E+02 -0.38531120210E+03 -0.44694793785E+03  0.59287435888E+03  0.00000000000E+00 0. -1.
          1    1    6    6  503    0 -0.10900724360E+03  0.70661135479E+02  0.13779907203E+03  0.18937835008E+03  0.00000000000E+00 0. -1.
         -1    1    6    6    0  503 -0.40769976910E+02  0.25682074006E+01  0.13301493518E+03  0.13914654033E+03  0.00000000000E+00 0.  1.
<mgrwt>
<rscale>  0 0.14781500E+04</rscale>
<asrwt>0</asrwt>
<pdfrwt beam="1">  1        1 0.12540269E+00 0.14781500E+04</pdfrwt>
<pdfrwt beam="2">  1       -2 0.10309639E+00 0.14781500E+04</pdfrwt>
<totfact> 0.13987298E+01</totfact>
</mgrwt>
</event>
<event>
12    5  0.5264288E-008  0.2014058E+04  0.7818608E-02  0.8600076E-01
         -2   -1    0    0    0  501 -0.00000000000E+00  0.00000000000E+00  0.21818660928E+03  0.21818660928E+03  0.00000000000E+00 0.  1.
          1   -1    0    0  501    0  0.00000000000E+00 -0.00000000000E+00 -0.46478924912E+04  0.46478924912E+04  0.00000000000E+00 0. -1.
        -24    2    1    2    0    0  0.73149854406E+03  0.18497321188E+03 -0.25110230513E+04  0.26231765096E+04  0.80703327651E+02 0.  0.
        254    2    1    2    0    0 -0.73149854406E+03 -0.18497321188E+03 -0.19186828306E+04  0.22429025909E+04  0.88315514984E+03 0.  0.
         23    2    4    4    0    0 -0.12966137628E+03 -0.14913810430E+03 -0.14705241722E+04  0.14864446519E+04  0.89566263780E+02 0.  0.
         23    2    4    4    0    0 -0.60183716778E+03 -0.35835107578E+02 -0.44815865844E+03  0.75645793898E+03  0.88827354219E+02 0.  0.
          3    1    3    3  502    0  0.16728897333E+03  0.27411866620E+02 -0.67530339625E+03  0.69625547611E+03  0.00000000000E+00 0. -1.
         -4    1    3    3    0  502  0.56420957073E+03  0.15756134526E+03 -0.18357196551E+04  0.19269210335E+04  0.00000000000E+00 0.  1.
         13    1    5    5    0    0 -0.17336345857E+02 -0.71222335320E+02 -0.70596507220E+03  0.70976041951E+03  0.00000000000E+00 0.  1.
        -13    1    5    5    0    0 -0.11232503042E+03 -0.77915768983E+02 -0.76455909998E+03  0.77668423241E+03  0.00000000000E+00 0. -1.
          4    1    6    6  503    0 -0.43694714585E+03 -0.46116062565E+01 -0.28059075084E+03  0.51930265225E+03  0.00000000000E+00 0. -1.
         -4    1    6    6    0  503 -0.16489002193E+03 -0.31223501321E+02 -0.16756790760E+03  0.23715528673E+03  0.00000000000E+00 0.  1.
<mgrwt>
<rscale>  0 0.20140585E+04</rscale>
<asrwt>0</asrwt>
<pdfrwt beam="1">  1        1 0.71506040E+00 0.20140585E+04</pdfrwt>
<pdfrwt beam="2">  1       -2 0.33567170E-01 0.20140585E+04</pdfrwt>
<totfact> 0.15415704E-01</totfact>
</mgrwt>
</event>
<event>
12    5  0.5264288E-008  0.1405629E+04  0.7818608E-02  0.8949754E-01
         -2   -1    0    0    0  501 -0.00000000000E+00  0.00000000000E+00  0.47927690008E+03  0.47927690008E+03  0.00000000000E+00 0.  1.
          1   -1    0    0  501    0  0.00000000000E+00 -0.00000000000E+00 -0.10306111262E+04  0.10306111262E+04  0.00000000000E+00 0. -1.
        -24    2    1    2    0    0 -0.15371601265E+03  0.12327093959E+03 -0.62643417126E+03  0.66151581859E+03  0.79743778651E+02 0.  0.
        254    2    1    2    0    0  0.15371601265E+03 -0.12327093959E+03  0.75099945152E+02  0.84837220767E+03  0.82174878393E+03 0.  0.
         23    2    4    4    0    0  0.28176968534E+03 -0.41564218521E+03  0.13660476129E+02  0.51054389182E+03  0.91191420437E+02 0.  0.
         23    2    4    4    0    0 -0.12805367269E+03  0.29237124562E+03  0.61439469024E+02  0.33782831585E+03  0.92056907817E+02 0.  0.
          1    1    3    3  502    0 -0.11750234375E+03  0.11395745243E+03 -0.40298740960E+03  0.43496201448E+03  0.00000000000E+00 0. -1.
         -2    1    3    3    0  502 -0.36213668901E+02  0.93134871618E+01 -0.22344676166E+03  0.22655380411E+03  0.00000000000E+00 0.  1.
         13    1    5    5    0    0  0.43857933303E+02 -0.10990932455E+03  0.32413620901E+02  0.12269564277E+03  0.00000000000E+00 0.  1.
        -13    1    5    5    0    0  0.23791175204E+03 -0.30573286067E+03 -0.18753144773E+02  0.38784824905E+03  0.00000000000E+00 0. -1.
          4    1    6    6  503    0 -0.37175026345E+02  0.33450813240E+02  0.37250449247E+02  0.62358122641E+02  0.00000000000E+00 0.  1.
         -4    1    6    6    0  503 -0.90878646350E+02  0.25892043238E+03  0.24189019777E+02  0.27547019321E+03  0.00000000000E+00 0. -1.
<mgrwt>
<rscale>  0 0.14056288E+04</rscale>
<asrwt>0</asrwt>
<pdfrwt beam="1">  1        1 0.15855556E+00 0.14056288E+04</pdfrwt>
<pdfrwt beam="2">  1       -2 0.73734908E-01 0.14056288E+04</pdfrwt>
<totfact> 0.20295720E+01</totfact>
</mgrwt>
</event>
<event>
12    5  0.5264288E-008  0.1996694E+04  0.7818608E-02  0.8608168E-01
         -2   -1    0    0    0  501 -0.00000000000E+00  0.00000000000E+00  0.38995713452E+03  0.38995713452E+03  0.00000000000E+00 0.  1.
          1   -1    0    0  501    0  0.00000000000E+00 -0.00000000000E+00 -0.25559133062E+04  0.25559133062E+04  0.00000000000E+00 0. -1.
        -24    2    1    2    0    0 -0.75778948104E+03 -0.31790080377E+02 -0.12152494205E+04  0.14347326984E+04  0.79820141747E+02 0.  0.
        254    2    1    2    0    0  0.75778948104E+03  0.31790080377E+02 -0.95070675124E+03  0.15111377424E+04  0.89690492407E+03 0.  0.
         23    2    4    4    0    0  0.69438694739E+03 -0.26432868810E+02 -0.17038388461E+03  0.72082422484E+03  0.87663936204E+02 0.  0.
         23    2    4    4    0    0  0.63402533643E+02  0.58222949187E+02 -0.78032286663E+03  0.79031351755E+03  0.91004872134E+02 0.  0.
          1    1    3    3  502    0 -0.60855952066E+03 -0.36856159176E+02 -0.91673090446E+03  0.11009535039E+04  0.00000000000E+00 0. -1.
         -2    1    3    3    0  502 -0.14922996037E+03  0.50660787991E+01 -0.29851851600E+03  0.33377919441E+03  0.00000000000E+00 0.  1.
         13    1    5    5    0    0  0.21805541704E+03 -0.39403498409E+02 -0.27089129426E+02  0.22323669394E+03  0.00000000000E+00 0.  1.
        -13    1    5    5    0    0  0.47633153035E+03  0.12970629599E+02 -0.14329475519E+03  0.49758753090E+03  0.00000000000E+00 0. -1.
          3    1    6    6  503    0 -0.17355756608E+02  0.79073500658E+01 -0.45209349346E+02  0.49067644540E+02  0.00000000000E+00 0. -1.
         -3    1    6    6    0  503  0.80758290251E+02  0.50315599121E+02 -0.73511351728E+03  0.74124587301E+03  0.00000000000E+00 0.  1.
<mgrwt>
<rscale>  0 0.19966939E+04</rscale>
<asrwt>0</asrwt>
<pdfrwt beam="1">  1        1 0.39321743E+00 0.19966939E+04</pdfrwt>
<pdfrwt beam="2">  1       -2 0.59993406E-01 0.19966939E+04</pdfrwt>
<totfact> 0.26172693E+00</totfact>
</mgrwt>
</event>
<event>
12    5  0.5264288E-008  0.1427578E+04  0.7818608E-02  0.8934094E-01
          1   -1    0    0  501    0  0.00000000000E+00  0.00000000000E+00  0.18286166444E+04  0.18286166444E+04  0.00000000000E+00 0. -1.
         -2   -1    0    0    0  501 -0.00000000000E+00 -0.00000000000E+00 -0.27862323490E+03  0.27862323490E+03  0.00000000000E+00 0.  1.
        -24    2    1    2    0    0  0.19043051857E+03  0.90210104687E+02  0.10233904751E+04  0.10495957228E+04  0.99606583191E+02 0.  0.
        254    2    1    2    0    0 -0.19043051857E+03 -0.90210104687E+02  0.52660293439E+03  0.10576441565E+04  0.89269192102E+03 0.  0.
         23    2    4    4    0    0  0.21510484197E+03 -0.35315842065E+03  0.28279466671E+03  0.50914168158E+03  0.90892603051E+02 0.  0.
         23    2    4    4    0    0 -0.40553536054E+03  0.26294831596E+03  0.24380826768E+03  0.54850247490E+03  0.88384093984E+02 0.  0.
          1    1    3    3  502    0  0.15695052198E+03  0.96065899342E+02  0.96183959075E+03  0.97928418842E+03  0.00000000000E+00 0. -1.
         -2    1    3    3    0  502  0.33479996598E+02 -0.58557946553E+01  0.61550884386E+02  0.70311534416E+02  0.00000000000E+00 0.  1.
         13    1    5    5    0    0  0.18000362472E+03 -0.29515915962E+03  0.19082381523E+03  0.39488474632E+03  0.00000000000E+00 0. -1.
        -13    1    5    5    0    0  0.35101217248E+02 -0.57999261032E+02  0.91970851485E+02  0.11425693526E+03  0.00000000000E+00 0.  1.
          2    1    6    6  503    0  0.45029833189E+01  0.60828862553E+00  0.26674692772E+01  0.52689910008E+01  0.00000000000E+00 0.  1.
         -2    1    6    6    0  503 -0.41003834386E+03  0.26234002734E+03  0.24114079840E+03  0.54323348390E+03  0.00000000000E+00 0. -1.
<mgrwt>
<rscale>  0 0.14275785E+04</rscale>
<asrwt>0</asrwt>
<pdfrwt beam="1">  1        1 0.28132563E+00 0.14275785E+04</pdfrwt>
<pdfrwt beam="2">  1       -2 0.42865114E-01 0.14275785E+04</pdfrwt>
<totfact> 0.17172597E+01</totfact>
</mgrwt>
</event>
<event>
12    5  0.5264288E-008  0.1407524E+04  0.7818608E-02  0.8948391E-01
         -2   -1    0    0    0  501 -0.00000000000E+00  0.00000000000E+00  0.16059424898E+03  0.16059424898E+03  0.00000000000E+00 0.  1.
          1   -1    0    0  501    0  0.00000000000E+00 -0.00000000000E+00 -0.30840496025E+04  0.30840496025E+04  0.00000000000E+00 0. -1.
        -24    2    1    2    0    0 -0.45251259115E+02 -0.34444217177E+03 -0.13618155293E+04  0.14081619283E+04  0.87694894687E+02 0.  0.
        254    2    1    2    0    0  0.45251259115E+02  0.34444217177E+03 -0.15616398243E+04  0.18364819232E+04  0.90180864220E+03 0.  0.
         23    2    4    4    0    0  0.87722603335E+02  0.29201409321E+03 -0.51999513744E+02  0.32254989482E+03  0.91471303979E+02 0.  0.
         23    2    4    4    0    0 -0.42471344220E+02  0.52428078563E+02 -0.15096403106E+04  0.15139320284E+04  0.91781265571E+02 0.  0.
          1    1    3    3  502    0 -0.34201629207E+02 -0.30208338172E+03 -0.12773093414E+04  0.13129902036E+04  0.00000000000E+00 0. -1.
         -2    1    3    3    0  502 -0.11049629908E+02 -0.42358790047E+02 -0.84506187818E+02  0.95171724765E+02  0.00000000000E+00 0.  1.
         13    1    5    5    0    0  0.16188666320E+02  0.10702098000E+02 -0.24107880204E+02  0.30948307010E+02  0.00000000000E+00 0.  1.
        -13    1    5    5    0    0  0.71533937015E+02  0.28131199521E+03 -0.27891633540E+02  0.29160158781E+03  0.00000000000E+00 0. -1.
          4    1    6    6  503    0 -0.37233187208E+02 -0.15473367929E+02 -0.80475006359E+03  0.80575951760E+03  0.00000000000E+00 0.  1.
         -4    1    6    6    0  503 -0.52381570118E+01  0.67901446492E+02 -0.70489024697E+03  0.70817251076E+03  0.00000000000E+00 0. -1.
<mgrwt>
<rscale>  0 0.14075235E+04</rscale>
<asrwt>0</asrwt>
<pdfrwt beam="1">  1        1 0.47446912E+00 0.14075235E+04</pdfrwt>
<pdfrwt beam="2">  1       -2 0.24706810E-01 0.14075235E+04</pdfrwt>
<totfact> 0.65603508E+00</totfact>
</mgrwt>
</event>
<event>
12    5  0.5264288E-008  0.1815105E+04  0.7818608E-02  0.8698308E-01
         -2   -1    0    0    0  501 -0.00000000000E+00  0.00000000000E+00  0.56892686290E+03  0.56892686290E+03  0.00000000000E+00 0.  1.
          1   -1    0    0  501    0  0.00000000000E+00 -0.00000000000E+00 -0.14477275403E+04  0.14477275403E+04  0.00000000000E+00 0. -1.
        -24    2    1    2    0    0  0.54140720208E+03 -0.40324560361E+03 -0.25278394356E+03  0.72512095263E+03  0.78561431589E+02 0.  0.
        254    2    1    2    0    0 -0.54140720208E+03  0.40324560361E+03 -0.62601673387E+03  0.12915334506E+04  0.90577752657E+03 0.  0.
         23    2    4    4    0    0 -0.13618020494E+03  0.45654033418E+03 -0.71498836798E+03  0.86390615626E+03  0.90284857712E+02 0.  0.
         23    2    4    4    0    0 -0.40522699714E+03 -0.53294730569E+02  0.88971634112E+02  0.42762729434E+03  0.88881402280E+02 0.  0.
          3    1    3    3  502    0  0.30288530841E+03 -0.20688786974E+03 -0.17565769631E+03  0.40669119362E+03  0.00000000000E+00 0. -1.
         -4    1    3    3    0  502  0.23852189367E+03 -0.19635773387E+03 -0.77126247248E+02  0.31842975901E+03  0.00000000000E+00 0.  1.
         13    1    5    5    0    0 -0.69629409415E+02  0.18265010621E+03 -0.36958854239E+03  0.41809688664E+03  0.00000000000E+00 0. -1.
        -13    1    5    5    0    0 -0.66550795527E+02  0.27389022797E+03 -0.34539982560E+03  0.44580926963E+03  0.00000000000E+00 0.  1.
          2    1    6    6  503    0 -0.35315501630E+03 -0.21998859481E+02  0.95565235832E+02  0.36651757074E+03  0.00000000000E+00 0. -1.
         -2    1    6    6    0  503 -0.52071980835E+02 -0.31295871087E+02 -0.65936017203E+01  0.61109723603E+02  0.00000000000E+00 0.  1.
<mgrwt>
<rscale>  0 0.18151045E+04</rscale>
<asrwt>0</asrwt>
<pdfrwt beam="1">  1        1 0.22272731E+00 0.18151045E+04</pdfrwt>
<pdfrwt beam="2">  1       -2 0.87527211E-01 0.18151045E+04</pdfrwt>
<totfact> 0.66285979E+00</totfact>
</mgrwt>
</event>
<event>
12    5  0.5264288E-008  0.1554697E+04  0.7818608E-02  0.8848873E-01
         -4   -1    0    0    0  501 -0.00000000000E+00  0.00000000000E+00  0.38520852937E+03  0.38520852937E+03  0.00000000000E+00 0.  1.
          3   -1    0    0  501    0  0.00000000000E+00 -0.00000000000E+00 -0.15686853328E+04  0.15686853328E+04  0.00000000000E+00 0. -1.
        -24    2    1    2    0    0  0.15237848853E+03  0.44014633943E+03 -0.65725700477E+03  0.80929790930E+03  0.77642332535E+02 0.  0.
        254    2    1    2    0    0 -0.15237848853E+03 -0.44014633943E+03 -0.52621979869E+03  0.11445959529E+04  0.90346256976E+03 0.  0.
         23    2    4    4    0    0 -0.14586761795E+03  0.25301607709E+03 -0.84565328987E+02  0.31728597067E+03  0.90689553319E+02 0.  0.
         23    2    4    4    0    0 -0.65108705778E+01 -0.69316241652E+03 -0.44165446970E+03  0.82730998222E+03  0.94162672923E+02 0.  0.
          1    1    3    3  502    0  0.10183579441E+03  0.37386791106E+03 -0.56318831978E+03  0.68361453136E+03  0.00000000000E+00 0. -1.
         -2    1    3    3    0  502  0.50542694124E+02  0.66278428367E+02 -0.94068684984E+02  0.12568337794E+03  0.00000000000E+00 0.  1.
         13    1    5    5    0    0 -0.23877449457E+02  0.93956739505E+02  0.64084346645E+01  0.97154873917E+02  0.00000000000E+00 0.  1.
        -13    1    5    5    0    0 -0.12199016850E+03  0.15905933759E+03 -0.90973763652E+02  0.22013109675E+03  0.00000000000E+00 0. -1.
          2    1    6    6  503    0  0.18213788150E+01 -0.45805287186E+03 -0.23824998856E+03  0.51631270359E+03  0.00000000000E+00 0. -1.
         -2    1    6    6    0  503 -0.83322493928E+01 -0.23510954466E+03 -0.20340448114E+03  0.31099727863E+03  0.00000000000E+00 0.  1.
<mgrwt>
<rscale>  0 0.15546974E+04</rscale>
<asrwt>0</asrwt>
<pdfrwt beam="1">  1        3 0.24133620E+00 0.15546974E+04</pdfrwt>
<pdfrwt beam="2">  1       -4 0.59262851E-01 0.15546974E+04</pdfrwt>
<totfact> 0.49322816E-01</totfact>
</mgrwt>
</event>
<event>
12    5  0.5264288E-008  0.1746152E+04  0.7818608E-02  0.8735471E-01
          1   -1    0    0  501    0  0.00000000000E+00  0.00000000000E+00  0.97846306846E+03  0.97846306846E+03  0.00000000000E+00 0. -1.
         -2   -1    0    0    0  501 -0.00000000000E+00 -0.00000000000E+00 -0.77903953115E+03  0.77903953115E+03  0.00000000000E+00 0.  1.
        -24    2    1    2    0    0 -0.31311421219E+03  0.10883323092E+03 -0.43060829709E+03  0.54901544548E+03  0.78161830943E+02 0.  0.
        254    2    1    2    0    0  0.31311421219E+03 -0.10883323092E+03  0.63003183440E+03  0.12084871541E+04  0.97653259409E+03 0.  0.
         23    2    4    4    0    0  0.39275218332E+03  0.26701618003E+03  0.65319850136E+03  0.81242630058E+03  0.88409805984E+02 0.  0.
         23    2    4    4    0    0 -0.79637971129E+02 -0.37584941096E+03 -0.23166666960E+02  0.39606085355E+03  0.93394427552E+02 0.  0.
          3    1    3    3  502    0 -0.80950974390E+02  0.58325014404E+02 -0.16339275641E+03  0.19144727840E+03  0.00000000000E+00 0. -1.
         -4    1    3    3    0  502 -0.23216323780E+03  0.50508216520E+02 -0.26721554068E+03  0.35756816707E+03  0.00000000000E+00 0.  1.
         13    1    5    5    0    0  0.20309034284E+03  0.99829330048E+02  0.25703351853E+03  0.34245848236E+03  0.00000000000E+00 0. -1.
        -13    1    5    5    0    0  0.18966184048E+03  0.16718684999E+03  0.39616498283E+03  0.46996781822E+03  0.00000000000E+00 0.  1.
          3    1    6    6  503    0 -0.17497725239E+02 -0.42379334343E+01 -0.57025630496E+01  0.18885171264E+02  0.00000000000E+00 0. -1.
         -3    1    6    6    0  503 -0.62140245890E+02 -0.37161147752E+03 -0.17464103910E+02  0.37717568229E+03  0.00000000000E+00 0.  1.
<mgrwt>
<rscale>  0 0.17461517E+04</rscale>
<asrwt>0</asrwt>
<pdfrwt beam="1">  1        1 0.15053278E+00 0.17461517E+04</pdfrwt>
<pdfrwt beam="2">  1       -2 0.11985224E+00 0.17461517E+04</pdfrwt>
<totfact> 0.69626587E+00</totfact>
</mgrwt>
</event>
<event>
12    5  0.5264288E-008  0.1533742E+04  0.7818608E-02  0.8862320E-01
          1   -1    0    0  501    0  0.00000000000E+00  0.00000000000E+00  0.22369711929E+04  0.22369711929E+04  0.00000000000E+00 0. -1.
         -2   -1    0    0    0  501 -0.00000000000E+00 -0.00000000000E+00 -0.26289606967E+03  0.26289606967E+03  0.00000000000E+00 0.  1.
        -24    2    1    2    0    0 -0.10249390270E+03 -0.39034766819E+03  0.11702379188E+04  0.12404041207E+04  0.79178872593E+02 0.  0.
        254    2    1    2    0    0  0.10249390270E+03  0.39034766819E+03  0.80383720438E+03  0.12594631418E+04  0.88159903150E+03 0.  0.
         23    2    4    4    0    0 -0.17932763009E+03  0.16472504509E+03 -0.10114492894E+03  0.28093207243E+03  0.96952531033E+02 0.  0.
         23    2    4    4    0    0  0.28182153279E+03  0.22562262310E+03  0.90498213332E+03  0.97853106941E+03  0.90561844983E+02 0.  0.
          1    1    3    3  502    0 -0.67450244893E+02 -0.21946022022E+03  0.54740068278E+03  0.59359904927E+03  0.00000000000E+00 0. -1.
         -2    1    3    3    0  502 -0.35043657804E+02 -0.17088744798E+03  0.62283723604E+03  0.64680507143E+03  0.00000000000E+00 0.  1.
         13    1    5    5    0    0 -0.15733173730E+03  0.87999089598E+02 -0.85829928664E+02  0.19965944001E+03  0.00000000000E+00 0. -1.
        -13    1    5    5    0    0 -0.21995892789E+02  0.76725955492E+02 -0.15315000277E+02  0.81272632412E+02  0.00000000000E+00 0.  1.
          4    1    6    6  503    0  0.14266207371E+03  0.95840582956E+02  0.54346379914E+03  0.56999191713E+03  0.00000000000E+00 0.  1.
         -4    1    6    6    0  503  0.13915945907E+03  0.12978204015E+03  0.36151833418E+03  0.40853915228E+03  0.00000000000E+00 0. -1.
<mgrwt>
<rscale>  0 0.15337417E+04</rscale>
<asrwt>0</asrwt>
<pdfrwt beam="1">  1        1 0.34414940E+00 0.15337417E+04</pdfrwt>
<pdfrwt beam="2">  1       -2 0.40445551E-01 0.15337417E+04</pdfrwt>
<totfact> 0.10088406E+01</totfact>
</mgrwt>
</event>
<event>
12    5  0.5264288E-008  0.1671578E+04  0.7818608E-02  0.8777743E-01
          1   -1    0    0  501    0  0.00000000000E+00  0.00000000000E+00  0.99134924766E+03  0.99134924766E+03  0.00000000000E+00 0. -1.
         -2   -1    0    0    0  501 -0.00000000000E+00 -0.00000000000E+00 -0.70463869818E+03  0.70463869818E+03  0.00000000000E+00 0.  1.
        -24    2    1    2    0    0  0.16457575210E+03 -0.53463851329E+03  0.29170943315E+03  0.63625614735E+03  0.82486202308E+02 0.  0.
        254    2    1    2    0    0 -0.16457575210E+03  0.53463851329E+03 -0.49988836613E+01  0.10597317985E+04  0.90004609761E+03 0.  0.
         23    2    4    4    0    0 -0.10614092773E+03 -0.12969726368E+03  0.27278329037E+03  0.33147979794E+03  0.85911909507E+02 0.  0.
         23    2    4    4    0    0 -0.58434824375E+02  0.66433577697E+03 -0.27778217403E+03  0.72825200055E+03  0.91822583459E+02 0.  0.
          3    1    3    3  502    0 -0.77818053264E+01 -0.12109912438E+02  0.13341741431E+02  0.19626730186E+02  0.00000000000E+00 0. -1.
         -4    1    3    3    0  502  0.17235755743E+03 -0.52252860085E+03  0.27836769172E+03  0.61662941716E+03  0.00000000000E+00 0.  1.
         13    1    5    5    0    0 -0.54627760327E+02 -0.19984957816E+02  0.14050468937E+03  0.15206958431E+03  0.00000000000E+00 0. -1.
        -13    1    5    5    0    0 -0.51513167402E+02 -0.10971230586E+03  0.13227860099E+03  0.17941021363E+03  0.00000000000E+00 0.  1.
          3    1    6    6  503    0 -0.32104885400E+02  0.37126548284E+03 -0.20424003732E+03  0.42495032093E+03  0.00000000000E+00 0. -1.
         -3    1    6    6    0  503 -0.26329938975E+02  0.29307029413E+03 -0.73542136712E+02  0.30330167962E+03  0.00000000000E+00 0.  1.
<mgrwt>
<rscale>  0 0.16715777E+04</rscale>
<asrwt>0</asrwt>
<pdfrwt beam="1">  1        1 0.15251527E+00 0.16715777E+04</pdfrwt>
<pdfrwt beam="2">  1       -2 0.10840595E+00 0.16715777E+04</pdfrwt>
<totfact> 0.87472876E+00</totfact>
</mgrwt>
</event>
<event>
12    5  0.5264288E-008  0.1457172E+04  0.7818608E-02  0.8913443E-01
         -2   -1    0    0    0  501 -0.00000000000E+00  0.00000000000E+00  0.35410366379E+03  0.35410366379E+03  0.00000000000E+00 0.  1.
          1   -1    0    0  501    0  0.00000000000E+00 -0.00000000000E+00 -0.14991027279E+04  0.14991027279E+04  0.00000000000E+00 0. -1.
        -24    2    1    2    0    0  0.17104584178E+03  0.40612713897E+03 -0.25964176434E+03  0.51750449585E+03  0.78747218586E+02 0.  0.
        254    2    1    2    0    0 -0.17104584178E+03 -0.40612713897E+03 -0.88535729980E+03  0.13357018959E+04  0.89780068686E+03 0.  0.
         23    2    4    4    0    0 -0.51265756225E+03 -0.16175307588E+03 -0.64019862393E+03  0.84095243297E+03  0.91459732884E+02 0.  0.
         23    2    4    4    0    0  0.34161172047E+03 -0.24437406310E+03 -0.24515867587E+03  0.49474946291E+03  0.90868060501E+02 0.  0.
          1    1    3    3  502    0  0.16406066798E+03  0.32125175355E+03 -0.19127210159E+03  0.40829353262E+03  0.00000000000E+00 0. -1.
         -2    1    3    3    0  502  0.69851737961E+01  0.84875385425E+02 -0.68369662749E+02  0.10921096322E+03  0.00000000000E+00 0.  1.
         13    1    5    5    0    0 -0.21041558511E+02 -0.19656613347E+02 -0.13332926597E+02  0.31731633498E+02  0.00000000000E+00 0. -1.
        -13    1    5    5    0    0 -0.49161600374E+03 -0.14209646253E+03 -0.62686569734E+03  0.80922079947E+03  0.00000000000E+00 0.  1.
          4    1    6    6  503    0  0.39911684127E+02 -0.71103488349E+02 -0.39614842393E+02  0.90653098805E+02  0.00000000000E+00 0. -1.
         -4    1    6    6    0  503  0.30170003634E+03 -0.17327057475E+03 -0.20554383348E+03  0.40409636410E+03  0.00000000000E+00 0.  1.
<mgrwt>
<rscale>  0 0.14571723E+04</rscale>
<asrwt>0</asrwt>
<pdfrwt beam="1">  1        1 0.23063119E+00 0.14571723E+04</pdfrwt>
<pdfrwt beam="2">  1       -2 0.54477487E-01 0.14571723E+04</pdfrwt>
<totfact> 0.17694715E+01</totfact>
</mgrwt>
</event>
<event>
12    5  0.5264288E-008  0.1873923E+04  0.7818608E-02  0.8667946E-01
          1   -1    0    0  501    0  0.00000000000E+00  0.00000000000E+00  0.15600570283E+04  0.15600570283E+04  0.00000000000E+00 0. -1.
         -2   -1    0    0    0  501 -0.00000000000E+00 -0.00000000000E+00 -0.56273392724E+03  0.56273392724E+03  0.00000000000E+00 0.  1.
        -24    2    1    2    0    0  0.49418598233E+03 -0.40114684532E+03  0.71531685390E+03  0.96285822738E+03  0.10138633004E+03 0.  0.
        254    2    1    2    0    0 -0.49418598233E+03  0.40114684532E+03  0.28200624715E+03  0.11599327281E+04  0.92778113462E+03 0.  0.
         23    2    4    4    0    0 -0.38066319529E+03  0.69453897217E+03  0.18829447133E+03  0.81920037446E+03  0.91354219747E+02 0.  0.
         23    2    4    4    0    0 -0.11352278704E+03 -0.29339212686E+03  0.93711775827E+02  0.34073235369E+03  0.91379848117E+02 0.  0.
          1    1    3    3  502    0  0.11517711467E+03 -0.10151098294E+03  0.11257421132E+03  0.19037647033E+03  0.00000000000E+00 0. -1.
         -2    1    3    3    0  502  0.37900886766E+03 -0.29963586237E+03  0.60274264258E+03  0.77248175705E+03  0.00000000000E+00 0.  1.
         13    1    5    5    0    0 -0.58010284654E+02  0.55529397112E+02  0.61266060110E+01  0.80537211092E+02  0.00000000000E+00 0. -1.
        -13    1    5    5    0    0 -0.32265291064E+03  0.63900957506E+03  0.18216786532E+03  0.73866316337E+03  0.00000000000E+00 0.  1.
          3    1    6    6  503    0 -0.28060286928E+02 -0.95616571190E+02  0.74514693657E+02  0.12442808348E+03  0.00000000000E+00 0. -1.
         -3    1    6    6    0  503 -0.85462500108E+02 -0.19777555567E+03  0.19197082170E+02  0.21630427020E+03  0.00000000000E+00 0.  1.
<mgrwt>
<rscale>  0 0.18739232E+04</rscale>
<asrwt>0</asrwt>
<pdfrwt beam="1">  1        1 0.24000877E+00 0.18739232E+04</pdfrwt>
<pdfrwt beam="2">  1       -2 0.86574451E-01 0.18739232E+04</pdfrwt>
<totfact> 0.56531632E+00</totfact>
</mgrwt>
</event>
<event>
12    5  0.5264288E-008  0.1159263E+04  0.7818608E-02  0.9149280E-01
         -2   -1    0    0    0  501 -0.00000000000E+00  0.00000000000E+00  0.73397776215E+03  0.73397776215E+03  0.00000000000E+00 0.  1.
          1   -1    0    0  501    0  0.00000000000E+00 -0.00000000000E+00 -0.45774251160E+03  0.45774251160E+03  0.00000000000E+00 0. -1.
        -24    2    1    2    0    0 -0.47048735541E+02 -0.23286390018E+03  0.26758309116E+02  0.25168290005E+03  0.78670804930E+02 0.  0.
        254    2    1    2    0    0  0.47048735541E+02  0.23286390018E+03  0.24947694143E+03  0.94003737370E+03  0.87463840535E+03 0.  0.
         23    2    4    4    0    0 -0.20588076285E+03  0.28922082617E+03  0.46457248072E+03  0.59151099736E+03  0.89566150720E+02 0.  0.
         23    2    4    4    0    0  0.25292949839E+03 -0.56356925989E+02 -0.21509553928E+03  0.34852637634E+03  0.89750263065E+02 0.  0.
          3    1    3    3  502    0 -0.34444619819E+01 -0.10262897238E+03  0.46869640865E+02  0.11287751559E+03  0.00000000000E+00 0. -1.
         -4    1    3    3    0  502 -0.43604273559E+02 -0.13023492780E+03 -0.20111331749E+02  0.13880538446E+03  0.00000000000E+00 0.  1.
         13    1    5    5    0    0 -0.10162823235E+03  0.99885767274E+02  0.24486892594E+03  0.28331299830E+03  0.00000000000E+00 0. -1.
        -13    1    5    5    0    0 -0.10425253050E+03  0.18933505890E+03  0.21970355478E+03  0.30819799906E+03  0.00000000000E+00 0.  1.
          4    1    6    6  503    0  0.33418867242E+02  0.18794660801E+02 -0.12000586265E+02  0.40175540233E+02  0.00000000000E+00 0. -1.
         -4    1    6    6    0  503  0.21951063115E+03 -0.75151586790E+02 -0.20309495302E+03  0.30835083611E+03  0.00000000000E+00 0.  1.
<mgrwt>
<rscale>  0 0.11592633E+04</rscale>
<asrwt>0</asrwt>
<pdfrwt beam="1">  1        1 0.70421925E-01 0.11592633E+04</pdfrwt>
<pdfrwt beam="2">  1       -2 0.11291965E+00 0.11592633E+04</pdfrwt>
<totfact> 0.26756802E+01</totfact>
</mgrwt>
</event>
<event>
12    5  0.5264288E-008  0.2056318E+04  0.7818608E-02  0.8580734E-01
          1   -1    0    0  501    0  0.00000000000E+00  0.00000000000E+00  0.14835116961E+04  0.14835116961E+04  0.00000000000E+00 0. -1.
         -2   -1    0    0    0  501 -0.00000000000E+00 -0.00000000000E+00 -0.71257328034E+03  0.71257328034E+03  0.00000000000E+00 0.  1.
        -24    2    1    2    0    0  0.59611080152E+03  0.50327421909E+03  0.20734787942E+02  0.78408987660E+03  0.75723020660E+02 0.  0.
        254    2    1    2    0    0 -0.59611080152E+03 -0.50327421909E+03  0.75020362781E+03  0.14119950998E+04  0.90680298384E+03 0.  0.
         23    2    4    4    0    0 -0.10471615918E+03  0.19105824067E+03  0.44280551108E+03  0.50273873320E+03  0.95920737579E+02 0.  0.
         23    2    4    4    0    0 -0.49139464234E+03 -0.69433245976E+03  0.30739811672E+03  0.90925636663E+03  0.93205573354E+02 0.  0.
          1    1    3    3  502    0  0.18078739352E+02  0.16417906148E+02 -0.12857368672E+02  0.27598920052E+02  0.00000000000E+00 0. -1.
         -4    1    3    3    0  502  0.57803206216E+03  0.48685631295E+03  0.33592156614E+02  0.75649095654E+03  0.00000000000E+00 0.  1.
         13    1    5    5    0    0 -0.51477633892E+02  0.16797348075E+03  0.37037582453E+03  0.40993083371E+03  0.00000000000E+00 0.  1.
        -13    1    5    5    0    0 -0.53238525286E+02  0.23084759920E+02  0.72429686550E+02  0.92807899497E+02  0.00000000000E+00 0. -1.
          3    1    6    6  503    0 -0.49330152354E+03 -0.67984665250E+03  0.30795149422E+03  0.89463511379E+03  0.00000000000E+00 0.  1.
         -3    1    6    6    0  503  0.19068812054E+01 -0.14485807264E+02 -0.55337749173E+00  0.14621252842E+02  0.00000000000E+00 0. -1.
<mgrwt>
<rscale>  0 0.20563179E+04</rscale>
<asrwt>0</asrwt>
<pdfrwt beam="1">  1        1 0.22823257E+00 0.20563179E+04</pdfrwt>
<pdfrwt beam="2">  1       -2 0.10962666E+00 0.20563179E+04</pdfrwt>
<totfact> 0.36053775E+00</totfact>
</mgrwt>
</event>
<event>
12    5  0.5264288E-008  0.2082878E+04  0.7818608E-02  0.8568824E-01
         -2   -1    0    0    0  501 -0.00000000000E+00  0.00000000000E+00  0.10386976399E+04  0.10386976399E+04  0.00000000000E+00 0.  1.
          1   -1    0    0  501    0  0.00000000000E+00 -0.00000000000E+00 -0.10441872767E+04  0.10441872767E+04  0.00000000000E+00 0. -1.
        -24    2    1    2    0    0 -0.35381300665E+02 -0.63147818671E+03  0.55302473712E+03  0.84392093688E+03  0.79684698069E+02 0.  0.
        254    2    1    2    0    0  0.35381300665E+02  0.63147818671E+03 -0.55851437393E+03  0.12389639797E+04  0.90723585709E+03 0.  0.
         23    2    4    4    0    0  0.68440751457E+02 -0.60046632566E+02  0.18269443810E+03  0.22063158792E+03  0.83733537695E+02 0.  0.
         23    2    4    4    0    0 -0.33059450792E+02  0.69152481928E+03 -0.74120881203E+03  0.10183323918E+04  0.91163886239E+02 0.  0.
          1    1    3    3  502    0  0.14267351252E+02 -0.36691352651E+03  0.29452593098E+03  0.47071713084E+03  0.00000000000E+00 0. -1.
         -2    1    3    3    0  502 -0.49648651918E+02 -0.26456466020E+03  0.25849880614E+03  0.37320380604E+03  0.00000000000E+00 0.  1.
         13    1    5    5    0    0  0.20679170329E+01 -0.22067786983E+02 -0.44400145306E+00  0.22168911576E+02  0.00000000000E+00 0.  1.
        -13    1    5    5    0    0  0.66372834424E+02 -0.37978845582E+02  0.18313843955E+03  0.19846267635E+03  0.00000000000E+00 0. -1.
          2    1    6    6  503    0  0.65197153552E+00  0.33841575364E+03 -0.42378576396E+03  0.54232833331E+03  0.00000000000E+00 0. -1.
         -2    1    6    6    0  503 -0.33711422327E+02  0.35310906564E+03 -0.31742304807E+03  0.47600405847E+03  0.00000000000E+00 0.  1.
<mgrwt>
<rscale>  0 0.20828777E+04</rscale>
<asrwt>0</asrwt>
<pdfrwt beam="1">  1        1 0.16064420E+00 0.20828777E+04</pdfrwt>
<pdfrwt beam="2">  1       -2 0.15979964E+00 0.20828777E+04</pdfrwt>
<totfact> 0.28538320E+00</totfact>
</mgrwt>
</event>
<event>
12    5  0.5264288E-008  0.1367884E+04  0.7818608E-02  0.8977400E-01
          1   -1    0    0  501    0  0.00000000000E+00  0.00000000000E+00  0.53845659555E+03  0.53845659555E+03  0.00000000000E+00 0. -1.
         -2   -1    0    0    0  501 -0.00000000000E+00 -0.00000000000E+00 -0.86873605257E+03  0.86873605257E+03  0.00000000000E+00 0.  1.
        -24    2    1    2    0    0  0.28223833139E+03  0.22341351278E+03  0.35529091425E+02  0.36987534555E+03  0.77287654333E+02 0.  0.
        254    2    1    2    0    0 -0.28223833139E+03 -0.22341351278E+03 -0.36580854845E+03  0.10373173026E+04  0.90146504019E+03 0.  0.
         23    2    4    4    0    0 -0.32644769716E+03 -0.50047426068E+03 -0.42157698607E+03  0.73689996292E+03  0.90839504519E+02 0.  0.
         23    2    4    4    0    0  0.44209365773E+02  0.27706074790E+03  0.55768437623E+02  0.30041733965E+03  0.91778719105E+02 0.  0.
          3    1    3    3  502    0  0.27384270814E+03  0.19491065887E+03  0.43963382775E+02  0.33898786522E+03  0.00000000000E+00 0. -1.
         -4    1    3    3    0  502  0.83956232509E+01  0.28502853907E+02 -0.84342913500E+01  0.30887480331E+02  0.00000000000E+00 0.  1.
         13    1    5    5    0    0 -0.89242239560E+02 -0.21702596047E+03 -0.17120288164E+03  0.29047352981E+03  0.00000000000E+00 0. -1.
        -13    1    5    5    0    0 -0.23720545760E+03 -0.28344830021E+03 -0.25037410443E+03  0.44642643311E+03  0.00000000000E+00 0.  1.
          1    1    6    6  503    0 -0.51376456338E+01  0.17890432793E+03  0.64410396049E+02  0.19021528086E+03  0.00000000000E+00 0. -1.
         -1    1    6    6    0  503  0.49347011407E+02  0.98156419971E+02 -0.86419584263E+01  0.11020205879E+03  0.00000000000E+00 0.  1.
<mgrwt>
<rscale>  0 0.13678840E+04</rscale>
<asrwt>0</asrwt>
<pdfrwt beam="1">  1        1 0.82839477E-01 0.13678840E+04</pdfrwt>
<pdfrwt beam="2">  1       -2 0.13365170E+00 0.13678840E+04</pdfrwt>
<totfact> 0.13825396E+01</totfact>
</mgrwt>
</event>
<event>
12    5  0.5264288E-008  0.2145645E+04  0.7818608E-02  0.8541399E-01
          1   -1    0    0  501    0  0.00000000000E+00  0.00000000000E+00  0.19600383492E+04  0.19600383492E+04  0.00000000000E+00 0. -1.
         -2   -1    0    0    0  501 -0.00000000000E+00 -0.00000000000E+00 -0.58720718611E+03  0.58720718611E+03  0.00000000000E+00 0.  1.
        -24    2    1    2    0    0  0.55551070834E+03 -0.66492652082E+03  0.84964378299E+03  0.12161621097E+04  0.80226516612E+02 0.  0.
        254    2    1    2    0    0 -0.55551070834E+03  0.66492652082E+03  0.52318738006E+03  0.13310834256E+04  0.86448749325E+03 0.  0.
         23    2    4    4    0    0 -0.16591963119E+03 -0.19728256761E+02 -0.18706069485E+03  0.26648898960E+03  0.90034159586E+02 0.  0.
         23    2    4    4    0    0 -0.38959107715E+03  0.68465477758E+03  0.71024807492E+03  0.10645944360E+04  0.91518376800E+02 0.  0.
          3    1    3    3  502    0  0.46019734763E+03 -0.58482656164E+03  0.75161599527E+03  0.10577004823E+04  0.00000000000E+00 0. -1.
         -4    1    3    3    0  502  0.95313360702E+02 -0.80099959171E+02  0.98027787714E+02  0.15846162738E+03  0.00000000000E+00 0.  1.
         13    1    5    5    0    0 -0.22398381387E+02 -0.38564746261E+02 -0.52102212282E+02  0.68582560958E+02  0.00000000000E+00 0. -1.
        -13    1    5    5    0    0 -0.14352124980E+03  0.18836489500E+02 -0.13495848257E+03  0.19790642864E+03  0.00000000000E+00 0.  1.
          1    1    6    6  503    0 -0.59195604844E+02  0.80285292340E+02  0.54917157267E+02  0.11386721197E+03  0.00000000000E+00 0. -1.
         -1    1    6    6    0  503 -0.33039547231E+03  0.60436948524E+03  0.65533091765E+03  0.95072722399E+03  0.00000000000E+00 0.  1.
<mgrwt>
<rscale>  0 0.21456455E+04</rscale>
<asrwt>0</asrwt>
<pdfrwt beam="1">  1        1 0.30154436E+00 0.21456455E+04</pdfrwt>
<pdfrwt beam="2">  1       -2 0.90339568E-01 0.21456455E+04</pdfrwt>
<totfact> 0.26737221E+00</totfact>
</mgrwt>
</event>
<event>
12    5  0.5264288E-008  0.1796463E+04  0.7818608E-02  0.8708183E-01
          1   -1    0    0  501    0  0.00000000000E+00  0.00000000000E+00  0.62481054993E+03  0.62481054993E+03  0.00000000000E+00 0. -1.
         -2   -1    0    0    0  501 -0.00000000000E+00 -0.00000000000E+00 -0.12913032747E+04  0.12913032747E+04  0.00000000000E+00 0.  1.
        -24    2    1    2    0    0  0.26807099941E+03  0.59395903973E+03 -0.78868865443E+02  0.66127106012E+03  0.80060698333E+02 0.  0.
        254    2    1    2    0    0 -0.26807099941E+03 -0.59395903973E+03 -0.58762385934E+03  0.12548427645E+04  0.89703910839E+03 0.  0.
         23    2    4    4    0    0 -0.98642474457E+01 -0.34831811621E+03 -0.76430993372E+03  0.84511492296E+03  0.92880271171E+02 0.  0.
         23    2    4    4    0    0 -0.25820675197E+03 -0.24564092352E+03  0.17668607438E+03  0.40972784155E+03  0.98228026497E+02 0.  0.
          3    1    3    3  502    0  0.14004308981E+03  0.34161629937E+03 -0.67778571518E+01  0.36926914621E+03  0.00000000000E+00 0. -1.
         -4    1    3    3    0  502  0.12802790961E+03  0.25234274036E+03 -0.72091008291E+02  0.29200191391E+03  0.00000000000E+00 0.  1.
         13    1    5    5    0    0  0.32268883836E+02 -0.62872067201E+02 -0.12237843335E+03  0.14131758081E+03  0.00000000000E+00 0.  1.
        -13    1    5    5    0    0 -0.42133131282E+02 -0.28544604901E+03 -0.64193150037E+03  0.70379734215E+03  0.00000000000E+00 0. -1.
          4    1    6    6  503    0 -0.99545455375E+02 -0.16124650345E+03  0.10094850945E+03  0.21470988361E+03  0.00000000000E+00 0. -1.
         -4    1    6    6    0  503 -0.15866129659E+03 -0.84394420074E+02  0.75737564926E+02  0.19501795794E+03  0.00000000000E+00 0.  1.
<mgrwt>
<rscale>  0 0.17964631E+04</rscale>
<asrwt>0</asrwt>
<pdfrwt beam="1">  1        1 0.96124701E-01 0.17964631E+04</pdfrwt>
<pdfrwt beam="2">  1       -2 0.19866204E+00 0.17964631E+04</pdfrwt>
<totfact> 0.36182378E+00</totfact>
</mgrwt>
</event>
<event>
12    5  0.5264288E-008  0.1378978E+04  0.7818608E-02  0.8969178E-01
          1   -1    0    0  501    0  0.00000000000E+00  0.00000000000E+00  0.19136371478E+04  0.19136371478E+04  0.00000000000E+00 0. -1.
         -2   -1    0    0    0  501 -0.00000000000E+00 -0.00000000000E+00 -0.24842483364E+03  0.24842483364E+03  0.00000000000E+00 0.  1.
        -24    2    1    2    0    0  0.10249716043E+01  0.31288630882E+03  0.86599851789E+03  0.92415967932E+03  0.78859286584E+02 0.  0.
        254    2    1    2    0    0 -0.10249716043E+01 -0.31288630882E+03  0.79921379628E+03  0.12379023021E+04  0.89205410410E+03 0.  0.
         23    2    4    4    0    0 -0.33292263542E+03  0.12590454599E+03  0.19553606777E+03  0.41608094836E+03  0.90551454516E+02 0.  0.
         23    2    4    4    0    0  0.33189766381E+03 -0.43879085481E+03  0.60367772851E+03  0.82182135377E+03  0.90939892828E+02 0.  0.
          1    1    3    3  502    0  0.16518028528E+02  0.29887056924E+03  0.77504738297E+03  0.83083988125E+03  0.00000000000E+00 0. -1.
         -2    1    3    3    0  502 -0.15493056924E+02  0.14015739575E+02  0.90951134919E+02  0.93319798070E+02  0.00000000000E+00 0.  1.
         13    1    5    5    0    0 -0.92382612751E+01  0.14482136527E+02  0.32838040114E+02  0.37059609122E+02  0.00000000000E+00 0.  1.
        -13    1    5    5    0    0 -0.32368437414E+03  0.11142240946E+03  0.16269802765E+03  0.37902133924E+03  0.00000000000E+00 0. -1.
          3    1    6    6  503    0 -0.44772627024E+01 -0.12073874993E+01  0.12850264548E+01  0.48119599821E+01  0.00000000000E+00 0.  1.
         -3    1    6    6    0  503  0.33637492651E+03 -0.43758346731E+03  0.60239270206E+03  0.81700939379E+03  0.00000000000E+00 0. -1.
<mgrwt>
<rscale>  0 0.13789779E+04</rscale>
<asrwt>0</asrwt>
<pdfrwt beam="1">  1        1 0.29440570E+00 0.13789779E+04</pdfrwt>
<pdfrwt beam="2">  1       -2 0.38219207E-01 0.13789779E+04</pdfrwt>
<totfact> 0.18914716E+01</totfact>
</mgrwt>
</event>
<event>
12    5  0.5264288E-008  0.1071227E+04  0.7818608E-02  0.9233698E-01
         -2   -1    0    0    0  501 -0.00000000000E+00  0.00000000000E+00  0.82464295498E+03  0.82464295498E+03  0.00000000000E+00 0.  1.
          1   -1    0    0  501    0  0.00000000000E+00 -0.00000000000E+00 -0.34788641080E+03  0.34788641080E+03  0.00000000000E+00 0. -1.
        -24    2    1    2    0    0  0.42778946820E+02 -0.44750117188E+02 -0.60894509397E+02  0.11887695422E+03  0.81184836586E+02 0.  0.
        254    2    1    2    0    0 -0.42778946820E+02  0.44750117188E+02  0.53765105358E+03  0.10536524116E+04  0.90403657983E+03 0.  0.
         23    2    4    4    0    0  0.24924855800E+03  0.32983232102E+03  0.46482889725E+03  0.62875826105E+03  0.91415772524E+02 0.  0.
         23    2    4    4    0    0 -0.29202750482E+03 -0.28508220384E+03  0.72822156331E+02  0.42489415050E+03  0.93166765326E+02 0.  0.
          3    1    3    3  502    0  0.39848354849E+02 -0.66438272455E+02 -0.35109910821E+02  0.85056694439E+02  0.00000000000E+00 0. -1.
         -4    1    3    3    0  502  0.29305919711E+01  0.21688155267E+02 -0.25784598576E+02  0.33820259785E+02  0.00000000000E+00 0.  1.
         13    1    5    5    0    0  0.11371607028E+03  0.80452826684E+02  0.14245551930E+03  0.19924250786E+03  0.00000000000E+00 0. -1.
        -13    1    5    5    0    0  0.13553248772E+03  0.24937949434E+03  0.32237337795E+03  0.42951575319E+03  0.00000000000E+00 0.  1.
          3    1    6    6  503    0 -0.20339648722E+03 -0.13588216050E+03  0.32804125797E+02  0.24679992550E+03  0.00000000000E+00 0. -1.
         -3    1    6    6    0  503 -0.88631017599E+02 -0.14920004333E+03  0.40018030534E+02  0.17809422500E+03  0.00000000000E+00 0.  1.
<mgrwt>
<rscale>  0 0.10712275E+04</rscale>
<asrwt>0</asrwt>
<pdfrwt beam="1">  1        1 0.53520986E-01 0.10712275E+04</pdfrwt>
<pdfrwt beam="2">  1       -2 0.12686815E+00 0.10712275E+04</pdfrwt>
<totfact> 0.29049431E+01</totfact>
</mgrwt>
</event>
<event>
12    5  0.5264288E-008  0.1324201E+04  0.7818608E-02  0.9010591E-01
          1   -1    0    0  501    0  0.00000000000E+00  0.00000000000E+00  0.43147562308E+03  0.43147562308E+03  0.00000000000E+00 0. -1.
         -2   -1    0    0    0  501 -0.00000000000E+00 -0.00000000000E+00 -0.10159947043E+04  0.10159947043E+04  0.00000000000E+00 0.  1.
        -24    2    1    2    0    0 -0.75625252149E+02  0.27555995326E+02  0.21231753918E+03  0.24666385795E+03  0.96362906405E+02 0.  0.
        254    2    1    2    0    0  0.75625252149E+02 -0.27555995326E+02 -0.79683662041E+03  0.12008064694E+04  0.89471172217E+03 0.  0.
         23    2    4    4    0    0 -0.16341960962E+03  0.36646351657E+03 -0.25435766288E+03  0.48304467964E+03  0.87366263941E+02 0.  0.
         23    2    4    4    0    0  0.23904486177E+03 -0.39401951189E+03 -0.54247895752E+03  0.71776178981E+03  0.92221179034E+02 0.  0.
          3    1    3    3  502    0 -0.72882304836E+02  0.53209947657E+02  0.19693680588E+03  0.21662694753E+03  0.00000000000E+00 0. -1.
         -4    1    3    3    0  502 -0.27429473128E+01 -0.25653952331E+02  0.15380733306E+02  0.30036910414E+02  0.00000000000E+00 0.  1.
         13    1    5    5    0    0 -0.10563209550E+03  0.29175131530E+03 -0.22780319378E+03  0.38493020753E+03  0.00000000000E+00 0. -1.
        -13    1    5    5    0    0 -0.57787514115E+02  0.74712201271E+02 -0.26554469106E+02  0.98114472102E+02  0.00000000000E+00 0.  1.
          4    1    6    6  503    0  0.84710530400E+02 -0.87792333827E+02 -0.98670391714E+02  0.15690511158E+03  0.00000000000E+00 0.  1.
         -4    1    6    6    0  503  0.15433433137E+03 -0.30622717807E+03 -0.44380856581E+03  0.56085667823E+03  0.00000000000E+00 0. -1.
<mgrwt>
<rscale>  0 0.13242008E+04</rscale>
<asrwt>0</asrwt>
<pdfrwt beam="1">  1        1 0.66380866E-01 0.13242008E+04</pdfrwt>
<pdfrwt beam="2">  1       -2 0.15630687E+00 0.13242008E+04</pdfrwt>
<totfact> 0.12455821E+01</totfact>
</mgrwt>
</event>
<event>
12    5  0.5264288E-008  0.1166567E+04  0.7818608E-02  0.9142635E-01
         -2   -1    0    0    0  501 -0.00000000000E+00  0.00000000000E+00  0.30972321498E+03  0.30972321498E+03  0.00000000000E+00 0.  1.
          1   -1    0    0  501    0  0.00000000000E+00 -0.00000000000E+00 -0.10984629817E+04  0.10984629817E+04  0.00000000000E+00 0. -1.
        -24    2    1    2    0    0  0.10610972236E+03  0.13504475130E+03 -0.32274216238E+03  0.37402166714E+03  0.78951542624E+02 0.  0.
        254    2    1    2    0    0 -0.10610972236E+03 -0.13504475130E+03 -0.46599760434E+03  0.10341645295E+04  0.90710867534E+03 0.  0.
         23    2    4    4    0    0  0.20149880741E+03  0.27247739490E+03 -0.22116740591E+02  0.35143805822E+03  0.90409393508E+02 0.  0.
         23    2    4    4    0    0 -0.30760852978E+03 -0.40752214620E+03 -0.44388086375E+03  0.68272647132E+03  0.91585513049E+02 0.  0.
          1    1    3    3  502    0  0.64848678115E+02  0.60377530545E+02 -0.23721172332E+03  0.25321966537E+03  0.00000000000E+00 0. -1.
         -2    1    3    3    0  502  0.41261044249E+02  0.74667220756E+02 -0.85530439057E+02  0.12080200178E+03  0.00000000000E+00 0.  1.
         13    1    5    5    0    0  0.77235078880E+02  0.50648444972E+02  0.17801951076E+02  0.94060788056E+02  0.00000000000E+00 0.  1.
        -13    1    5    5    0    0  0.12426372853E+03  0.22182894993E+03 -0.39918691667E+02  0.25737727017E+03  0.00000000000E+00 0. -1.
          2    1    6    6  503    0 -0.28661907943E+03 -0.39048853795E+03 -0.38790693678E+03  0.62056714912E+03  0.00000000000E+00 0. -1.
         -2    1    6    6    0  503 -0.20989450341E+02 -0.17033608252E+02 -0.55973926968E+02  0.62159322196E+02  0.00000000000E+00 0.  1.
<mgrwt>
<rscale>  0 0.11665667E+04</rscale>
<asrwt>0</asrwt>
<pdfrwt beam="1">  1        1 0.16899431E+00 0.11665667E+04</pdfrwt>
<pdfrwt beam="2">  1       -2 0.47649725E-01 0.11665667E+04</pdfrwt>
<totfact> 0.46144922E+01</totfact>
</mgrwt>
</event>
<event>
12    5  0.5264288E-008  0.1303457E+04  0.7818608E-02  0.9026828E-01
         -2   -1    0    0    0  501 -0.00000000000E+00  0.00000000000E+00  0.61036100386E+03  0.61036100386E+03  0.00000000000E+00 0.  1.
          1   -1    0    0  501    0  0.00000000000E+00 -0.00000000000E+00 -0.69590008706E+03  0.69590008706E+03  0.00000000000E+00 0. -1.
        -24    2    1    2    0    0  0.17500236216E+03 -0.27302636022E+03  0.40523974462E+02  0.33810468474E+03  0.86621967159E+02 0.  0.
        254    2    1    2    0    0 -0.17500236216E+03  0.27302636022E+03 -0.12606305766E+03  0.96815640619E+03  0.90347424545E+03 0.  0.
         23    2    4    4    0    0  0.34430497233E+03  0.22096364622E+02  0.42890553324E+02  0.36004146151E+03  0.93573987533E+02 0.  0.
         23    2    4    4    0    0 -0.51930733449E+03  0.25092999560E+03 -0.16895361099E+03  0.60811494468E+03  0.92803517876E+02 0.  0.
          1    1    3    3  502    0  0.13153059004E+03 -0.22343714346E+03  0.65774524062E+02  0.26748970300E+03  0.00000000000E+00 0. -1.
         -2    1    3    3    0  502  0.43471772125E+02 -0.49589216759E+02 -0.25250549600E+02  0.70614981736E+02  0.00000000000E+00 0.  1.
         13    1    5    5    0    0  0.34202931340E+03  0.26076275801E+02  0.54716011749E+02  0.34735841048E+03  0.00000000000E+00 0. -1.
        -13    1    5    5    0    0  0.22756589222E+01 -0.39799111796E+01 -0.11825458424E+02  0.12683051032E+02  0.00000000000E+00 0.  1.
          3    1    6    6  503    0 -0.47050255042E+03  0.23648210147E+03 -0.12585427588E+03  0.54142010770E+03  0.00000000000E+00 0. -1.
         -3    1    6    6    0  503 -0.48804784072E+02  0.14447894133E+02 -0.43099335105E+02  0.66694836980E+02  0.00000000000E+00 0.  1.
<mgrwt>
<rscale>  0 0.13034574E+04</rscale>
<asrwt>0</asrwt>
<pdfrwt beam="1">  1        1 0.10706155E+00 0.13034574E+04</pdfrwt>
<pdfrwt beam="2">  1       -2 0.93901694E-01 0.13034574E+04</pdfrwt>
<totfact> 0.22646025E+01</totfact>
</mgrwt>
</event>
<event>
12    5  0.5264288E-008  0.1167005E+04  0.7818608E-02  0.9142238E-01
         -2   -1    0    0    0  501 -0.00000000000E+00  0.00000000000E+00  0.34360472195E+03  0.34360472195E+03  0.00000000000E+00 0.  1.
          1   -1    0    0  501    0  0.00000000000E+00 -0.00000000000E+00 -0.99089123323E+03  0.99089123323E+03  0.00000000000E+00 0. -1.
        -24    2    1    2    0    0  0.10275201189E+03  0.91339708411E+02  0.72970271510E+02  0.17426813329E+03  0.78382418167E+02 0.  0.
        254    2    1    2    0    0 -0.10275201189E+03 -0.91339708411E+02 -0.72025678279E+03  0.11602278219E+04  0.89914284030E+03 0.  0.
         23    2    4    4    0    0 -0.14365878355E+03 -0.30578900785E+03 -0.82916083077E+03  0.89997107767E+03  0.91079602195E+02 0.  0.
         23    2    4    4    0    0  0.40906771656E+02  0.21444929944E+03  0.10890404798E+03  0.26025674422E+03  0.90617963171E+02 0.  0.
          1    1    3    3  502    0  0.27059107524E+02  0.56432454600E+02 -0.13405601502E+01  0.62598836520E+02  0.00000000000E+00 0. -1.
         -2    1    3    3    0  502  0.75692904367E+02  0.34907253811E+02  0.74310831660E+02  0.11166929677E+03  0.00000000000E+00 0.  1.
         13    1    5    5    0    0 -0.15108017188E+03 -0.24955402981E+03 -0.66132471750E+03  0.72280897484E+03  0.00000000000E+00 0. -1.
        -13    1    5    5    0    0  0.74213883347E+01 -0.56234978044E+02 -0.16783611327E+03  0.17716210283E+03  0.00000000000E+00 0.  1.
          4    1    6    6  503    0  0.20911588295E+02  0.20980643488E+03  0.11315981836E+03  0.23929308208E+03  0.00000000000E+00 0. -1.
         -4    1    6    6    0  503  0.19995183361E+02  0.46428645601E+01 -0.42557703718E+01  0.20963662142E+02  0.00000000000E+00 0.  1.
<mgrwt>
<rscale>  0 0.11670046E+04</rscale>
<asrwt>0</asrwt>
<pdfrwt beam="1">  1        1 0.15244481E+00 0.11670046E+04</pdfrwt>
<pdfrwt beam="2">  1       -2 0.52862264E-01 0.11670046E+04</pdfrwt>
<totfact> 0.45149553E+01</totfact>
</mgrwt>
</event>
<event>
12    5  0.5264288E-008  0.2355917E+04  0.7818608E-02  0.8456195E-01
          1   -1    0    0  501    0  0.00000000000E+00  0.00000000000E+00  0.16231049792E+04  0.16231049792E+04  0.00000000000E+00 0. -1.
         -2   -1    0    0    0  501 -0.00000000000E+00 -0.00000000000E+00 -0.85489585940E+03  0.85489585940E+03  0.00000000000E+00 0.  1.
        -24    2    1    2    0    0 -0.96560409382E+02 -0.93356507751E+03 -0.51542832849E+02  0.94340562511E+03  0.80559563426E+02 0.  0.
        254    2    1    2    0    0  0.96560409382E+02  0.93356507751E+03  0.81975195270E+03  0.15345952135E+04  0.89561238204E+03 0.  0.
         23    2    4    4    0    0  0.46515761700E+03  0.32832085926E+03  0.29182391259E+03  0.64636858313E+03  0.92005184720E+02 0.  0.
         23    2    4    4    0    0 -0.36859720762E+03  0.60524421825E+03  0.52792804011E+03  0.88822663041E+03  0.89744449715E+02 0.  0.
          1    1    3    3  502    0 -0.62475650066E+02 -0.67981453859E+03 -0.72508631675E+02  0.68651912967E+03  0.00000000000E+00 0. -1.
         -2    1    3    3    0  502 -0.34084759315E+02 -0.25375053892E+03  0.20965798826E+02  0.25688649544E+03  0.00000000000E+00 0.  1.
         13    1    5    5    0    0  0.59207111964E+02  0.74095153192E+02  0.25024066252E+02  0.98090660746E+02  0.00000000000E+00 0. -1.
        -13    1    5    5    0    0  0.40595050504E+03  0.25422570607E+03  0.26679984634E+03  0.54827792238E+03  0.00000000000E+00 0.  1.
          3    1    6    6  503    0 -0.16179932326E+02  0.45895427360E+02  0.64789769513E+02  0.81030208541E+02  0.00000000000E+00 0. -1.
         -3    1    6    6    0  503 -0.35241727529E+03  0.55934879089E+03  0.46313827060E+03  0.80719642187E+03  0.00000000000E+00 0.  1.
<mgrwt>
<rscale>  0 0.23559166E+04</rscale>
<asrwt>0</asrwt>
<pdfrwt beam="1">  1        1 0.24970846E+00 0.23559166E+04</pdfrwt>
<pdfrwt beam="2">  1       -2 0.13152244E+00 0.23559166E+04</pdfrwt>
<totfact> 0.17920680E+00</totfact>
</mgrwt>
</event>
<event>
12    5  0.5264288E-008  0.1404039E+04  0.7818608E-02  0.8950900E-01
         -2   -1    0    0    0  501 -0.00000000000E+00  0.00000000000E+00  0.48088739805E+03  0.48088739805E+03  0.00000000000E+00 0.  1.
          1   -1    0    0  501    0  0.00000000000E+00 -0.00000000000E+00 -0.10248367832E+04  0.10248367832E+04  0.00000000000E+00 0. -1.
        -24    2    1    2    0    0  0.50182658698E+02  0.18873347549E+02 -0.59122613112E+03  0.59889952626E+03  0.79106270009E+02 0.  0.
        254    2    1    2    0    0 -0.50182658698E+02 -0.18873347549E+02  0.47276745996E+02  0.90682465496E+03  0.90400296551E+03 0.  0.
         23    2    4    4    0    0  0.34089608045E+03  0.27276256757E+02  0.26945456464E+03  0.44541257711E+03  0.93981219351E+02 0.  0.
         23    2    4    4    0    0 -0.39107873915E+03 -0.46149604307E+02 -0.22217781864E+03  0.46141207785E+03  0.92009544609E+02 0.  0.
          3    1    3    3  502    0  0.51551797802E+02  0.31158213823E+02 -0.57665114934E+03  0.57978872891E+03  0.00000000000E+00 0. -1.
         -4    1    3    3    0  502 -0.13691391044E+01 -0.12284866274E+02 -0.14574981787E+02  0.19110797350E+02  0.00000000000E+00 0.  1.
         13    1    5    5    0    0  0.20568040794E+03  0.13954646076E+02  0.21823296138E+03  0.30020790761E+03  0.00000000000E+00 0. -1.
        -13    1    5    5    0    0  0.13521567251E+03  0.13321610681E+02  0.51221603258E+02  0.14520466950E+03  0.00000000000E+00 0.  1.
          2    1    6    6  503    0 -0.70284925706E+02 -0.24819967536E+02 -0.81599361097E+02  0.11051903592E+03  0.00000000000E+00 0. -1.
         -2    1    6    6    0  503 -0.32079381344E+03 -0.21329636770E+02 -0.14057845755E+03  0.35089304193E+03  0.00000000000E+00 0.  1.
<mgrwt>
<rscale>  0 0.14040386E+04</rscale>
<asrwt>0</asrwt>
<pdfrwt beam="1">  1        1 0.15766720E+00 0.14040386E+04</pdfrwt>
<pdfrwt beam="2">  1       -2 0.73982677E-01 0.14040386E+04</pdfrwt>
<totfact> 0.20356398E+01</totfact>
</mgrwt>
</event>
<event>
12    5  0.5264288E-008  0.1613359E+04  0.7818608E-02  0.8812383E-01
          1   -1    0    0  501    0  0.00000000000E+00  0.00000000000E+00  0.14239753999E+04  0.14239753999E+04  0.00000000000E+00 0. -1.
         -2   -1    0    0    0  501 -0.00000000000E+00 -0.00000000000E+00 -0.45698245770E+03  0.45698245770E+03  0.00000000000E+00 0.  1.
        -24    2    1    2    0    0  0.29940409869E+03 -0.16288420195E+03 -0.17064368239E+03  0.38901899245E+03  0.77733085555E+02 0.  0.
        254    2    1    2    0    0 -0.29940409869E+03  0.16288420195E+03  0.11376366245E+04  0.14919388651E+04  0.90304507648E+03 0.  0.
         23    2    4    4    0    0 -0.58609617886E+03 -0.19951406422E+02  0.56521405255E+03  0.81970813609E+03  0.92453846163E+02 0.  0.
         23    2    4    4    0    0  0.28669208017E+03  0.18283560837E+03  0.57242257199E+03  0.67223072902E+03  0.92764991206E+02 0.  0.
          1    1    3    3  502    0  0.61952258250E+02 -0.14693383170E+01 -0.38443591011E+02  0.72925653561E+02  0.00000000000E+00 0. -1.
         -2    1    3    3    0  502  0.23745184044E+03 -0.16141486363E+03 -0.13220009138E+03  0.31609333889E+03  0.00000000000E+00 0.  1.
         13    1    5    5    0    0 -0.20451302206E+03  0.28879818861E+02  0.23357325970E+03  0.31179494508E+03  0.00000000000E+00 0. -1.
        -13    1    5    5    0    0 -0.38158315680E+03 -0.48831225284E+02  0.33164079285E+03  0.50791319101E+03  0.00000000000E+00 0.  1.
          4    1    6    6  503    0  0.16321148351E+03  0.49252255710E+02  0.28337624008E+03  0.33070510502E+03  0.00000000000E+00 0. -1.
         -4    1    6    6    0  503  0.12348059666E+03  0.13358335266E+03  0.28904633191E+03  0.34152562400E+03  0.00000000000E+00 0.  1.
<mgrwt>
<rscale>  0 0.16133590E+04</rscale>
<asrwt>0</asrwt>
<pdfrwt beam="1">  1        1 0.21907314E+00 0.16133590E+04</pdfrwt>
<pdfrwt beam="2">  1       -2 0.70304994E-01 0.16133590E+04</pdfrwt>
<totfact> 0.11444484E+01</totfact>
</mgrwt>
</event>
<event>
12    5  0.5264288E-008  0.1786079E+04  0.7818608E-02  0.8713738E-01
         -2   -1    0    0    0  501 -0.00000000000E+00  0.00000000000E+00  0.32061376199E+03  0.32061376199E+03  0.00000000000E+00 0.  1.
          1   -1    0    0  501    0  0.00000000000E+00 -0.00000000000E+00 -0.24874777488E+04  0.24874777488E+04  0.00000000000E+00 0. -1.
        -24    2    1    2    0    0  0.28062635633E+03 -0.78089761941E+02 -0.17266744865E+04  0.17537793342E+04  0.97406405225E+02 0.  0.
        254    2    1    2    0    0 -0.28062635633E+03  0.78089761941E+02 -0.44018950023E+03  0.10543121766E+04  0.91266544074E+03 0.  0.
         23    2    4    4    0    0 -0.20178909063E+02 -0.16673330112E+03  0.22391968606E+03  0.29444213925E+03  0.91372673613E+02 0.  0.
         23    2    4    4    0    0 -0.26044744727E+03  0.24482306307E+03 -0.66410918629E+03  0.75987003730E+03  0.92683640835E+02 0.  0.
          3    1    3    3  502    0  0.25057996678E+03 -0.79697186720E+02 -0.13165165349E+04  0.13425191797E+04  0.00000000000E+00 0. -1.
         -4    1    3    3    0  502  0.30046389555E+02  0.16074247783E+01 -0.41015795169E+03  0.41126015450E+03  0.00000000000E+00 0.  1.
         13    1    5    5    0    0 -0.16673792275E+02 -0.84467450769E+01  0.74265172549E+02  0.76581190282E+02  0.00000000000E+00 0. -1.
        -13    1    5    5    0    0 -0.35051167887E+01 -0.15828655605E+03  0.14965451351E+03  0.21786094897E+03  0.00000000000E+00 0.  1.
          1    1    6    6  503    0 -0.94578585056E+02  0.53235058168E+02 -0.27362771884E+03  0.29436577363E+03  0.00000000000E+00 0. -1.
         -1    1    6    6    0  503 -0.16586886221E+03  0.19158800490E+03 -0.39048146745E+03  0.46550426367E+03  0.00000000000E+00 0.  1.
<mgrwt>
<rscale>  0 0.17860791E+04</rscale>
<asrwt>0</asrwt>
<pdfrwt beam="1">  1        1 0.38268888E+00 0.17860791E+04</pdfrwt>
<pdfrwt beam="2">  1       -2 0.49325195E-01 0.17860791E+04</pdfrwt>
<totfact> 0.44666382E+00</totfact>
</mgrwt>
</event>
<event>
12    5  0.5264288E-008  0.2051466E+04  0.7818608E-02  0.8582930E-01
          1   -1    0    0  501    0  0.00000000000E+00  0.00000000000E+00  0.13481059490E+04  0.13481059490E+04  0.00000000000E+00 0. -1.
         -4   -1    0    0    0  501 -0.00000000000E+00 -0.00000000000E+00 -0.78044899303E+03  0.78044899303E+03  0.00000000000E+00 0.  1.
        -24    2    1    2    0    0  0.68324348662E+03 -0.12581270145E+03  0.69027972329E+03  0.98263076422E+03  0.80166230753E+02 0.  0.
        254    2    1    2    0    0 -0.68324348662E+03  0.12581270145E+03 -0.12262276731E+03  0.11459241778E+04  0.90302568092E+03 0.  0.
         23    2    4    4    0    0 -0.31405009105E+03 -0.30521611482E+03  0.19634998007E+03  0.48874990734E+03  0.92405740143E+02 0.  0.
         23    2    4    4    0    0 -0.36919339557E+03  0.43102881628E+03 -0.31897274738E+03  0.65717427048E+03  0.89692833714E+02 0.  0.
          3    1    3    3  502    0  0.38330655827E+03 -0.10994668851E+03  0.38146578695E+03  0.55184086342E+03  0.00000000000E+00 0. -1.
         -4    1    3    3    0  502  0.29993692836E+03 -0.15866012947E+02  0.30881393634E+03  0.43078990080E+03  0.00000000000E+00 0.  1.
         13    1    5    5    0    0 -0.95163912947E+02 -0.13816220309E+03  0.10821192511E+03  0.19963663348E+03  0.00000000000E+00 0. -1.
        -13    1    5    5    0    0 -0.21888617811E+03 -0.16705391173E+03  0.88138054969E+02  0.28911327386E+03  0.00000000000E+00 0.  1.
          3    1    6    6  503    0 -0.33783768808E+03  0.36472656493E+03 -0.24989955769E+03  0.55642569997E+03  0.00000000000E+00 0. -1.
         -3    1    6    6    0  503 -0.31355707486E+02  0.66302251347E+02 -0.69073189699E+02  0.10074857052E+03  0.00000000000E+00 0.  1.
<mgrwt>
<rscale>  0 0.20514657E+04</rscale>
<asrwt>0</asrwt>
<pdfrwt beam="1">  1        1 0.20740092E+00 0.20514657E+04</pdfrwt>
<pdfrwt beam="2">  1       -4 0.12006908E+00 0.20514657E+04</pdfrwt>
<totfact> 0.19913434E+00</totfact>
</mgrwt>
</event>
<event>
12    5  0.5264288E-008  0.1526018E+04  0.7818608E-02  0.8867333E-01
          1   -1    0    0  501    0  0.00000000000E+00  0.00000000000E+00  0.13366700910E+04  0.13366700910E+04  0.00000000000E+00 0. -1.
         -2   -1    0    0    0  501 -0.00000000000E+00 -0.00000000000E+00 -0.43554698786E+03  0.43554698786E+03  0.00000000000E+00 0.  1.
        -24    2    1    2    0    0 -0.40313382365E+03  0.10108090391E+03 -0.22356957305E+02  0.42360806668E+03  0.78801850916E+02 0.  0.
        254    2    1    2    0    0  0.40313382365E+03 -0.10108090391E+03  0.92348006045E+03  0.13486090122E+04  0.89061586375E+03 0.  0.
         23    2    4    4    0    0  0.42666431910E+03  0.30438218636E+03  0.33388150473E+03  0.62815855074E+03  0.91735211868E+02 0.  0.
         23    2    4    4    0    0 -0.23530495453E+02 -0.40546309027E+03  0.58959855573E+03  0.72045046144E+03  0.80426417849E+02 0.  0.
          1    1    3    3  502    0 -0.70668134086E+02  0.35882888524E+02  0.21144814986E+02  0.82028471062E+02  0.00000000000E+00 0. -1.
         -2    1    3    3    0  502 -0.33246568957E+03  0.65198015384E+02 -0.43501772292E+02  0.34157959562E+03  0.00000000000E+00 0.  1.
         13    1    5    5    0    0  0.42960914384E+03  0.30313065168E+03  0.32359615077E+03  0.61738697529E+03  0.00000000000E+00 0.  1.
        -13    1    5    5    0    0 -0.29448247347E+01  0.12515346801E+01  0.10285353952E+02  0.10771575451E+02  0.00000000000E+00 0. -1.
          2    1    6    6  503    0  0.74784788585E+01 -0.21248794642E+03  0.24599014971E+03  0.32514336650E+03  0.00000000000E+00 0. -1.
         -2    1    6    6    0  503 -0.31008974311E+02 -0.19297514385E+03  0.34360840601E+03  0.39530709495E+03  0.00000000000E+00 0.  1.
<mgrwt>
<rscale>  0 0.15260179E+04</rscale>
<asrwt>0</asrwt>
<pdfrwt beam="1">  1        1 0.20564155E+00 0.15260179E+04</pdfrwt>
<pdfrwt beam="2">  1       -2 0.67007230E-01 0.15260179E+04</pdfrwt>
<totfact> 0.14744817E+01</totfact>
</mgrwt>
</event>
<event>
12    5  0.5264288E-008  0.1882672E+04  0.7818608E-02  0.8663530E-01
         -2   -1    0    0    0  501 -0.00000000000E+00  0.00000000000E+00  0.12597346812E+04  0.12597346812E+04  0.00000000000E+00 0.  1.
          1   -1    0    0  501    0  0.00000000000E+00 -0.00000000000E+00 -0.70341300591E+03  0.70341300591E+03  0.00000000000E+00 0. -1.
        -24    2    1    2    0    0  0.68240622364E+02 -0.65732520514E+03  0.51551792220E+03  0.84110975279E+03  0.70524324081E+02 0.  0.
        254    2    1    2    0    0 -0.68240622364E+02  0.65732520514E+03  0.40803753051E+02  0.11220379343E+04  0.90585372542E+03 0.  0.
         23    2    4    4    0    0  0.14602560282E+03  0.59054087991E+03  0.36660993824E+03  0.71603261378E+03  0.90762600489E+02 0.  0.
         23    2    4    4    0    0 -0.21426622518E+03  0.66784325228E+02 -0.32580618519E+03  0.40600532050E+03  0.91216712381E+02 0.  0.
          3    1    3    3  502    0 -0.28141875544E+01 -0.44984840285E+02  0.16504642246E+02  0.47999570027E+02  0.00000000000E+00 0. -1.
         -4    1    3    3    0  502  0.71054809919E+02 -0.61234036486E+03  0.49901327995E+03  0.79311018277E+03  0.00000000000E+00 0.  1.
         13    1    5    5    0    0 -0.11806575651E+01 -0.29500116542E+01  0.20610579264E+00  0.31841797443E+01  0.00000000000E+00 0. -1.
        -13    1    5    5    0    0  0.14720626039E+03  0.59349089157E+03  0.36640383245E+03  0.71284843403E+03  0.00000000000E+00 0.  1.
          4    1    6    6  503    0 -0.65998648106E+02  0.24799926261E+02 -0.18220390405E+03  0.19536919037E+03  0.00000000000E+00 0. -1.
         -4    1    6    6    0  503 -0.14826757708E+03  0.41984398966E+02 -0.14360228114E+03  0.21063613014E+03  0.00000000000E+00 0.  1.
<mgrwt>
<rscale>  0 0.18826723E+04</rscale>
<asrwt>0</asrwt>
<pdfrwt beam="1">  1        1 0.10821739E+00 0.18826723E+04</pdfrwt>
<pdfrwt beam="2">  1       -2 0.19380534E+00 0.18826723E+04</pdfrwt>
<totfact> 0.32417968E+00</totfact>
</mgrwt>
</event>
<event>
12    5  0.5264288E-008  0.1019401E+04  0.7818608E-02  0.9287518E-01
          1   -1    0    0  501    0  0.00000000000E+00  0.00000000000E+00  0.60548860283E+03  0.60548860283E+03  0.00000000000E+00 0. -1.
         -2   -1    0    0    0  501 -0.00000000000E+00 -0.00000000000E+00 -0.42906632956E+03  0.42906632956E+03  0.00000000000E+00 0.  1.
        -24    2    1    2    0    0 -0.39853699025E+02 -0.42996471757E+01 -0.60219998024E+02  0.10791076025E+03  0.80071716128E+02 0.  0.
        254    2    1    2    0    0  0.39853699025E+02  0.42996471757E+01  0.23664227130E+03  0.92664417214E+03  0.89502125836E+03 0.  0.
         23    2    4    4    0    0 -0.31098627812E+03 -0.19847234417E+03  0.32738331520E+03  0.50147669307E+03  0.90527907544E+02 0.  0.
         23    2    4    4    0    0  0.35083997714E+03  0.20277199135E+03 -0.90741043905E+02  0.42516747907E+03  0.91259400458E+02 0.  0.
          3    1    3    3  502    0  0.15922020858E+02  0.95139569430E+01  0.66866223213E+01  0.19716415571E+02  0.00000000000E+00 0. -1.
         -4    1    3    3    0  502 -0.55775719883E+02 -0.13813604119E+02 -0.66906620345E+02  0.88194344678E+02  0.00000000000E+00 0.  1.
         13    1    5    5    0    0 -0.28739149536E+01 -0.13546991175E+01 -0.58587122294E+01  0.66647660008E+01  0.00000000000E+00 0.  1.
        -13    1    5    5    0    0 -0.30811236316E+03 -0.19711764506E+03  0.33324202743E+03  0.49481192707E+03  0.00000000000E+00 0. -1.
          2    1    6    6  503    0  0.75416957999E+02  0.74370423242E+02  0.64668238915E+01  0.10611549000E+03  0.00000000000E+00 0.  1.
         -2    1    6    6    0  503  0.27542301914E+03  0.12840156811E+03 -0.97207867797E+02  0.31905198907E+03  0.00000000000E+00 0. -1.
<mgrwt>
<rscale>  0 0.10194013E+04</rscale>
<asrwt>0</asrwt>
<pdfrwt beam="1">  1        1 0.93152092E-01 0.10194013E+04</pdfrwt>
<pdfrwt beam="2">  1       -2 0.66010205E-01 0.10194013E+04</pdfrwt>
<totfact> 0.62602580E+01</totfact>
</mgrwt>
</event>
<event>
12    5  0.5264288E-008  0.1666245E+04  0.7818608E-02  0.8780854E-01
          1   -1    0    0  501    0  0.00000000000E+00  0.00000000000E+00  0.13210691883E+04  0.13210691883E+04  0.00000000000E+00 0. -1.
         -2   -1    0    0    0  501 -0.00000000000E+00 -0.00000000000E+00 -0.52540224499E+03  0.52540224499E+03  0.00000000000E+00 0.  1.
        -24    2    1    2    0    0 -0.24239717786E+03  0.34946850104E+03  0.77593765916E+03  0.88838446003E+03  0.79139578435E+02 0.  0.
        254    2    1    2    0    0  0.24239717786E+03 -0.34946850104E+03  0.19729284111E+02  0.95808697321E+03  0.85828711894E+03 0.  0.
         23    2    4    4    0    0 -0.28706847511E+03 -0.24556560879E+02  0.11096185560E+03  0.32316645352E+03  0.95460406428E+02 0.  0.
         23    2    4    4    0    0  0.52946565298E+03 -0.32491194016E+03 -0.91232571485E+02  0.63492051970E+03  0.94334710949E+02 0.  0.
          3    1    3    3  502    0 -0.23227834547E+03  0.35228240669E+03  0.76029983779E+03  0.86954698963E+03  0.00000000000E+00 0. -1.
         -4    1    3    3    0  502 -0.10118832397E+02 -0.28139056447E+01  0.15637821368E+02  0.18837470404E+02  0.00000000000E+00 0.  1.
         13    1    5    5    0    0 -0.17575130126E+03 -0.41687393726E+02  0.26884180465E+02  0.18261740840E+03  0.00000000000E+00 0. -1.
        -13    1    5    5    0    0 -0.11131717385E+03  0.17130832848E+02  0.84077675130E+02  0.14054904512E+03  0.00000000000E+00 0.  1.
          3    1    6    6  503    0  0.50036251442E+03 -0.30288570839E+03 -0.10795328086E+03  0.59477416641E+03  0.00000000000E+00 0. -1.
         -3    1    6    6    0  503  0.29103138561E+02 -0.22026231774E+02  0.16720709377E+02  0.40146353288E+02  0.00000000000E+00 0.  1.
<mgrwt>
<rscale>  0 0.16662445E+04</rscale>
<asrwt>0</asrwt>
<pdfrwt beam="1">  1        1 0.20324141E+00 0.16662445E+04</pdfrwt>
<pdfrwt beam="2">  1       -2 0.80831115E-01 0.16662445E+04</pdfrwt>
<totfact> 0.98786626E+00</totfact>
</mgrwt>
</event>
<event>
12    5  0.5264288E-008  0.1175369E+04  0.7818608E-02  0.9134694E-01
         -2   -1    0    0    0  501 -0.00000000000E+00  0.00000000000E+00  0.35051958272E+03  0.35051958272E+03  0.00000000000E+00 0.  1.
          1   -1    0    0  501    0  0.00000000000E+00 -0.00000000000E+00 -0.98531674518E+03  0.98531674518E+03  0.00000000000E+00 0. -1.
        -24    2    1    2    0    0 -0.19205287845E+01 -0.27931962110E+02  0.13119027475E+03  0.15341425273E+03  0.74438980475E+02 0.  0.
        254    2    1    2    0    0  0.19205287845E+01  0.27931962110E+02 -0.76598743721E+03  0.11824220752E+04  0.90033400855E+03 0.  0.
         23    2    4    4    0    0  0.32769331507E+03 -0.25329907449E+03 -0.54273721772E+03  0.68884070085E+03  0.91621469977E+02 0.  0.
         23    2    4    4    0    0 -0.32577278628E+03  0.28123103660E+03 -0.22325021948E+03  0.49358137432E+03  0.92537064725E+02 0.  0.
          3    1    3    3  502    0 -0.10003648335E+02 -0.32029778080E+02  0.14804744925E+02  0.36676424801E+02  0.00000000000E+00 0. -1.
         -4    1    3    3    0  502  0.80831195509E+01  0.40978159702E+01  0.11638552982E+03  0.11673782793E+03  0.00000000000E+00 0.  1.
         13    1    5    5    0    0  0.29476940556E+03 -0.18450860627E+03 -0.45255622886E+03  0.57073598846E+03  0.00000000000E+00 0. -1.
        -13    1    5    5    0    0  0.32923909507E+02 -0.68790468223E+02 -0.90180988862E+02  0.11810471239E+03  0.00000000000E+00 0.  1.
          1    1    6    6  503    0 -0.23862089262E+03  0.14871458627E+03 -0.15316129298E+03  0.32017860677E+03  0.00000000000E+00 0. -1.
         -1    1    6    6    0  503 -0.87151893666E+02  0.13251645033E+03 -0.70088926502E+02  0.17340276756E+03  0.00000000000E+00 0.  1.
<mgrwt>
<rscale>  0 0.11753686E+04</rscale>
<asrwt>0</asrwt>
<pdfrwt beam="1">  1        1 0.15158719E+00 0.11753686E+04</pdfrwt>
<pdfrwt beam="2">  1       -2 0.53926090E-01 0.11753686E+04</pdfrwt>
<totfact> 0.43740516E+01</totfact>
</mgrwt>
</event>
<event>
12    5  0.5264288E-008  0.1163601E+04  0.7818608E-02  0.9145327E-01
          1   -1    0    0  501    0  0.00000000000E+00  0.00000000000E+00  0.10900446918E+04  0.10900446918E+04  0.00000000000E+00 0. -1.
         -2   -1    0    0    0  501 -0.00000000000E+00 -0.00000000000E+00 -0.31053004052E+03  0.31053004052E+03  0.00000000000E+00 0.  1.
        -24    2    1    2    0    0  0.11673564217E+03  0.15215269302E+03  0.60428235098E+01  0.20848014022E+03  0.81546312001E+02 0.  0.
        254    2    1    2    0    0 -0.11673564217E+03 -0.15215269302E+03  0.77347182782E+03  0.11920945921E+04  0.88659641103E+03 0.  0.
         23    2    4    4    0    0  0.10509269320E+03 -0.44585085535E+03  0.63661816653E+03  0.78949221988E+03  0.90486551029E+02 0.  0.
         23    2    4    4    0    0 -0.22182833538E+03  0.29369816233E+03  0.13685366129E+03  0.40260237227E+03  0.88844384264E+02 0.  0.
          1    1    3    3  502    0  0.36504697069E+02  0.14370374057E+01 -0.71683338883E+01  0.37229598377E+02  0.00000000000E+00 0. -1.
         -2    1    3    3    0  502  0.80230945106E+02  0.15071565562E+03  0.13211157398E+02  0.17125054184E+03  0.00000000000E+00 0.  1.
         13    1    5    5    0    0  0.90670867704E+02 -0.44201603468E+03  0.62335991154E+03  0.76953035059E+03  0.00000000000E+00 0.  1.
        -13    1    5    5    0    0  0.14421825499E+02 -0.38348206720E+01  0.13258254993E+02  0.19961869295E+02  0.00000000000E+00 0. -1.
          1    1    6    6  503    0 -0.36955360554E+02  0.11100675602E+03  0.60465936536E+02  0.13169786649E+03  0.00000000000E+00 0. -1.
         -1    1    6    6    0  503 -0.18487297482E+03  0.18269140630E+03  0.76387724751E+02  0.27090450578E+03  0.00000000000E+00 0.  1.
<mgrwt>
<rscale>  0 0.11636007E+04</rscale>
<asrwt>0</asrwt>
<pdfrwt beam="1">  1        1 0.16769918E+00 0.11636007E+04</pdfrwt>
<pdfrwt beam="2">  1       -2 0.47773853E-01 0.11636007E+04</pdfrwt>
<totfact> 0.46588569E+01</totfact>
</mgrwt>
</event>
<event>
12    5  0.5264288E-008  0.1028420E+04  0.7818608E-02  0.9277912E-01
          1   -1    0    0  501    0  0.00000000000E+00  0.00000000000E+00  0.44119053266E+03  0.44119053266E+03  0.00000000000E+00 0. -1.
         -2   -1    0    0    0  501 -0.00000000000E+00 -0.00000000000E+00 -0.59931434636E+03  0.59931434636E+03  0.00000000000E+00 0.  1.
        -24    2    1    2    0    0 -0.10754248118E+03  0.19901905821E+03 -0.10699050879E+03  0.26258294983E+03  0.79554168819E+02 0.  0.
        254    2    1    2    0    0  0.10754248118E+03 -0.19901905821E+03 -0.51133304901E+02  0.77792192919E+03  0.74254558261E+03 0.  0.
         23    2    4    4    0    0 -0.27362486259E+03 -0.61418855752E+02  0.13232879176E+03  0.32343117801E+03  0.91945508372E+02 0.  0.
         23    2    4    4    0    0  0.38116734378E+03 -0.13760020246E+03 -0.18346209666E+03  0.45449075119E+03  0.93172647941E+02 0.  0.
          1    1    3    3  502    0 -0.19951080682E+01 -0.21196283889E+01  0.76199202627E+01  0.81569887532E+01  0.00000000000E+00 0. -1.
         -2    1    3    3    0  502 -0.10554737311E+03  0.20113868660E+03 -0.11461042905E+03  0.25442596107E+03  0.00000000000E+00 0.  1.
         13    1    5    5    0    0 -0.26044110460E+01 -0.49463578884E+01  0.26448855644E+02  0.27033153314E+02  0.00000000000E+00 0. -1.
        -13    1    5    5    0    0 -0.27102045155E+03 -0.56472497864E+02  0.10587993611E+03  0.29639802469E+03  0.00000000000E+00 0.  1.
          1    1    6    6  503    0  0.20843815497E+02  0.85965580147E+01  0.38524287910E+01  0.22873711150E+02  0.00000000000E+00 0. -1.
         -1    1    6    6    0  503  0.36032352828E+03 -0.14619676048E+03 -0.18731452545E+03  0.43161704004E+03  0.00000000000E+00 0.  1.
<mgrwt>
<rscale>  0 0.10284198E+04</rscale>
<asrwt>0</asrwt>
<pdfrwt beam="1">  1        1 0.67875466E-01 0.10284198E+04</pdfrwt>
<pdfrwt beam="2">  1       -2 0.92202207E-01 0.10284198E+04</pdfrwt>
<totfact> 0.45998796E+01</totfact>
</mgrwt>
</event>
<event>
12    5  0.5264288E-008  0.2705753E+04  0.7818608E-02  0.8333141E-01
          3   -1    0    0  501    0  0.00000000000E+00  0.00000000000E+00  0.11768166566E+04  0.11768166566E+04  0.00000000000E+00 0. -1.
         -4   -1    0    0    0  501 -0.00000000000E+00 -0.00000000000E+00 -0.15552758928E+04  0.15552758928E+04  0.00000000000E+00 0.  1.
        -24    2    1    2    0    0  0.55194330474E+03 -0.10651470220E+04  0.38057941891E+02  0.12029217771E+04  0.79955016486E+02 0.  0.
        254    2    1    2    0    0 -0.55194330474E+03  0.10651470220E+04 -0.41651717809E+03  0.15291707722E+04  0.85187857159E+03 0.  0.
         23    2    4    4    0    0 -0.30359018363E+03  0.11457209415E+04 -0.27998065864E+03  0.12212589252E+04  0.90778399310E+02 0.  0.
         23    2    4    4    0    0 -0.24835312110E+03 -0.80573919476E+02 -0.13653651945E+03  0.30791184700E+03  0.89420663803E+02 0.  0.
          3    1    3    3  502    0  0.27579331565E+02 -0.32464989263E+02 -0.99452002751E+01  0.43743594570E+02  0.00000000000E+00 0. -1.
         -4    1    3    3    0  502  0.52436397317E+03 -0.10326820328E+04  0.48003142166E+02  0.11591781825E+04  0.00000000000E+00 0.  1.
         13    1    5    5    0    0 -0.23525023040E+03  0.99036556395E+03 -0.25808020908E+03  0.10501295232E+04  0.00000000000E+00 0. -1.
        -13    1    5    5    0    0 -0.68339953228E+02  0.15535537757E+03 -0.21900449561E+02  0.17112940203E+03  0.00000000000E+00 0.  1.
          3    1    6    6  503    0 -0.16725461765E+03 -0.11100882514E+02 -0.67210763006E+02  0.18059519202E+03  0.00000000000E+00 0. -1.
         -3    1    6    6    0  503 -0.81098503456E+02 -0.69473036962E+02 -0.69325756444E+02  0.12731665498E+03  0.00000000000E+00 0.  1.
<mgrwt>
<rscale>  0 0.27057528E+04</rscale>
<asrwt>0</asrwt>
<pdfrwt beam="1">  1        3 0.18104872E+00 0.27057528E+04</pdfrwt>
<pdfrwt beam="2">  1       -4 0.23927321E+00 0.27057528E+04</pdfrwt>
<totfact> 0.28713709E-02</totfact>
</mgrwt>
</event>
<event>
12    5  0.5264288E-008  0.1331848E+04  0.7818608E-02  0.9004684E-01
         -4   -1    0    0    0  501 -0.00000000000E+00  0.00000000000E+00  0.20356730078E+04  0.20356730078E+04  0.00000000000E+00 0.  1.
          3   -1    0    0  501    0  0.00000000000E+00 -0.00000000000E+00 -0.21784179697E+03  0.21784179697E+03  0.00000000000E+00 0. -1.
        -24    2    1    2    0    0 -0.32321652844E+03 -0.14582954059E+03  0.59656327520E+03  0.70015419885E+03  0.92698336962E+02 0.  0.
        254    2    1    2    0    0  0.32321652844E+03  0.14582954059E+03  0.12212679357E+04  0.15533606060E+04  0.89201940691E+03 0.  0.
         23    2    4    4    0    0  0.55207534664E+03  0.31822190988E+03  0.95672376147E+03  0.11530198877E+04  0.89900686069E+02 0.  0.
         23    2    4    4    0    0 -0.22885881819E+03 -0.17239236928E+03  0.26454417419E+03  0.40034071827E+03  0.90518412241E+02 0.  0.
          3    1    3    3  502    0 -0.18403021527E+03 -0.73596978242E+02  0.24448123859E+03  0.31472958451E+03  0.00000000000E+00 0. -1.
         -4    1    3    3    0  502 -0.13918631317E+03 -0.72232562351E+02  0.35208203661E+03  0.38542461434E+03  0.00000000000E+00 0.  1.
         13    1    5    5    0    0  0.29934768055E+03  0.12084396851E+03  0.47326276678E+03  0.57287864770E+03  0.00000000000E+00 0.  1.
        -13    1    5    5    0    0  0.25272766608E+03  0.19737794137E+03  0.48346099470E+03  0.58014123999E+03  0.00000000000E+00 0. -1.
          4    1    6    6  503    0 -0.19170460621E+02 -0.58406820157E+02  0.62070493434E+02  0.87359082850E+02  0.00000000000E+00 0. -1.
         -4    1    6    6    0  503 -0.20968835757E+03 -0.11398554912E+03  0.20247368076E+03  0.31298163542E+03  0.00000000000E+00 0.  1.
<mgrwt>
<rscale>  0 0.13318478E+04</rscale>
<asrwt>0</asrwt>
<pdfrwt beam="1">  1        3 0.33514124E-01 0.13318478E+04</pdfrwt>
<pdfrwt beam="2">  1       -4 0.31318045E+00 0.13318478E+04</pdfrwt>
<totfact> 0.50637223E-01</totfact>
</mgrwt>
</event>
<event>
12    5  0.5264288E-008  0.1196577E+04  0.7818608E-02  0.9115858E-01
          1   -1    0    0  501    0  0.00000000000E+00  0.00000000000E+00  0.14256591461E+04  0.14256591461E+04  0.00000000000E+00 0. -1.
         -2   -1    0    0    0  501 -0.00000000000E+00 -0.00000000000E+00 -0.25107618773E+03  0.25107618773E+03  0.00000000000E+00 0.  1.
        -24    2    1    2    0    0 -0.22815238356E+03 -0.71072468150E+02  0.30461065102E+03  0.39515164634E+03  0.79071923204E+02 0.  0.
        254    2    1    2    0    0  0.22815238356E+03  0.71072468150E+02  0.86997230737E+03  0.12815836875E+04  0.91021982327E+03 0.  0.
         23    2    4    4    0    0  0.51757243960E+03  0.34293596489E+02  0.23695223218E+03  0.57856449823E+03  0.97638298217E+02 0.  0.
         23    2    4    4    0    0 -0.28942005604E+03  0.36778871661E+02  0.63302007519E+03  0.70301918930E+03  0.91678299936E+02 0.  0.
          1    1    3    3  502    0 -0.19232038267E+03 -0.59669754189E+02  0.29351247690E+03  0.35594547792E+03  0.00000000000E+00 0. -1.
         -2    1    3    3    0  502 -0.35832000887E+02 -0.11402713961E+02  0.11098174114E+02  0.39206168416E+02  0.00000000000E+00 0.  1.
         13    1    5    5    0    0  0.24598783764E+03  0.33133600351E+02  0.16349754810E+03  0.29721927928E+03  0.00000000000E+00 0. -1.
        -13    1    5    5    0    0  0.27158460196E+03  0.11599961379E+01  0.73454684083E+02  0.28134521895E+03  0.00000000000E+00 0.  1.
          1    1    6    6  503    0 -0.19782525048E+03 -0.18395653449E+02  0.39912572808E+03  0.44584142541E+03  0.00000000000E+00 0. -1.
         -1    1    6    6    0  503 -0.91594805565E+02  0.55174525110E+02  0.23389434711E+03  0.25717776389E+03  0.00000000000E+00 0.  1.
<mgrwt>
<rscale>  0 0.11965769E+04</rscale>
<asrwt>0</asrwt>
<pdfrwt beam="1">  1        1 0.21933217E+00 0.11965769E+04</pdfrwt>
<pdfrwt beam="2">  1       -2 0.38627107E-01 0.11965769E+04</pdfrwt>
<totfact> 0.40529770E+01</totfact>
</mgrwt>
</event>
<event>
12    5  0.5264288E-008  0.1660942E+04  0.7818608E-02  0.8783959E-01
          1   -1    0    0  501    0  0.00000000000E+00  0.00000000000E+00  0.17869316448E+04  0.17869316448E+04  0.00000000000E+00 0. -1.
         -2   -1    0    0    0  501 -0.00000000000E+00 -0.00000000000E+00 -0.38595901861E+03  0.38595901861E+03  0.00000000000E+00 0.  1.
        -24    2    1    2    0    0  0.20363721117E+03  0.28853102248E+03  0.11117432364E+04  0.11694472431E+04  0.83159881970E+02 0.  0.
        254    2    1    2    0    0 -0.20363721117E+03 -0.28853102248E+03  0.28922938987E+03  0.10034434204E+04  0.89360326392E+03 0.  0.
         23    2    4    4    0    0  0.25332215066E+03  0.52265050107E+02 -0.11747341274E+03  0.29777489411E+03  0.89253220572E+02 0.  0.
         23    2    4    4    0    0 -0.45695936183E+03 -0.34079607259E+03  0.40670280261E+03  0.70566852629E+03  0.87218563937E+02 0.  0.
          1    1    3    3  502    0  0.11788685356E+03  0.23147496293E+03  0.78719159532E+03  0.82894425413E+03  0.00000000000E+00 0. -1.
         -2    1    3    3    0  502  0.85750357610E+02  0.57056059546E+02  0.32455164105E+03  0.34050298893E+03  0.00000000000E+00 0.  1.
         13    1    5    5    0    0  0.54802102997E+02 -0.18876371498E+02 -0.49459525763E+02  0.76196014217E+02  0.00000000000E+00 0. -1.
        -13    1    5    5    0    0  0.19852004766E+03  0.71141421606E+02 -0.68013886980E+02  0.22157887989E+03  0.00000000000E+00 0.  1.
          1    1    6    6  503    0 -0.10978848343E+03 -0.51416769404E+02  0.11918024967E+03  0.17000331521E+03  0.00000000000E+00 0. -1.
         -1    1    6    6    0  503 -0.34717087840E+03 -0.28937930318E+03  0.28752255294E+03  0.53566521109E+03  0.00000000000E+00 0.  1.
<mgrwt>
<rscale>  0 0.16609424E+04</rscale>
<asrwt>0</asrwt>
<pdfrwt beam="1">  1        1 0.27491256E+00 0.16609424E+04</pdfrwt>
<pdfrwt beam="2">  1       -2 0.59378311E-01 0.16609424E+04</pdfrwt>
<totfact> 0.92273538E+00</totfact>
</mgrwt>
</event>
<event>
12    5  0.5264288E-008  0.2101096E+04  0.7818608E-02  0.8560761E-01
         -2   -1    0    0    0  501 -0.00000000000E+00  0.00000000000E+00  0.80661018998E+03  0.80661018998E+03  0.00000000000E+00 0.  1.
          1   -1    0    0  501    0  0.00000000000E+00 -0.00000000000E+00 -0.13682584164E+04  0.13682584164E+04  0.00000000000E+00 0. -1.
        -24    2    1    2    0    0 -0.66720723373E+03  0.39425919982E+03  0.14468967605E+03  0.79258613137E+03  0.81558959673E+02 0.  0.
        254    2    1    2    0    0  0.66720723373E+03 -0.39425919982E+03 -0.70633790244E+03  0.13822824750E+04  0.90065853621E+03 0.  0.
         23    2    4    4    0    0  0.14799150385E+03 -0.10570633837E+03  0.20623966161E+03  0.28959435739E+03  0.90855812288E+02 0.  0.
         23    2    4    4    0    0  0.51921572988E+03 -0.28855286145E+03 -0.91257756405E+03  0.10926881176E+04  0.91223812243E+02 0.  0.
          3    1    3    3  502    0 -0.35715494840E+03  0.17701899274E+03  0.10303317965E+03  0.41171739952E+03  0.00000000000E+00 0. -1.
         -4    1    3    3    0  502 -0.31005228533E+03  0.21724020708E+03  0.41656496390E+02  0.38086873185E+03  0.00000000000E+00 0.  1.
         13    1    5    5    0    0  0.56075591200E+02 -0.26342122832E+02  0.16149108545E+02  0.64024784815E+02  0.00000000000E+00 0. -1.
        -13    1    5    5    0    0  0.91915912650E+02 -0.79364215534E+02  0.19009055307E+03  0.22556957257E+03  0.00000000000E+00 0.  1.
          4    1    6    6  503    0  0.11017098819E+02 -0.38914468185E+01 -0.53436804484E+02  0.54699286085E+02  0.00000000000E+00 0. -1.
         -4    1    6    6    0  503  0.50819863106E+03 -0.28466141463E+03 -0.85914075957E+03  0.10379888315E+04  0.00000000000E+00 0.  1.
<mgrwt>
<rscale>  0 0.21010961E+04</rscale>
<asrwt>0</asrwt>
<pdfrwt beam="1">  1        1 0.21050129E+00 0.21010961E+04</pdfrwt>
<pdfrwt beam="2">  1       -2 0.12409388E+00 0.21010961E+04</pdfrwt>
<totfact> 0.31878857E+00</totfact>
</mgrwt>
</event>
<event>
12    5  0.5264288E-008  0.1101907E+04  0.7818608E-02  0.9203335E-01
         -2   -1    0    0    0  501 -0.00000000000E+00  0.00000000000E+00  0.74744251184E+03  0.74744251184E+03  0.00000000000E+00 0.  1.
          1   -1    0    0  501    0  0.00000000000E+00 -0.00000000000E+00 -0.40611816769E+03  0.40611816769E+03  0.00000000000E+00 0. -1.
        -24    2    1    2    0    0 -0.10222163800E+03  0.12971206557E+03  0.75321407781E+02  0.19698129222E+03  0.76510337754E+02 0.  0.
        254    2    1    2    0    0  0.10222163800E+03 -0.12971206557E+03  0.26600293637E+03  0.95657938730E+03  0.90388720470E+03 0.  0.
         23    2    4    4    0    0  0.11129665166E+03  0.16437687635E+03 -0.26397160630E+03  0.34345781397E+03  0.94210184671E+02 0.  0.
         23    2    4    4    0    0 -0.90750136563E+01 -0.29408894192E+03  0.52997454267E+03  0.61312157334E+03  0.92056429338E+02 0.  0.
          1    1    3    3  502    0 -0.81073915932E+02  0.12366165055E+03  0.36413843900E+02  0.15228641334E+03  0.00000000000E+00 0. -1.
         -2    1    3    3    0  502 -0.21147722069E+02  0.60504150240E+01  0.38907563881E+02  0.44694878877E+02  0.00000000000E+00 0.  1.
         13    1    5    5    0    0  0.17940761203E+02  0.33068575552E+01  0.24803966293E+01  0.18410827979E+02  0.00000000000E+00 0. -1.
        -13    1    5    5    0    0  0.93355890455E+02  0.16107001879E+03 -0.26645200293E+03  0.32504698599E+03  0.00000000000E+00 0.  1.
          4    1    6    6  503    0 -0.25968707795E+02 -0.17447812768E+03  0.23089042157E+03  0.29056389589E+03  0.00000000000E+00 0. -1.
         -4    1    6    6    0  503  0.16893694139E+02 -0.11961081424E+03  0.29908412110E+03  0.32255767745E+03  0.00000000000E+00 0.  1.
<mgrwt>
<rscale>  0 0.11019074E+04</rscale>
<asrwt>0</asrwt>
<pdfrwt beam="1">  1        1 0.62479718E-01 0.11019074E+04</pdfrwt>
<pdfrwt beam="2">  1       -2 0.11499116E+00 0.11019074E+04</pdfrwt>
<totfact> 0.30176416E+01</totfact>
</mgrwt>
</event>
<event>
12    5  0.5264288E-008  0.1292342E+04  0.7818608E-02  0.9035660E-01
          1   -1    0    0  501    0  0.00000000000E+00  0.00000000000E+00  0.26944625327E+04  0.26944625327E+04  0.00000000000E+00 0. -1.
         -2   -1    0    0    0  501 -0.00000000000E+00 -0.00000000000E+00 -0.15496124370E+03  0.15496124370E+03  0.00000000000E+00 0.  1.
        -24    2    1    2    0    0 -0.74361939161E+02  0.27580849877E+03  0.96748312109E+03  0.10118175735E+04  0.78429499958E+02 0.  0.
        254    2    1    2    0    0  0.74361939161E+02 -0.27580849877E+03  0.15720181679E+04  0.18376062029E+04  0.90771989659E+03 0.  0.
         23    2    4    4    0    0 -0.25308053196E+03 -0.25762443209E+03  0.19673064736E+03  0.42079033025E+03  0.89114817845E+02 0.  0.
         23    2    4    4    0    0  0.32744247112E+03 -0.18184066674E+02  0.13752875205E+04  0.14168158726E+04  0.91663627480E+02 0.  0.
          3    1    3    3  502    0 -0.55018024398E+02  0.88946185996E+02  0.42680958450E+03  0.43943694477E+03  0.00000000000E+00 0. -1.
         -2    1    3    3    0  502 -0.19343914763E+02  0.18686231277E+03  0.54067353660E+03  0.57238062873E+03  0.00000000000E+00 0.  1.
         13    1    5    5    0    0 -0.13858834659E+03 -0.19473908580E+03  0.10438053226E+03  0.26081667290E+03  0.00000000000E+00 0. -1.
        -13    1    5    5    0    0 -0.11449218536E+03 -0.62885346294E+02  0.92350115102E+02  0.15997365735E+03  0.00000000000E+00 0.  1.
          2    1    6    6  503    0  0.32779441646E+03 -0.26558612760E+02  0.13617060635E+04  0.14008561463E+04  0.00000000000E+00 0. -1.
         -2    1    6    6    0  503 -0.35194533920E+00  0.83745460861E+01  0.13581457016E+02  0.15959726262E+02  0.00000000000E+00 0.  1.
<mgrwt>
<rscale>  0 0.12923425E+04</rscale>
<asrwt>0</asrwt>
<pdfrwt beam="1">  1        1 0.41453266E+00 0.12923425E+04</pdfrwt>
<pdfrwt beam="2">  1       -2 0.23840193E-01 0.12923425E+04</pdfrwt>
<totfact> 0.13452178E+01</totfact>
</mgrwt>
</event>
<event>
12    5  0.5264288E-008  0.2022900E+04  0.7818608E-02  0.8595988E-01
         -4   -1    0    0    0  501 -0.00000000000E+00  0.00000000000E+00  0.21195293311E+04  0.21195293311E+04  0.00000000000E+00 0.  1.
          1   -1    0    0  501    0  0.00000000000E+00 -0.00000000000E+00 -0.48266904376E+03  0.48266904376E+03  0.00000000000E+00 0. -1.
        -24    2    1    2    0    0 -0.47002226879E+03 -0.44225530788E+03  0.12756936642E+04  0.14320454275E+04  0.82759235525E+02 0.  0.
        254    2    1    2    0    0  0.47002226879E+03  0.44225530788E+03  0.36116662314E+03  0.11701529473E+04  0.90681084024E+03 0.  0.
         23    2    4    4    0    0  0.64614553189E+03  0.32519112718E+03 -0.14980317674E+02  0.72908509943E+03  0.89929720987E+02 0.  0.
         23    2    4    4    0    0 -0.17612326309E+03  0.11706418070E+03  0.37614694081E+03  0.44106784790E+03  0.91273759477E+02 0.  0.
          1    1    3    3  502    0 -0.30518522533E+03 -0.30397004420E+03  0.92921652850E+03  0.10241968397E+04  0.00000000000E+00 0. -1.
         -2    1    3    3    0  502 -0.16483704346E+03 -0.13828526368E+03  0.34647713567E+03  0.40784858782E+03  0.00000000000E+00 0.  1.
         13    1    5    5    0    0  0.51018319797E+03  0.21655473450E+03  0.18089554495E+01  0.55424373776E+03  0.00000000000E+00 0.  1.
        -13    1    5    5    0    0  0.13596233392E+03  0.10863639268E+03 -0.16789273124E+02  0.17484136167E+03  0.00000000000E+00 0. -1.
          3    1    6    6  503    0  0.49935170195E+01 -0.75231705743E+01  0.27097238491E+02  0.28562101490E+02  0.00000000000E+00 0. -1.
         -3    1    6    6    0  503 -0.18111678011E+03  0.12458735127E+03  0.34904970232E+03  0.41250574641E+03  0.00000000000E+00 0.  1.
<mgrwt>
<rscale>  0 0.20229001E+04</rscale>
<asrwt>0</asrwt>
<pdfrwt beam="1">  1        1 0.74256778E-01 0.20229001E+04</pdfrwt>
<pdfrwt beam="2">  1       -4 0.32608143E+00 0.20229001E+04</pdfrwt>
<totfact> 0.43442628E-01</totfact>
</mgrwt>
</event>
<event>
12    5  0.5264288E-008  0.1897246E+04  0.7818608E-02  0.8656228E-01
         -2   -1    0    0    0  501 -0.00000000000E+00  0.00000000000E+00  0.65641311084E+03  0.65641311084E+03  0.00000000000E+00 0.  1.
          1   -1    0    0  501    0  0.00000000000E+00 -0.00000000000E+00 -0.13709134323E+04  0.13709134323E+04  0.00000000000E+00 0. -1.
        -24    2    1    2    0    0 -0.23009076307E+03  0.10541982837E+03 -0.10021230107E+04  0.10366982947E+04  0.80235442131E+02 0.  0.
        254    2    1    2    0    0  0.23009076307E+03 -0.10541982837E+03  0.28762268925E+03  0.99062824843E+03  0.91354387730E+03 0.  0.
         23    2    4    4    0    0  0.64087289670E+02 -0.35347131568E+03 -0.19305503109E+03  0.41792792264E+03  0.91347423563E+02 0.  0.
         23    2    4    4    0    0  0.16600347341E+03  0.24805148730E+03  0.48067772034E+03  0.57270032579E+03  0.88588367165E+02 0.  0.
          1    1    3    3  502    0 -0.11430287312E+03  0.45775085470E+02 -0.64306865300E+03  0.65475017963E+03  0.00000000000E+00 0. -1.
         -2    1    3    3    0  502 -0.11578788996E+03  0.59644742905E+02 -0.35905435774E+03  0.38194811510E+03  0.00000000000E+00 0.  1.
         13    1    5    5    0    0 -0.11148009984E+02 -0.38800059503E+01 -0.13003027105E+02  0.17561642482E+02  0.00000000000E+00 0.  1.
        -13    1    5    5    0    0  0.75235299654E+02 -0.34959130973E+03 -0.18005200399E+03  0.40036628016E+03  0.00000000000E+00 0. -1.
          4    1    6    6  503    0  0.79203242895E+02  0.81984498273E+02  0.25534476993E+03  0.27963469594E+03  0.00000000000E+00 0. -1.
         -4    1    6    6    0  503  0.86800230511E+02  0.16606698903E+03  0.22533295041E+03  0.29306562986E+03  0.00000000000E+00 0.  1.
<mgrwt>
<rscale>  0 0.18972460E+04</rscale>
<asrwt>0</asrwt>
<pdfrwt beam="1">  1        1 0.21090976E+00 0.18972460E+04</pdfrwt>
<pdfrwt beam="2">  1       -2 0.10098663E+00 0.18972460E+04</pdfrwt>
<totfact> 0.53370923E+00</totfact>
</mgrwt>
</event>
<event>
12    5  0.5264288E-008  0.1451329E+04  0.7818608E-02  0.8917480E-01
          1   -1    0    0  501    0  0.00000000000E+00  0.00000000000E+00  0.88231846252E+03  0.88231846252E+03  0.00000000000E+00 0. -1.
         -2   -1    0    0    0  501 -0.00000000000E+00 -0.00000000000E+00 -0.59682395872E+03  0.59682395872E+03  0.00000000000E+00 0.  1.
        -24    2    1    2    0    0  0.15328514138E+03  0.17900860318E+03 -0.30732003215E+03  0.39568695912E+03  0.81130468247E+02 0.  0.
        254    2    1    2    0    0 -0.15328514138E+03 -0.17900860318E+03  0.59281453595E+03  0.10834554621E+04  0.87573183670E+03 0.  0.
         23    2    4    4    0    0 -0.33769584467E+03  0.25006233368E+03  0.26035876804E+03  0.50266499501E+03  0.91190760925E+02 0.  0.
         23    2    4    4    0    0  0.18441070330E+03 -0.42907093685E+03  0.33245576791E+03  0.58079046712E+03  0.93174850363E+02 0.  0.
          1    1    3    3  502    0 -0.15778922360E+01 -0.34347597733E+01  0.22545553749E+01  0.44011746781E+01  0.00000000000E+00 0. -1.
         -2    1    3    3    0  502  0.15486303361E+03  0.18244336295E+03 -0.30957458752E+03  0.39128578444E+03  0.00000000000E+00 0.  1.
         13    1    5    5    0    0 -0.72125732312E+02  0.22816188141E+02  0.77084882316E+02  0.10800360542E+03  0.00000000000E+00 0. -1.
        -13    1    5    5    0    0 -0.26557011236E+03  0.22724614553E+03  0.18327388572E+03  0.39466138958E+03  0.00000000000E+00 0.  1.
          3    1    6    6  503    0  0.96749157220E+02 -0.23384297262E+03  0.12313158929E+03  0.28143262701E+03  0.00000000000E+00 0. -1.
         -3    1    6    6    0  503  0.87661546076E+02 -0.19522796423E+03  0.20932417862E+03  0.29935784011E+03  0.00000000000E+00 0.  1.
<mgrwt>
<rscale>  0 0.14513288E+04</rscale>
<asrwt>0</asrwt>
<pdfrwt beam="1">  1        1 0.13574130E+00 0.14513288E+04</pdfrwt>
<pdfrwt beam="2">  1       -2 0.91819071E-01 0.14513288E+04</pdfrwt>
<totfact> 0.16159782E+01</totfact>
</mgrwt>
</event>
<event>
12    5  0.5264288E-008  0.1601319E+04  0.7818608E-02  0.8819738E-01
         -2   -1    0    0    0  501 -0.00000000000E+00  0.00000000000E+00  0.28733524994E+03  0.28733524994E+03  0.00000000000E+00 0.  1.
          1   -1    0    0  501    0  0.00000000000E+00 -0.00000000000E+00 -0.22310366991E+04  0.22310366991E+04  0.00000000000E+00 0. -1.
        -24    2    1    2    0    0  0.18910528924E+03  0.45989329301E+03 -0.98907205551E+03  0.11118917284E+04  0.10381249104E+03 0.  0.
        254    2    1    2    0    0 -0.18910528924E+03 -0.45989329301E+03 -0.95462939369E+03  0.14064802207E+04  0.90532131340E+03 0.  0.
         23    2    4    4    0    0  0.29514123925E+03 -0.23147700101E+03 -0.71722099967E+03  0.81422168316E+03  0.88662471462E+02 0.  0.
         23    2    4    4    0    0 -0.48424652850E+03 -0.22841629200E+03 -0.23740839402E+03  0.59225853753E+03  0.87970034187E+02 0.  0.
          1    1    3    3  502    0  0.71676422280E+02  0.30551230514E+03 -0.59593353012E+03  0.67350727570E+03  0.00000000000E+00 0. -1.
         -2    1    3    3    0  502  0.11742886696E+03  0.15438098787E+03 -0.39313852539E+03  0.43838445268E+03  0.00000000000E+00 0.  1.
         13    1    5    5    0    0  0.15285203413E+03 -0.65828385646E+02 -0.28733657015E+03  0.33205334698E+03  0.00000000000E+00 0. -1.
        -13    1    5    5    0    0  0.14228920513E+03 -0.16564861536E+03 -0.42988442952E+03  0.48216833618E+03  0.00000000000E+00 0.  1.
          3    1    6    6  503    0 -0.27168190446E+03 -0.17583303679E+03 -0.14267713124E+03  0.35367368833E+03  0.00000000000E+00 0. -1.
         -3    1    6    6    0  503 -0.21256462404E+03 -0.52583255212E+02 -0.94731262781E+02  0.23858484920E+03  0.00000000000E+00 0.  1.
<mgrwt>
<rscale>  0 0.16013188E+04</rscale>
<asrwt>0</asrwt>
<pdfrwt beam="1">  1        1 0.34323640E+00 0.16013188E+04</pdfrwt>
<pdfrwt beam="2">  1       -2 0.44205424E-01 0.16013188E+04</pdfrwt>
<totfact> 0.84908828E+00</totfact>
</mgrwt>
</event>
<event>
12    5  0.5264288E-008  0.2209833E+04  0.7818608E-02  0.8514347E-01
         -2   -1    0    0    0  501 -0.00000000000E+00  0.00000000000E+00  0.57506095183E+03  0.57506095183E+03  0.00000000000E+00 0.  1.
          1   -1    0    0  501    0  0.00000000000E+00 -0.00000000000E+00 -0.21229748782E+04  0.21229748782E+04  0.00000000000E+00 0. -1.
        -24    2    1    2    0    0  0.78250476044E+03  0.36044260316E+02 -0.12397847527E+04  0.14688297357E+04  0.82350899386E+02 0.  0.
        254    2    1    2    0    0 -0.78250476044E+03 -0.36044260316E+02 -0.30812917370E+03  0.12292060944E+04  0.89576288487E+03 0.  0.
         23    2    4    4    0    0  0.12356330845E+03 -0.12517990624E+03  0.10473246698E+03  0.22534401024E+03  0.94197309885E+02 0.  0.
         23    2    4    4    0    0 -0.90606806889E+03  0.89135645924E+02 -0.41286164068E+03  0.10038620841E+04  0.91541470106E+02 0.  0.
          3    1    3    3  502    0  0.65222096923E+03  0.43759596254E+02 -0.97849149400E+03  0.11767551567E+04  0.00000000000E+00 0. -1.
         -4    1    3    3    0  502  0.13028379121E+03 -0.77153359383E+01 -0.26129325868E+03  0.29207457899E+03  0.00000000000E+00 0.  1.
         13    1    5    5    0    0  0.13362964704E+03 -0.96808194150E+02  0.69630608488E+02  0.17910089520E+03  0.00000000000E+00 0. -1.
        -13    1    5    5    0    0 -0.10066338585E+02 -0.28371712089E+02  0.35101858487E+02  0.46243115041E+02  0.00000000000E+00 0.  1.
          2    1    6    6  503    0 -0.70298890167E+03  0.10047653858E+03 -0.29661162994E+03  0.76958910445E+03  0.00000000000E+00 0. -1.
         -2    1    6    6    0  503 -0.20307916722E+03 -0.11340892654E+02 -0.11625001073E+03  0.23427297966E+03  0.00000000000E+00 0.  1.
<mgrwt>
<rscale>  0 0.22098325E+04</rscale>
<asrwt>0</asrwt>
<pdfrwt beam="1">  1        1 0.32661152E+00 0.22098325E+04</pdfrwt>
<pdfrwt beam="2">  1       -2 0.88470917E-01 0.22098325E+04</pdfrwt>
<totfact> 0.21627937E+00</totfact>
</mgrwt>
</event>
<event>
12    5  0.5264288E-008  0.1717374E+04  0.7818608E-02  0.8751517E-01
          1   -1    0    0  501    0  0.00000000000E+00  0.00000000000E+00  0.65109006060E+03  0.65109006060E+03  0.00000000000E+00 0. -1.
         -2   -1    0    0    0  501 -0.00000000000E+00 -0.00000000000E+00 -0.11324757672E+04  0.11324757672E+04  0.00000000000E+00 0.  1.
        -24    2    1    2    0    0 -0.48079452536E+02  0.35248950926E+03 -0.81041892203E+03  0.88859153381E+03  0.79092331406E+02 0.  0.
        254    2    1    2    0    0  0.48079452536E+02 -0.35248950926E+03  0.32903321538E+03  0.89497429403E+03  0.75243314804E+03 0.  0.
         23    2    4    4    0    0 -0.85079239905E+01 -0.56923212146E+03  0.30883870224E+03  0.65406642548E+03  0.91235695139E+02 0.  0.
         23    2    4    4    0    0  0.56587376526E+02  0.21674261220E+03  0.20194513134E+02  0.24090786855E+03  0.86309279013E+02 0.  0.
          1    1    3    3  502    0 -0.13059674548E+02  0.43216319893E+01 -0.21146871940E+02  0.25227401673E+02  0.00000000000E+00 0. -1.
         -2    1    3    3    0  502 -0.35019777988E+02  0.34816787727E+03 -0.78927205009E+03  0.86336413214E+03  0.00000000000E+00 0.  1.
         13    1    5    5    0    0 -0.48459716771E+02 -0.29300125224E+03  0.14595960343E+03  0.33091129295E+03  0.00000000000E+00 0. -1.
        -13    1    5    5    0    0  0.39951792781E+02 -0.27623086922E+03  0.16287909881E+03  0.32315513254E+03  0.00000000000E+00 0.  1.
          2    1    6    6  503    0  0.51978386998E+02  0.72777326963E+02 -0.19426773417E+02  0.91518804407E+02  0.00000000000E+00 0. -1.
         -2    1    6    6    0  503  0.46089895286E+01  0.14396528524E+03  0.39621286550E+02  0.14938906414E+03  0.00000000000E+00 0.  1.
<mgrwt>
<rscale>  0 0.17173744E+04</rscale>
<asrwt>0</asrwt>
<pdfrwt beam="1">  1        1 0.10016770E+00 0.17173744E+04</pdfrwt>
<pdfrwt beam="2">  1       -2 0.17422704E+00 0.17173744E+04</pdfrwt>
<totfact> 0.50245935E+00</totfact>
</mgrwt>
</event>
<event>
12    5  0.5264288E-008  0.3500649E+04  0.7818608E-02  0.8113636E-01
          1   -1    0    0  501    0  0.00000000000E+00  0.00000000000E+00  0.16826305058E+04  0.16826305058E+04  0.00000000000E+00 0. -1.
         -2   -1    0    0    0  501 -0.00000000000E+00 -0.00000000000E+00 -0.18207416323E+04  0.18207416323E+04  0.00000000000E+00 0.  1.
        -24    2    1    2    0    0 -0.44744128893E+03  0.33660241646E+03 -0.16008860305E+04  0.16979939066E+04  0.82718381637E+02 0.  0.
        254    2    1    2    0    0  0.44744128893E+03 -0.33660241646E+03  0.14627749040E+04  0.18053782314E+04  0.89787262179E+03 0.  0.
         23    2    4    4    0    0  0.62743522847E+03  0.15749420925E+02  0.72685924451E+03  0.96489106470E+03  0.93634369931E+02 0.  0.
         23    2    4    4    0    0 -0.17999393954E+03 -0.35235183738E+03  0.73591565949E+03  0.84048716673E+03  0.91088879522E+02 0.  0.
          3    1    3    3  502    0 -0.21290730285E+01  0.62865030041E+01 -0.43815812175E+01  0.79530702214E+01  0.00000000000E+00 0. -1.
         -4    1    3    3    0  502 -0.44531221590E+03  0.33031591345E+03 -0.15965044492E+04  0.16900408364E+04  0.00000000000E+00 0.  1.
         13    1    5    5    0    0  0.40821628479E+03  0.19373840311E+02  0.53728487451E+03  0.67504882581E+03  0.00000000000E+00 0. -1.
        -13    1    5    5    0    0  0.21921894368E+03 -0.36244193866E+01  0.18957437000E+03  0.28984223889E+03  0.00000000000E+00 0.  1.
          3    1    6    6  503    0 -0.17679292100E+03 -0.35283794411E+03  0.73781567050E+03  0.83673312075E+03  0.00000000000E+00 0. -1.
         -3    1    6    6    0  503 -0.32010185372E+01  0.48610672423E+00 -0.19000110068E+01  0.37540459839E+01  0.00000000000E+00 0.  1.
<mgrwt>
<rscale>  0 0.35006487E+04</rscale>
<asrwt>0</asrwt>
<pdfrwt beam="1">  1        1 0.25886623E+00 0.35006487E+04</pdfrwt>
<pdfrwt beam="2">  1       -2 0.28011410E+00 0.35006487E+04</pdfrwt>
<totfact> 0.14760849E-01</totfact>
</mgrwt>
</event>
<event>
12    5  0.5264288E-008  0.2124499E+04  0.7818608E-02  0.8550527E-01
         -4   -1    0    0    0  501 -0.00000000000E+00  0.00000000000E+00  0.78826392966E+03  0.78826392966E+03  0.00000000000E+00 0.  1.
          3   -1    0    0  501    0  0.00000000000E+00 -0.00000000000E+00 -0.14314677339E+04  0.14314677339E+04  0.00000000000E+00 0. -1.
        -24    2    1    2    0    0  0.10021211613E+03  0.29514296195E+03  0.58566602068E+03  0.66838337888E+03  0.81116072206E+02 0.  0.
        254    2    1    2    0    0 -0.10021211613E+03 -0.29514296195E+03 -0.12288698249E+04  0.15513482847E+04  0.89409653706E+03 0.  0.
         23    2    4    4    0    0 -0.57033161031E+02 -0.31911624874E+03 -0.13507707804E+04  0.13921509857E+04  0.91731695199E+02 0.  0.
         23    2    4    4    0    0 -0.43178955097E+02  0.23973286792E+02  0.12190095550E+03  0.15919729904E+03  0.89692789165E+02 0.  0.
          1    1    3    3  502    0  0.20173260850E+02  0.49647530113E+01  0.31340515112E+02  0.37601025429E+02  0.00000000000E+00 0. -1.
         -2    1    3    3    0  502  0.80038855279E+02  0.29017820894E+03  0.55432550557E+03  0.63078235345E+03  0.00000000000E+00 0.  1.
         13    1    5    5    0    0 -0.63186647111E+02 -0.10554442910E+03 -0.51845841105E+03  0.53285204595E+03  0.00000000000E+00 0. -1.
        -13    1    5    5    0    0  0.61534860790E+01 -0.21357181964E+03 -0.83231236939E+03  0.85929893971E+03  0.00000000000E+00 0.  1.
          4    1    6    6  503    0  0.23676972911E+02 -0.68452772664E+01  0.13327686377E+02  0.28019352084E+02  0.00000000000E+00 0. -1.
         -4    1    6    6    0  503 -0.66855928008E+02  0.30818564059E+02  0.10857326912E+03  0.13117794696E+03  0.00000000000E+00 0.  1.
<mgrwt>
<rscale>  0 0.21244994E+04</rscale>
<asrwt>0</asrwt>
<pdfrwt beam="1">  1        3 0.22022580E+00 0.21244994E+04</pdfrwt>
<pdfrwt beam="2">  1       -4 0.12127138E+00 0.21244994E+04</pdfrwt>
<totfact> 0.11999655E-01</totfact>
</mgrwt>
</event>
<event>
12    5  0.5264288E-008  0.1705553E+04  0.7818608E-02  0.8758204E-01
          1   -1    0    0  501    0  0.00000000000E+00  0.00000000000E+00  0.13025791247E+04  0.13025791247E+04  0.00000000000E+00 0. -1.
         -2   -1    0    0    0  501 -0.00000000000E+00 -0.00000000000E+00 -0.55829818157E+03  0.55829818157E+03  0.00000000000E+00 0.  1.
        -24    2    1    2    0    0  0.21222416923E+03  0.22849582105E+02 -0.35860264483E+03  0.42455116558E+03  0.78016882172E+02 0.  0.
        254    2    1    2    0    0 -0.21222416923E+03 -0.22849582105E+02  0.11028835879E+04  0.14363261407E+04  0.89505272047E+03 0.  0.
         23    2    4    4    0    0 -0.14321221358E+03 -0.32103710722E+03  0.89778235142E+02  0.37397015543E+03  0.90658608634E+02 0.  0.
         23    2    4    4    0    0 -0.69011955653E+02  0.29818752511E+03  0.10131053528E+04  0.10623559852E+04  0.92408513426E+02 0.  0.
          3    1    3    3  502    0  0.11038256387E+03 -0.50378394474E+01 -0.11725618730E+03  0.16111704966E+03  0.00000000000E+00 0. -1.
         -4    1    3    3    0  502  0.10184160537E+03  0.27887421553E+02 -0.24134645753E+03  0.26343411592E+03  0.00000000000E+00 0.  1.
         13    1    5    5    0    0 -0.11343897049E+03 -0.16807880400E+03  0.79490813623E+02  0.21780191420E+03  0.00000000000E+00 0.  1.
        -13    1    5    5    0    0 -0.29773243095E+02 -0.15295830322E+03  0.10287421518E+02  0.15616824123E+03  0.00000000000E+00 0. -1.
          2    1    6    6  503    0 -0.21167184606E+02  0.14442431231E+02  0.39215669939E+02  0.46845515183E+02  0.00000000000E+00 0. -1.
         -2    1    6    6    0  503 -0.47844771047E+02  0.28374509388E+03  0.97388968284E+03  0.10155104700E+04  0.00000000000E+00 0.  1.
<mgrwt>
<rscale>  0 0.17055528E+04</rscale>
<asrwt>0</asrwt>
<pdfrwt beam="1">  1        1 0.20039679E+00 0.17055528E+04</pdfrwt>
<pdfrwt beam="2">  1       -2 0.85892028E-01 0.17055528E+04</pdfrwt>
<totfact> 0.88428855E+00</totfact>
</mgrwt>
</event>
<event>
12    5  0.5264288E-008  0.1388891E+04  0.7818608E-02  0.8961899E-01
          1   -1    0    0  501    0  0.00000000000E+00  0.00000000000E+00  0.91008755143E+03  0.91008755143E+03  0.00000000000E+00 0. -1.
         -2   -1    0    0    0  501 -0.00000000000E+00 -0.00000000000E+00 -0.52989913150E+03  0.52989913150E+03  0.00000000000E+00 0.  1.
        -24    2    1    2    0    0 -0.13882075675E+03 -0.31115910040E+03  0.31719687191E+03  0.47237366518E+03  0.80198726525E+02 0.  0.
        254    2    1    2    0    0  0.13882075675E+03  0.31115910040E+03  0.62991548017E+02  0.96761301775E+03  0.90344663856E+03 0.  0.
         23    2    4    4    0    0 -0.24940599273E+03 -0.10396204621E+03 -0.18622698979E+03  0.34037714651E+03  0.90358474277E+02 0.  0.
         23    2    4    4    0    0  0.38822674948E+03  0.41512114662E+03  0.24921853781E+03  0.62723587124E+03  0.90936149003E+02 0.  0.
          3    1    3    3  502    0 -0.80931737592E+02 -0.22249303724E+03  0.17187497177E+03  0.29256470001E+03  0.00000000000E+00 0. -1.
         -4    1    3    3    0  502 -0.57889019154E+02 -0.88666063167E+02  0.14532190014E+03  0.17980896517E+03  0.00000000000E+00 0.  1.
         13    1    5    5    0    0 -0.17062466788E+03 -0.31071633093E+02 -0.14256856607E+03  0.22450839562E+03  0.00000000000E+00 0. -1.
        -13    1    5    5    0    0 -0.78781324860E+02 -0.72890413121E+02 -0.43658423719E+02  0.11586875089E+03  0.00000000000E+00 0.  1.
          3    1    6    6  503    0  0.29358609002E+03  0.34943064311E+03  0.22769164985E+03  0.51003730649E+03  0.00000000000E+00 0. -1.
         -3    1    6    6    0  503  0.94640659457E+02  0.65690503510E+02  0.21526887961E+02  0.11719856475E+03  0.00000000000E+00 0.  1.
<mgrwt>
<rscale>  0 0.13888911E+04</rscale>
<asrwt>0</asrwt>
<pdfrwt beam="1">  1        1 0.14001347E+00 0.13888911E+04</pdfrwt>
<pdfrwt beam="2">  1       -2 0.81522944E-01 0.13888911E+04</pdfrwt>
<totfact> 0.20231118E+01</totfact>
</mgrwt>
</event>
<event>
12    5  0.5264288E-008  0.1371608E+04  0.7818608E-02  0.8974630E-01
          1   -1    0    0  501    0  0.00000000000E+00  0.00000000000E+00  0.58012811692E+03  0.58012811692E+03  0.00000000000E+00 0. -1.
         -2   -1    0    0    0  501 -0.00000000000E+00 -0.00000000000E+00 -0.81073011532E+03  0.81073011532E+03  0.00000000000E+00 0.  1.
        -24    2    1    2    0    0  0.12903345639E+02 -0.29090121751E+03  0.18987218116E+03  0.35407341061E+03  0.67279419197E+02 0.  0.
        254    2    1    2    0    0 -0.12903345639E+02  0.29090121751E+03 -0.42047417956E+03  0.10367848216E+04  0.90185043994E+03 0.  0.
         23    2    4    4    0    0 -0.14797216453E+02  0.60769037133E+03 -0.31508699993E+03  0.69072043692E+03  0.91150202605E+02 0.  0.
         23    2    4    4    0    0  0.18938708142E+01 -0.31678915382E+03 -0.10538717963E+03  0.34606438471E+03  0.91077692163E+02 0.  0.
          3    1    3    3  502    0  0.20745228616E+02 -0.28538396776E+03  0.19155771106E+03  0.34433810453E+03  0.00000000000E+00 0. -1.
         -4    1    3    3    0  502 -0.78418829769E+01 -0.55172497468E+01 -0.16855299036E+01  0.97353060788E+01  0.00000000000E+00 0.  1.
         13    1    5    5    0    0  0.37059798529E+02  0.26227962506E+03 -0.14972241038E+03  0.30427098212E+03  0.00000000000E+00 0.  1.
        -13    1    5    5    0    0 -0.51857014982E+02  0.34541074627E+03 -0.16536458954E+03  0.38644945480E+03  0.00000000000E+00 0. -1.
          3    1    6    6  503    0  0.14622870206E+02 -0.30116300510E+03 -0.11627052096E+03  0.32315912182E+03  0.00000000000E+00 0. -1.
         -3    1    6    6    0  503 -0.12728999391E+02 -0.15626148723E+02  0.10883341332E+02  0.22905262888E+02  0.00000000000E+00 0.  1.
<mgrwt>
<rscale>  0 0.13716083E+04</rscale>
<asrwt>0</asrwt>
<pdfrwt beam="1">  1        1 0.89250480E-01 0.13716083E+04</pdfrwt>
<pdfrwt beam="2">  1       -2 0.12472771E+00 0.13716083E+04</pdfrwt>
<totfact> 0.14815264E+01</totfact>
</mgrwt>
</event>
<event>
12    5  0.5264288E-008  0.1599809E+04  0.7818608E-02  0.8820665E-01
          1   -1    0    0  501    0  0.00000000000E+00  0.00000000000E+00  0.38518429746E+03  0.38518429746E+03  0.00000000000E+00 0. -1.
         -2   -1    0    0    0  501 -0.00000000000E+00 -0.00000000000E+00 -0.16611454286E+04  0.16611454286E+04  0.00000000000E+00 0.  1.
        -24    2    1    2    0    0 -0.19088107685E+03  0.82521020110E+02 -0.10911916541E+04  0.11136673081E+04  0.79437667050E+02 0.  0.
        254    2    1    2    0    0  0.19088107685E+03 -0.82521020110E+02 -0.18476947702E+03  0.93266241791E+03  0.89021015602E+03 0.  0.
         23    2    4    4    0    0  0.10486811021E+03  0.34859508067E+03 -0.28687021104E+03  0.47218836706E+03  0.90285575819E+02 0.  0.
         23    2    4    4    0    0  0.86012966631E+02 -0.43111610077E+03  0.10210073402E+03  0.46047405085E+03  0.91391842311E+02 0.  0.
          3    1    3    3  502    0 -0.13126915948E+03  0.94041542452E+02 -0.76170864949E+03  0.77863693121E+03  0.00000000000E+00 0. -1.
         -4    1    3    3    0  502 -0.59611917362E+02 -0.11520522343E+02 -0.32948300461E+03  0.33503037691E+03  0.00000000000E+00 0.  1.
         13    1    5    5    0    0  0.47735235770E+02  0.43282325050E+02 -0.48129728434E+02  0.80426880798E+02  0.00000000000E+00 0. -1.
        -13    1    5    5    0    0  0.57132874445E+02  0.30531275562E+03 -0.23874048260E+03  0.39176148626E+03  0.00000000000E+00 0.  1.
          3    1    6    6  503    0 -0.10466564108E+02 -0.37499264788E+02  0.29282563306E+02  0.48715627242E+02  0.00000000000E+00 0. -1.
         -3    1    6    6    0  503  0.96479530739E+02 -0.39361683599E+03  0.72818170714E+02  0.41175842361E+03  0.00000000000E+00 0.  1.
<mgrwt>
<rscale>  0 0.15998089E+04</rscale>
<asrwt>0</asrwt>
<pdfrwt beam="1">  1        1 0.59259123E-01 0.15998089E+04</pdfrwt>
<pdfrwt beam="2">  1       -2 0.25556083E+00 0.15998089E+04</pdfrwt>
<totfact> 0.31450520E+00</totfact>
</mgrwt>
</event>
<event>
12    5  0.5264288E-008  0.1985602E+04  0.7818608E-02  0.8613382E-01
          1   -1    0    0  501    0  0.00000000000E+00  0.00000000000E+00  0.29763497132E+04  0.29763497132E+04  0.00000000000E+00 0. -1.
         -2   -1    0    0    0  501 -0.00000000000E+00 -0.00000000000E+00 -0.33116189931E+03  0.33116189931E+03  0.00000000000E+00 0.  1.
        -24    2    1    2    0    0  0.48297326638E+03  0.83333754622E+02  0.25569168960E+02  0.49727892326E+03  0.80155189589E+02 0.  0.
        254    2    1    2    0    0 -0.48297326638E+03 -0.83333754622E+02  0.26196186449E+04  0.28102326892E+04  0.89151457205E+03 0.  0.
         23    2    4    4    0    0 -0.37299466703E+03 -0.23444047877E+03  0.47237585984E+03  0.65267458724E+03  0.93583140250E+02 0.  0.
         23    2    4    4    0    0 -0.10997859935E+03  0.15110672414E+03  0.21472427850E+04  0.21575581020E+04  0.97349119609E+02 0.  0.
          3    1    3    3  502    0  0.33946327299E+03  0.38292941931E+02  0.48797431809E+02  0.34508383397E+03  0.00000000000E+00 0. -1.
         -4    1    3    3    0  502  0.14350999339E+03  0.45040812691E+02 -0.23228262849E+02  0.15219508929E+03  0.00000000000E+00 0.  1.
         13    1    5    5    0    0 -0.10973923169E+03 -0.42799306262E+02  0.17962596844E+03  0.21480216043E+03  0.00000000000E+00 0.  1.
        -13    1    5    5    0    0 -0.26325543534E+03 -0.19164117250E+03  0.29274989140E+03  0.43787242680E+03  0.00000000000E+00 0. -1.
          4    1    6    6  503    0 -0.31795193661E+02  0.20870216148E+02  0.15756190460E+03  0.16208718038E+03  0.00000000000E+00 0. -1.
         -4    1    6    6    0  503 -0.78183405684E+02  0.13023650800E+03  0.19896808805E+04  0.19954709216E+04  0.00000000000E+00 0.  1.
<mgrwt>
<rscale>  0 0.19856018E+04</rscale>
<asrwt>0</asrwt>
<pdfrwt beam="1">  1        1 0.45789994E+00 0.19856018E+04</pdfrwt>
<pdfrwt beam="2">  1       -2 0.50947986E-01 0.19856018E+04</pdfrwt>
<totfact> 0.18516114E+00</totfact>
</mgrwt>
</event>
<event>
12    5  0.5264288E-008  0.1559158E+04  0.7818608E-02  0.8846039E-01
         -2   -1    0    0    0  501 -0.00000000000E+00  0.00000000000E+00  0.35036723315E+03  0.35036723315E+03  0.00000000000E+00 0.  1.
          1   -1    0    0  501    0  0.00000000000E+00 -0.00000000000E+00 -0.17345906956E+04  0.17345906956E+04  0.00000000000E+00 0. -1.
        -24    2    1    2    0    0  0.19621911062E+03  0.47415431737E+03 -0.48088882433E+03  0.70988036850E+03  0.96704809439E+02 0.  0.
        254    2    1    2    0    0 -0.19621911062E+03 -0.47415431737E+03 -0.90333463807E+03  0.13750775602E+04  0.90083326548E+03 0.  0.
         23    2    4    4    0    0  0.29400064452E+03  0.43536348144E+02 -0.20679912128E+03  0.37370654323E+03  0.92514384299E+02 0.  0.
         23    2    4    4    0    0 -0.49021975514E+03 -0.51769066551E+03 -0.69653551680E+03  0.10013710170E+04  0.96245280403E+02 0.  0.
          1    1    3    3  502    0  0.35221412747E+02  0.72467026854E+02 -0.12910457156E+03  0.15218412629E+03  0.00000000000E+00 0. -1.
         -2    1    3    3    0  502  0.16099769787E+03  0.40168729051E+03 -0.35178425277E+03  0.55769624221E+03  0.00000000000E+00 0.  1.
         13    1    5    5    0    0  0.24053450993E+03  0.23799630488E+02 -0.20459057809E+03  0.31667108728E+03  0.00000000000E+00 0. -1.
        -13    1    5    5    0    0  0.53466134587E+02  0.19736717656E+02 -0.22085431888E+01  0.57035455942E+02  0.00000000000E+00 0.  1.
          3    1    6    6  503    0 -0.35595121713E+03 -0.32144834940E+03 -0.42954049508E+03  0.64384419483E+03  0.00000000000E+00 0. -1.
         -3    1    6    6    0  503 -0.13426853801E+03 -0.19624231611E+03 -0.26699502172E+03  0.35752682215E+03  0.00000000000E+00 0.  1.
<mgrwt>
<rscale>  0 0.15591584E+04</rscale>
<asrwt>0</asrwt>
<pdfrwt beam="1">  1        1 0.26686011E+00 0.15591584E+04</pdfrwt>
<pdfrwt beam="2">  1       -2 0.53902650E-01 0.15591584E+04</pdfrwt>
<totfact> 0.12366829E+01</totfact>
</mgrwt>
</event>
<event>
12    5  0.5264288E-008  0.1820771E+04  0.7818608E-02  0.8695331E-01
         -2   -1    0    0    0  501 -0.00000000000E+00  0.00000000000E+00  0.11999628353E+04  0.11999628353E+04  0.00000000000E+00 0.  1.
          1   -1    0    0  501    0  0.00000000000E+00 -0.00000000000E+00 -0.69068948883E+03  0.69068948883E+03  0.00000000000E+00 0. -1.
        -24    2    1    2    0    0  0.36713103874E+03 -0.47230150468E+03 -0.16503160452E+03  0.62583599036E+03  0.81125491679E+02 0.  0.
        254    2    1    2    0    0 -0.36713103874E+03  0.47230150468E+03  0.67430495096E+03  0.12648163338E+04  0.88725378574E+03 0.  0.
         23    2    4    4    0    0 -0.30561592762E+03 -0.19646144894E+03  0.13268690177E+03  0.39727245871E+03  0.90671916324E+02 0.  0.
         23    2    4    4    0    0 -0.61515111118E+02  0.66876295362E+03  0.54161804919E+03  0.86754387505E+03  0.90852996035E+02 0.  0.
          1    1    3    3  502    0  0.31262344708E+03 -0.34975556096E+03 -0.11816285689E+03  0.48376113200E+03  0.00000000000E+00 0. -1.
         -2    1    3    3    0  502  0.54507591659E+02 -0.12254594372E+03 -0.46868747628E+02  0.14207485835E+03  0.00000000000E+00 0.  1.
         13    1    5    5    0    0 -0.50660893870E+01 -0.30277886479E+02  0.64269533516E+01  0.31364333257E+02  0.00000000000E+00 0. -1.
        -13    1    5    5    0    0 -0.30054983824E+03 -0.16618356246E+03  0.12625994842E+03  0.36590812545E+03  0.00000000000E+00 0.  1.
          1    1    6    6  503    0 -0.63476676884E+02  0.28359584110E+03  0.20083255956E+03  0.35325572406E+03  0.00000000000E+00 0. -1.
         -1    1    6    6    0  503  0.19615657655E+01  0.38516711252E+03  0.34078548963E+03  0.51428815099E+03  0.00000000000E+00 0.  1.
<mgrwt>
<rscale>  0 0.18207710E+04</rscale>
<asrwt>0</asrwt>
<pdfrwt beam="1">  1        1 0.10625992E+00 0.18207710E+04</pdfrwt>
<pdfrwt beam="2">  1       -2 0.18460967E+00 0.18207710E+04</pdfrwt>
<totfact> 0.38637701E+00</totfact>
</mgrwt>
</event>
<event>
12    5  0.5264288E-008  0.1128713E+04  0.7818608E-02  0.9177649E-01
         -2   -1    0    0    0  501 -0.00000000000E+00  0.00000000000E+00  0.54664831395E+03  0.54664831395E+03  0.00000000000E+00 0.  1.
          1   -1    0    0  501    0  0.00000000000E+00 -0.00000000000E+00 -0.58263842254E+03  0.58263842254E+03  0.00000000000E+00 0. -1.
        -24    2    1    2    0    0  0.15866336537E+03 -0.79764475272E+02  0.50266940358E+02  0.19912303966E+03  0.74744796504E+02 0.  0.
        254    2    1    2    0    0 -0.15866336537E+03  0.79764475272E+02 -0.86257048944E+02  0.93016369683E+03  0.90897073076E+03 0.  0.
         23    2    4    4    0    0 -0.16651501013E+03 -0.19680063703E+03 -0.41143758098E+03  0.49397798340E+03  0.90970466124E+02 0.  0.
         23    2    4    4    0    0  0.78516447632E+01  0.27656511230E+03  0.32518053203E+03  0.43618571344E+03  0.89250706022E+02 0.  0.
          1    1    3    3  502    0  0.48843245575E+02 -0.10030771499E+02  0.47706265955E+02  0.69008454746E+02  0.00000000000E+00 0. -1.
         -2    1    3    3    0  502  0.10982011979E+03 -0.69733703773E+02  0.25606744035E+01  0.13011458491E+03  0.00000000000E+00 0.  1.
         13    1    5    5    0    0 -0.35514861424E+02 -0.10623895983E+02 -0.22636361371E+02  0.43434748807E+02  0.00000000000E+00 0. -1.
        -13    1    5    5    0    0 -0.13100014871E+03 -0.18617674104E+03 -0.38880121961E+03  0.45054323459E+03  0.00000000000E+00 0.  1.
          3    1    6    6  503    0  0.90678327036E+01  0.10385892208E+03  0.19053322784E+03  0.21719072770E+03  0.00000000000E+00 0. -1.
         -3    1    6    6    0  503 -0.12161879405E+01  0.17270619021E+03  0.13464730419E+03  0.21899498573E+03  0.00000000000E+00 0.  1.
<mgrwt>
<rscale>  0 0.11287131E+04</rscale>
<asrwt>0</asrwt>
<pdfrwt beam="1">  1        1 0.89636680E-01 0.11287131E+04</pdfrwt>
<pdfrwt beam="2">  1       -2 0.84099741E-01 0.11287131E+04</pdfrwt>
<totfact> 0.38404473E+01</totfact>
</mgrwt>
</event>
<event>
12    5  0.5264288E-008  0.1937463E+04  0.7818608E-02  0.8636430E-01
          1   -1    0    0  501    0  0.00000000000E+00  0.00000000000E+00  0.81126440584E+03  0.81126440584E+03  0.00000000000E+00 0. -1.
         -2   -1    0    0    0  501 -0.00000000000E+00 -0.00000000000E+00 -0.11567627683E+04  0.11567627683E+04  0.00000000000E+00 0.  1.
        -24    2    1    2    0    0  0.49418398467E+03 -0.65683236955E+01  0.44665277996E+03  0.67096445352E+03  0.80209964831E+02 0.  0.
        254    2    1    2    0    0 -0.49418398467E+03  0.65683236955E+01 -0.79215114243E+03  0.12970627206E+04  0.90033733412E+03 0.  0.
         23    2    4    4    0    0 -0.67227906735E+03  0.71652412154E+01 -0.25717059500E+03  0.72557985213E+03  0.91208123545E+02 0.  0.
         23    2    4    4    0    0  0.17809508268E+03 -0.59691751993E+00 -0.53498054742E+03  0.57148286850E+03  0.93114274326E+02 0.  0.
          3    1    3    3  502    0  0.43335769032E+03 -0.18571785456E+02  0.41899433596E+03  0.60307549490E+03  0.00000000000E+00 0. -1.
         -2    1    3    3    0  502  0.60826294345E+02  0.12003461761E+02  0.27658443996E+02  0.67888958618E+02  0.00000000000E+00 0.  1.
         13    1    5    5    0    0 -0.44209691667E+03 -0.17321307810E+01 -0.12254158572E+03  0.45876914046E+03  0.00000000000E+00 0. -1.
        -13    1    5    5    0    0 -0.23018215068E+03  0.88973719963E+01 -0.13462900929E+03  0.26681071167E+03  0.00000000000E+00 0.  1.
          3    1    6    6  503    0  0.18230660058E+03 -0.13059130363E+02 -0.45348363139E+03  0.48893112137E+03  0.00000000000E+00 0. -1.
         -3    1    6    6    0  503 -0.42115179035E+01  0.12462212843E+02 -0.81496916034E+02  0.82551747135E+02  0.00000000000E+00 0.  1.
<mgrwt>
<rscale>  0 0.19374627E+04</rscale>
<asrwt>0</asrwt>
<pdfrwt beam="1">  1        1 0.12480991E+00 0.19374627E+04</pdfrwt>
<pdfrwt beam="2">  1       -2 0.17796350E+00 0.19374627E+04</pdfrwt>
<totfact> 0.33072320E+00</totfact>
</mgrwt>
</event>
<event>
12    5  0.5264288E-008  0.1226641E+04  0.7818608E-02  0.9089852E-01
          1   -1    0    0  501    0  0.00000000000E+00  0.00000000000E+00  0.57601984606E+03  0.57601984606E+03  0.00000000000E+00 0. -1.
         -2   -1    0    0    0  501 -0.00000000000E+00 -0.00000000000E+00 -0.65303649789E+03  0.65303649789E+03  0.00000000000E+00 0.  1.
        -24    2    1    2    0    0  0.58763464331E+02 -0.19188264074E+03 -0.19498966452E+03  0.29086027001E+03  0.79414323909E+02 0.  0.
        254    2    1    2    0    0 -0.58763464331E+02  0.19188264074E+03  0.11797301269E+03  0.93819607393E+03  0.90885760648E+03 0.  0.
         23    2    4    4    0    0 -0.23012205544E+03  0.41918865266E+03 -0.17804241054E+03  0.51757444951E+03  0.86654047311E+02 0.  0.
         23    2    4    4    0    0  0.17135859111E+03 -0.22730601192E+03  0.29601542323E+03  0.42062162442E+03  0.90915512103E+02 0.  0.
          1    1    3    3  502    0  0.39584387331E+01 -0.24722105684E+02  0.38963379071E+01  0.25338373976E+02  0.00000000000E+00 0. -1.
         -2    1    3    3    0  502  0.54805025598E+02 -0.16716053506E+03 -0.19888600243E+03  0.26552189603E+03  0.00000000000E+00 0.  1.
         13    1    5    5    0    0 -0.12648902702E+03  0.30975232890E+03 -0.13537609927E+03  0.36093305123E+03  0.00000000000E+00 0.  1.
        -13    1    5    5    0    0 -0.10363302842E+03  0.10943632376E+03 -0.42666311264E+02  0.15664139828E+03  0.00000000000E+00 0. -1.
          3    1    6    6  503    0  0.26297243667E+02 -0.32466776960E+02  0.58276532009E+01  0.42185283838E+02  0.00000000000E+00 0. -1.
         -3    1    6    6    0  503  0.14506134745E+03 -0.19483923496E+03  0.29018777003E+03  0.37843634058E+03  0.00000000000E+00 0.  1.
<mgrwt>
<rscale>  0 0.12266409E+04</rscale>
<asrwt>0</asrwt>
<pdfrwt beam="1">  1        1 0.88618438E-01 0.12266409E+04</pdfrwt>
<pdfrwt beam="2">  1       -2 0.10046715E+00 0.12266409E+04</pdfrwt>
<totfact> 0.25648569E+01</totfact>
</mgrwt>
</event>
<event>
12    5  0.5264288E-008  0.1397722E+04  0.7818608E-02  0.8955469E-01
          1   -1    0    0  501    0  0.00000000000E+00  0.00000000000E+00  0.10009493261E+04  0.10009493261E+04  0.00000000000E+00 0. -1.
         -2   -1    0    0    0  501 -0.00000000000E+00 -0.00000000000E+00 -0.48794319873E+03  0.48794319873E+03  0.00000000000E+00 0.  1.
        -24    2    1    2    0    0 -0.18474530603E+02 -0.35086868453E+03  0.34080628393E+03  0.49624583722E+03  0.81614127022E+02 0.  0.
        254    2    1    2    0    0  0.18474530603E+02  0.35086868453E+03  0.17219984348E+03  0.99264668764E+03  0.91227436571E+03 0.  0.
         23    2    4    4    0    0 -0.38062009224E+03  0.29961159332E+03  0.27868071643E+03  0.56621118251E+03  0.91068106489E+02 0.  0.
         23    2    4    4    0    0  0.39909462285E+03  0.51257091210E+02 -0.10648087295E+03  0.42643550513E+03  0.92764520946E+02 0.  0.
          3    1    3    3  502    0 -0.39348676621E+02 -0.24860940293E+03  0.20291404083E+03  0.32330954447E+03  0.00000000000E+00 0. -1.
         -4    1    3    3    0  502  0.20874146018E+02 -0.10225928160E+03  0.13789224310E+03  0.17293629276E+03  0.00000000000E+00 0.  1.
         13    1    5    5    0    0 -0.50395036371E+01  0.17633913624E+02  0.29008750579E+02  0.34319952167E+02  0.00000000000E+00 0.  1.
        -13    1    5    5    0    0 -0.37558058861E+03  0.28197767970E+03  0.24967196585E+03  0.53189123035E+03  0.00000000000E+00 0. -1.
          1    1    6    6  503    0  0.31568925420E+03  0.46926602522E+02 -0.12164131213E+03  0.34155295353E+03  0.00000000000E+00 0. -1.
         -1    1    6    6    0  503  0.83405368642E+02  0.43304886872E+01  0.15160439183E+02  0.84882551604E+02  0.00000000000E+00 0.  1.
<mgrwt>
<rscale>  0 0.13977216E+04</rscale>
<asrwt>0</asrwt>
<pdfrwt beam="1">  1        1 0.15399220E+00 0.13977216E+04</pdfrwt>
<pdfrwt beam="2">  1       -2 0.75068184E-01 0.13977216E+04</pdfrwt>
<totfact> 0.20581430E+01</totfact>
</mgrwt>
</event>
<event>
12    5  0.5264288E-008  0.1253776E+04  0.7818608E-02  0.9067046E-01
         -2   -1    0    0    0  501 -0.00000000000E+00  0.00000000000E+00  0.44817107797E+03  0.44817107797E+03  0.00000000000E+00 0.  1.
          1   -1    0    0  501    0  0.00000000000E+00 -0.00000000000E+00 -0.87687230403E+03  0.87687230403E+03  0.00000000000E+00 0. -1.
        -24    2    1    2    0    0  0.63704356702E+02 -0.44798516125E+02  0.19947027173E+03  0.23157154751E+03  0.88158041051E+02 0.  0.
        254    2    1    2    0    0 -0.63704356702E+02  0.44798516125E+02 -0.62817149779E+03  0.10934718345E+04  0.89163673662E+03 0.  0.
         23    2    4    4    0    0 -0.25851997609E+03 -0.28476187858E+03 -0.57209799863E+03  0.69535371732E+03  0.91097566497E+02 0.  0.
         23    2    4    4    0    0  0.19481561939E+03  0.32956039470E+03 -0.56073499156E+02  0.39811811718E+03  0.93758298859E+02 0.  0.
          1    1    3    3  502    0 -0.14307859609E+02 -0.26695470511E+02  0.96394736932E+02  0.10104112183E+03  0.00000000000E+00 0. -1.
         -2    1    3    3    0  502  0.78012216311E+02 -0.18103045614E+02  0.10307553480E+03  0.13053042568E+03  0.00000000000E+00 0.  1.
         13    1    5    5    0    0  0.59653299348E+01 -0.59652898493E+01 -0.27895596874E+02  0.29143338333E+02  0.00000000000E+00 0. -1.
        -13    1    5    5    0    0 -0.26448530602E+03 -0.27879658873E+03 -0.54420240176E+03  0.66621037898E+03  0.00000000000E+00 0.  1.
          1    1    6    6  503    0  0.38747742117E+02  0.96683878957E+02 -0.54980039483E+02  0.11777930510E+03  0.00000000000E+00 0. -1.
         -1    1    6    6    0  503  0.15606787727E+03  0.23287651574E+03 -0.10934596731E+01  0.28033881207E+03  0.00000000000E+00 0.  1.
<mgrwt>
<rscale>  0 0.12537764E+04</rscale>
<asrwt>0</asrwt>
<pdfrwt beam="1">  1        1 0.13490343E+00 0.12537764E+04</pdfrwt>
<pdfrwt beam="2">  1       -2 0.68949397E-01 0.12537764E+04</pdfrwt>
<totfact> 0.31570655E+01</totfact>
</mgrwt>
</event>
<event>
12    5  0.5264288E-008  0.1127555E+04  0.7818608E-02  0.9178743E-01
          1   -1    0    0  501    0  0.00000000000E+00  0.00000000000E+00  0.81972696768E+03  0.81972696768E+03  0.00000000000E+00 0. -1.
         -2   -1    0    0    0  501 -0.00000000000E+00 -0.00000000000E+00 -0.38774534283E+03  0.38774534283E+03  0.00000000000E+00 0.  1.
        -24    2    1    2    0    0  0.75068418557E+02  0.78172527974E+02  0.11325396578E+02  0.13467058621E+03  0.79130844723E+02 0.  0.
        254    2    1    2    0    0 -0.75068418557E+02 -0.78172527974E+02  0.42065622827E+03  0.10728017243E+04  0.98092082540E+03 0.  0.
         23    2    4    4    0    0  0.32334227540E+02 -0.16338386405E+03 -0.28777131813E+03  0.34536005720E+03  0.93388694530E+02 0.  0.
         23    2    4    4    0    0 -0.10740264610E+03  0.85211336079E+02  0.70842754640E+03  0.72744166711E+03  0.92225215464E+02 0.  0.
          1    1    3    3  502    0  0.23781831399E+02 -0.33780690958E+00  0.30777966038E+02  0.38896951187E+02  0.00000000000E+00 0. -1.
         -2    1    3    3    0  502  0.51286587158E+02  0.78510334884E+02 -0.19452569461E+02  0.95773635018E+02  0.00000000000E+00 0.  1.
         13    1    5    5    0    0  0.65276645096E+02 -0.98332860971E+02 -0.17671984003E+03  0.21250951462E+03  0.00000000000E+00 0.  1.
        -13    1    5    5    0    0 -0.32942417556E+02 -0.65051003082E+02 -0.11105147809E+03  0.13285054258E+03  0.00000000000E+00 0. -1.
          4    1    6    6  503    0 -0.41728247975E+02  0.88375745369E+02  0.47384555114E+03  0.48381931067E+03  0.00000000000E+00 0. -1.
         -4    1    6    6    0  503 -0.65674398122E+02 -0.31644092908E+01  0.23458199526E+03  0.24362235644E+03  0.00000000000E+00 0.  1.
<mgrwt>
<rscale>  0 0.11275554E+04</rscale>
<asrwt>0</asrwt>
<pdfrwt beam="1">  1        1 0.12611184E+00 0.11275554E+04</pdfrwt>
<pdfrwt beam="2">  1       -2 0.59653130E-01 0.11275554E+04</pdfrwt>
<totfact> 0.48578819E+01</totfact>
</mgrwt>
</event>
<event>
12    5  0.5264288E-008  0.2355264E+04  0.7818608E-02  0.8456445E-01
          1   -1    0    0  501    0  0.00000000000E+00  0.00000000000E+00  0.21539565026E+04  0.21539565026E+04  0.00000000000E+00 0. -1.
         -2   -1    0    0    0  501 -0.00000000000E+00 -0.00000000000E+00 -0.64384613782E+03  0.64384613782E+03  0.00000000000E+00 0.  1.
        -24    2    1    2    0    0  0.36948595256E+03 -0.53015993424E+03 -0.26667129664E+03  0.70353544658E+03  0.79114594921E+02 0.  0.
        254    2    1    2    0    0 -0.36948595256E+03  0.53015993424E+03  0.17767816614E+04  0.20942671938E+04  0.90078442582E+03 0.  0.
         23    2    4    4    0    0  0.87587880062E+02 -0.13912061628E+03  0.80089847979E+03  0.82289176131E+03  0.93200285931E+02 0.  0.
         23    2    4    4    0    0 -0.45707383262E+03  0.66928055053E+03  0.97588318161E+03  0.12713754325E+04  0.84820766629E+02 0.  0.
          1    1    3    3  502    0  0.21573113573E+03 -0.26057277705E+03 -0.16917533197E+03  0.37823060162E+03  0.00000000000E+00 0. -1.
         -2    1    3    3    0  502  0.15375481684E+03 -0.26958715720E+03 -0.97495964675E+02  0.32530484496E+03  0.00000000000E+00 0.  1.
         13    1    5    5    0    0  0.29368055856E+02 -0.73625241166E+02  0.19198700526E+03  0.20770693063E+03  0.00000000000E+00 0. -1.
        -13    1    5    5    0    0  0.58219824206E+02 -0.65495375116E+02  0.60891147452E+03  0.61518483068E+03  0.00000000000E+00 0.  1.
          3    1    6    6  503    0 -0.15754045733E+03  0.24801790534E+03  0.41683627400E+03  0.50998466290E+03  0.00000000000E+00 0. -1.
         -3    1    6    6    0  503 -0.29953337529E+03  0.42126264518E+03  0.55904690761E+03  0.76139076961E+03  0.00000000000E+00 0.  1.
<mgrwt>
<rscale>  0 0.23552635E+04</rscale>
<asrwt>0</asrwt>
<pdfrwt beam="1">  1        1 0.33137792E+00 0.23552635E+04</pdfrwt>
<pdfrwt beam="2">  1       -2 0.99053253E-01 0.23552635E+04</pdfrwt>
<totfact> 0.15637672E+00</totfact>
</mgrwt>
</event>
<event>
12    5  0.5264288E-008  0.3975860E+04  0.7818608E-02  0.8009434E-01
         -2   -1    0    0    0  501 -0.00000000000E+00  0.00000000000E+00  0.19964726695E+04  0.19964726695E+04  0.00000000000E+00 0.  1.
          1   -1    0    0  501    0  0.00000000000E+00 -0.00000000000E+00 -0.19794237366E+04  0.19794237366E+04  0.00000000000E+00 0. -1.
        -24    2    1    2    0    0  0.10687309452E+04  0.14512328473E+04 -0.54916843360E+03  0.18857687431E+04  0.79215992882E+02 0.  0.
        254    2    1    2    0    0 -0.10687309452E+04 -0.14512328473E+04  0.56621736641E+03  0.20901276630E+04  0.89429801043E+03 0.  0.
         23    2    4    4    0    0 -0.78748233885E+03 -0.14610512034E+04  0.64528043478E+03  0.17829109104E+04  0.87094327187E+02 0.  0.
         23    2    4    4    0    0 -0.28124860634E+03  0.98183561092E+01 -0.79063068373E+02  0.30721675266E+03  0.94519763267E+02 0.  0.
          3    1    3    3  502    0  0.73566070088E+02  0.11105926141E+03 -0.61567227488E+02  0.14675370426E+03  0.00000000000E+00 0. -1.
         -4    1    3    3    0  502  0.99516487510E+03  0.13401735859E+04 -0.48760120611E+03  0.17390150388E+04  0.00000000000E+00 0.  1.
         13    1    5    5    0    0 -0.39462533448E+03 -0.72690587911E+03  0.27493046451E+03  0.87161234044E+03  0.00000000000E+00 0.  1.
        -13    1    5    5    0    0 -0.39285700437E+03 -0.73414532431E+03  0.37034997028E+03  0.91129856994E+03  0.00000000000E+00 0. -1.
          1    1    6    6  503    0 -0.49404791244E+01 -0.98736322569E+01  0.11342244426E+02  0.15828564576E+02  0.00000000000E+00 0. -1.
         -1    1    6    6    0  503 -0.27630812722E+03  0.19691988366E+02 -0.90405312799E+02  0.29138818808E+03  0.00000000000E+00 0.  1.
<mgrwt>
<rscale>  0 0.39758599E+04</rscale>
<asrwt>0</asrwt>
<pdfrwt beam="1">  1        1 0.30452673E+00 0.39758599E+04</pdfrwt>
<pdfrwt beam="2">  1       -2 0.30714964E+00 0.39758599E+04</pdfrwt>
<totfact> 0.60939796E-02</totfact>
</mgrwt>
</event>
<event>
12    5  0.5264288E-008  0.1305790E+04  0.7818608E-02  0.9024987E-01
          1   -1    0    0  501    0  0.00000000000E+00  0.00000000000E+00  0.58940239628E+03  0.58940239628E+03  0.00000000000E+00 0. -1.
         -2   -1    0    0    0  501 -0.00000000000E+00 -0.00000000000E+00 -0.72322681086E+03  0.72322681086E+03  0.00000000000E+00 0.  1.
        -24    2    1    2    0    0  0.77201789147E+02 -0.28544218114E+02  0.29528379106E+03  0.31616457940E+03  0.77412113821E+02 0.  0.
        254    2    1    2    0    0 -0.77201789147E+02  0.28544218114E+02 -0.42910820564E+03  0.99646462774E+03  0.89556295901E+03 0.  0.
         23    2    4    4    0    0 -0.10587361656E+03  0.42954389044E+03 -0.36121538344E+03  0.57902936188E+03  0.95295709188E+02 0.  0.
         23    2    4    4    0    0  0.28671827410E+02 -0.40099967232E+03 -0.67892822206E+02  0.41743526586E+03  0.89554201397E+02 0.  0.
          1    1    3    3  502    0  0.78070230836E+02 -0.39246437915E+02  0.29221133867E+03  0.30499624634E+03  0.00000000000E+00 0. -1.
         -2    1    3    3    0  502 -0.86844168824E+00  0.10702219800E+02  0.30724523891E+01  0.11168333059E+02  0.00000000000E+00 0.  1.
         13    1    5    5    0    0  0.12218627451E+02  0.18839575483E+02 -0.57737646226E+01  0.23185357860E+02  0.00000000000E+00 0.  1.
        -13    1    5    5    0    0 -0.11809224401E+03  0.41070431495E+03 -0.35544161882E+03  0.55584400402E+03  0.00000000000E+00 0. -1.
          2    1    6    6  503    0  0.19936827444E+02 -0.34009407398E+03 -0.89473834773E+02  0.35223149114E+03  0.00000000000E+00 0. -1.
         -2    1    6    6    0  503  0.87349999657E+01 -0.60905598344E+02  0.21581012568E+02  0.65203774719E+02  0.00000000000E+00 0.  1.
<mgrwt>
<rscale>  0 0.13057896E+04</rscale>
<asrwt>0</asrwt>
<pdfrwt beam="1">  1        1 0.90677292E-01 0.13057896E+04</pdfrwt>
<pdfrwt beam="2">  1       -2 0.11126566E+00 0.13057896E+04</pdfrwt>
<totfact> 0.19297216E+01</totfact>
</mgrwt>
</event>
<event>
12    5  0.5264288E-008  0.1827831E+04  0.7818608E-02  0.8691638E-01
          1   -1    0    0  501    0  0.00000000000E+00  0.00000000000E+00  0.14040860866E+04  0.14040860866E+04  0.00000000000E+00 0. -1.
         -2   -1    0    0    0  501 -0.00000000000E+00 -0.00000000000E+00 -0.59486472604E+03  0.59486472604E+03  0.00000000000E+00 0.  1.
        -24    2    1    2    0    0 -0.36641917836E+03  0.31347256141E+03  0.85382587125E+03  0.98359911165E+03  0.76944999761E+02 0.  0.
        254    2    1    2    0    0  0.36641917836E+03 -0.31347256141E+03 -0.44604510673E+02  0.10153517010E+04  0.89242448047E+03 0.  0.
         23    2    4    4    0    0 -0.96271582651E+02  0.23993239304E+02 -0.33930974773E+03  0.36495651772E+03  0.90654629014E+02 0.  0.
         23    2    4    4    0    0  0.46269076102E+03 -0.33746580071E+03  0.29470523706E+03  0.65039518329E+03  0.90536239817E+02 0.  0.
          1    1    3    3  502    0 -0.26524162114E+03  0.21065958528E+03  0.66163586345E+03  0.74329845571E+03  0.00000000000E+00 0. -1.
         -2    1    3    3    0  502 -0.10117755722E+03  0.10281297613E+03  0.19219000780E+03  0.24030065594E+03  0.00000000000E+00 0.  1.
         13    1    5    5    0    0 -0.24348860863E+02  0.51446159751E+02 -0.12895689819E+03  0.14095905778E+03  0.00000000000E+00 0. -1.
        -13    1    5    5    0    0 -0.71922721788E+02 -0.27452920448E+02 -0.21035284954E+03  0.22399745994E+03  0.00000000000E+00 0.  1.
          3    1    6    6  503    0  0.18303522506E+03 -0.18375405786E+03  0.11038184969E+03  0.28187160221E+03  0.00000000000E+00 0. -1.
         -3    1    6    6    0  503  0.27965553595E+03 -0.15371174286E+03  0.18432338737E+03  0.36852358108E+03  0.00000000000E+00 0.  1.
<mgrwt>
<rscale>  0 0.18278307E+04</rscale>
<asrwt>0</asrwt>
<pdfrwt beam="1">  1        1 0.21601324E+00 0.18278307E+04</pdfrwt>
<pdfrwt beam="2">  1       -2 0.91517651E-01 0.18278307E+04</pdfrwt>
<totfact> 0.64097527E+00</totfact>
</mgrwt>
</event>
<event>
12    5  0.5264288E-008  0.5120080E+04  0.7818608E-02  0.7810246E-01
          1   -1    0    0  501    0  0.00000000000E+00  0.00000000000E+00  0.15119253212E+04  0.15119253212E+04  0.00000000000E+00 0. -1.
         -2   -1    0    0    0  501 -0.00000000000E+00 -0.00000000000E+00 -0.43347418930E+04  0.43347418930E+04  0.00000000000E+00 0.  1.
        -24    2    1    2    0    0 -0.19125644646E+04 -0.29252744194E+03 -0.31391303291E+04  0.36885533894E+04  0.88384092823E+02 0.  0.
        254    2    1    2    0    0  0.19125644646E+04  0.29252744194E+03  0.31631375732E+03  0.21581138247E+04  0.90217833722E+03 0.  0.
         23    2    4    4    0    0  0.12717410452E+04 -0.18222354098E+03 -0.20098438112E+02  0.12881113870E+04  0.91083988855E+02 0.  0.
         23    2    4    4    0    0  0.64082341934E+03  0.47475098293E+03  0.33641219543E+03  0.87000243779E+03  0.87680818688E+02 0.  0.
          3    1    3    3  502    0 -0.43050156241E+03 -0.92930407750E+02 -0.66624069627E+03  0.79865156438E+03  0.00000000000E+00 0. -1.
         -4    1    3    3    0  502 -0.14820629021E+04 -0.19959703419E+03 -0.24728896329E+04  0.28899018250E+04  0.00000000000E+00 0.  1.
         13    1    5    5    0    0  0.11738573086E+04 -0.16606726488E+03  0.58712649900E+01  0.11855605379E+04  0.00000000000E+00 0.  1.
        -13    1    5    5    0    0  0.97883736657E+02 -0.16156276105E+02 -0.25969703102E+02  0.10255084904E+03  0.00000000000E+00 0. -1.
          4    1    6    6  503    0  0.14281144670E+03  0.15199930319E+03  0.76882636950E+02  0.22228323676E+03  0.00000000000E+00 0. -1.
         -4    1    6    6    0  503  0.49801197264E+03  0.32275167974E+03  0.25952955848E+03  0.64771920104E+03  0.00000000000E+00 0.  1.
<mgrwt>
<rscale>  0 0.51200805E+04</rscale>
<asrwt>0</asrwt>
<pdfrwt beam="1">  1        1 0.23260390E+00 0.51200805E+04</pdfrwt>
<pdfrwt beam="2">  1       -2 0.66688336E+00 0.51200805E+04</pdfrwt>
<totfact> 0.12011509E-03</totfact>
</mgrwt>
</event>
<event>
12    5  0.5264288E-008  0.1479855E+04  0.7818608E-02  0.8897961E-01
         -2   -1    0    0    0  501 -0.00000000000E+00  0.00000000000E+00  0.69983155766E+03  0.69983155766E+03  0.00000000000E+00 0.  1.
          1   -1    0    0  501    0  0.00000000000E+00 -0.00000000000E+00 -0.78232040826E+03  0.78232040826E+03  0.00000000000E+00 0. -1.
        -24    2    1    2    0    0 -0.39669622818E+01  0.41757462156E+03  0.17286603992E+03  0.45896261637E+03  0.79873112519E+02 0.  0.
        254    2    1    2    0    0  0.39669622818E+01 -0.41757462156E+03 -0.25535489052E+03  0.10231893495E+04  0.89851322948E+03 0.  0.
         23    2    4    4    0    0  0.35704310203E+03 -0.17014592820E+03 -0.39011837603E+03  0.56292308545E+03  0.90888058754E+02 0.  0.
         23    2    4    4    0    0 -0.35307613975E+03 -0.24742869336E+03  0.13476348551E+03  0.46026626410E+03  0.88318277143E+02 0.  0.
          1    1    3    3  502    0 -0.43515599467E+01  0.37959015303E+03  0.18029823034E+03  0.42025596036E+03  0.00000000000E+00 0. -1.
         -2    1    3    3    0  502  0.38459766493E+00  0.37984468525E+02 -0.74321904242E+01  0.38706656004E+02  0.00000000000E+00 0.  1.
         13    1    5    5    0    0  0.15545602897E+03 -0.10476207399E+03 -0.23331518786E+03  0.29929524884E+03  0.00000000000E+00 0.  1.
        -13    1    5    5    0    0  0.20158707306E+03 -0.65383854214E+02 -0.15680318817E+03  0.26362783662E+03  0.00000000000E+00 0. -1.
          4    1    6    6  503    0 -0.80631171391E+02 -0.21290116835E+02  0.63729057709E+01  0.83637723562E+02  0.00000000000E+00 0. -1.
         -4    1    6    6    0  503 -0.27244496836E+03 -0.22613857653E+03  0.12839057974E+03  0.37662854053E+03  0.00000000000E+00 0.  1.
<mgrwt>
<rscale>  0 0.14798547E+04</rscale>
<asrwt>0</asrwt>
<pdfrwt beam="1">  1        1 0.12035699E+00 0.14798547E+04</pdfrwt>
<pdfrwt beam="2">  1       -2 0.10766639E+00 0.14798547E+04</pdfrwt>
<totfact> 0.13457980E+01</totfact>
</mgrwt>
</event>
<event>
12    5  0.5264288E-008  0.1833223E+04  0.7818608E-02  0.8688829E-01
          1   -1    0    0  501    0  0.00000000000E+00  0.00000000000E+00  0.13187076693E+04  0.13187076693E+04  0.00000000000E+00 0. -1.
         -2   -1    0    0    0  501 -0.00000000000E+00 -0.00000000000E+00 -0.63712122877E+03  0.63712122877E+03  0.00000000000E+00 0.  1.
        -24    2    1    2    0    0 -0.21046466280E+03  0.15096126647E+03  0.94438508078E+03  0.98259566477E+03  0.80909711261E+02 0.  0.
        254    2    1    2    0    0  0.21046466280E+03 -0.15096126647E+03 -0.26279864020E+03  0.97323323334E+03  0.90057488468E+03 0.  0.
         23    2    4    4    0    0 -0.32040698770E+03 -0.13911984935E+03  0.27507845549E+02  0.36223067261E+03  0.91866252577E+02 0.  0.
         23    2    4    4    0    0  0.53087165049E+03 -0.11841417127E+02 -0.29030648575E+03  0.61100256073E+03  0.84150728386E+02 0.  0.
          3    1    3    3  502    0 -0.13942317424E+03  0.10155539882E+03  0.75384614527E+03  0.77332808774E+03  0.00000000000E+00 0. -1.
         -4    1    3    3    0  502 -0.71041488552E+02  0.49405867652E+02  0.19053893551E+03  0.20926757704E+03  0.00000000000E+00 0.  1.
         13    1    5    5    0    0 -0.17590081960E+03 -0.26568847689E+02  0.88331360719E+01  0.17811520512E+03  0.00000000000E+00 0.  1.
        -13    1    5    5    0    0 -0.14450616810E+03 -0.11255100166E+03  0.18674709477E+02  0.18411546748E+03  0.00000000000E+00 0. -1.
          3    1    6    6  503    0  0.54915147215E+02 -0.29839039552E+00 -0.31397363645E+01  0.55005639483E+02  0.00000000000E+00 0. -1.
         -3    1    6    6    0  503  0.47595650328E+03 -0.11543026732E+02 -0.28716674939E+03  0.55599692124E+03  0.00000000000E+00 0.  1.
<mgrwt>
<rscale>  0 0.18332230E+04</rscale>
<asrwt>0</asrwt>
<pdfrwt beam="1">  1        1 0.20287810E+00 0.18332230E+04</pdfrwt>
<pdfrwt beam="2">  1       -2 0.98018651E-01 0.18332230E+04</pdfrwt>
<totfact> 0.62710755E+00</totfact>
</mgrwt>
</event>
<event>
12    5  0.5264288E-008  0.1651036E+04  0.7818608E-02  0.8789794E-01
         -2   -1    0    0    0  501 -0.00000000000E+00  0.00000000000E+00  0.86007938079E+03  0.86007938079E+03  0.00000000000E+00 0.  1.
          1   -1    0    0  501    0  0.00000000000E+00 -0.00000000000E+00 -0.79234562712E+03  0.79234562712E+03  0.00000000000E+00 0. -1.
        -24    2    1    2    0    0  0.31760041142E+03  0.45730167224E+03 -0.12590259592E+03  0.57649445512E+03  0.80619801254E+02 0.  0.
        254    2    1    2    0    0 -0.31760041142E+03 -0.45730167224E+03  0.19363634959E+03  0.10759305528E+04  0.90007592889E+03 0.  0.
         23    2    4    4    0    0 -0.11304127169E+03 -0.59349412699E+03 -0.16241765520E+03  0.63250282188E+03  0.93095204395E+02 0.  0.
         23    2    4    4    0    0 -0.20455913973E+03  0.13619245475E+03  0.35605400479E+03  0.44342773091E+03  0.97267013088E+02 0.  0.
          1    1    3    3  502    0  0.60609653556E+02  0.10582648041E+03 -0.60725611110E+02  0.13623646320E+03  0.00000000000E+00 0. -1.
         -2    1    3    3    0  502  0.25699075786E+03  0.35147519183E+03 -0.65176984807E+02  0.44025799192E+03  0.00000000000E+00 0.  1.
         13    1    5    5    0    0 -0.87734689093E+01 -0.17050484466E+03 -0.82358324098E+02  0.18955677080E+03  0.00000000000E+00 0. -1.
        -13    1    5    5    0    0 -0.10426780278E+03 -0.42298928233E+03 -0.80059331104E+02  0.44294605108E+03  0.00000000000E+00 0.  1.
          4    1    6    6  503    0 -0.54936045953E+02  0.14100538264E+02  0.15314769779E+03  0.16331261943E+03  0.00000000000E+00 0. -1.
         -4    1    6    6    0  503 -0.14962309377E+03  0.12209191649E+03  0.20290630699E+03  0.28011511148E+03  0.00000000000E+00 0.  1.
<mgrwt>
<rscale>  0 0.16510362E+04</rscale>
<asrwt>0</asrwt>
<pdfrwt beam="1">  1        1 0.12189933E+00 0.16510362E+04</pdfrwt>
<pdfrwt beam="2">  1       -2 0.13231990E+00 0.16510362E+04</pdfrwt>
<totfact> 0.78012945E+00</totfact>
</mgrwt>
</event>
<event>
12    5  0.5264288E-008  0.1295830E+04  0.7818608E-02  0.9032879E-01
         -2   -1    0    0    0  501 -0.00000000000E+00  0.00000000000E+00  0.19170910266E+03  0.19170910266E+03  0.00000000000E+00 0.  1.
          1   -1    0    0  501    0  0.00000000000E+00 -0.00000000000E+00 -0.21897440940E+04  0.21897440940E+04  0.00000000000E+00 0. -1.
        -24    2    1    2    0    0  0.10007972955E+02 -0.25865649025E+03 -0.14922144769E+03  0.31088914947E+03  0.85916723276E+02 0.  0.
        254    2    1    2    0    0 -0.10007972955E+02  0.25865649025E+03 -0.18488135437E+04  0.20705640472E+04  0.89561186618E+03 0.  0.
         23    2    4    4    0    0 -0.41828418869E+03  0.16394624735E+02 -0.10851223102E+04  0.11666396374E+04  0.91253323810E+02 0.  0.
         23    2    4    4    0    0  0.40827621574E+03  0.24226186551E+03 -0.76369123342E+03  0.90392440981E+03  0.92058453325E+02 0.  0.
          1    1    3    3  502    0 -0.60639564783E+01 -0.24176307959E+02  0.10157805696E+02  0.26915542930E+02  0.00000000000E+00 0. -1.
         -2    1    3    3    0  502  0.16071929434E+02 -0.23448018229E+03 -0.15937925339E+03  0.28397360654E+03  0.00000000000E+00 0.  1.
         13    1    5    5    0    0 -0.32184548638E+03  0.14765058785E+01 -0.92194370181E+03  0.97650749433E+03  0.00000000000E+00 0. -1.
        -13    1    5    5    0    0 -0.96438702309E+02  0.14918118856E+02 -0.16317860842E+03  0.19013214305E+03  0.00000000000E+00 0.  1.
          1    1    6    6  503    0  0.38042785462E+03  0.23203858392E+03 -0.66207734828E+03  0.79806871390E+03  0.00000000000E+00 0. -1.
         -1    1    6    6    0  503  0.27848361115E+02  0.10223281591E+02 -0.10161388514E+03  0.10585569591E+03  0.00000000000E+00 0.  1.
<mgrwt>
<rscale>  0 0.12958300E+04</rscale>
<asrwt>0</asrwt>
<pdfrwt beam="1">  1        1 0.33688371E+00 0.12958300E+04</pdfrwt>
<pdfrwt beam="2">  1       -2 0.29493708E-01 0.12958300E+04</pdfrwt>
<totfact> 0.20268880E+01</totfact>
</mgrwt>
</event>
<event>
12    5  0.5264288E-008  0.1413605E+04  0.7818608E-02  0.8944029E-01
         -2   -1    0    0    0  501 -0.00000000000E+00  0.00000000000E+00  0.30882070190E+03  0.30882070190E+03  0.00000000000E+00 0.  1.
          1   -1    0    0  501    0  0.00000000000E+00 -0.00000000000E+00 -0.16176695282E+04  0.16176695282E+04  0.00000000000E+00 0. -1.
        -24    2    1    2    0    0  0.40114703547E+03  0.10351787731E+02 -0.24376232615E+03  0.47630066333E+03  0.80100853058E+02 0.  0.
        254    2    1    2    0    0 -0.40114703547E+03 -0.10351787731E+02 -0.10650865001E+04  0.14501895668E+04  0.89867370228E+03 0.  0.
         23    2    4    4    0    0 -0.11294711404E+03  0.42777069071E+03 -0.48196695640E+03  0.66043810632E+03  0.90230431760E+02 0.  0.
         23    2    4    4    0    0 -0.28819992144E+03 -0.43812247844E+03 -0.58311954373E+03  0.78975146043E+03  0.93104597892E+02 0.  0.
          3    1    3    3  502    0  0.17597513205E+03  0.26839379095E+01 -0.61250359289E+02  0.18634928799E+03  0.00000000000E+00 0. -1.
         -4    1    3    3    0  502  0.22517190343E+03  0.76678498217E+01 -0.18251196686E+03  0.28995137534E+03  0.00000000000E+00 0.  1.
         13    1    5    5    0    0 -0.98722460305E+02  0.31102987240E+03 -0.40403803024E+03  0.51935771446E+03  0.00000000000E+00 0. -1.
        -13    1    5    5    0    0 -0.14224653732E+02  0.11674081831E+03 -0.77928926167E+02  0.14108039186E+03  0.00000000000E+00 0.  1.
          4    1    6    6  503    0 -0.25672225381E+03 -0.41879473695E+03 -0.51153773808E+03  0.70920110320E+03  0.00000000000E+00 0. -1.
         -4    1    6    6    0  503 -0.31477667625E+02 -0.19327741484E+02 -0.71581805656E+02  0.80550357237E+02  0.00000000000E+00 0.  1.
<mgrwt>
<rscale>  0 0.14136051E+04</rscale>
<asrwt>0</asrwt>
<pdfrwt beam="1">  1        1 0.24887223E+00 0.14136051E+04</pdfrwt>
<pdfrwt beam="2">  1       -2 0.47510878E-01 0.14136051E+04</pdfrwt>
<totfact> 0.19474295E+01</totfact>
</mgrwt>
</event>
<event>
12    5  0.5264288E-008  0.1442608E+04  0.7818608E-02  0.8923542E-01
          3   -1    0    0  501    0  0.00000000000E+00  0.00000000000E+00  0.29962078110E+03  0.29962078110E+03  0.00000000000E+00 0. -1.
         -4   -1    0    0    0  501 -0.00000000000E+00 -0.00000000000E+00 -0.17364589531E+04  0.17364589531E+04  0.00000000000E+00 0.  1.
        -24    2    1    2    0    0  0.20814007602E+02 -0.39688963013E+02  0.16715807713E+03  0.19424394095E+03  0.88206854321E+02 0.  0.
        254    2    1    2    0    0 -0.20814007602E+02  0.39688963013E+02 -0.16039962492E+04  0.18418357933E+04  0.90418288273E+03 0.  0.
         23    2    4    4    0    0 -0.62814678547E+02 -0.33207273350E+03 -0.24193388679E+03  0.42574610903E+03  0.92248358276E+02 0.  0.
         23    2    4    4    0    0  0.42000670945E+02  0.37176169651E+03 -0.13620623624E+04  0.14160896843E+04  0.10062454738E+03 0.  0.
          1    1    3    3  502    0  0.28968495239E+02 -0.26361523476E+02  0.17313907798E+03  0.17751406694E+03  0.00000000000E+00 0. -1.
         -2    1    3    3    0  502 -0.81544876371E+01 -0.13327439537E+02 -0.59810008545E+01  0.16729874012E+02  0.00000000000E+00 0.  1.
         13    1    5    5    0    0 -0.86020651184E+02 -0.28454578166E+03 -0.21007954246E+03  0.36400448960E+03  0.00000000000E+00 0. -1.
        -13    1    5    5    0    0  0.23205972637E+02 -0.47526951839E+02 -0.31854344332E+02  0.61741619431E+02  0.00000000000E+00 0.  1.
          4    1    6    6  503    0  0.55307332894E+02  0.34168582610E+03 -0.11334320013E+04  0.11851059895E+04  0.00000000000E+00 0. -1.
         -4    1    6    6    0  503 -0.13306661948E+02  0.30075870410E+02 -0.22863036104E+03  0.23098369472E+03  0.00000000000E+00 0.  1.
<mgrwt>
<rscale>  0 0.14426076E+04</rscale>
<asrwt>0</asrwt>
<pdfrwt beam="1">  1        3 0.46095506E-01 0.14426076E+04</pdfrwt>
<pdfrwt beam="2">  1       -4 0.26714752E+00 0.14426076E+04</pdfrwt>
<totfact> 0.51533209E-01</totfact>
</mgrwt>
</event>
<event>
12    5  0.5264288E-008  0.2521776E+04  0.7818608E-02  0.8395269E-01
         -2   -1    0    0    0  501 -0.00000000000E+00  0.00000000000E+00  0.14262197617E+04  0.14262197617E+04  0.00000000000E+00 0.  1.
          1   -1    0    0  501    0  0.00000000000E+00 -0.00000000000E+00 -0.11147221486E+04  0.11147221486E+04  0.00000000000E+00 0. -1.
        -24    2    1    2    0    0 -0.34304289920E+02 -0.98776772795E+03  0.61541631177E+03  0.11669726544E+04  0.78905453403E+02 0.  0.
        254    2    1    2    0    0  0.34304289920E+02  0.98776772795E+03 -0.30391869866E+03  0.13739692559E+04  0.90474475513E+03 0.  0.
         23    2    4    4    0    0 -0.25863706476E+03  0.29880158898E+03  0.21449843655E+03  0.45888722716E+03  0.91609972856E+02 0.  0.
         23    2    4    4    0    0  0.29294135468E+03  0.68896613897E+03 -0.51841713521E+03  0.91508202869E+03  0.90165487973E+02 0.  0.
          3    1    3    3  502    0 -0.18723592631E+01 -0.48696889717E+03  0.34603122695E+03  0.59739419362E+03  0.00000000000E+00 0. -1.
         -4    1    3    3    0  502 -0.32431930657E+02 -0.50079883078E+03  0.26938508482E+03  0.56957846076E+03  0.00000000000E+00 0.  1.
         13    1    5    5    0    0 -0.29682550138E+01 -0.23349802001E+00 -0.68458016427E+01  0.74652568129E+01  0.00000000000E+00 0. -1.
        -13    1    5    5    0    0 -0.25566880975E+03  0.29903508700E+03  0.22134423819E+03  0.45142197035E+03  0.00000000000E+00 0.  1.
          3    1    6    6  503    0  0.28476616458E+02  0.15933328573E+03 -0.10232151452E+03  0.19148813530E+03  0.00000000000E+00 0. -1.
         -3    1    6    6    0  503  0.26446473822E+03  0.52963285324E+03 -0.41609562069E+03  0.72359389339E+03  0.00000000000E+00 0.  1.
<mgrwt>
<rscale>  0 0.25217762E+04</rscale>
<asrwt>0</asrwt>
<pdfrwt beam="1">  1        1 0.17149572E+00 0.25217762E+04</pdfrwt>
<pdfrwt beam="2">  1       -2 0.21941842E+00 0.25217762E+04</pdfrwt>
<totfact> 0.95831336E-01</totfact>
</mgrwt>
</event>
<event>
12    5  0.5264288E-008  0.1475369E+04  0.7818608E-02  0.8900999E-01
          3   -1    0    0  501    0  0.00000000000E+00  0.00000000000E+00  0.13414741337E+04  0.13414741337E+04  0.00000000000E+00 0. -1.
         -4   -1    0    0    0  501 -0.00000000000E+00 -0.00000000000E+00 -0.40565704886E+03  0.40565704886E+03  0.00000000000E+00 0.  1.
        -24    2    1    2    0    0  0.43264654741E+03 -0.93036972201E+02  0.43877286846E+03  0.62819069439E+03  0.79139151075E+02 0.  0.
        254    2    1    2    0    0 -0.43264654741E+03  0.93036972201E+02  0.49704421638E+03  0.11189404882E+04  0.89951984407E+03 0.  0.
         23    2    4    4    0    0  0.16878752574E+03  0.89968740819E+02 -0.12777363372E+03  0.24755567549E+03  0.91510151479E+02 0.  0.
         23    2    4    4    0    0 -0.60143407315E+03  0.30682313820E+01  0.62481785010E+03  0.87138481270E+03  0.84745428204E+02 0.  0.
          3    1    3    3  502    0  0.17767808290E+03 -0.58489327532E+02  0.23256227539E+03  0.29845554864E+03  0.00000000000E+00 0. -1.
         -2    1    3    3    0  502  0.25496846451E+03 -0.34547644669E+02  0.20621059308E+03  0.32973514575E+03  0.00000000000E+00 0.  1.
         13    1    5    5    0    0  0.46619487798E+02  0.70732554193E+01  0.69809519648E+01  0.47666983071E+02  0.00000000000E+00 0.  1.
        -13    1    5    5    0    0  0.12216803794E+03  0.82895485400E+02 -0.13475458568E+03  0.19988869242E+03  0.00000000000E+00 0. -1.
          4    1    6    6  503    0 -0.45267790040E+03  0.36689210743E+02  0.48569478975E+03  0.66495323782E+03  0.00000000000E+00 0. -1.
         -4    1    6    6    0  503 -0.14875617276E+03 -0.33620979361E+02  0.13912306035E+03  0.20643157488E+03  0.00000000000E+00 0.  1.
<mgrwt>
<rscale>  0 0.14753690E+04</rscale>
<asrwt>0</asrwt>
<pdfrwt beam="1">  1        3 0.20638063E+00 0.14753690E+04</pdfrwt>
<pdfrwt beam="2">  1       -4 0.62408777E-01 0.14753690E+04</pdfrwt>
<totfact> 0.71820313E-01</totfact>
</mgrwt>
</event>
<event>
12    5  0.5264288E-008  0.1658267E+04  0.7818608E-02  0.8785531E-01
         -2   -1    0    0    0  501 -0.00000000000E+00  0.00000000000E+00  0.32935926268E+03  0.32935926268E+03  0.00000000000E+00 0.  1.
          1   -1    0    0  501    0  0.00000000000E+00 -0.00000000000E+00 -0.20872707747E+04  0.20872707747E+04  0.00000000000E+00 0. -1.
        -24    2    1    2    0    0 -0.30710897751E+03 -0.95253850599E+02 -0.13218575146E+04  0.13628263580E+04  0.81235293646E+02 0.  0.
        254    2    1    2    0    0  0.30710897751E+03  0.95253850599E+02 -0.43605399736E+03  0.10538036794E+04  0.90386386470E+03 0.  0.
         23    2    4    4    0    0  0.28750269042E+03 -0.38494437171E+02  0.22074057996E+03  0.37656357696E+03  0.94520395449E+02 0.  0.
         23    2    4    4    0    0  0.19606287088E+02  0.13374828777E+03 -0.65679457732E+03  0.67724010241E+03  0.94879020524E+02 0.  0.
          1    1    3    3  502    0 -0.17581484530E+03 -0.14328741549E+02 -0.75816869842E+03  0.77841887690E+03  0.00000000000E+00 0. -1.
         -2    1    3    3    0  502 -0.13129413221E+03 -0.80925109050E+02 -0.56368881620E+03  0.58440748107E+03  0.00000000000E+00 0.  1.
         13    1    5    5    0    0  0.14033134781E+03 -0.54874491840E+02  0.73163990198E+02  0.16750243728E+03  0.00000000000E+00 0. -1.
        -13    1    5    5    0    0  0.14717134261E+03  0.16380054669E+02  0.14757658976E+03  0.20906113968E+03  0.00000000000E+00 0.  1.
          1    1    6    6  503    0 -0.18218466763E+02  0.10525924034E+03 -0.32556196846E+03  0.34263977515E+03  0.00000000000E+00 0. -1.
         -1    1    6    6    0  503  0.37824753851E+02  0.28489047432E+02 -0.33123260886E+03  0.33460032726E+03  0.00000000000E+00 0.  1.
<mgrwt>
<rscale>  0 0.16582665E+04</rscale>
<asrwt>0</asrwt>
<pdfrwt beam="1">  1        1 0.32111858E+00 0.16582665E+04</pdfrwt>
<pdfrwt beam="2">  1       -2 0.50670657E-01 0.16582665E+04</pdfrwt>
<totfact> 0.80308699E+00</totfact>
</mgrwt>
</event>
<event>
12    5  0.5264288E-008  0.1568563E+04  0.7818608E-02  0.8840097E-01
         -2   -1    0    0    0  501 -0.00000000000E+00  0.00000000000E+00  0.86126618938E+03  0.86126618938E+03  0.00000000000E+00 0.  1.
          1   -1    0    0  501    0  0.00000000000E+00 -0.00000000000E+00 -0.71417852236E+03  0.71417852236E+03  0.00000000000E+00 0. -1.
        -24    2    1    2    0    0 -0.44080896645E+02  0.39741564688E+03  0.36512063515E+03  0.54737148568E+03  0.80125796587E+02 0.  0.
        254    2    1    2    0    0  0.44080896645E+02 -0.39741564688E+03 -0.21803296814E+03  0.10280732261E+04  0.92169076220E+03 0.  0.
         23    2    4    4    0    0 -0.35815812034E+03  0.74814991828E+02 -0.11527867922E+03  0.39264602359E+03  0.83709042462E+02 0.  0.
         23    2    4    4    0    0  0.40223901698E+03 -0.47223063871E+03 -0.10275428891E+03  0.63542720248E+03  0.91713046171E+02 0.  0.
          3    1    3    3  502    0  0.17612512979E+02  0.30864929683E+02  0.24162768546E+02  0.42973059951E+02  0.00000000000E+00 0. -1.
         -4    1    3    3    0  502 -0.61693409625E+02  0.36655071720E+03  0.34095786661E+03  0.50439842572E+03  0.00000000000E+00 0.  1.
         13    1    5    5    0    0 -0.25202188569E+03  0.13544519345E+02 -0.69004664628E+02  0.26164886511E+03  0.00000000000E+00 0. -1.
        -13    1    5    5    0    0 -0.10613623465E+03  0.61270472483E+02 -0.46274014596E+02  0.13099715848E+03  0.00000000000E+00 0.  1.
          2    1    6    6  503    0  0.20468328390E+03 -0.30924776516E+03 -0.66510948161E+02  0.37676668270E+03  0.00000000000E+00 0.  1.
         -2    1    6    6    0  503  0.19755573308E+03 -0.16298287355E+03 -0.36243340754E+02  0.25866051978E+03  0.00000000000E+00 0. -1.
<mgrwt>
<rscale>  0 0.15685634E+04</rscale>
<asrwt>0</asrwt>
<pdfrwt beam="1">  1        1 0.10987362E+00 0.15685634E+04</pdfrwt>
<pdfrwt beam="2">  1       -2 0.13250249E+00 0.15685634E+04</pdfrwt>
<totfact> 0.92059937E+00</totfact>
</mgrwt>
</event>
<event>
12    5  0.5264288E-008  0.1232963E+04  0.7818608E-02  0.9084483E-01
          1   -1    0    0  501    0  0.00000000000E+00  0.00000000000E+00  0.81551902490E+03  0.81551902490E+03  0.00000000000E+00 0. -1.
         -2   -1    0    0    0  501 -0.00000000000E+00 -0.00000000000E+00 -0.46602180999E+03  0.46602180999E+03  0.00000000000E+00 0.  1.
        -24    2    1    2    0    0  0.18399158514E+03  0.57689912832E+02 -0.11459168399E+03  0.23934565709E+03  0.83510838131E+02 0.  0.
        254    2    1    2    0    0 -0.18399158514E+03 -0.57689912832E+02  0.46408889890E+03  0.10421951778E+04  0.91302313941E+03 0.  0.
         23    2    4    4    0    0 -0.41514117096E+03 -0.14016766463E+03  0.59819246631E+03  0.74706761135E+03  0.91030891158E+02 0.  0.
         23    2    4    4    0    0  0.23114958582E+03  0.82477751794E+02 -0.13410356741E+03  0.29512756645E+03  0.94253928936E+02 0.  0.
          3    1    3    3  502    0  0.44799839890E+02 -0.93748134642E+00  0.71220226626E+01  0.45372103017E+02  0.00000000000E+00 0. -1.
         -4    1    3    3    0  502  0.13919174525E+03  0.58627394178E+02 -0.12171370665E+03  0.19397355408E+03  0.00000000000E+00 0.  1.
         13    1    5    5    0    0 -0.41322405996E+02 -0.29814164010E+02  0.33716819393E+02  0.61100323427E+02  0.00000000000E+00 0.  1.
        -13    1    5    5    0    0 -0.37381876496E+03 -0.11035350062E+03  0.56447564692E+03  0.68596728792E+03  0.00000000000E+00 0. -1.
          1    1    6    6  503    0  0.23609087396E+03  0.90962204378E+02 -0.13038705965E+03  0.28462924782E+03  0.00000000000E+00 0. -1.
         -1    1    6    6    0  503 -0.49412881352E+01 -0.84844525848E+01 -0.37165077644E+01  0.10498318630E+02  0.00000000000E+00 0.  1.
<mgrwt>
<rscale>  0 0.12329633E+04</rscale>
<asrwt>0</asrwt>
<pdfrwt beam="1">  1        1 0.12546447E+00 0.12329633E+04</pdfrwt>
<pdfrwt beam="2">  1       -2 0.71695663E-01 0.12329633E+04</pdfrwt>
<totfact> 0.32714111E+01</totfact>
</mgrwt>
</event>
<event>
12    5  0.5264288E-008  0.1082491E+04  0.7818608E-02  0.9222427E-01
         -2   -1    0    0    0  501 -0.00000000000E+00  0.00000000000E+00  0.69691873989E+03  0.69691873989E+03  0.00000000000E+00 0.  1.
          1   -1    0    0  501    0  0.00000000000E+00 -0.00000000000E+00 -0.42034583000E+03  0.42034583000E+03  0.00000000000E+00 0. -1.
        -24    2    1    2    0    0  0.37226372282E+02 -0.69361618688E+02  0.19858342352E+03  0.22824309704E+03  0.80390909363E+02 0.  0.
        254    2    1    2    0    0 -0.37226372282E+02  0.69361618688E+02  0.77989486369E+02  0.88902147285E+03  0.88208842089E+03 0.  0.
         23    2    4    4    0    0 -0.89098228707E+01  0.46326412169E+03  0.97719912477E+02  0.48313889097E+03  0.95817405953E+02 0.  0.
         23    2    4    4    0    0 -0.28316549411E+02 -0.39390250300E+03 -0.19730426107E+02  0.40588258188E+03  0.91598972274E+02 0.  0.
          1    1    3    3  502    0  0.18519100511E+02 -0.72573314480E+02  0.85880817602E+02  0.11395331452E+03  0.00000000000E+00 0. -1.
         -2    1    3    3    0  502  0.18707271770E+02  0.32116957925E+01  0.11270260592E+03  0.11428978252E+03  0.00000000000E+00 0.  1.
         13    1    5    5    0    0 -0.16974113640E+02  0.26002820337E+03  0.10164729211E+03  0.27970512880E+03  0.00000000000E+00 0.  1.
        -13    1    5    5    0    0  0.80642907697E+01  0.20323591831E+03 -0.39273796341E+01  0.20343376217E+03  0.00000000000E+00 0. -1.
          1    1    6    6  503    0  0.15521506616E+02 -0.94671518408E+02  0.27482581762E+02  0.99794317802E+02  0.00000000000E+00 0. -1.
         -1    1    6    6    0  503 -0.43838056027E+02 -0.29923098459E+03 -0.47213007869E+02  0.30608826408E+03  0.00000000000E+00 0.  1.
<mgrwt>
<rscale>  0 0.10824914E+04</rscale>
<asrwt>0</asrwt>
<pdfrwt beam="1">  1        1 0.64668589E-01 0.10824914E+04</pdfrwt>
<pdfrwt beam="2">  1       -2 0.10721827E+00 0.10824914E+04</pdfrwt>
<totfact> 0.34209056E+01</totfact>
</mgrwt>
</event>
<event>
12    5  0.5264288E-008  0.1682035E+04  0.7818608E-02  0.8771677E-01
          3   -1    0    0  501    0  0.00000000000E+00  0.00000000000E+00  0.13752865893E+04  0.13752865893E+04  0.00000000000E+00 0. -1.
         -4   -1    0    0    0  501 -0.00000000000E+00 -0.00000000000E+00 -0.51430041953E+03  0.51430041953E+03  0.00000000000E+00 0.  1.
        -24    2    1    2    0    0 -0.54692050351E+03  0.17671463139E+03  0.13538319604E+03  0.59584679509E+03  0.79716343000E+02 0.  0.
        254    2    1    2    0    0  0.54692050351E+03 -0.17671463139E+03  0.72560297376E+03  0.12937402138E+04  0.90383293096E+03 0.  0.
         23    2    4    4    0    0  0.66747322695E+02  0.13975700741E+03 -0.15579771490E+03  0.23723925893E+03  0.89567359036E+02 0.  0.
         23    2    4    4    0    0  0.48017318082E+03 -0.31647163880E+03  0.88140068866E+03  0.10565009548E+04  0.92771287883E+02 0.  0.
          1    1    3    3  502    0 -0.14381693832E+03  0.31440080593E+02  0.67766760471E+02  0.16206209995E+03  0.00000000000E+00 0. -1.
         -2    1    3    3    0  502 -0.40310356520E+03  0.14527455080E+03  0.67616435574E+02  0.43378469515E+03  0.00000000000E+00 0.  1.
         13    1    5    5    0    0 -0.13376375388E+02  0.71418932815E+02 -0.51802051203E+02  0.89235889035E+02  0.00000000000E+00 0. -1.
        -13    1    5    5    0    0  0.80123698084E+02  0.68338074593E+02 -0.10399566370E+03  0.14800336990E+03  0.00000000000E+00 0.  1.
          4    1    6    6  503    0  0.18913016833E+03 -0.16739835679E+03  0.33204796615E+03  0.41719094220E+03  0.00000000000E+00 0. -1.
         -4    1    6    6    0  503  0.29104301249E+03 -0.14907328201E+03  0.54935272251E+03  0.63931001264E+03  0.00000000000E+00 0.  1.
<mgrwt>
<rscale>  0 0.16820350E+04</rscale>
<asrwt>0</asrwt>
<pdfrwt beam="1">  1        3 0.21158255E+00 0.16820350E+04</pdfrwt>
<pdfrwt beam="2">  1       -4 0.79123142E-01 0.16820350E+04</pdfrwt>
<totfact> 0.38785823E-01</totfact>
</mgrwt>
</event>
<event>
12    5  0.5264288E-008  0.1363757E+04  0.7818608E-02  0.8980479E-01
         -2   -1    0    0    0  501 -0.00000000000E+00  0.00000000000E+00  0.35504735153E+03  0.35504735153E+03  0.00000000000E+00 0.  1.
          1   -1    0    0  501    0  0.00000000000E+00 -0.00000000000E+00 -0.13095663446E+04  0.13095663446E+04  0.00000000000E+00 0. -1.
        -24    2    1    2    0    0  0.16300705081E+03 -0.26735240370E+03 -0.16798758410E+02  0.32418398863E+03  0.82246299761E+02 0.  0.
        254    2    1    2    0    0 -0.16300705081E+03  0.26735240370E+03 -0.93772023468E+03  0.13404297075E+04  0.90519829644E+03 0.  0.
         23    2    4    4    0    0  0.93446508398E+02  0.46636745603E+03 -0.19234508860E+03  0.52088396988E+03  0.89959007285E+02 0.  0.
         23    2    4    4    0    0 -0.25645355921E+03 -0.19901505233E+03 -0.74537514607E+03  0.81954573763E+03  0.10341996234E+03 0.  0.
          3    1    3    3  502    0  0.47638500079E+02 -0.53750255684E+02  0.28420706668E+02  0.77241525382E+02  0.00000000000E+00 0. -1.
         -4    1    3    3    0  502  0.11536855073E+03 -0.21360214802E+03 -0.45219465078E+02  0.24694246325E+03  0.00000000000E+00 0.  1.
         13    1    5    5    0    0  0.11990803754E+02  0.22872068293E+02 -0.34598364953E+02  0.43173576873E+02  0.00000000000E+00 0.  1.
        -13    1    5    5    0    0  0.81455704644E+02  0.44349538773E+03 -0.15774672365E+03  0.47771039300E+03  0.00000000000E+00 0. -1.
          1    1    6    6  503    0 -0.22421421998E+03 -0.18440614889E+03 -0.71902656075E+03  0.77542042742E+03  0.00000000000E+00 0. -1.
         -1    1    6    6    0  503 -0.32239339225E+02 -0.14608903432E+02 -0.26348585320E+02  0.44125310214E+02  0.00000000000E+00 0.  1.
<mgrwt>
<rscale>  0 0.13637567E+04</rscale>
<asrwt>0</asrwt>
<pdfrwt beam="1">  1        1 0.20147174E+00 0.13637567E+04</pdfrwt>
<pdfrwt beam="2">  1       -2 0.54622670E-01 0.13637567E+04</pdfrwt>
<totfact> 0.24085872E+01</totfact>
</mgrwt>
</event>
<event>
12    5  0.5264288E-008  0.1498262E+04  0.7818608E-02  0.8885610E-01
          3   -1    0    0  501    0  0.00000000000E+00  0.00000000000E+00  0.61611848965E+03  0.61611848965E+03  0.00000000000E+00 0. -1.
         -4   -1    0    0    0  501 -0.00000000000E+00 -0.00000000000E+00 -0.91085872858E+03  0.91085872858E+03  0.00000000000E+00 0.  1.
        -24    2    1    2    0    0 -0.26969157126E+03  0.26154680375E+03 -0.81516760617E+02  0.39250486276E+03  0.79213703788E+02 0.  0.
        254    2    1    2    0    0  0.26969157126E+03 -0.26154680375E+03 -0.21322347832E+03  0.11344723555E+04  0.10490104859E+04 0.  0.
         23    2    4    4    0    0  0.27718184808E+03  0.27751862456E+03 -0.38940909243E+03  0.56014493617E+03  0.90975515184E+02 0.  0.
         23    2    4    4    0    0 -0.74902768245E+01 -0.53906542831E+03  0.17618561412E+03  0.57432741931E+03  0.90349176552E+02 0.  0.
          1    1    3    3  502    0 -0.35458512417E+02  0.25877881415E+02 -0.36711740983E+02  0.57225193538E+02  0.00000000000E+00 0. -1.
         -4    1    3    3    0  502 -0.23423305884E+03  0.23566892233E+03 -0.44805019634E+02  0.33527966922E+03  0.00000000000E+00 0.  1.
         13    1    5    5    0    0  0.19668947146E+03  0.13463717638E+03 -0.24115204269E+03  0.33906964644E+03  0.00000000000E+00 0.  1.
        -13    1    5    5    0    0  0.80492376626E+02  0.14288144818E+03 -0.14825704974E+03  0.22107528973E+03  0.00000000000E+00 0. -1.
          3    1    6    6  503    0  0.40730773683E+02 -0.21253627298E+03  0.76602412938E+02  0.22956174099E+03  0.00000000000E+00 0. -1.
         -3    1    6    6    0  503 -0.48221050508E+02 -0.32652915532E+03  0.99583201180E+02  0.34476567832E+03  0.00000000000E+00 0.  1.
<mgrwt>
<rscale>  0 0.14982615E+04</rscale>
<asrwt>0</asrwt>
<pdfrwt beam="1">  1        3 0.94787461E-01 0.14982615E+04</pdfrwt>
<pdfrwt beam="2">  1       -4 0.14013211E+00 0.14982615E+04</pdfrwt>
<totfact> 0.78101333E-01</totfact>
</mgrwt>
</event>
<event>
12    5  0.5264288E-008  0.1350582E+04  0.7818608E-02  0.8990387E-01
          1   -1    0    0  501    0  0.00000000000E+00  0.00000000000E+00  0.19047573059E+04  0.19047573059E+04  0.00000000000E+00 0. -1.
         -2   -1    0    0    0  501 -0.00000000000E+00 -0.00000000000E+00 -0.23941013826E+03  0.23941013826E+03  0.00000000000E+00 0.  1.
        -24    2    1    2    0    0  0.58499967903E+02  0.19149921109E+03 -0.26833775495E+02  0.21767766081E+03  0.81051331986E+02 0.  0.
        254    2    1    2    0    0 -0.58499967903E+02 -0.19149921109E+03  0.16921809431E+04  0.19264897833E+04  0.89877268926E+03 0.  0.
         23    2    4    4    0    0  0.31562734406E+02 -0.47325001654E+03  0.50088154312E+03  0.69556104414E+03  0.89224780931E+02 0.  0.
         23    2    4    4    0    0 -0.90062702309E+02  0.28175080545E+03  0.11912994000E+04  0.12309287392E+04  0.92176427599E+02 0.  0.
          1    1    3    3  502    0  0.72121802026E+01  0.63346593734E+02 -0.45584054927E+02  0.78375458815E+02  0.00000000000E+00 0. -1.
         -2    1    3    3    0  502  0.51287787700E+02  0.12815261736E+03  0.18750279432E+02  0.13930220200E+03  0.00000000000E+00 0.  1.
         13    1    5    5    0    0 -0.62813906004E+01 -0.19185533288E+03  0.14654620443E+03  0.24150303239E+03  0.00000000000E+00 0.  1.
        -13    1    5    5    0    0  0.37844125006E+02 -0.28139468367E+03  0.35433533869E+03  0.45405801175E+03  0.00000000000E+00 0. -1.
          4    1    6    6  503    0 -0.70233033344E+02  0.14273041726E+03  0.47304317676E+03  0.49907363992E+03  0.00000000000E+00 0. -1.
         -4    1    6    6    0  503 -0.19829668965E+02  0.13902038819E+03  0.71825622326E+03  0.73185509929E+03  0.00000000000E+00 0.  1.
<mgrwt>
<rscale>  0 0.13505824E+04</rscale>
<asrwt>0</asrwt>
<pdfrwt beam="1">  1        1 0.29303958E+00 0.13505824E+04</pdfrwt>
<pdfrwt beam="2">  1       -2 0.36832330E-01 0.13505824E+04</pdfrwt>
<totfact> 0.20649377E+01</totfact>
</mgrwt>
</event>
<event>
12    5  0.5264288E-008  0.1313314E+04  0.7818608E-02  0.9019073E-01
         -2   -1    0    0    0  501 -0.00000000000E+00  0.00000000000E+00  0.25946859563E+03  0.25946859563E+03  0.00000000000E+00 0.  1.
          1   -1    0    0  501    0  0.00000000000E+00 -0.00000000000E+00 -0.16618518123E+04  0.16618518123E+04  0.00000000000E+00 0. -1.
        -24    2    1    2    0    0  0.20670204822E+03  0.26185273105E+03 -0.49227242169E+03  0.60042540935E+03  0.82981597653E+02 0.  0.
        254    2    1    2    0    0 -0.20670204822E+03 -0.26185273105E+03 -0.91011079498E+03  0.13208949986E+04  0.89731229157E+03 0.  0.
         23    2    4    4    0    0 -0.40603293166E+02  0.32219068587E+03 -0.40067967677E+03  0.52364419988E+03  0.90573612154E+02 0.  0.
         23    2    4    4    0    0 -0.16609875505E+03 -0.58404341691E+03 -0.50943111820E+03  0.79725079868E+03  0.85984083034E+02 0.  0.
          3    1    3    3  502    0  0.73570283254E+02  0.79432791358E+02 -0.97893773775E+02  0.14596350868E+03  0.00000000000E+00 0. -1.
         -4    1    3    3    0  502  0.13313176496E+03  0.18241993969E+03 -0.39437864791E+03  0.45446190068E+03  0.00000000000E+00 0.  1.
         13    1    5    5    0    0  0.71847877567E+01  0.15329460087E+03 -0.13046705892E+03  0.20142618820E+03  0.00000000000E+00 0.  1.
        -13    1    5    5    0    0 -0.47788080922E+02  0.16889608500E+03 -0.27021261785E+03  0.32221801168E+03  0.00000000000E+00 0. -1.
          2    1    6    6  503    0 -0.14993201562E+03 -0.57313513584E+03 -0.50153874360E+03  0.77621170087E+03  0.00000000000E+00 0. -1.
         -2    1    6    6    0  503 -0.16166739427E+02 -0.10908281072E+02 -0.78923746084E+01  0.21039097809E+02  0.00000000000E+00 0.  1.
<mgrwt>
<rscale>  0 0.13133139E+04</rscale>
<asrwt>0</asrwt>
<pdfrwt beam="1">  1        1 0.25566952E+00 0.13133139E+04</pdfrwt>
<pdfrwt beam="2">  1       -2 0.39918243E-01 0.13133139E+04</pdfrwt>
<totfact> 0.25891594E+01</totfact>
</mgrwt>
</event>
<event>
12    5  0.5264288E-008  0.3278565E+04  0.7818608E-02  0.8168371E-01
          1   -1    0    0  501    0  0.00000000000E+00  0.00000000000E+00  0.26585884820E+04  0.26585884820E+04  0.00000000000E+00 0. -1.
         -2   -1    0    0    0  501 -0.00000000000E+00 -0.00000000000E+00 -0.10107797536E+04  0.10107797536E+04  0.00000000000E+00 0.  1.
        -24    2    1    2    0    0  0.18124312272E+03  0.14079843688E+04  0.17207328333E+03  0.14321985672E+04  0.79463632380E+02 0.  0.
        254    2    1    2    0    0 -0.18124312272E+03 -0.14079843688E+04  0.14757354451E+04  0.22371696684E+04  0.90103494335E+03 0.  0.
         23    2    4    4    0    0 -0.42587649309E+03 -0.26977626353E+03  0.40794188661E+03  0.65491832892E+03  0.91386076447E+02 0.  0.
         23    2    4    4    0    0  0.24463337037E+03 -0.11382081052E+04  0.10677935585E+04  0.15822513395E+04  0.89291886911E+02 0.  0.
          1    1    3    3  502    0  0.62682586968E+02  0.62902124508E+03  0.11195718206E+03  0.64197448866E+03  0.00000000000E+00 0. -1.
         -2    1    3    3    0  502  0.11856053576E+03  0.77896312367E+03  0.60116101275E+02  0.79022407854E+03  0.00000000000E+00 0.  1.
         13    1    5    5    0    0 -0.50490005784E+02 -0.83161706395E+00  0.43392048356E+02  0.66579292062E+02  0.00000000000E+00 0.  1.
        -13    1    5    5    0    0 -0.37538648731E+03 -0.26894464647E+03  0.36454983825E+03  0.58833903686E+03  0.00000000000E+00 0. -1.
          3    1    6    6  503    0  0.22899991257E+03 -0.10042019020E+04  0.97688951180E+03  0.14195687860E+04  0.00000000000E+00 0. -1.
         -3    1    6    6    0  503  0.15633457804E+02 -0.13400620320E+03  0.90904046711E+02  0.16268255348E+03  0.00000000000E+00 0.  1.
<mgrwt>
<rscale>  0 0.32785652E+04</rscale>
<asrwt>0</asrwt>
<pdfrwt beam="1">  1        1 0.40901361E+00 0.32785652E+04</pdfrwt>
<pdfrwt beam="2">  1       -2 0.15550458E+00 0.32785652E+04</pdfrwt>
<totfact> 0.20884757E-01</totfact>
</mgrwt>
</event>
<event>
12    5  0.5264288E-008  0.1376605E+04  0.7818608E-02  0.8970930E-01
          1   -1    0    0  501    0  0.00000000000E+00  0.00000000000E+00  0.96215848296E+03  0.96215848296E+03  0.00000000000E+00 0. -1.
         -2   -1    0    0    0  501 -0.00000000000E+00 -0.00000000000E+00 -0.49239288173E+03  0.49239288173E+03  0.00000000000E+00 0.  1.
        -24    2    1    2    0    0 -0.37577065359E+03  0.44755315697E+02  0.82154534212E+02  0.39524172030E+03  0.79120336135E+02 0.  0.
        254    2    1    2    0    0  0.37577065359E+03 -0.44755315697E+02  0.38761106702E+03  0.10593096444E+04  0.91032299819E+03 0.  0.
         23    2    4    4    0    0 -0.21577452816E+03  0.94779656515E+02  0.36543878275E+03  0.44422215320E+03  0.90807417997E+02 0.  0.
         23    2    4    4    0    0  0.59154518175E+03 -0.13953497221E+03  0.22172284262E+02  0.61508749119E+03  0.91898319370E+02 0.  0.
          3    1    3    3  502    0 -0.19886583383E+03 -0.11327421484E+02  0.61757794788E+02  0.20854245505E+03  0.00000000000E+00 0. -1.
         -4    1    3    3    0  502 -0.17690481977E+03  0.56082737181E+02  0.20396739424E+02  0.18669926525E+03  0.00000000000E+00 0.  1.
         13    1    5    5    0    0 -0.20059066109E+03  0.86386806544E+02  0.36671680565E+03  0.42682608778E+03  0.00000000000E+00 0.  1.
        -13    1    5    5    0    0 -0.15183867063E+02  0.83928499711E+01 -0.12780228959E+01  0.17396065422E+02  0.00000000000E+00 0. -1.
          2    1    6    6  503    0  0.53761788594E+02 -0.94522037367E+01 -0.24495138084E+02  0.59830475997E+02  0.00000000000E+00 0. -1.
         -2    1    6    6    0  503  0.53778339316E+03 -0.13008276847E+03  0.46667422345E+02  0.55525701519E+03  0.00000000000E+00 0.  1.
<mgrwt>
<rscale>  0 0.13766045E+04</rscale>
<asrwt>0</asrwt>
<pdfrwt beam="1">  1        1 0.14802438E+00 0.13766045E+04</pdfrwt>
<pdfrwt beam="2">  1       -2 0.75752751E-01 0.13766045E+04</pdfrwt>
<totfact> 0.21677173E+01</totfact>
</mgrwt>
</event>
<event>
12    5  0.5264288E-008  0.1959180E+04  0.7818608E-02  0.8625947E-01
         -2   -1    0    0    0  501 -0.00000000000E+00  0.00000000000E+00  0.21425994542E+04  0.21425994542E+04  0.00000000000E+00 0.  1.
          1   -1    0    0  501    0  0.00000000000E+00 -0.00000000000E+00 -0.44786559562E+03  0.44786559562E+03  0.00000000000E+00 0. -1.
        -24    2    1    2    0    0  0.74588462292E+02  0.77951534313E+03  0.52656940017E+03  0.94702330119E+03  0.79813475864E+02 0.  0.
        254    2    1    2    0    0 -0.74588462292E+02 -0.77951534313E+03  0.11681644584E+04  0.16434417486E+04  0.85034403058E+03 0.  0.
         23    2    4    4    0    0  0.33069713277E+03 -0.33953833756E+03  0.25142035559E+03  0.54432215159E+03  0.91801597007E+02 0.  0.
         23    2    4    4    0    0 -0.40528559506E+03 -0.43997700557E+03  0.91674410278E+03  0.10991195970E+04  0.99035142939E+02 0.  0.
          3    1    3    3  502    0  0.50494700571E+02  0.73254331301E+03  0.49414571369E+03  0.88507028341E+03  0.00000000000E+00 0. -1.
         -4    1    3    3    0  502  0.24093761720E+02  0.46972030119E+02  0.32423686473E+02  0.61953017779E+02  0.00000000000E+00 0.  1.
         13    1    5    5    0    0  0.72687205339E+02 -0.27849357175E+02  0.33429102292E+02  0.84714351766E+02  0.00000000000E+00 0. -1.
        -13    1    5    5    0    0  0.25800992743E+03 -0.31168898038E+03  0.21799125330E+03  0.45960779983E+03  0.00000000000E+00 0.  1.
          3    1    6    6  503    0 -0.22608671178E+03 -0.31137564727E+03  0.55242530872E+03  0.67323377565E+03  0.00000000000E+00 0. -1.
         -3    1    6    6    0  503 -0.17919888328E+03 -0.12860135830E+03  0.36431879406E+03  0.42588582135E+03  0.00000000000E+00 0.  1.
<mgrwt>
<rscale>  0 0.19591800E+04</rscale>
<asrwt>0</asrwt>
<pdfrwt beam="1">  1        1 0.68902400E-01 0.19591800E+04</pdfrwt>
<pdfrwt beam="2">  1       -2 0.32963068E+00 0.19591800E+04</pdfrwt>
<totfact> 0.87791545E-01</totfact>
</mgrwt>
</event>
<event>
12    5  0.5264288E-008  0.1334881E+04  0.7818608E-02  0.9002352E-01
          1   -1    0    0  501    0  0.00000000000E+00  0.00000000000E+00  0.41244673323E+03  0.41244673323E+03  0.00000000000E+00 0. -1.
         -2   -1    0    0    0  501 -0.00000000000E+00 -0.00000000000E+00 -0.10800838119E+04  0.10800838119E+04  0.00000000000E+00 0.  1.
        -24    2    1    2    0    0 -0.51377744853E+02 -0.19988279854E+02 -0.61188116741E+03  0.61924627836E+03  0.77641395092E+02 0.  0.
        254    2    1    2    0    0  0.51377744853E+02  0.19988279854E+02 -0.55755911289E+02  0.87328426681E+03  0.86975714140E+03 0.  0.
         23    2    4    4    0    0 -0.32442275265E+03 -0.16389328598E+01  0.21627836555E+03  0.40006239791E+03  0.89558820217E+02 0.  0.
         23    2    4    4    0    0  0.37580049751E+03  0.21627212713E+02 -0.27203427684E+03  0.47322186890E+03  0.90788430837E+02 0.  0.
          1    1    3    3  502    0 -0.51554907006E+02 -0.16137385127E+02 -0.19492497569E+03  0.20227226647E+03  0.00000000000E+00 0. -1.
         -2    1    3    3    0  502  0.17716215247E+00 -0.38508947266E+01 -0.41695619172E+03  0.41697401189E+03  0.00000000000E+00 0.  1.
         13    1    5    5    0    0 -0.51307044975E+02 -0.29771028162E+02  0.58905849062E+02  0.83598002581E+02  0.00000000000E+00 0.  1.
        -13    1    5    5    0    0 -0.27311570768E+03  0.28132095302E+02  0.15737251649E+03  0.31646439533E+03  0.00000000000E+00 0. -1.
          4    1    6    6  503    0  0.23464857787E+03  0.36769324556E+02 -0.21453297500E+03  0.32005676947E+03  0.00000000000E+00 0. -1.
         -4    1    6    6    0  503  0.14115191964E+03 -0.15142111843E+02 -0.57501301838E+02  0.15316509943E+03  0.00000000000E+00 0.  1.
<mgrwt>
<rscale>  0 0.13348813E+04</rscale>
<asrwt>0</asrwt>
<pdfrwt beam="1">  1        1 0.63453343E-01 0.13348813E+04</pdfrwt>
<pdfrwt beam="2">  1       -2 0.16616674E+00 0.13348813E+04</pdfrwt>
<totfact> 0.11185284E+01</totfact>
</mgrwt>
</event>
<event>
12    5  0.5264288E-008  0.1156507E+04  0.7818608E-02  0.9151801E-01
         -2   -1    0    0    0  501 -0.00000000000E+00  0.00000000000E+00  0.33155923360E+03  0.33155923360E+03  0.00000000000E+00 0.  1.
          1   -1    0    0  501    0  0.00000000000E+00 -0.00000000000E+00 -0.10084990044E+04  0.10084990044E+04  0.00000000000E+00 0. -1.
        -24    2    1    2    0    0  0.97691604358E+02  0.49578029227E+02  0.10699573034E+03  0.17595094461E+03  0.86654590498E+02 0.  0.
        254    2    1    2    0    0 -0.97691604358E+02 -0.49578029227E+02 -0.78393550110E+03  0.11641072933E+04  0.85357441970E+03 0.  0.
         23    2    4    4    0    0  0.33663648981E+03  0.12239347668E+03 -0.24612481587E+03  0.44460390973E+03  0.93759917656E+02 0.  0.
         23    2    4    4    0    0 -0.43432809417E+03 -0.17197150591E+03 -0.53781068523E+03  0.71950338361E+03  0.10114194799E+03 0.  0.
          1    1    3    3  502    0  0.14732288634E+02  0.46758070479E+02  0.69045965185E+02  0.84680002313E+02  0.00000000000E+00 0. -1.
         -2    1    3    3    0  502  0.82959315724E+02  0.28199587479E+01  0.37949765156E+02  0.91270942299E+02  0.00000000000E+00 0.  1.
         13    1    5    5    0    0  0.30170012545E+03  0.83844042546E+02 -0.18256695832E+03  0.36246859648E+03  0.00000000000E+00 0. -1.
        -13    1    5    5    0    0  0.34936364364E+02  0.38549434133E+02 -0.63557857549E+02  0.82135313253E+02  0.00000000000E+00 0.  1.
          2    1    6    6  503    0 -0.28324165108E+03 -0.80392139457E+02 -0.27536665445E+03  0.40313214133E+03  0.00000000000E+00 0. -1.
         -2    1    6    6    0  503 -0.15108644309E+03 -0.91579366449E+02 -0.26244403079E+03  0.31637124228E+03  0.00000000000E+00 0.  1.
<mgrwt>
<rscale>  0 0.11565071E+04</rscale>
<asrwt>0</asrwt>
<pdfrwt beam="1">  1        1 0.15515369E+00 0.11565071E+04</pdfrwt>
<pdfrwt beam="2">  1       -2 0.51009114E-01 0.11565071E+04</pdfrwt>
<totfact> 0.47106229E+01</totfact>
</mgrwt>
</event>
<event>
12    5  0.5264288E-008  0.1806534E+04  0.7818608E-02  0.8702832E-01
         -2   -1    0    0    0  501 -0.00000000000E+00  0.00000000000E+00  0.85407863727E+03  0.85407863727E+03  0.00000000000E+00 0.  1.
          1   -1    0    0  501    0  0.00000000000E+00 -0.00000000000E+00 -0.95528855196E+03  0.95528855196E+03  0.00000000000E+00 0. -1.
        -24    2    1    2    0    0  0.18828511403E+03  0.21838709671E+03 -0.58254945316E+03  0.65490284537E+03  0.79935369599E+02 0.  0.
        254    2    1    2    0    0 -0.18828511403E+03 -0.21838709671E+03  0.48133953847E+03  0.11544643439E+04  0.10089380366E+04 0.  0.
         23    2    4    4    0    0  0.88656983680E+02 -0.26639266399E+03  0.71759149681E+03  0.77603412107E+03  0.92012437137E+02 0.  0.
         23    2    4    4    0    0 -0.27694209771E+03  0.48005567276E+02 -0.23625195834E+03  0.37843022280E+03  0.91613239947E+02 0.  0.
          3    1    3    3  502    0  0.17014111100E+03  0.16595838337E+03 -0.51707397522E+03  0.56908319120E+03  0.00000000000E+00 0. -1.
         -4    1    3    3    0  502  0.18144003035E+02  0.52428713339E+02 -0.65475477944E+02  0.85819654162E+02  0.00000000000E+00 0.  1.
         13    1    5    5    0    0  0.47877642144E+02 -0.13490418620E+03  0.48571334320E+03  0.50636830453E+03  0.00000000000E+00 0. -1.
        -13    1    5    5    0    0  0.40779341537E+02 -0.13148847779E+03  0.23187815361E+03  0.26966581654E+03  0.00000000000E+00 0.  1.
          2    1    6    6  503    0 -0.26360674469E+03  0.20519969516E+02 -0.20355968412E+03  0.33368567544E+03  0.00000000000E+00 0. -1.
         -2    1    6    6    0  503 -0.13335353017E+02  0.27485597760E+02 -0.32692274222E+02  0.44744547356E+02  0.00000000000E+00 0.  1.
<mgrwt>
<rscale>  0 0.18065343E+04</rscale>
<asrwt>0</asrwt>
<pdfrwt beam="1">  1        1 0.14696747E+00 0.18065343E+04</pdfrwt>
<pdfrwt beam="2">  1       -2 0.13139671E+00 0.18065343E+04</pdfrwt>
<totfact> 0.57344764E+00</totfact>
</mgrwt>
</event>
<event>
12    5  0.5264288E-008  0.2106925E+04  0.7818608E-02  0.8558199E-01
          1   -1    0    0  501    0  0.00000000000E+00  0.00000000000E+00  0.19982698380E+04  0.19982698380E+04  0.00000000000E+00 0. -1.
         -2   -1    0    0    0  501 -0.00000000000E+00 -0.00000000000E+00 -0.55537214162E+03  0.55537214162E+03  0.00000000000E+00 0.  1.
        -24    2    1    2    0    0 -0.12213849725E+03 -0.80466275771E+03  0.29575261495E+03  0.86942786566E+03  0.77686795494E+02 0.  0.
        254    2    1    2    0    0  0.12213849725E+03  0.80466275771E+03  0.11471450814E+04  0.16842141140E+04  0.92640994039E+03 0.  0.
         23    2    4    4    0    0  0.23414382582E+02  0.96214798990E+03  0.11133266286E+04  0.14744738391E+04  0.91103965179E+02 0.  0.
         23    2    4    4    0    0  0.98724114665E+02 -0.15748523220E+03  0.33818452838E+02  0.20974027486E+03  0.91100197405E+02 0.  0.
          1    1    3    3  502    0 -0.29009876497E+02 -0.78076470224E+02  0.48012226332E+02  0.96138868385E+02  0.00000000000E+00 0. -1.
         -2    1    3    3    0  502 -0.93128620751E+02 -0.72658628748E+03  0.24774038861E+03  0.77328899728E+03  0.00000000000E+00 0.  1.
         13    1    5    5    0    0 -0.12011517358E+02  0.81628665079E+03  0.95256401261E+03  0.12545303388E+04  0.00000000000E+00 0.  1.
        -13    1    5    5    0    0  0.35425899941E+02  0.14586133911E+03  0.16076261600E+03  0.21994350033E+03  0.00000000000E+00 0. -1.
          2    1    6    6  503    0 -0.16012889308E+02 -0.14644213920E+02 -0.54276289640E+01  0.22367940931E+02  0.00000000000E+00 0. -1.
         -2    1    6    6    0  503  0.11473700397E+03 -0.14284101828E+03  0.39246081802E+02  0.18737233392E+03  0.00000000000E+00 0.  1.
<mgrwt>
<rscale>  0 0.21069252E+04</rscale>
<asrwt>0</asrwt>
<pdfrwt beam="1">  1        1 0.30742613E+00 0.21069252E+04</pdfrwt>
<pdfrwt beam="2">  1       -2 0.85441869E-01 0.21069252E+04</pdfrwt>
<totfact> 0.28722459E+00</totfact>
</mgrwt>
</event>
<event>
12    5  0.5264288E-008  0.1168493E+04  0.7818608E-02  0.9140891E-01
         -2   -1    0    0    0  501 -0.00000000000E+00  0.00000000000E+00  0.35453373057E+03  0.35453373057E+03  0.00000000000E+00 0.  1.
          1   -1    0    0  501    0  0.00000000000E+00 -0.00000000000E+00 -0.96279642535E+03  0.96279642535E+03  0.00000000000E+00 0. -1.
        -24    2    1    2    0    0  0.20581305804E+03  0.10374836342E+03 -0.14394035620E+03  0.28295736104E+03  0.78887922085E+02 0.  0.
        254    2    1    2    0    0 -0.20581305804E+03 -0.10374836342E+03 -0.46432233859E+03  0.10343727949E+04  0.89510284712E+03 0.  0.
         23    2    4    4    0    0  0.30751371061E+03 -0.22087012379E+03 -0.20021533808E+03  0.43796012007E+03  0.91512793483E+02 0.  0.
         23    2    4    4    0    0 -0.51332676865E+03  0.11712176037E+03 -0.26410700051E+03  0.59641267482E+03  0.93454228395E+02 0.  0.
          1    1    3    3  502    0  0.21052912630E+03  0.10053460684E+03 -0.14769843797E+03  0.27612415463E+03  0.00000000000E+00 0. -1.
         -2    1    3    3    0  502 -0.47160682593E+01  0.32137565805E+01  0.37580817710E+01  0.68332064056E+01  0.00000000000E+00 0.  1.
         13    1    5    5    0    0  0.24847593469E+03 -0.18841736827E+03 -0.12230699773E+03  0.33496327632E+03  0.00000000000E+00 0.  1.
        -13    1    5    5    0    0  0.59037775917E+02 -0.32452755513E+02 -0.77908340352E+02  0.10299684375E+03  0.00000000000E+00 0. -1.
          2    1    6    6  503    0 -0.28067397092E+03  0.33424792747E+02 -0.10077069298E+03  0.30008303398E+03  0.00000000000E+00 0. -1.
         -2    1    6    6    0  503 -0.23265279773E+03  0.83696967621E+02 -0.16333630753E+03  0.29632964084E+03  0.00000000000E+00 0.  1.
<mgrwt>
<rscale>  0 0.11684927E+04</rscale>
<asrwt>0</asrwt>
<pdfrwt beam="1">  1        1 0.14812252E+00 0.11684927E+04</pdfrwt>
<pdfrwt beam="2">  1       -2 0.54543653E-01 0.11684927E+04</pdfrwt>
<totfact> 0.44528908E+01</totfact>
</mgrwt>
</event>
<event>
12    5  0.5264288E-008  0.2190055E+04  0.7818608E-02  0.8522579E-01
          1   -1    0    0  501    0  0.00000000000E+00  0.00000000000E+00  0.14579988774E+04  0.14579988774E+04  0.00000000000E+00 0. -1.
         -2   -1    0    0    0  501 -0.00000000000E+00 -0.00000000000E+00 -0.82241837098E+03  0.82241837098E+03  0.00000000000E+00 0.  1.
        -24    2    1    2    0    0 -0.44708981100E+03  0.30271157304E+03  0.10247828388E+04  0.11611088242E+04  0.80437797760E+02 0.  0.
        254    2    1    2    0    0  0.44708981100E+03 -0.30271157304E+03 -0.38920233247E+03  0.11193084241E+04  0.89991627231E+03 0.  0.
         23    2    4    4    0    0  0.52188085037E+03 -0.42233293489E+03  0.21776640528E+02  0.67677657395E+03  0.82629166163E+02 0.  0.
         23    2    4    4    0    0 -0.74791039365E+02  0.11962136185E+03 -0.41097897300E+03  0.44253185018E+03  0.83831690851E+02 0.  0.
          1    1    3    3  502    0 -0.20173883520E+03  0.17279051458E+03  0.55818367635E+03  0.61816190121E+03  0.00000000000E+00 0. -1.
         -2    1    3    3    0  502 -0.24535097580E+03  0.12992105846E+03  0.46659916249E+03  0.54294692300E+03  0.00000000000E+00 0.  1.
         13    1    5    5    0    0  0.25068484984E+03 -0.16422045780E+03  0.37693535446E+02  0.30204644562E+03  0.00000000000E+00 0.  1.
        -13    1    5    5    0    0  0.27119600053E+03 -0.25811247709E+03 -0.15916894918E+02  0.37473012833E+03  0.00000000000E+00 0. -1.
          3    1    6    6  503    0  0.11583977326E+02 -0.46392550906E+01 -0.24859473545E+02  0.27815546793E+02  0.00000000000E+00 0. -1.
         -3    1    6    6    0  503 -0.86375016691E+02  0.12426061694E+03 -0.38611949946E+03  0.41471630338E+03  0.00000000000E+00 0.  1.
<mgrwt>
<rscale>  0 0.21900549E+04</rscale>
<asrwt>0</asrwt>
<pdfrwt beam="1">  1        1 0.22430752E+00 0.21900549E+04</pdfrwt>
<pdfrwt beam="2">  1       -2 0.12652590E+00 0.21900549E+04</pdfrwt>
<totfact> 0.26066281E+00</totfact>
</mgrwt>
</event>
<event>
12    5  0.5345247E-008  0.1958243E+04  0.7818608E-02  0.8626396E-01
          1   -1    0    0  501    0  0.00000000000E+00  0.00000000000E+00  0.12676507130E+04  0.12676507130E+04  0.00000000000E+00 0. -1.
         -2   -1    0    0    0  501 -0.00000000000E+00 -0.00000000000E+00 -0.75626445077E+03  0.75626445077E+03  0.00000000000E+00 0.  1.
        -24    2    1    2    0    0 -0.17808380089E+03  0.56426942486E+01  0.97450096859E+03  0.99380377420E+03  0.79045073842E+02 0.  0.
        254    2    1    2    0    0  0.17808380089E+03 -0.56426942486E+01 -0.46311470638E+03  0.10301113896E+04  0.90272286084E+03 0.  0.
         23    2    4    4    0    0  0.47228165720E+03 -0.20377873178E+03 -0.40030649490E+03  0.65791614340E+03  0.89624921968E+02 0.  0.
         23    2    4    4    0    0 -0.29419785630E+03  0.19813603753E+03 -0.62808211480E+02  0.37219524615E+03  0.93670495923E+02 0.  0.
          1    1    3    3  502    0 -0.18304864588E+03 -0.13543243095E+01  0.95655053148E+03  0.97390839416E+03  0.00000000000E+00 0. -1.
         -2    1    3    3    0  502  0.49648449831E+01  0.69970185582E+01  0.17950437112E+02  0.19895380040E+02  0.00000000000E+00 0.  1.
         13    1    5    5    0    0  0.14915529557E+03 -0.32111367268E+02 -0.83508565465E+02  0.17393137328E+03  0.00000000000E+00 0. -1.
        -13    1    5    5    0    0  0.32312636163E+03 -0.17166736451E+03 -0.31679792944E+03  0.48398477013E+03  0.00000000000E+00 0.  1.
          1    1    6    6  503    0 -0.11651715612E+03  0.46213090424E+02 -0.58632674749E+02  0.13838239753E+03  0.00000000000E+00 0. -1.
         -1    1    6    6    0  503 -0.17768070018E+03  0.15192294711E+03 -0.41755367308E+01  0.23381284863E+03  0.00000000000E+00 0.  1.
<mgrwt>
<rscale>  0 0.19582433E+04</rscale>
<asrwt>0</asrwt>
<pdfrwt beam="1">  1        1 0.19502319E+00 0.19582433E+04</pdfrwt>
<pdfrwt beam="2">  1       -2 0.11634838E+00 0.19582433E+04</pdfrwt>
<totfact> 0.44666809E+00</totfact>
</mgrwt>
</event>
<event>
12    5  0.5264288E-008  0.1075226E+04  0.7818608E-02  0.9229680E-01
          1   -1    0    0  501    0  0.00000000000E+00  0.00000000000E+00  0.51055444067E+03  0.51055444067E+03  0.00000000000E+00 0. -1.
         -2   -1    0    0    0  501 -0.00000000000E+00 -0.00000000000E+00 -0.56610559887E+03  0.56610559887E+03  0.00000000000E+00 0.  1.
        -24    2    1    2    0    0  0.25407048232E+02 -0.13867131767E+03 -0.24301409617E+02  0.16443797606E+03  0.81080435478E+02 0.  0.
        254    2    1    2    0    0 -0.25407048232E+02  0.13867131767E+03 -0.31249748590E+02  0.91222206348E+03  0.90072043047E+03 0.  0.
         23    2    4    4    0    0 -0.38480048537E+03  0.18104718277E+03 -0.22610791765E+03  0.49016610695E+03  0.91041342529E+02 0.  0.
         23    2    4    4    0    0  0.35939343714E+03 -0.42375865100E+02  0.19485816906E+03  0.42205595653E+03  0.95927930179E+02 0.  0.
          1    1    3    3  502    0  0.23566452191E+02 -0.14321227901E+03 -0.57519199444E+01  0.14525226026E+03  0.00000000000E+00 0. -1.
         -2    1    3    3    0  502  0.18405960417E+01  0.45409613389E+01 -0.18549489672E+02  0.19185715800E+02  0.00000000000E+00 0.  1.
         13    1    5    5    0    0 -0.26516157386E+03  0.16853210913E+03 -0.17305825392E+03  0.35869609882E+03  0.00000000000E+00 0. -1.
        -13    1    5    5    0    0 -0.11963891151E+03  0.12515073634E+02 -0.53049663735E+02  0.13147000813E+03  0.00000000000E+00 0.  1.
          4    1    6    6  503    0  0.36187140813E+03 -0.38608952608E+02  0.19996459706E+03  0.41524379264E+03  0.00000000000E+00 0. -1.
         -4    1    6    6    0  503 -0.24779709909E+01 -0.37669124917E+01 -0.51064280017E+01  0.68121638918E+01  0.00000000000E+00 0.  1.
<mgrwt>
<rscale>  0 0.10752260E+04</rscale>
<asrwt>0</asrwt>
<pdfrwt beam="1">  1        1 0.78546837E-01 0.10752260E+04</pdfrwt>
<pdfrwt beam="2">  1       -2 0.87093169E-01 0.10752260E+04</pdfrwt>
<totfact> 0.42855579E+01</totfact>
</mgrwt>
</event>
<event>
12    5  0.5264288E-008  0.2034940E+04  0.7818608E-02  0.8590457E-01
         -2   -1    0    0    0  501 -0.00000000000E+00  0.00000000000E+00  0.45520915385E+03  0.45520915385E+03  0.00000000000E+00 0.  1.
          1   -1    0    0  501    0  0.00000000000E+00 -0.00000000000E+00 -0.22742183832E+04  0.22742183832E+04  0.00000000000E+00 0. -1.
        -24    2    1    2    0    0 -0.11863710387E+03 -0.77810234447E+03 -0.45783730347E+03  0.91409894098E+03  0.80273635627E+02 0.  0.
        254    2    1    2    0    0  0.11863710387E+03  0.77810234447E+03 -0.13611719259E+04  0.18153285961E+04  0.90725458337E+03 0.  0.
         23    2    4    4    0    0 -0.27781085816E+03  0.72777375784E+03 -0.79976002773E+03  0.11204218903E+04  0.94316460765E+02 0.  0.
         23    2    4    4    0    0  0.39644796203E+03  0.50328586630E+02 -0.56141189819E+03  0.69490670582E+03  0.89487748498E+02 0.  0.
          1    1    3    3  502    0 -0.11379712058E+03 -0.69506327255E+03 -0.43507577203E+03  0.82786089707E+03  0.00000000000E+00 0. -1.
         -2    1    3    3    0  502 -0.48399832896E+01 -0.83039071924E+02 -0.22761531438E+02  0.86238043911E+02  0.00000000000E+00 0.  1.
         13    1    5    5    0    0 -0.81127570003E+02  0.34348338751E+03 -0.35334913919E+03  0.49941779531E+03  0.00000000000E+00 0. -1.
        -13    1    5    5    0    0 -0.19668328816E+03  0.38429037033E+03 -0.44641088854E+03  0.62100409498E+03  0.00000000000E+00 0.  1.
          4    1    6    6  503    0  0.25668605080E+03 -0.84929971291E+01 -0.37681525374E+03  0.45601490670E+03  0.00000000000E+00 0. -1.
         -4    1    6    6    0  503  0.13976191123E+03  0.58821583759E+02 -0.18459664445E+03  0.23889179912E+03  0.00000000000E+00 0.  1.
<mgrwt>
<rscale>  0 0.20349398E+04</rscale>
<asrwt>0</asrwt>
<pdfrwt beam="1">  1        1 0.34987975E+00 0.20349398E+04</pdfrwt>
<pdfrwt beam="2">  1       -2 0.70032177E-01 0.20349398E+04</pdfrwt>
<totfact> 0.29248419E+00</totfact>
</mgrwt>
</event>
<event>
12    5  0.5264288E-008  0.1535927E+04  0.7818608E-02  0.8860907E-01
          1   -1    0    0  501    0  0.00000000000E+00  0.00000000000E+00  0.61781604543E+03  0.61781604543E+03  0.00000000000E+00 0. -1.
         -2   -1    0    0    0  501 -0.00000000000E+00 -0.00000000000E+00 -0.95460109898E+03  0.95460109898E+03  0.00000000000E+00 0.  1.
        -24    2    1    2    0    0  0.17092432200E+03  0.53263449729E+01  0.38031715531E+03  0.42439697159E+03  0.78918673808E+02 0.  0.
        254    2    1    2    0    0 -0.17092432200E+03 -0.53263449729E+01 -0.71710220886E+03  0.11480201728E+04  0.88004047943E+03 0.  0.
         23    2    4    4    0    0 -0.35196938468E+03  0.35373352011E+02 -0.83371407155E+03  0.91027497505E+03  0.91584143357E+02 0.  0.
         23    2    4    4    0    0  0.18104506267E+03 -0.40699696984E+02  0.11661186269E+03  0.23774519777E+03  0.92144845156E+02 0.  0.
          1    1    3    3  502    0  0.15489199310E+03  0.30992548523E+02  0.31356537862E+03  0.35110584481E+03  0.00000000000E+00 0. -1.
         -2    1    3    3    0  502  0.16032328906E+02 -0.25666203550E+02  0.66751776687E+02  0.73291126787E+02  0.00000000000E+00 0.  1.
         13    1    5    5    0    0 -0.20063472109E+03  0.59463521388E+02 -0.42366220527E+03  0.47252498967E+03  0.00000000000E+00 0. -1.
        -13    1    5    5    0    0 -0.15133466359E+03 -0.24090169377E+02 -0.41005186628E+03  0.43774998538E+03  0.00000000000E+00 0.  1.
          2    1    6    6  503    0  0.88558636715E+02 -0.51396715233E+02  0.21452729792E+02  0.10461584053E+03  0.00000000000E+00 0. -1.
         -2    1    6    6    0  503  0.92486425959E+02  0.10697018249E+02  0.95159132894E+02  0.13312935724E+03  0.00000000000E+00 0.  1.
<mgrwt>
<rscale>  0 0.15359269E+04</rscale>
<asrwt>0</asrwt>
<pdfrwt beam="1">  1        1 0.95048623E-01 0.15359269E+04</pdfrwt>
<pdfrwt beam="2">  1       -2 0.14686171E+00 0.15359269E+04</pdfrwt>
<totfact> 0.87737374E+00</totfact>
</mgrwt>
</event>
<event>
12    5  0.5264288E-008  0.1582569E+04  0.7818608E-02  0.8831328E-01
          1   -1    0    0  501    0  0.00000000000E+00  0.00000000000E+00  0.24003369363E+04  0.24003369363E+04  0.00000000000E+00 0. -1.
         -2   -1    0    0    0  501 -0.00000000000E+00 -0.00000000000E+00 -0.26085152228E+03  0.26085152228E+03  0.00000000000E+00 0.  1.
        -24    2    1    2    0    0  0.27315644765E+03 -0.44885957395E+03  0.82077880926E+03  0.97786127729E+03  0.80283633850E+02 0.  0.
        254    2    1    2    0    0 -0.27315644765E+03  0.44885957395E+03  0.13187066048E+04  0.16833271813E+04  0.90471759562E+03 0.  0.
         23    2    4    4    0    0 -0.28575350624E+03  0.29472208938E+01  0.12013403446E+02  0.29979936578E+03  0.89842002558E+02 0.  0.
         23    2    4    4    0    0  0.12597058585E+02  0.44591235306E+03  0.13066932013E+04  0.13835278155E+04  0.87781441249E+02 0.  0.
          1    1    3    3  502    0  0.24859056603E+02 -0.84168082792E+02  0.17480874388E+03  0.19560249434E+03  0.00000000000E+00 0. -1.
         -2    1    3    3    0  502  0.24829739105E+03 -0.36469149116E+03  0.64597006538E+03  0.78225878295E+03  0.00000000000E+00 0.  1.
         13    1    5    5    0    0 -0.16089171099E+03 -0.32544528287E+02 -0.21977052198E+02  0.16561485384E+03  0.00000000000E+00 0.  1.
        -13    1    5    5    0    0 -0.12486179524E+03  0.35491749181E+02  0.33990455645E+02  0.13418451195E+03  0.00000000000E+00 0. -1.
          2    1    6    6  503    0  0.15916403531E+02  0.98993982728E+02  0.40941031178E+03  0.42150912672E+03  0.00000000000E+00 0. -1.
         -2    1    6    6    0  503 -0.33193449466E+01  0.34691837033E+03  0.89728288955E+03  0.96201868880E+03  0.00000000000E+00 0.  1.
<mgrwt>
<rscale>  0 0.15825695E+04</rscale>
<asrwt>0</asrwt>
<pdfrwt beam="1">  1        1 0.36928259E+00 0.15825695E+04</pdfrwt>
<pdfrwt beam="2">  1       -2 0.40131005E-01 0.15825695E+04</pdfrwt>
<totfact> 0.78862837E+00</totfact>
</mgrwt>
</event>
<event>
12    5  0.5264288E-008  0.1562455E+04  0.7818608E-02  0.8843951E-01
          3   -1    0    0  501    0  0.00000000000E+00  0.00000000000E+00  0.10513191306E+04  0.10513191306E+04  0.00000000000E+00 0. -1.
         -4   -1    0    0    0  501 -0.00000000000E+00 -0.00000000000E+00 -0.58052448866E+03  0.58052448866E+03  0.00000000000E+00 0.  1.
        -24    2    1    2    0    0  0.11883286276E+03  0.29307001762E+03  0.57168782019E+03  0.65983906551E+03  0.92462663399E+02 0.  0.
        254    2    1    2    0    0 -0.11883286276E+03 -0.29307001762E+03 -0.10089317825E+03  0.97200455375E+03  0.91356561592E+03 0.  0.
         23    2    4    4    0    0  0.16031846620E+03 -0.20444236904E+03  0.33686014946E+03  0.43540613418E+03  0.92763400754E+02 0.  0.
         23    2    4    4    0    0 -0.27915132896E+03 -0.88627648578E+02 -0.43775332771E+03  0.53659841958E+03  0.10261366096E+03 0.  0.
          3    1    3    3  502    0  0.94417759629E+02  0.28968055806E+03  0.53402930146E+03  0.61483073595E+03  0.00000000000E+00 0. -1.
         -4    1    3    3    0  502  0.24415103130E+02  0.33894595590E+01  0.37658518730E+02  0.45008329561E+02  0.00000000000E+00 0.  1.
         13    1    5    5    0    0  0.15572483466E+03 -0.21211664652E+03  0.30754156953E+03  0.40475364464E+03  0.00000000000E+00 0. -1.
        -13    1    5    5    0    0  0.45936315383E+01  0.76742774796E+01  0.29318579927E+02  0.30652489532E+02  0.00000000000E+00 0.  1.
          1    1    6    6  503    0 -0.24983968791E+03 -0.11050005652E+03 -0.39605542680E+03  0.48113411150E+03  0.00000000000E+00 0. -1.
         -1    1    6    6    0  503 -0.29311641046E+02  0.21872407945E+02 -0.41697900913E+02  0.55464308079E+02  0.00000000000E+00 0.  1.
<mgrwt>
<rscale>  0 0.15624551E+04</rscale>
<asrwt>0</asrwt>
<pdfrwt beam="1">  1        3 0.16174140E+00 0.15624551E+04</pdfrwt>
<pdfrwt beam="2">  1       -4 0.89311460E-01 0.15624551E+04</pdfrwt>
<totfact> 0.63011821E-01</totfact>
</mgrwt>
</event>
<event>
12    5  0.5264288E-008  0.1885622E+04  0.7818608E-02  0.8662046E-01
         -4   -1    0    0    0  501 -0.00000000000E+00  0.00000000000E+00  0.32297294066E+03  0.32297294066E+03  0.00000000000E+00 0.  1.
          3   -1    0    0  501    0  0.00000000000E+00 -0.00000000000E+00 -0.27522213390E+04  0.27522213390E+04  0.00000000000E+00 0. -1.
        -24    2    1    2    0    0 -0.56317342495E+03 -0.11290042296E+03 -0.16573475413E+04  0.17559057414E+04  0.80580939782E+02 0.  0.
        254    2    1    2    0    0  0.56317342495E+03  0.11290042296E+03 -0.77190085699E+03  0.13192885382E+04  0.90265192739E+03 0.  0.
         23    2    4    4    0    0  0.78948663545E+03 -0.18996671350E+01 -0.51617629169E+03  0.94755116468E+03  0.90124853917E+02 0.  0.
         23    2    4    4    0    0 -0.22631321050E+03  0.11480009009E+03 -0.25572456530E+03  0.37173737356E+03  0.91634554976E+02 0.  0.
          1    1    3    3  502    0 -0.25688976560E+03 -0.74330566188E+02 -0.87113689077E+03  0.91126114106E+03  0.00000000000E+00 0. -1.
         -2    1    3    3    0  502 -0.30628365934E+03 -0.38569856771E+02 -0.78621065056E+03  0.84464460034E+03  0.00000000000E+00 0.  1.
         13    1    5    5    0    0  0.67692722663E+03 -0.25091278926E+02 -0.46569381999E+03  0.82202845232E+03  0.00000000000E+00 0. -1.
        -13    1    5    5    0    0  0.11255940881E+03  0.23191611791E+02 -0.50482471692E+02  0.12552271236E+03  0.00000000000E+00 0.  1.
          4    1    6    6  503    0 -0.10512110640E+03  0.81660743980E+02 -0.78631558941E+02  0.15460221919E+03  0.00000000000E+00 0. -1.
         -4    1    6    6    0  503 -0.12119210410E+03  0.33139346114E+02 -0.17709300636E+03  0.21713515436E+03  0.00000000000E+00 0.  1.
<mgrwt>
<rscale>  0 0.18856225E+04</rscale>
<asrwt>0</asrwt>
<pdfrwt beam="1">  1        3 0.42341868E+00 0.18856225E+04</pdfrwt>
<pdfrwt beam="2">  1       -4 0.49688144E-01 0.18856225E+04</pdfrwt>
<totfact> 0.70776616E-02</totfact>
</mgrwt>
</event>
<event>
12    5  0.5264288E-008  0.2286596E+04  0.7818608E-02  0.8483225E-01
          1   -1    0    0  501    0  0.00000000000E+00  0.00000000000E+00  0.30684770475E+04  0.30684770475E+04  0.00000000000E+00 0. -1.
         -2   -1    0    0    0  501 -0.00000000000E+00 -0.00000000000E+00 -0.42598682029E+03  0.42598682029E+03  0.00000000000E+00 0.  1.
        -24    2    1    2    0    0 -0.85912803992E+03  0.22175755856E+02  0.45475870243E+03  0.97573944895E+03  0.81665425230E+02 0.  0.
        254    2    1    2    0    0  0.85912803992E+03 -0.22175755856E+02  0.21877315248E+04  0.25187244189E+04  0.90510260217E+03 0.  0.
         23    2    4    4    0    0  0.41124457740E+03 -0.79631554196E+01  0.19649124355E+04  0.20095262024E+04  0.90161879900E+02 0.  0.
         23    2    4    4    0    0  0.44788346252E+03 -0.14212600436E+02  0.22281908927E+03  0.50919821646E+03  0.93983419231E+02 0.  0.
          1    1    3    3  502    0 -0.35757524291E+03  0.40326701244E+02  0.16109665118E+03  0.39425680488E+03  0.00000000000E+00 0. -1.
         -2    1    3    3    0  502 -0.50155279701E+03 -0.18150945388E+02  0.29366205125E+03  0.58148264407E+03  0.00000000000E+00 0.  1.
         13    1    5    5    0    0  0.33716620907E+03  0.19150655853E+02  0.16953605241E+04  0.17286685937E+04  0.00000000000E+00 0. -1.
        -13    1    5    5    0    0  0.74078368335E+02 -0.27113811273E+02  0.26955191143E+03  0.28085760871E+03  0.00000000000E+00 0.  1.
          4    1    6    6  503    0  0.32114557866E+03 -0.49019340308E+02  0.17736689572E+03  0.37013023939E+03  0.00000000000E+00 0. -1.
         -4    1    6    6    0  503  0.12673788386E+03  0.34806739872E+02  0.45452193551E+02  0.13906797706E+03  0.00000000000E+00 0.  1.
<mgrwt>
<rscale>  0 0.22865964E+04</rscale>
<asrwt>0</asrwt>
<pdfrwt beam="1">  1        1 0.47207338E+00 0.22865964E+04</pdfrwt>
<pdfrwt beam="2">  1       -2 0.65536436E-01 0.22865964E+04</pdfrwt>
<totfact> 0.90905852E-01</totfact>
</mgrwt>
</event>
<event>
12    5  0.5264288E-008  0.1875169E+04  0.7818608E-02  0.8667316E-01
          1   -1    0    0  501    0  0.00000000000E+00  0.00000000000E+00  0.24966522799E+04  0.24966522799E+04  0.00000000000E+00 0. -1.
         -2   -1    0    0    0  501 -0.00000000000E+00 -0.00000000000E+00 -0.35209729111E+03  0.35209729111E+03  0.00000000000E+00 0.  1.
        -24    2    1    2    0    0  0.18442315840E+02 -0.50296462213E+03  0.45150746053E+02  0.51430255200E+03  0.95681738059E+02 0.  0.
        254    2    1    2    0    0 -0.18442315840E+02  0.50296462213E+03  0.20994042427E+04  0.23344470190E+04  0.88816168572E+03 0.  0.
         23    2    4    4    0    0  0.35616373513E+03  0.17354436167E+01  0.56403398061E+03  0.67395022448E+03  0.96015393636E+02 0.  0.
         23    2    4    4    0    0 -0.37460605097E+03  0.50122917851E+03  0.15353702621E+04  0.16604967945E+04  0.91254479106E+02 0.  0.
          1    1    3    3  502    0  0.15531448543E+02 -0.19205401910E+03 -0.28491843956E+02  0.19477617236E+03  0.00000000000E+00 0. -1.
         -4    1    3    3    0  502  0.29108672971E+01 -0.31091060303E+03  0.73642590009E+02  0.31952637964E+03  0.00000000000E+00 0.  1.
         13    1    5    5    0    0  0.88978152157E+02 -0.20206885903E+02  0.83451238813E+02  0.12365087569E+03  0.00000000000E+00 0. -1.
        -13    1    5    5    0    0  0.26718558297E+03  0.21942329519E+02  0.48058274179E+03  0.55029934880E+03  0.00000000000E+00 0.  1.
          1    1    6    6  503    0 -0.56462136055E+02  0.11225241642E+03  0.38995377229E+03  0.40969808680E+03  0.00000000000E+00 0. -1.
         -1    1    6    6    0  503 -0.31814391492E+03  0.38897676209E+03  0.11454164898E+04  0.12507987077E+04  0.00000000000E+00 0.  1.
<mgrwt>
<rscale>  0 0.18751688E+04</rscale>
<asrwt>0</asrwt>
<pdfrwt beam="1">  1        1 0.38410034E+00 0.18751688E+04</pdfrwt>
<pdfrwt beam="2">  1       -2 0.54168816E-01 0.18751688E+04</pdfrwt>
<totfact> 0.36022906E+00</totfact>
</mgrwt>
</event>
<event>
12    5  0.5264288E-008  0.2378669E+04  0.7818608E-02  0.8447533E-01
          1   -1    0    0  501    0  0.00000000000E+00  0.00000000000E+00  0.22788057602E+04  0.22788057602E+04  0.00000000000E+00 0. -1.
         -2   -1    0    0    0  501 -0.00000000000E+00 -0.00000000000E+00 -0.62072731510E+03  0.62072731510E+03  0.00000000000E+00 0.  1.
        -24    2    1    2    0    0  0.38906977418E+03  0.84862145602E+03  0.21934403097E+03  0.96212661260E+03  0.77731267486E+02 0.  0.
        254    2    1    2    0    0 -0.38906977418E+03 -0.84862145602E+03  0.14387344141E+04  0.19374064627E+04  0.90114006822E+03 0.  0.
         23    2    4    4    0    0 -0.42784806302E+03 -0.10123269583E+04  0.12731454645E+04  0.16844934860E+04  0.93590037640E+02 0.  0.
         23    2    4    4    0    0  0.38778288841E+02  0.16370550228E+03  0.16558894968E+03  0.25291297673E+03  0.90785606672E+02 0.  0.
          1    1    3    3  502    0  0.22591961048E+03  0.53934420371E+03  0.17021944004E+03  0.60902093416E+03  0.00000000000E+00 0. -1.
         -2    1    3    3    0  502  0.16315016370E+03  0.30927725231E+03  0.49124590936E+02  0.35310567844E+03  0.00000000000E+00 0.  1.
         13    1    5    5    0    0 -0.90687759573E+02 -0.17266573054E+03  0.17943697845E+03  0.26501953414E+03  0.00000000000E+00 0. -1.
        -13    1    5    5    0    0 -0.33716030345E+03 -0.83966122776E+03  0.10937084860E+04  0.14194739519E+04  0.00000000000E+00 0.  1.
          1    1    6    6  503    0  0.31446254433E+02  0.36822002962E+02  0.97182373018E+02  0.10857780826E+03  0.00000000000E+00 0. -1.
         -1    1    6    6    0  503  0.73320344076E+01  0.12688349931E+03  0.68406576665E+02  0.14433516847E+03  0.00000000000E+00 0.  1.
<mgrwt>
<rscale>  0 0.23786694E+04</rscale>
<asrwt>0</asrwt>
<pdfrwt beam="1">  1        1 0.35058550E+00 0.23786694E+04</pdfrwt>
<pdfrwt beam="2">  1       -2 0.95496511E-01 0.23786694E+04</pdfrwt>
<totfact> 0.13978014E+00</totfact>
</mgrwt>
</event>
<event>
12    5  0.5264288E-008  0.2674164E+04  0.7818608E-02  0.8343437E-01
          1   -1    0    0  501    0  0.00000000000E+00  0.00000000000E+00  0.15320906558E+04  0.15320906558E+04  0.00000000000E+00 0. -1.
         -4   -1    0    0    0  501 -0.00000000000E+00 -0.00000000000E+00 -0.11668942358E+04  0.11668942358E+04  0.00000000000E+00 0.  1.
        -24    2    1    2    0    0  0.12842261445E+03 -0.31168339693E+03  0.13073064284E+04  0.13536425644E+04  0.98281160046E+02 0.  0.
        254    2    1    2    0    0 -0.12842261445E+03  0.31168339693E+03 -0.94211000835E+03  0.13453423273E+04  0.89929739345E+03 0.  0.
         23    2    4    4    0    0  0.18176109010E+03  0.36711999453E+03 -0.92574668376E+03  0.10166074048E+04  0.93110196349E+02 0.  0.
         23    2    4    4    0    0 -0.31018370455E+03 -0.55436597607E+02 -0.16363324596E+02  0.32873492251E+03  0.92259113153E+02 0.  0.
          1    1    3    3  502    0  0.47141541605E+02 -0.10722445972E+03  0.65055556845E+03  0.66101585257E+03  0.00000000000E+00 0. -1.
         -2    1    3    3    0  502  0.81281072847E+02 -0.20445893720E+03  0.65675085997E+03  0.69262671178E+03  0.00000000000E+00 0.  1.
         13    1    5    5    0    0  0.14446001775E+03  0.29173566122E+03 -0.81447064725E+03  0.87712076021E+03  0.00000000000E+00 0.  1.
        -13    1    5    5    0    0  0.37301072346E+02  0.75384333314E+02 -0.11127603651E+03  0.13948664455E+03  0.00000000000E+00 0. -1.
          4    1    6    6  503    0 -0.18367781957E+03 -0.51021001461E+02  0.31862141070E+02  0.19327669292E+03  0.00000000000E+00 0.  1.
         -4    1    6    6    0  503 -0.12650588498E+03 -0.44155961460E+01 -0.48225465666E+02  0.13545822959E+03  0.00000000000E+00 0. -1.
<mgrwt>
<rscale>  0 0.26741636E+04</rscale>
<asrwt>0</asrwt>
<pdfrwt beam="1">  1        1 0.23570625E+00 0.26741636E+04</pdfrwt>
<pdfrwt beam="2">  1       -4 0.17952219E+00 0.26741636E+04</pdfrwt>
<totfact> 0.47943454E-01</totfact>
</mgrwt>
</event>
<event>
12    5  0.5264288E-008  0.1412036E+04  0.7818608E-02  0.8945152E-01
          1   -1    0    0  501    0  0.00000000000E+00  0.00000000000E+00  0.68197913495E+03  0.68197913495E+03  0.00000000000E+00 0. -1.
         -2   -1    0    0    0  501 -0.00000000000E+00 -0.00000000000E+00 -0.73090373359E+03  0.73090373359E+03  0.00000000000E+00 0.  1.
        -24    2    1    2    0    0 -0.31603442297E+03 -0.57514516655E+02 -0.26787454392E+03  0.42514144984E+03  0.76176144292E+02 0.  0.
        254    2    1    2    0    0  0.31603442297E+03  0.57514516655E+02  0.21894994528E+03  0.98774141870E+03  0.90802442454E+03 0.  0.
         23    2    4    4    0    0  0.62252426261E+03  0.29157721140E+02  0.76860402245E+02  0.63459356896E+03  0.91732470227E+02 0.  0.
         23    2    4    4    0    0 -0.30648983964E+03  0.28356795515E+02  0.14208954303E+03  0.35314784974E+03  0.98913274548E+02 0.  0.
          3    1    3    3  502    0 -0.86076479551E+02 -0.14484537452E+02 -0.32121705970E+02  0.93009494954E+02  0.00000000000E+00 0. -1.
         -4    1    3    3    0  502 -0.22995794342E+03 -0.43029979203E+02 -0.23575283795E+03  0.33213195488E+03  0.00000000000E+00 0.  1.
         13    1    5    5    0    0  0.26313667695E+01 -0.50145295747E+01  0.82124915407E+01  0.99757012404E+01  0.00000000000E+00 0. -1.
        -13    1    5    5    0    0  0.61989289584E+03  0.34172250715E+02  0.68647910705E+02  0.62461786772E+03  0.00000000000E+00 0.  1.
          3    1    6    6  503    0 -0.21758828832E+03  0.31858911080E+02  0.50851673199E+02  0.22571120065E+03  0.00000000000E+00 0. -1.
         -3    1    6    6    0  503 -0.88901551316E+02 -0.35021155655E+01  0.91237869833E+02  0.12743664909E+03  0.00000000000E+00 0.  1.
<mgrwt>
<rscale>  0 0.14120355E+04</rscale>
<asrwt>0</asrwt>
<pdfrwt beam="1">  1        1 0.10491987E+00 0.14120355E+04</pdfrwt>
<pdfrwt beam="2">  1       -2 0.11244673E+00 0.14120355E+04</pdfrwt>
<totfact> 0.15054603E+01</totfact>
</mgrwt>
</event>
<event>
12    5  0.5264288E-008  0.1272601E+04  0.7818608E-02  0.9051580E-01
         -2   -1    0    0    0  501 -0.00000000000E+00  0.00000000000E+00  0.37075306810E+03  0.37075306810E+03  0.00000000000E+00 0.  1.
          1   -1    0    0  501    0  0.00000000000E+00 -0.00000000000E+00 -0.10920423516E+04  0.10920423516E+04  0.00000000000E+00 0. -1.
        -24    2    1    2    0    0 -0.14840694633E+03  0.15147735889E+03 -0.13741268924E+02  0.22708662800E+03  0.80059366528E+02 0.  0.
        254    2    1    2    0    0  0.14840694633E+03 -0.15147735889E+03 -0.70754801453E+03  0.12357087917E+04  0.99064726969E+03 0.  0.
         23    2    4    4    0    0 -0.32666978025E+02  0.40721421452E+03 -0.32505320632E+03  0.53041151616E+03  0.93734953886E+02 0.  0.
         23    2    4    4    0    0  0.18107392436E+03 -0.55869157340E+03 -0.38249480821E+03  0.70529727550E+03  0.78853841049E+02 0.  0.
          3    1    3    3  502    0 -0.55346982235E+02  0.42958554631E+02 -0.41542065050E+02  0.81452249982E+02  0.00000000000E+00 0. -1.
         -4    1    3    3    0  502 -0.93059964098E+02  0.10851880425E+03  0.27800796126E+02  0.14563437802E+03  0.00000000000E+00 0.  1.
         13    1    5    5    0    0 -0.20372895031E+02  0.35922364373E+03 -0.24169514254E+03  0.43344344844E+03  0.00000000000E+00 0. -1.
        -13    1    5    5    0    0 -0.12294082994E+02  0.47990570788E+02 -0.83358063777E+02  0.96968067723E+02  0.00000000000E+00 0.  1.
          3    1    6    6  503    0  0.13694834089E+03 -0.50154273055E+03 -0.34479596204E+03  0.62384630646E+03  0.00000000000E+00 0. -1.
         -3    1    6    6    0  503  0.44125583468E+02 -0.57148842848E+02 -0.37698846175E+02  0.81450969044E+02  0.00000000000E+00 0.  1.
<mgrwt>
<rscale>  0 0.12726006E+04</rscale>
<asrwt>0</asrwt>
<pdfrwt beam="1">  1        1 0.16800652E+00 0.12726006E+04</pdfrwt>
<pdfrwt beam="2">  1       -2 0.57038933E-01 0.12726006E+04</pdfrwt>
<totfact> 0.31975741E+01</totfact>
</mgrwt>
</event>
<event>
12    5  0.5264288E-008  0.1288186E+04  0.7818608E-02  0.9038987E-01
         -2   -1    0    0    0  501 -0.00000000000E+00  0.00000000000E+00  0.20724442699E+03  0.20724442699E+03  0.00000000000E+00 0.  1.
          1   -1    0    0  501    0  0.00000000000E+00 -0.00000000000E+00 -0.20017695793E+04  0.20017695793E+04  0.00000000000E+00 0. -1.
        -24    2    1    2    0    0  0.13266923059E+03 -0.11085290638E+03 -0.11259773730E+03  0.22141523428E+03  0.80355235858E+02 0.  0.
        254    2    1    2    0    0 -0.13266923059E+03  0.11085290638E+03 -0.16819274150E+04  0.19875987720E+04  0.10448825568E+04 0.  0.
         23    2    4    4    0    0 -0.75538172757E+02  0.57125358091E+03 -0.86163306098E+03  0.10407951690E+04  0.93842329393E+02 0.  0.
         23    2    4    4    0    0 -0.57131057828E+02 -0.46040067453E+03 -0.82029435403E+03  0.94680360302E+03  0.91222237193E+02 0.  0.
          3    1    3    3  502    0  0.13469007535E+03 -0.92683458410E+02 -0.11880949795E+03  0.20210724051E+03  0.00000000000E+00 0. -1.
         -4    1    3    3    0  502 -0.20208447682E+01 -0.18169447972E+02  0.62117606541E+01  0.19307993775E+02  0.00000000000E+00 0.  1.
         13    1    5    5    0    0 -0.84704931151E+02  0.34248813267E+03 -0.47919613263E+03  0.59506468548E+03  0.00000000000E+00 0.  1.
        -13    1    5    5    0    0  0.91667583932E+01  0.22876544824E+03 -0.38243692834E+03  0.44573048351E+03  0.00000000000E+00 0. -1.
          2    1    6    6  503    0 -0.27661434989E+02 -0.67558319788E+02 -0.80601573494E+02  0.10874693195E+03  0.00000000000E+00 0. -1.
         -2    1    6    6    0  503 -0.29469622839E+02 -0.39284235474E+03 -0.73969278053E+03  0.83805667107E+03  0.00000000000E+00 0.  1.
<mgrwt>
<rscale>  0 0.12881857E+04</rscale>
<asrwt>0</asrwt>
<pdfrwt beam="1">  1        1 0.30796455E+00 0.12881857E+04</pdfrwt>
<pdfrwt beam="2">  1       -2 0.31883758E-01 0.12881857E+04</pdfrwt>
<totfact> 0.23497073E+01</totfact>
</mgrwt>
</event>
<event>
12    5  0.6528554E-008  0.1450494E+04  0.7818608E-02  0.8918058E-01
         -2   -1    0    0    0  501 -0.00000000000E+00  0.00000000000E+00  0.55733736779E+03  0.55733736779E+03  0.00000000000E+00 0.  1.
          1   -1    0    0  501    0  0.00000000000E+00 -0.00000000000E+00 -0.94374314945E+03  0.94374314945E+03  0.00000000000E+00 0. -1.
        -24    2    1    2    0    0 -0.19174731482E+03  0.13957092498E+03  0.26734425136E+03  0.36571628555E+03  0.77642623238E+02 0.  0.
        254    2    1    2    0    0  0.19174731482E+03 -0.13957092498E+03 -0.65375003301E+03  0.11353642317E+04  0.89744958472E+03 0.  0.
         23    2    4    4    0    0  0.41236339312E+03 -0.25337086437E+03 -0.73728414361E+02  0.49790065004E+03  0.90712817888E+02 0.  0.
         23    2    4    4    0    0 -0.22061607830E+03  0.11379993940E+03 -0.58002161865E+03  0.63746358166E+03  0.91174884813E+02 0.  0.
          3    1    3    3  502    0 -0.30877678309E+02  0.19577481851E+02  0.73815217714E+01  0.37298735596E+02  0.00000000000E+00 0. -1.
         -4    1    3    3    0  502 -0.16086963651E+03  0.11999344313E+03  0.25996272958E+03  0.32841754995E+03  0.00000000000E+00 0.  1.
         13    1    5    5    0    0  0.38164064733E+03 -0.25412799205E+03 -0.82652286015E+02  0.46589915263E+03  0.00000000000E+00 0.  1.
        -13    1    5    5    0    0  0.30722745785E+02  0.75712768057E+00  0.89238716544E+01  0.32001497405E+02  0.00000000000E+00 0. -1.
          1    1    6    6  503    0 -0.26688587344E+02 -0.15917539496E+02 -0.63733519878E+02  0.70905643739E+02  0.00000000000E+00 0. -1.
         -1    1    6    6    0  503 -0.19392749096E+03  0.12971747889E+03 -0.51628809877E+03  0.56655793792E+03  0.00000000000E+00 0.  1.
<mgrwt>
<rscale>  0 0.14504942E+04</rscale>
<asrwt>0</asrwt>
<pdfrwt beam="1">  1        1 0.14519125E+00 0.14504942E+04</pdfrwt>
<pdfrwt beam="2">  1       -2 0.85744212E-01 0.14504942E+04</pdfrwt>
<totfact> 0.16860715E+01</totfact>
</mgrwt>
</event>
<event>
12    5  0.5264288E-008  0.1516857E+04  0.7818608E-02  0.8873320E-01
         -2   -1    0    0    0  501 -0.00000000000E+00  0.00000000000E+00  0.62980200279E+03  0.62980200279E+03  0.00000000000E+00 0.  1.
          1   -1    0    0  501    0  0.00000000000E+00 -0.00000000000E+00 -0.91332476729E+03  0.91332476729E+03  0.00000000000E+00 0. -1.
        -24    2    1    2    0    0  0.27225772762E+03 -0.25904923625E+03 -0.40816043790E+03  0.56065810184E+03  0.80695644515E+02 0.  0.
        254    2    1    2    0    0 -0.27225772762E+03  0.25904923625E+03  0.12463767340E+03  0.98246866825E+03  0.89915480169E+03 0.  0.
         23    2    4    4    0    0 -0.52570749548E+03  0.40306426632E+03  0.95669701435E+02  0.67506972734E+03  0.87961761061E+02 0.  0.
         23    2    4    4    0    0  0.25344976786E+03 -0.14401503007E+03  0.28967971965E+02  0.30739894091E+03  0.93154987835E+02 0.  0.
          1    1    3    3  502    0  0.26807325891E+03 -0.23577920601E+03 -0.39873512998E+03  0.53520539050E+03  0.00000000000E+00 0. -1.
         -2    1    3    3    0  502  0.41844687084E+01 -0.23270030233E+02 -0.94253079113E+01  0.25452711341E+02  0.00000000000E+00 0.  1.
         13    1    5    5    0    0 -0.41850675822E+03  0.28150843482E+03  0.50966931433E+02  0.50694431020E+03  0.00000000000E+00 0.  1.
        -13    1    5    5    0    0 -0.10720073726E+03  0.12155583150E+03  0.44702770002E+02  0.16812541713E+03  0.00000000000E+00 0. -1.
          1    1    6    6  503    0  0.15051689177E+01 -0.28471562622E+02  0.69747576426E+01  0.29352046876E+02  0.00000000000E+00 0. -1.
         -1    1    6    6    0  503  0.25194459894E+03 -0.11554346745E+03  0.21993214323E+02  0.27804689403E+03  0.00000000000E+00 0.  1.
<mgrwt>
<rscale>  0 0.15168570E+04</rscale>
<asrwt>0</asrwt>
<pdfrwt beam="1">  1        1 0.14051150E+00 0.15168570E+04</pdfrwt>
<pdfrwt beam="2">  1       -2 0.96892617E-01 0.15168570E+04</pdfrwt>
<totfact> 0.13370047E+01</totfact>
</mgrwt>
</event>
<event>
12    5  0.5264288E-008  0.1401042E+04  0.7818608E-02  0.8953065E-01
         -2   -1    0    0    0  501 -0.00000000000E+00  0.00000000000E+00  0.57078861106E+03  0.57078861106E+03  0.00000000000E+00 0.  1.
          1   -1    0    0  501    0  0.00000000000E+00 -0.00000000000E+00 -0.85973983973E+03  0.85973983973E+03  0.00000000000E+00 0. -1.
        -24    2    1    2    0    0 -0.38968208153E+03 -0.72562473364E+02 -0.16379840896E+03  0.43804921509E+03  0.89105324515E+02 0.  0.
        254    2    1    2    0    0  0.38968208153E+03  0.72562473364E+02 -0.12515281970E+03  0.99247923569E+03  0.90124046058E+03 0.  0.
         23    2    4    4    0    0  0.10254739098E+03 -0.23917347636E+03 -0.39632847241E+03  0.48096307286E+03  0.80804085473E+02 0.  0.
         23    2    4    4    0    0  0.28713469056E+03  0.31173594972E+03  0.27117565270E+03  0.51151616283E+03  0.92124466613E+02 0.  0.
          1    1    3    3  502    0 -0.23931003111E+03 -0.56303483120E+02 -0.14556126945E+03  0.28570519136E+03  0.00000000000E+00 0. -1.
         -2    1    3    3    0  502 -0.15037205042E+03 -0.16258990244E+02 -0.18237139510E+02  0.15234402374E+03  0.00000000000E+00 0.  1.
         13    1    5    5    0    0  0.77163903957E+02 -0.10137874333E+03 -0.14342254343E+03  0.19183832682E+03  0.00000000000E+00 0. -1.
        -13    1    5    5    0    0  0.25383487019E+02 -0.13779473302E+03 -0.25290592897E+03  0.28912474604E+03  0.00000000000E+00 0.  1.
          4    1    6    6  503    0  0.85485803504E+02  0.15982274194E+03  0.11426401887E+03  0.21426011634E+03  0.00000000000E+00 0. -1.
         -4    1    6    6    0  503  0.20164888705E+03  0.15191320778E+03  0.15691163383E+03  0.29725604649E+03  0.00000000000E+00 0.  1.
<mgrwt>
<rscale>  0 0.14010421E+04</rscale>
<asrwt>0</asrwt>
<pdfrwt beam="1">  1        1 0.13226767E+00 0.14010421E+04</pdfrwt>
<pdfrwt beam="2">  1       -2 0.87813632E-01 0.14010421E+04</pdfrwt>
<totfact> 0.18780062E+01</totfact>
</mgrwt>
</event>
<event>
12    5  0.5264288E-008  0.1783629E+04  0.7818608E-02  0.8715054E-01
          1   -1    0    0  501    0  0.00000000000E+00  0.00000000000E+00  0.94939357810E+03  0.94939357810E+03  0.00000000000E+00 0. -1.
         -2   -1    0    0    0  501 -0.00000000000E+00 -0.00000000000E+00 -0.83772739143E+03  0.83772739143E+03  0.00000000000E+00 0.  1.
        -24    2    1    2    0    0  0.52892677928E+03  0.11802853185E+03  0.37631754605E+03  0.66380503377E+03  0.72992843607E+02 0.  0.
        254    2    1    2    0    0 -0.52892677928E+03 -0.11802853185E+03 -0.26465135938E+03  0.11233159358E+04  0.94768353227E+03 0.  0.
         23    2    4    4    0    0 -0.37049972858E+03 -0.39159930079E+03 -0.48202744913E+03  0.72885532855E+03  0.90882159946E+02 0.  0.
         23    2    4    4    0    0 -0.15842705070E+03  0.27357076894E+03  0.21737608975E+03  0.39446060720E+03  0.91688113901E+02 0.  0.
          3    1    3    3  502    0  0.51653393612E+03  0.11279279311E+03  0.34944168528E+03  0.63374996076E+03  0.00000000000E+00 0. -1.
         -4    1    3    3    0  502  0.12392843157E+02  0.52357387393E+01  0.26875860768E+02  0.30055073011E+02  0.00000000000E+00 0.  1.
         13    1    5    5    0    0 -0.16860246773E+03 -0.24379641457E+03 -0.25578889424E+03  0.39152451047E+03  0.00000000000E+00 0.  1.
        -13    1    5    5    0    0 -0.20189726085E+03 -0.14780288622E+03 -0.22623855489E+03  0.33733081809E+03  0.00000000000E+00 0. -1.
          4    1    6    6  503    0 -0.10883972289E+03  0.10154414896E+03  0.81481670453E+02  0.16969549813E+03  0.00000000000E+00 0.  1.
         -4    1    6    6    0  503 -0.49587327815E+02  0.17202661998E+03  0.13589441929E+03  0.22476510907E+03  0.00000000000E+00 0. -1.
<mgrwt>
<rscale>  0 0.17836289E+04</rscale>
<asrwt>0</asrwt>
<pdfrwt beam="1">  1        1 0.14606055E+00 0.17836289E+04</pdfrwt>
<pdfrwt beam="2">  1       -2 0.12888114E+00 0.17836289E+04</pdfrwt>
<totfact> 0.61000100E+00</totfact>
</mgrwt>
</event>
<event>
12    5  0.5264288E-008  0.1524442E+04  0.7818608E-02  0.8868360E-01
          1   -1    0    0  501    0  0.00000000000E+00  0.00000000000E+00  0.11041649191E+04  0.11041649191E+04  0.00000000000E+00 0. -1.
         -2   -1    0    0    0  501 -0.00000000000E+00 -0.00000000000E+00 -0.52617250158E+03  0.52617250158E+03  0.00000000000E+00 0.  1.
        -24    2    1    2    0    0  0.42429186647E+03 -0.18264539629E+03  0.22584591638E+02  0.46922999069E+03  0.79270370501E+02 0.  0.
        254    2    1    2    0    0 -0.42429186647E+03  0.18264539629E+03  0.55540782591E+03  0.11611074300E+04  0.90901577666E+03 0.  0.
         23    2    4    4    0    0  0.27008300040E+02  0.96682148319E+02  0.66709358508E+03  0.68047104923E+03  0.89163397797E+02 0.  0.
         23    2    4    4    0    0 -0.45130016651E+03  0.85963247970E+02 -0.11168575917E+03  0.48063638079E+03  0.86464451885E+02 0.  0.
          3    1    3    3  502    0  0.34405775887E+03 -0.15749989848E+03  0.47914199679E+02  0.38141542967E+03  0.00000000000E+00 0. -1.
         -4    1    3    3    0  502  0.80234107602E+02 -0.25145497809E+02 -0.25329608041E+02  0.87814561015E+02  0.00000000000E+00 0.  1.
         13    1    5    5    0    0 -0.92822764562E+01  0.25746859297E+02  0.41907187649E+03  0.41996464028E+03  0.00000000000E+00 0. -1.
        -13    1    5    5    0    0  0.36290576496E+02  0.70935289022E+02  0.24802170859E+03  0.26050640895E+03  0.00000000000E+00 0.  1.
          3    1    6    6  503    0 -0.42588727417E+03  0.85738463593E+02 -0.82959548269E+02  0.44228197012E+03  0.00000000000E+00 0. -1.
         -3    1    6    6    0  503 -0.25412892339E+02  0.22478437620E+00 -0.28726210903E+02  0.38354410671E+02  0.00000000000E+00 0.  1.
<mgrwt>
<rscale>  0 0.15244425E+04</rscale>
<asrwt>0</asrwt>
<pdfrwt beam="1">  1        1 0.16987153E+00 0.15244425E+04</pdfrwt>
<pdfrwt beam="2">  1       -2 0.80949615E-01 0.15244425E+04</pdfrwt>
<totfact> 0.14343968E+01</totfact>
</mgrwt>
</event>
<event>
12    5  0.5264288E-008  0.1915096E+04  0.7818608E-02  0.8647378E-01
          1   -1    0    0  501    0  0.00000000000E+00  0.00000000000E+00  0.94188287881E+03  0.94188287881E+03  0.00000000000E+00 0. -1.
         -2   -1    0    0    0  501 -0.00000000000E+00 -0.00000000000E+00 -0.97347356157E+03  0.97347356157E+03  0.00000000000E+00 0.  1.
        -24    2    1    2    0    0  0.37739895653E+03 -0.64190099314E+03 -0.12109570502E+03  0.75891099526E+03  0.82552235381E+02 0.  0.
        254    2    1    2    0    0 -0.37739895653E+03  0.64190099314E+03  0.89505022255E+02  0.11564454451E+04  0.88027726379E+03 0.  0.
         23    2    4    4    0    0  0.18187641265E+03 -0.93098038782E+02 -0.33167251562E+01  0.22352148595E+03  0.90579135064E+02 0.  0.
         23    2    4    4    0    0 -0.55927536919E+03  0.73499903192E+03  0.92821747411E+02  0.93292395917E+03  0.93374093310E+02 0.  0.
          1    1    3    3  502    0  0.29797074308E+02 -0.84502957922E+02  0.60937288470E+01  0.89809515455E+02  0.00000000000E+00 0. -1.
         -2    1    3    3    0  502  0.34760188223E+03 -0.55739803522E+03 -0.12718943387E+03  0.66910147981E+03  0.00000000000E+00 0.  1.
         13    1    5    5    0    0  0.70378886428E+02 -0.49140136517E+02 -0.44636292329E+02  0.96748846322E+02  0.00000000000E+00 0. -1.
        -13    1    5    5    0    0  0.11149752623E+03 -0.43957902265E+02  0.41319567173E+02  0.12677263962E+03  0.00000000000E+00 0.  1.
          1    1    6    6  503    0 -0.41542605444E+03  0.58213208782E+03  0.10417859263E+03  0.72271000653E+03  0.00000000000E+00 0. -1.
         -1    1    6    6    0  503 -0.14384931475E+03  0.15286694410E+03 -0.11356845217E+02  0.21021395264E+03  0.00000000000E+00 0.  1.
<mgrwt>
<rscale>  0 0.19150959E+04</rscale>
<asrwt>0</asrwt>
<pdfrwt beam="1">  1        1 0.14490506E+00 0.19150959E+04</pdfrwt>
<pdfrwt beam="2">  1       -2 0.14976516E+00 0.19150959E+04</pdfrwt>
<totfact> 0.41451661E+00</totfact>
</mgrwt>
</event>
<event>
12    5  0.5264288E-008  0.1924376E+04  0.7818608E-02  0.8642817E-01
          1   -1    0    0  501    0  0.00000000000E+00  0.00000000000E+00  0.12850672901E+04  0.12850672901E+04  0.00000000000E+00 0. -1.
         -2   -1    0    0    0  501 -0.00000000000E+00 -0.00000000000E+00 -0.72043357515E+03  0.72043357515E+03  0.00000000000E+00 0.  1.
        -24    2    1    2    0    0  0.14853045518E+03 -0.25911113952E+03 -0.49204436748E+03  0.58122761614E+03  0.80734152950E+02 0.  0.
        254    2    1    2    0    0 -0.14853045518E+03  0.25911113952E+03  0.10566780824E+04  0.14242732491E+04  0.90707543209E+03 0.  0.
         23    2    4    4    0    0 -0.22118044046E+03  0.95904799645E+02 -0.80039558872E+02  0.26979403335E+03  0.90906389263E+02 0.  0.
         23    2    4    4    0    0  0.72649985285E+02  0.16320633987E+03  0.11367176413E+04  0.11544792157E+04  0.93706637173E+02 0.  0.
          3    1    3    3  502    0  0.29983878382E+01 -0.24019781611E+02 -0.11457628796E+02  0.26780916636E+02  0.00000000000E+00 0. -1.
         -4    1    3    3    0  502  0.14553206734E+03 -0.23509135791E+03 -0.48058673869E+03  0.55444669950E+03  0.00000000000E+00 0.  1.
         13    1    5    5    0    0 -0.14520095732E+02  0.87540065414E-01 -0.34586598009E+02  0.37510979795E+02  0.00000000000E+00 0. -1.
        -13    1    5    5    0    0 -0.20666034473E+03  0.95817259579E+02 -0.45452960862E+02  0.23228305356E+03  0.00000000000E+00 0.  1.
          2    1    6    6  503    0  0.63173504273E+01  0.11114428431E+03  0.78155753580E+03  0.78944609862E+03  0.00000000000E+00 0. -1.
         -2    1    6    6    0  503  0.66332634858E+02  0.52062055566E+02  0.35516010546E+03  0.36503311711E+03  0.00000000000E+00 0.  1.
<mgrwt>
<rscale>  0 0.19243759E+04</rscale>
<asrwt>0</asrwt>
<pdfrwt beam="1">  1        1 0.19770266E+00 0.19243759E+04</pdfrwt>
<pdfrwt beam="2">  1       -2 0.11083593E+00 0.19243759E+04</pdfrwt>
<totfact> 0.48991507E+00</totfact>
</mgrwt>
</event>
<event>
12    5  0.5264288E-008  0.1561653E+04  0.7818608E-02  0.8844459E-01
          1   -1    0    0  501    0  0.00000000000E+00  0.00000000000E+00  0.55239392221E+03  0.55239392221E+03  0.00000000000E+00 0. -1.
         -2   -1    0    0    0  501 -0.00000000000E+00 -0.00000000000E+00 -0.11037225704E+04  0.11037225704E+04  0.00000000000E+00 0.  1.
        -24    2    1    2    0    0 -0.13914179139E+02 -0.17490887689E+02  0.36670629881E+03  0.37606618911E+03  0.80328908040E+02 0.  0.
        254    2    1    2    0    0  0.13914179139E+02  0.17490887689E+02 -0.91803494698E+03  0.12800503035E+04  0.89176290572E+03 0.  0.
         23    2    4    4    0    0  0.68775473095E+01 -0.83807238499E+02  0.15499388556E+03  0.19847942484E+03  0.91104465534E+02 0.  0.
         23    2    4    4    0    0  0.70366318291E+01  0.10129812619E+03 -0.10730288325E+04  0.10815708786E+04  0.89965912994E+02 0.  0.
          1    1    3    3  502    0 -0.13472315874E+01  0.21360459814E+02  0.27314852432E+03  0.27398576718E+03  0.00000000000E+00 0. -1.
         -4    1    3    3    0  502 -0.12566947551E+02 -0.38851347504E+02  0.93557774491E+02  0.10208042193E+03  0.00000000000E+00 0.  1.
         13    1    5    5    0    0  0.38494327786E+02 -0.57633391091E+01  0.38578377767E+02  0.54802559981E+02  0.00000000000E+00 0. -1.
        -13    1    5    5    0    0 -0.31616780476E+02 -0.78043899390E+02  0.11641550779E+03  0.14367686486E+03  0.00000000000E+00 0.  1.
          3    1    6    6  503    0 -0.11748386461E+02 -0.12191441251E+02 -0.24575528937E+03  0.24633781293E+03  0.00000000000E+00 0. -1.
         -3    1    6    6    0  503  0.18785018290E+02  0.11348956744E+03 -0.82727354317E+03  0.83523306571E+03  0.00000000000E+00 0.  1.
<mgrwt>
<rscale>  0 0.15616525E+04</rscale>
<asrwt>0</asrwt>
<pdfrwt beam="1">  1        1 0.84983681E-01 0.15616525E+04</pdfrwt>
<pdfrwt beam="2">  1       -2 0.16980347E+00 0.15616525E+04</pdfrwt>
<totfact> 0.69359613E+00</totfact>
</mgrwt>
</event>
<event>
12    5  0.5264288E-008  0.2120671E+04  0.7818608E-02  0.8552192E-01
          1   -1    0    0  501    0  0.00000000000E+00  0.00000000000E+00  0.10184514465E+04  0.10184514465E+04  0.00000000000E+00 0. -1.
         -2   -1    0    0    0  501 -0.00000000000E+00 -0.00000000000E+00 -0.11039418343E+04  0.11039418343E+04  0.00000000000E+00 0.  1.
        -24    2    1    2    0    0  0.56725109985E+03  0.14924776992E+03 -0.67177873501E+03  0.89456769967E+03  0.70114145355E+02 0.  0.
        254    2    1    2    0    0 -0.56725109985E+03 -0.14924776992E+03  0.58628834725E+03  0.12278255811E+04  0.90541312365E+03 0.  0.
         23    2    4    4    0    0 -0.48669726302E+03 -0.85128971100E+02 -0.11309217150E+03  0.51495272411E+03  0.90913702334E+02 0.  0.
         23    2    4    4    0    0 -0.80553836836E+02 -0.64118798818E+02  0.69938051875E+03  0.71287285703E+03  0.91948133716E+02 0.  0.
          1    1    3    3  502    0  0.24641829646E+03  0.73391852350E+02 -0.34607892524E+03  0.43113682668E+03  0.00000000000E+00 0. -1.
         -2    1    3    3    0  502  0.32083280339E+03  0.75855917567E+02 -0.32569980977E+03  0.46343087299E+03  0.00000000000E+00 0.  1.
         13    1    5    5    0    0 -0.43182893707E+03 -0.99468765039E+02 -0.11632194409E+03  0.45814960525E+03  0.00000000000E+00 0. -1.
        -13    1    5    5    0    0 -0.54868325942E+02  0.14339793939E+02  0.32297725949E+01  0.56803118866E+02  0.00000000000E+00 0.  1.
          2    1    6    6  503    0 -0.13255895710E+02 -0.19321971343E+02  0.45221732519E+03  0.45282399069E+03  0.00000000000E+00 0. -1.
         -2    1    6    6    0  503 -0.67297941126E+02 -0.44796827474E+02  0.24716319356E+03  0.26004886634E+03  0.00000000000E+00 0.  1.
<mgrwt>
<rscale>  0 0.21206708E+04</rscale>
<asrwt>0</asrwt>
<pdfrwt beam="1">  1        1 0.15668484E+00 0.21206708E+04</pdfrwt>
<pdfrwt beam="2">  1       -2 0.16983721E+00 0.21206708E+04</pdfrwt>
<totfact> 0.25175677E+00</totfact>
</mgrwt>
</event>
<event>
12    5  0.5264288E-008  0.1389445E+04  0.7818608E-02  0.8961494E-01
          1   -1    0    0  501    0  0.00000000000E+00  0.00000000000E+00  0.14587464476E+04  0.14587464476E+04  0.00000000000E+00 0. -1.
         -2   -1    0    0    0  501 -0.00000000000E+00 -0.00000000000E+00 -0.33085901100E+03  0.33085901100E+03  0.00000000000E+00 0.  1.
        -24    2    1    2    0    0 -0.33471726884E+03  0.11292309557E+02  0.67098180135E+03  0.75419312043E+03  0.80171808311E+02 0.  0.
        254    2    1    2    0    0  0.33471726884E+03 -0.11292309557E+02  0.45690563525E+03  0.10354123382E+04  0.86669070849E+03 0.  0.
         23    2    4    4    0    0  0.33805419355E+03 -0.48341725580E+02 -0.17682603989E+03  0.39513846077E+03  0.90826177878E+02 0.  0.
         23    2    4    4    0    0 -0.33369247174E+01  0.37049416023E+02  0.63373167514E+03  0.64027387739E+03  0.83372703585E+02 0.  0.
          3    1    3    3  502    0 -0.10843796851E+03 -0.12645046751E+02  0.29698909790E+03  0.31641936492E+03  0.00000000000E+00 0. -1.
         -4    1    3    3    0  502 -0.22627930033E+03  0.23937356308E+02  0.37399270345E+03  0.43777375552E+03  0.00000000000E+00 0.  1.
         13    1    5    5    0    0  0.34678126617E+02  0.15296778304E+02  0.72945960252E+00  0.37909049097E+02  0.00000000000E+00 0. -1.
        -13    1    5    5    0    0  0.30337606694E+03 -0.63638503884E+02 -0.17755549949E+03  0.35722941168E+03  0.00000000000E+00 0.  1.
          2    1    6    6  503    0  0.11251594017E+01  0.22155294022E+02  0.61712897201E+03  0.61752756305E+03  0.00000000000E+00 0.  1.
         -2    1    6    6    0  503 -0.44620841191E+01  0.14894122001E+02  0.16602703132E+02  0.22746314343E+02  0.00000000000E+00 0. -1.
<mgrwt>
<rscale>  0 0.13894451E+04</rscale>
<asrwt>0</asrwt>
<pdfrwt beam="1">  1        1 0.22442253E+00 0.13894451E+04</pdfrwt>
<pdfrwt beam="2">  1       -2 0.50901387E-01 0.13894451E+04</pdfrwt>
<totfact> 0.21830044E+01</totfact>
</mgrwt>
</event>
<event>
12    5  0.5264288E-008  0.2821644E+04  0.7818608E-02  0.8296580E-01
          1   -1    0    0  501    0  0.00000000000E+00  0.00000000000E+00  0.16866401983E+04  0.16866401983E+04  0.00000000000E+00 0. -1.
         -2   -1    0    0    0  501 -0.00000000000E+00 -0.00000000000E+00 -0.11801084968E+04  0.11801084968E+04  0.00000000000E+00 0.  1.
        -24    2    1    2    0    0 -0.10417927460E+04  0.71322979477E+03  0.34000765256E+03  0.13097935835E+04  0.76975074036E+02 0.  0.
        254    2    1    2    0    0  0.10417927460E+04 -0.71322979477E+03  0.16652404893E+03  0.15569551115E+04  0.89573997040E+03 0.  0.
         23    2    4    4    0    0  0.60487390146E+03 -0.73409293275E+03 -0.20335057143E+03  0.97675195346E+03  0.89039615318E+02 0.  0.
         23    2    4    4    0    0  0.43691884449E+03  0.20863137980E+02  0.36987462036E+03  0.58020315801E+03  0.92168989238E+02 0.  0.
          3    1    3    3  502    0 -0.10403757322E+04  0.70665965513E+03  0.33535521255E+03  0.13016192419E+04  0.00000000000E+00 0. -1.
         -4    1    3    3    0  502 -0.14170137452E+01  0.65701396426E+01  0.46524400189E+01  0.81743416252E+01  0.00000000000E+00 0.  1.
         13    1    5    5    0    0  0.53795460682E+03 -0.60507798974E+03 -0.16253508008E+03  0.82579185327E+03  0.00000000000E+00 0.  1.
        -13    1    5    5    0    0  0.66919294647E+02 -0.12901494301E+03 -0.40815491349E+02  0.15096010019E+03  0.00000000000E+00 0. -1.
          3    1    6    6  503    0  0.10399875581E+03 -0.26171705102E+02  0.12231332526E+03  0.16266913934E+03  0.00000000000E+00 0. -1.
         -3    1    6    6    0  503  0.33292008869E+03  0.47034843082E+02  0.24756129510E+03  0.41753401867E+03  0.00000000000E+00 0.  1.
<mgrwt>
<rscale>  0 0.28216438E+04</rscale>
<asrwt>0</asrwt>
<pdfrwt beam="1">  1        1 0.25948311E+00 0.28216438E+04</pdfrwt>
<pdfrwt beam="2">  1       -2 0.18155515E+00 0.28216438E+04</pdfrwt>
<totfact> 0.65371296E-01</totfact>
</mgrwt>
</event>
<event>
12    5  0.5264288E-008  0.1816346E+04  0.7818608E-02  0.8697655E-01
         -2   -1    0    0    0  501 -0.00000000000E+00  0.00000000000E+00  0.14569483097E+04  0.14569483097E+04  0.00000000000E+00 0.  1.
          1   -1    0    0  501    0  0.00000000000E+00 -0.00000000000E+00 -0.56609963776E+03  0.56609963776E+03  0.00000000000E+00 0. -1.
        -24    2    1    2    0    0  0.52083159211E+03 -0.43615786402E+03  0.35981164947E+03  0.77277165976E+03  0.78818686494E+02 0.  0.
        254    2    1    2    0    0 -0.52083159211E+03  0.43615786402E+03  0.53103702243E+03  0.12502762877E+04  0.90536801723E+03 0.  0.
         23    2    4    4    0    0  0.21094927057E+03  0.28952753658E+03  0.25595962846E+03  0.44958434252E+03  0.91021758093E+02 0.  0.
         23    2    4    4    0    0 -0.73178086269E+03  0.14663032744E+03  0.27507739397E+03  0.80069194515E+03  0.91849520565E+02 0.  0.
          3    1    3    3  502    0  0.42878699511E+03 -0.34684629720E+03  0.25725420551E+03  0.60855596892E+03  0.00000000000E+00 0. -1.
         -4    1    3    3    0  502  0.92044597006E+02 -0.89311566822E+02  0.10255744396E+03  0.16421569084E+03  0.00000000000E+00 0.  1.
         13    1    5    5    0    0  0.11900736928E+03  0.10960495319E+03  0.74940406670E+02  0.17830329290E+03  0.00000000000E+00 0. -1.
        -13    1    5    5    0    0  0.91941901292E+02  0.17992258340E+03  0.18101922179E+03  0.27128104962E+03  0.00000000000E+00 0.  1.
          1    1    6    6  503    0 -0.15615989899E+03  0.59506020111E+02  0.89981090401E+02  0.18979851715E+03  0.00000000000E+00 0. -1.
         -1    1    6    6    0  503 -0.57562096370E+03  0.87124307327E+02  0.18509630357E+03  0.61089342800E+03  0.00000000000E+00 0.  1.
<mgrwt>
<rscale>  0 0.18163457E+04</rscale>
<asrwt>0</asrwt>
<pdfrwt beam="1">  1        1 0.87092253E-01 0.18163457E+04</pdfrwt>
<pdfrwt beam="2">  1       -2 0.22414589E+00 0.18163457E+04</pdfrwt>
<totfact> 0.28559088E+00</totfact>
</mgrwt>
</event>
<event>
12    5  0.5264288E-008  0.1364136E+04  0.7818608E-02  0.8980196E-01
         -2   -1    0    0    0  501 -0.00000000000E+00  0.00000000000E+00  0.78973817909E+03  0.78973817909E+03  0.00000000000E+00 0.  1.
          1   -1    0    0  501    0  0.00000000000E+00 -0.00000000000E+00 -0.58907748561E+03  0.58907748561E+03  0.00000000000E+00 0. -1.
        -24    2    1    2    0    0 -0.18457534916E+03  0.26164658987E+03 -0.14257450478E+03  0.35915772365E+03  0.78356770839E+02 0.  0.
        254    2    1    2    0    0  0.18457534916E+03 -0.26164658987E+03  0.34323519826E+03  0.10196579411E+04  0.90518778048E+03 0.  0.
         23    2    4    4    0    0 -0.19649382500E+03 -0.12589266573E+03  0.51322789575E+03  0.57164249023E+03  0.94411212879E+02 0.  0.
         23    2    4    4    0    0  0.38106917416E+03 -0.13575392413E+03 -0.16999269749E+03  0.44801545082E+03  0.90429439693E+02 0.  0.
          3    1    3    3  502    0 -0.83675252391E+02  0.14503970143E+03 -0.34792270335E+02  0.17102211824E+03  0.00000000000E+00 0. -1.
         -4    1    3    3    0  502 -0.10090009677E+03  0.11660688844E+03 -0.10778223444E+03  0.18813560541E+03  0.00000000000E+00 0.  1.
         13    1    5    5    0    0 -0.17018302155E+03 -0.11296904527E+03  0.49873039726E+03  0.53893995507E+03  0.00000000000E+00 0.  1.
        -13    1    5    5    0    0 -0.26310803446E+02 -0.12923620466E+02  0.14497498485E+02  0.32702535165E+02  0.00000000000E+00 0. -1.
          4    1    6    6  503    0  0.16555662318E+03 -0.15260837800E+02 -0.50830836033E+02  0.17385529196E+03  0.00000000000E+00 0. -1.
         -4    1    6    6    0  503  0.21551255098E+03 -0.12049308633E+03 -0.11916186145E+03  0.27416015887E+03  0.00000000000E+00 0.  1.
<mgrwt>
<rscale>  0 0.13641363E+04</rscale>
<asrwt>0</asrwt>
<pdfrwt beam="1">  1        1 0.90627305E-01 0.13641363E+04</pdfrwt>
<pdfrwt beam="2">  1       -2 0.12149818E+00 0.13641363E+04</pdfrwt>
<totfact> 0.15487108E+01</totfact>
</mgrwt>
</event>
<event>
12    5  0.5264288E-008  0.2113211E+04  0.7818608E-02  0.8555446E-01
          1   -1    0    0  501    0  0.00000000000E+00  0.00000000000E+00  0.72100384084E+03  0.72100384084E+03  0.00000000000E+00 0. -1.
         -2   -1    0    0    0  501 -0.00000000000E+00 -0.00000000000E+00 -0.15484179374E+04  0.15484179374E+04  0.00000000000E+00 0.  1.
        -24    2    1    2    0    0  0.27842558736E+03  0.79389555912E+03 -0.52438230056E+03  0.99454811690E+03  0.79738279376E+02 0.  0.
        254    2    1    2    0    0 -0.27842558736E+03 -0.79389555912E+03 -0.30303179600E+03  0.12748736613E+04  0.90867134679E+03 0.  0.
         23    2    4    4    0    0  0.20893301234E+02 -0.80262898447E+03  0.41533252048E+02  0.80910833721E+03  0.91002602011E+02 0.  0.
         23    2    4    4    0    0 -0.29931888859E+03  0.87334253454E+01 -0.34456504805E+03  0.46576532412E+03  0.92434815042E+02 0.  0.
          1    1    3    3  502    0  0.23397151546E+03  0.70702259933E+03 -0.43650888165E+03  0.86322860805E+03  0.00000000000E+00 0. -1.
         -2    1    3    3    0  502  0.44454071904E+02  0.86872959796E+02 -0.87873418913E+02  0.13131950885E+03  0.00000000000E+00 0.  1.
         13    1    5    5    0    0  0.16910418055E+02 -0.12364294756E+03  0.36753990736E+02  0.13009379907E+03  0.00000000000E+00 0.  1.
        -13    1    5    5    0    0  0.39828831794E+01 -0.67898603691E+03  0.47792613128E+01  0.67901453814E+03  0.00000000000E+00 0. -1.
          1    1    6    6  503    0 -0.44636797184E+02  0.15554363078E+02 -0.15805189097E+02  0.49841607879E+02  0.00000000000E+00 0. -1.
         -1    1    6    6    0  503 -0.25468209141E+03 -0.68209377327E+01 -0.32875985895E+03  0.41592371624E+03  0.00000000000E+00 0.  1.
<mgrwt>
<rscale>  0 0.21132111E+04</rscale>
<asrwt>0</asrwt>
<pdfrwt beam="1">  1        1 0.11092367E+00 0.21132111E+04</pdfrwt>
<pdfrwt beam="2">  1       -2 0.23821814E+00 0.21132111E+04</pdfrwt>
<totfact> 0.15918766E+00</totfact>
</mgrwt>
</event>
<event>
12    5  0.5264288E-008  0.1278573E+04  0.7818608E-02  0.9046732E-01
         -2   -1    0    0    0  501 -0.00000000000E+00  0.00000000000E+00  0.87617247020E+03  0.87617247020E+03  0.00000000000E+00 0.  1.
          1   -1    0    0  501    0  0.00000000000E+00 -0.00000000000E+00 -0.46644586333E+03  0.46644586333E+03  0.00000000000E+00 0. -1.
        -24    2    1    2    0    0  0.29098862089E+03 -0.11106528975E+03  0.42072414648E+02  0.32443002640E+03  0.80466625879E+02 0.  0.
        254    2    1    2    0    0 -0.29098862089E+03  0.11106528975E+03  0.36765419222E+03  0.10181883071E+04  0.89695481917E+03 0.  0.
         23    2    4    4    0    0 -0.49206040499E+03  0.63357122482E-01  0.52433258192E+03  0.72473757245E+03  0.90534227114E+02 0.  0.
         23    2    4    4    0    0  0.20107178409E+03  0.11100193263E+03 -0.15667838970E+03  0.29345073468E+03  0.93882503570E+02 0.  0.
          1    1    3    3  502    0  0.28838397343E+03 -0.11941091782E+03  0.44671811125E+02  0.31530914058E+03  0.00000000000E+00 0. -1.
         -2    1    3    3    0  502  0.26046474662E+01  0.83456280626E+01 -0.25993964766E+01  0.91208858246E+01  0.00000000000E+00 0.  1.
         13    1    5    5    0    0 -0.30093168028E+02  0.10997539178E+02  0.10578768199E+02  0.33740998304E+02  0.00000000000E+00 0.  1.
        -13    1    5    5    0    0 -0.46196723696E+03 -0.10934182056E+02  0.51375381372E+03  0.69099657414E+03  0.00000000000E+00 0. -1.
          1    1    6    6  503    0  0.18076647126E+03  0.56619321785E+02 -0.11072372839E+03  0.21941287282E+03  0.00000000000E+00 0. -1.
         -1    1    6    6    0  503  0.20305312833E+02  0.54382610847E+02 -0.45954661313E+02  0.74037861856E+02  0.00000000000E+00 0.  1.
<mgrwt>
<rscale>  0 0.12785727E+04</rscale>
<asrwt>0</asrwt>
<pdfrwt beam="1">  1        1 0.71760902E-01 0.12785727E+04</pdfrwt>
<pdfrwt beam="2">  1       -2 0.13479576E+00 0.12785727E+04</pdfrwt>
<totfact> 0.16603717E+01</totfact>
</mgrwt>
</event>
<event>
12    5  0.5264288E-008  0.1836633E+04  0.7818608E-02  0.8687058E-01
         -2   -1    0    0    0  501 -0.00000000000E+00  0.00000000000E+00  0.39863291585E+03  0.39863291585E+03  0.00000000000E+00 0.  1.
          1   -1    0    0  501    0  0.00000000000E+00 -0.00000000000E+00 -0.21154928491E+04  0.21154928491E+04  0.00000000000E+00 0. -1.
        -24    2    1    2    0    0 -0.57785598559E+03 -0.18404392104E+03 -0.15447587894E+03  0.63119792312E+03  0.82208977692E+02 0.  0.
        254    2    1    2    0    0  0.57785598559E+03  0.18404392104E+03 -0.15623840543E+04  0.18829278418E+04  0.85824449862E+03 0.  0.
         23    2    4    4    0    0  0.14857041313E+03  0.30427461588E+03 -0.13240060067E+04  0.13692017098E+04  0.84054784652E+02 0.  0.
         23    2    4    4    0    0  0.42928557246E+03 -0.12023069484E+03 -0.23837804753E+03  0.51372613195E+03  0.91372437844E+02 0.  0.
          3    1    3    3  502    0 -0.48204312853E+02  0.55510176276E+01 -0.21835154707E+02  0.53209431076E+02  0.00000000000E+00 0. -1.
         -4    1    3    3    0  502 -0.52965167274E+03 -0.18959493867E+03 -0.13264072423E+03  0.57798849204E+03  0.00000000000E+00 0.  1.
         13    1    5    5    0    0  0.15305748383E+02  0.17026371525E+02 -0.20437704128E+03  0.20565538714E+03  0.00000000000E+00 0. -1.
        -13    1    5    5    0    0  0.13326466475E+03  0.28724824436E+03 -0.11196289655E+04  0.11635463227E+04  0.00000000000E+00 0.  1.
          4    1    6    6  503    0  0.19814374359E+03 -0.88291501543E+01 -0.11036062632E+03  0.22697657337E+03  0.00000000000E+00 0. -1.
         -4    1    6    6    0  503  0.23114182887E+03 -0.11140154469E+03 -0.12801742121E+03  0.28674955858E+03  0.00000000000E+00 0.  1.
<mgrwt>
<rscale>  0 0.18366329E+04</rscale>
<asrwt>0</asrwt>
<pdfrwt beam="1">  1        1 0.32546044E+00 0.18366329E+04</pdfrwt>
<pdfrwt beam="2">  1       -2 0.61328141E-01 0.18366329E+04</pdfrwt>
<totfact> 0.50809633E+00</totfact>
</mgrwt>
</event>
<event>
12    5  0.5264288E-008  0.1144859E+04  0.7818608E-02  0.9162540E-01
          1   -1    0    0  501    0  0.00000000000E+00  0.00000000000E+00  0.20428789817E+04  0.20428789817E+04  0.00000000000E+00 0. -1.
         -2   -1    0    0    0  501 -0.00000000000E+00 -0.00000000000E+00 -0.16039876163E+03  0.16039876163E+03  0.00000000000E+00 0.  1.
        -24    2    1    2    0    0  0.25179560905E+02  0.32740657337E+01  0.77651995891E+03  0.78110836478E+03  0.80636847286E+02 0.  0.
        254    2    1    2    0    0 -0.25179560905E+02 -0.32740657337E+01  0.11059602612E+04  0.14221693786E+04  0.89374096487E+03 0.  0.
         23    2    4    4    0    0  0.22438479938E+03  0.29951466271E+03  0.87962854512E+03  0.96058196975E+03  0.94412773790E+02 0.  0.
         23    2    4    4    0    0 -0.24956436029E+03 -0.30278872844E+03  0.22633171608E+03  0.46158740885E+03  0.88732780327E+02 0.  0.
          3    1    3    3  502    0  0.29336032600E+02 -0.32360567266E+02  0.55355030486E+03  0.55527087906E+03  0.00000000000E+00 0. -1.
         -4    1    3    3    0  502 -0.41564716952E+01  0.35634632999E+02  0.22296965405E+03  0.22583748571E+03  0.00000000000E+00 0.  1.
         13    1    5    5    0    0  0.65713329944E+02  0.94485181982E+02  0.38899030333E+03  0.40565890528E+03  0.00000000000E+00 0.  1.
        -13    1    5    5    0    0  0.15867146944E+03  0.20502948072E+03  0.49063824179E+03  0.55492306448E+03  0.00000000000E+00 0. -1.
          4    1    6    6  503    0 -0.17823596507E+03 -0.19276005850E+03  0.19427538467E+03  0.32659979254E+03  0.00000000000E+00 0. -1.
         -4    1    6    6    0  503 -0.71328395220E+02 -0.11002866994E+03  0.32056331413E+02  0.13498761631E+03  0.00000000000E+00 0.  1.
<mgrwt>
<rscale>  0 0.11448585E+04</rscale>
<asrwt>0</asrwt>
<pdfrwt beam="1">  1        1 0.31428906E+00 0.11448585E+04</pdfrwt>
<pdfrwt beam="2">  1       -2 0.24676734E-01 0.11448585E+04</pdfrwt>
<totfact> 0.35799691E+01</totfact>
</mgrwt>
</event>
<event>
12    5  0.5264288E-008  0.1102372E+04  0.7818608E-02  0.9202883E-01
         -2   -1    0    0    0  501 -0.00000000000E+00  0.00000000000E+00  0.53517715926E+03  0.53517715926E+03  0.00000000000E+00 0.  1.
          1   -1    0    0  501    0  0.00000000000E+00 -0.00000000000E+00 -0.56767386026E+03  0.56767386026E+03  0.00000000000E+00 0. -1.
        -24    2    1    2    0    0 -0.61525736155E+01  0.65577605445E+01  0.17170975216E+03  0.18933533479E+03  0.79263936472E+02 0.  0.
        254    2    1    2    0    0  0.61525736155E+01 -0.65577605445E+01 -0.20420645317E+03  0.91351568473E+03  0.89035373440E+03 0.  0.
         23    2    4    4    0    0 -0.42548820442E+03  0.27203921452E+02 -0.17332933066E+03  0.47041623381E+03  0.97304217403E+02 0.  0.
         23    2    4    4    0    0  0.43164077803E+03 -0.33761681996E+02 -0.30877122508E+02  0.44309945092E+03  0.89051189103E+02 0.  0.
          3    1    3    3  502    0 -0.42469512439E+01 -0.12692222636E+02 -0.28691561678E+01  0.13687993550E+02  0.00000000000E+00 0. -1.
         -4    1    3    3    0  502 -0.19056223716E+01  0.19249983181E+02  0.17457890833E+03  0.17564734123E+03  0.00000000000E+00 0.  1.
         13    1    5    5    0    0 -0.22695248594E+02 -0.21588190629E+02 -0.16694116357E+02  0.35493912215E+02  0.00000000000E+00 0.  1.
        -13    1    5    5    0    0 -0.40279295582E+03  0.48792112080E+02 -0.15663521430E+03  0.43492232160E+03  0.00000000000E+00 0. -1.
          3    1    6    6  503    0  0.32288403164E+03 -0.34201485298E+02 -0.60725633000E+02  0.33032021129E+03  0.00000000000E+00 0. -1.
         -3    1    6    6    0  503  0.10875674640E+03  0.43980330233E+00  0.29848510492E+02  0.11277923963E+03  0.00000000000E+00 0.  1.
<mgrwt>
<rscale>  0 0.11023721E+04</rscale>
<asrwt>0</asrwt>
<pdfrwt beam="1">  1        1 0.87334439E-01 0.11023721E+04</pdfrwt>
<pdfrwt beam="2">  1       -2 0.82334948E-01 0.11023721E+04</pdfrwt>
<totfact> 0.41898474E+01</totfact>
</mgrwt>
</event>
<event>
12    5  0.5264288E-008  0.1286175E+04  0.7818608E-02  0.9040601E-01
          1   -1    0    0  501    0  0.00000000000E+00  0.00000000000E+00  0.95915169712E+03  0.95915169712E+03  0.00000000000E+00 0. -1.
         -4   -1    0    0    0  501 -0.00000000000E+00 -0.00000000000E+00 -0.43117447187E+03  0.43117447187E+03  0.00000000000E+00 0.  1.
        -24    2    1    2    0    0  0.22936584388E+03 -0.42724511384E+02  0.38747690482E+03  0.46060030602E+03  0.87064435457E+02 0.  0.
        254    2    1    2    0    0 -0.22936584388E+03  0.42724511384E+02  0.14050032044E+03  0.92972586297E+03  0.88894081132E+03 0.  0.
         23    2    4    4    0    0 -0.43733462750E+03  0.30127066834E+03 -0.41664143720E+02  0.54057615425E+03  0.91984159843E+02 0.  0.
         23    2    4    4    0    0  0.20796878361E+03 -0.25854615696E+03  0.18216446416E+03  0.38914970872E+03  0.90313197045E+02 0.  0.
          1    1    3    3  502    0  0.75700911203E+02 -0.53839495561E+02  0.17524027629E+03  0.19833928928E+03  0.00000000000E+00 0. -1.
         -2    1    3    3    0  502  0.15366493268E+03  0.11114984177E+02  0.21223662853E+03  0.26226101674E+03  0.00000000000E+00 0.  1.
         13    1    5    5    0    0 -0.23957892506E+03  0.20494629902E+03  0.67169636167E+01  0.31535085923E+03  0.00000000000E+00 0. -1.
        -13    1    5    5    0    0 -0.19775570243E+03  0.96324369320E+02 -0.48381107337E+02  0.22522529502E+03  0.00000000000E+00 0.  1.
          1    1    6    6  503    0  0.19908658778E+03 -0.26565379826E+03  0.17977042598E+03  0.37752458995E+03  0.00000000000E+00 0. -1.
         -1    1    6    6    0  503  0.88821958356E+01  0.71076412953E+01  0.23940381756E+01  0.11625118771E+02  0.00000000000E+00 0.  1.
<mgrwt>
<rscale>  0 0.12861753E+04</rscale>
<asrwt>0</asrwt>
<pdfrwt beam="1">  1        1 0.14756180E+00 0.12861753E+04</pdfrwt>
<pdfrwt beam="2">  1       -4 0.66334534E-01 0.12861753E+04</pdfrwt>
<totfact> 0.16449093E+01</totfact>
</mgrwt>
</event>
<event>
12    5  0.5264288E-008  0.2124258E+04  0.7818608E-02  0.8550632E-01
          1   -1    0    0  501    0  0.00000000000E+00  0.00000000000E+00  0.18780360573E+04  0.18780360573E+04  0.00000000000E+00 0. -1.
         -2   -1    0    0    0  501 -0.00000000000E+00 -0.00000000000E+00 -0.60069030624E+03  0.60069030624E+03  0.00000000000E+00 0.  1.
        -24    2    1    2    0    0 -0.35436521716E+03 -0.77005264836E+03  0.34673323009E+03  0.91948798201E+03  0.81721648547E+02 0.  0.
        254    2    1    2    0    0  0.35436521716E+03  0.77005264836E+03  0.93061252096E+03  0.15592383815E+04  0.92012438173E+03 0.  0.
         23    2    4    4    0    0  0.23636223146E+02 -0.15817827475E+03  0.39085439924E+03  0.43191431333E+03  0.90574692952E+02 0.  0.
         23    2    4    4    0    0  0.33072899401E+03  0.92823092311E+03  0.53975812171E+03  0.11273240682E+04  0.92338565419E+02 0.  0.
          3    1    3    3  502    0 -0.34537878576E+03 -0.76793181146E+03  0.34558358896E+03  0.91018338244E+03  0.00000000000E+00 0. -1.
         -4    1    3    3    0  502 -0.89864314029E+01 -0.21208368960E+01  0.11496411223E+01  0.93045995727E+01  0.00000000000E+00 0.  1.
         13    1    5    5    0    0  0.88229234997E+01  0.10340097200E+02  0.18730414611E+02  0.23142817907E+02  0.00000000000E+00 0.  1.
        -13    1    5    5    0    0  0.14813299647E+02 -0.16851837195E+03  0.37212398463E+03  0.40877149542E+03  0.00000000000E+00 0. -1.
          3    1    6    6  503    0  0.27111825514E+03  0.78080725283E+03  0.48920885256E+03  0.96046362542E+03  0.00000000000E+00 0. -1.
         -3    1    6    6    0  503  0.59610738869E+02  0.14742367028E+03  0.50549269159E+02  0.16686044276E+03  0.00000000000E+00 0.  1.
<mgrwt>
<rscale>  0 0.21242580E+04</rscale>
<asrwt>0</asrwt>
<pdfrwt beam="1">  1        1 0.28892862E+00 0.21242580E+04</pdfrwt>
<pdfrwt beam="2">  1       -2 0.92413894E-01 0.21242580E+04</pdfrwt>
<totfact> 0.28886260E+00</totfact>
</mgrwt>
</event>
<event>
12    5  0.5264288E-008  0.3044289E+04  0.7818608E-02  0.8231196E-01
         -2   -1    0    0    0  501 -0.00000000000E+00  0.00000000000E+00  0.79076537604E+03  0.79076537604E+03  0.00000000000E+00 0.  1.
          1   -1    0    0  501    0  0.00000000000E+00 -0.00000000000E+00 -0.29299759135E+04  0.29299759135E+04  0.00000000000E+00 0. -1.
        -24    2    1    2    0    0 -0.21148284032E+03 -0.54614091745E+03  0.56122782950E+03  0.81534801026E+03  0.82588181822E+02 0.  0.
        254    2    1    2    0    0  0.21148284032E+03  0.54614091745E+03 -0.27004383670E+04  0.29053932793E+04  0.89774597748E+03 0.  0.
         23    2    4    4    0    0  0.11397603051E+03  0.60731965149E+03 -0.88036720794E+03  0.10793917449E+04  0.90622422672E+02 0.  0.
         23    2    4    4    0    0  0.97506809813E+02 -0.61178734048E+02 -0.18200711591E+04  0.18260015344E+04  0.91499531415E+02 0.  0.
          1    1    3    3  502    0 -0.19092110790E+03 -0.40714739190E+03  0.40434386712E+03  0.60474278090E+03  0.00000000000E+00 0. -1.
         -2    1    3    3    0  502 -0.20561732425E+02 -0.13899352555E+03  0.15688396238E+03  0.21060522937E+03  0.00000000000E+00 0.  1.
         13    1    5    5    0    0  0.25037387157E+01 -0.25536136942E+01 -0.11269532621E+02  0.11823367369E+02  0.00000000000E+00 0. -1.
        -13    1    5    5    0    0  0.11147229179E+03  0.60987326519E+03 -0.86909767532E+03  0.10675683775E+04  0.00000000000E+00 0.  1.
          3    1    6    6  503    0  0.32991654027E+02 -0.38879805604E+02 -0.13538417732E+04  0.13548016960E+04  0.00000000000E+00 0.  1.
         -3    1    6    6    0  503  0.64515155786E+02 -0.22298928445E+02 -0.46622938586E+03  0.47119983848E+03  0.00000000000E+00 0. -1.
<mgrwt>
<rscale>  0 0.30442888E+04</rscale>
<asrwt>0</asrwt>
<pdfrwt beam="1">  1        1 0.45076552E+00 0.30442888E+04</pdfrwt>
<pdfrwt beam="2">  1       -2 0.12165621E+00 0.30442888E+04</pdfrwt>
<totfact> 0.25719477E-01</totfact>
</mgrwt>
</event>
<event>
12    5  0.5264288E-008  0.1457084E+04  0.7818608E-02  0.8913504E-01
         -2   -1    0    0    0  501 -0.00000000000E+00  0.00000000000E+00  0.16044174809E+03  0.16044174809E+03  0.00000000000E+00 0.  1.
          1   -1    0    0  501    0  0.00000000000E+00 -0.00000000000E+00 -0.33081993116E+04  0.33081993116E+04  0.00000000000E+00 0. -1.
        -24    2    1    2    0    0 -0.43859544928E+03  0.72435657856E+02 -0.86986842935E+03  0.98011940200E+03  0.79687296018E+02 0.  0.
        254    2    1    2    0    0  0.43859544928E+03 -0.72435657856E+02 -0.22778891342E+04  0.24885216577E+04  0.89796895302E+03 0.  0.
         23    2    4    4    0    0  0.18837768576E+03  0.17717938644E+03 -0.12112020897E+03  0.30103729666E+03  0.95261017672E+02 0.  0.
         23    2    4    4    0    0  0.25021776352E+03 -0.24961504430E+03 -0.21567689252E+04  0.21874843610E+04  0.92298610779E+02 0.  0.
          3    1    3    3  502    0 -0.17356898180E+03  0.12617215173E+02 -0.26500476312E+03  0.31703771075E+03  0.00000000000E+00 0. -1.
         -4    1    3    3    0  502 -0.26502646748E+03  0.59818442684E+02 -0.60486366623E+03  0.66308169125E+03  0.00000000000E+00 0.  1.
         13    1    5    5    0    0 -0.48457153957E+01  0.30281084254E+02 -0.26478268905E+02  0.40515722202E+02  0.00000000000E+00 0. -1.
        -13    1    5    5    0    0  0.19322340115E+03  0.14689830219E+03 -0.94641940064E+02  0.26052157446E+03  0.00000000000E+00 0.  1.
          2    1    6    6  503    0  0.12924089086E+03 -0.13691867592E+03 -0.87023416781E+03  0.89036927087E+03  0.00000000000E+00 0. -1.
         -2    1    6    6    0  503  0.12097687266E+03 -0.11269636837E+03 -0.12865347574E+04  0.12971150902E+04  0.00000000000E+00 0.  1.
<mgrwt>
<rscale>  0 0.14570838E+04</rscale>
<asrwt>0</asrwt>
<pdfrwt beam="1">  1        1 0.50895368E+00 0.14570838E+04</pdfrwt>
<pdfrwt beam="2">  1       -2 0.24683349E-01 0.14570838E+04</pdfrwt>
<totfact> 0.44510629E+00</totfact>
</mgrwt>
</event>
<event>
12    5  0.5264288E-008  0.1994964E+04  0.7818608E-02  0.8608979E-01
          1   -1    0    0  501    0  0.00000000000E+00  0.00000000000E+00  0.18765109144E+04  0.18765109144E+04  0.00000000000E+00 0. -1.
         -2   -1    0    0    0  501 -0.00000000000E+00 -0.00000000000E+00 -0.53022375965E+03  0.53022375965E+03  0.00000000000E+00 0.  1.
        -24    2    1    2    0    0 -0.20664354297E+03  0.33514901137E+03  0.13579746862E+04  0.14164506545E+04  0.84916398395E+02 0.  0.
        254    2    1    2    0    0  0.20664354297E+03 -0.33514901137E+03 -0.11687531397E+02  0.99028401955E+03  0.90856999033E+03 0.  0.
         23    2    4    4    0    0 -0.26265908953E+03  0.13109638237E+03 -0.84448173563E+02  0.31843453841E+03  0.89961116330E+02 0.  0.
         23    2    4    4    0    0  0.46930263250E+03 -0.46624539374E+03  0.72760642165E+02  0.67184948114E+03  0.91966766881E+02 0.  0.
          3    1    3    3  502    0 -0.20824160410E+03  0.30062585009E+03  0.12787539450E+04  0.13300195936E+04  0.00000000000E+00 0. -1.
         -4    1    3    3    0  502  0.15980611325E+01  0.34523161280E+02  0.79220741130E+02  0.86431060906E+02  0.00000000000E+00 0.  1.
         13    1    5    5    0    0 -0.15190584928E+03  0.47960667822E+02 -0.83700933812E+02  0.17994848992E+03  0.00000000000E+00 0. -1.
        -13    1    5    5    0    0 -0.11075324025E+03  0.83135714549E+02 -0.74723975093E+00  0.13848604849E+03  0.00000000000E+00 0.  1.
          3    1    6    6  503    0  0.24031884812E+03 -0.20935477247E+03  0.76193203448E+02  0.32770104329E+03  0.00000000000E+00 0. -1.
         -3    1    6    6    0  503  0.22898378438E+03 -0.25689062126E+03 -0.34325612829E+01  0.34414843786E+03  0.00000000000E+00 0.  1.
<mgrwt>
<rscale>  0 0.19949643E+04</rscale>
<asrwt>0</asrwt>
<pdfrwt beam="1">  1        1 0.28869398E+00 0.19949643E+04</pdfrwt>
<pdfrwt beam="2">  1       -2 0.81572887E-01 0.19949643E+04</pdfrwt>
<totfact> 0.38964931E+00</totfact>
</mgrwt>
</event>
<event>
12    5  0.5264288E-008  0.1305725E+04  0.7818608E-02  0.9025038E-01
          1   -1    0    0  501    0  0.00000000000E+00  0.00000000000E+00  0.18778028798E+04  0.18778028798E+04  0.00000000000E+00 0. -1.
         -2   -1    0    0    0  501 -0.00000000000E+00 -0.00000000000E+00 -0.22698297289E+03  0.22698297289E+03  0.00000000000E+00 0.  1.
        -24    2    1    2    0    0 -0.17384318321E+03 -0.19170516546E+03  0.76573591860E+03  0.81230094247E+03  0.80678381827E+02 0.  0.
        254    2    1    2    0    0  0.17384318321E+03  0.19170516546E+03  0.88508398833E+03  0.12924849102E+04  0.90563306808E+03 0.  0.
         23    2    4    4    0    0  0.26525530713E+02  0.52606552661E+03  0.35655325102E+03  0.64360870079E+03  0.98251701543E+02 0.  0.
         23    2    4    4    0    0  0.14731765249E+03 -0.33436036116E+03  0.52853073731E+03  0.64887620945E+03  0.90533160015E+02 0.  0.
          1    1    3    3  502    0 -0.15208383715E+03 -0.12481842540E+03  0.62020581110E+03  0.65066456870E+03  0.00000000000E+00 0. -1.
         -2    1    3    3    0  502 -0.21759346053E+02 -0.66886740055E+02  0.14553010750E+03  0.16163637377E+03  0.00000000000E+00 0.  1.
         13    1    5    5    0    0  0.26887762751E+02  0.51457291856E+03  0.32300601497E+03  0.60814564539E+03  0.00000000000E+00 0. -1.
        -13    1    5    5    0    0 -0.36223203779E+00  0.11492608052E+02  0.33547236053E+02  0.35463055405E+02  0.00000000000E+00 0.  1.
          2    1    6    6  503    0  0.20722000192E+02 -0.13546944650E+03  0.15233060954E+03  0.20490482383E+03  0.00000000000E+00 0.  1.
         -2    1    6    6    0  503  0.12659565230E+03 -0.19889091466E+03  0.37620012777E+03  0.44397138562E+03  0.00000000000E+00 0. -1.
<mgrwt>
<rscale>  0 0.13057247E+04</rscale>
<asrwt>0</asrwt>
<pdfrwt beam="1">  1        1 0.28889274E+00 0.13057247E+04</pdfrwt>
<pdfrwt beam="2">  1       -2 0.34920459E-01 0.13057247E+04</pdfrwt>
<totfact> 0.23944639E+01</totfact>
</mgrwt>
</event>
<event>
12    5  0.5264288E-008  0.1274752E+04  0.7818608E-02  0.9049830E-01
          1   -1    0    0  501    0  0.00000000000E+00  0.00000000000E+00  0.87037275610E+03  0.87037275610E+03  0.00000000000E+00 0. -1.
         -2   -1    0    0    0  501 -0.00000000000E+00 -0.00000000000E+00 -0.46675180158E+03  0.46675180158E+03  0.00000000000E+00 0.  1.
        -24    2    1    2    0    0  0.38749078220E+02  0.27850160729E+03 -0.20221555993E+02  0.29305927395E+03  0.80063664644E+02 0.  0.
        254    2    1    2    0    0 -0.38749078220E+02 -0.27850160729E+03  0.42384251052E+03  0.10440652837E+04  0.91179230454E+03 0.  0.
         23    2    4    4    0    0 -0.45457751894E+03 -0.67332483554E+02  0.13215014303E+03  0.48667272214E+03  0.90621708770E+02 0.  0.
         23    2    4    4    0    0  0.41582844072E+03 -0.21116912374E+03  0.29169236749E+03  0.55739256158E+03  0.89979661720E+02 0.  0.
          1    1    3    3  502    0  0.19543038670E+02  0.60266835203E+02  0.27132420760E+02  0.68921622457E+02  0.00000000000E+00 0. -1.
         -2    1    3    3    0  502  0.19206039550E+02  0.21823477209E+03 -0.47353976753E+02  0.22413765149E+03  0.00000000000E+00 0.  1.
         13    1    5    5    0    0 -0.76857632546E+01 -0.91604907263E+01 -0.83874075402E+01  0.14605962906E+02  0.00000000000E+00 0. -1.
        -13    1    5    5    0    0 -0.44689175569E+03 -0.58171992827E+02  0.14053755057E+03  0.47206675923E+03  0.00000000000E+00 0.  1.
          4    1    6    6  503    0  0.63070110255E+01 -0.58858525911E+01 -0.64953080209E+01  0.10798642280E+02  0.00000000000E+00 0. -1.
         -4    1    6    6    0  503  0.40952142970E+03 -0.20528327115E+03  0.29818767551E+03  0.54659391930E+03  0.00000000000E+00 0.  1.
<mgrwt>
<rscale>  0 0.12747518E+04</rscale>
<asrwt>0</asrwt>
<pdfrwt beam="1">  1        1 0.13390350E+00 0.12747518E+04</pdfrwt>
<pdfrwt beam="2">  1       -2 0.71807970E-01 0.12747518E+04</pdfrwt>
<totfact> 0.29201106E+01</totfact>
</mgrwt>
</event>
<event>
12    5  0.5264288E-008  0.1498985E+04  0.7818608E-02  0.8885128E-01
         -2   -1    0    0    0  501 -0.00000000000E+00  0.00000000000E+00  0.31404723981E+03  0.31404723981E+03  0.00000000000E+00 0.  1.
          1   -1    0    0  501    0  0.00000000000E+00 -0.00000000000E+00 -0.17887075584E+04  0.17887075584E+04  0.00000000000E+00 0. -1.
        -24    2    1    2    0    0 -0.31123216168E+03  0.21379335812E+03 -0.86519231069E+03  0.94741426790E+03  0.80392798788E+02 0.  0.
        254    2    1    2    0    0  0.31123216168E+03 -0.21379335812E+03 -0.60946800787E+03  0.11553405303E+04  0.90597319489E+03 0.  0.
         23    2    4    4    0    0  0.44237458679E+03 -0.48646788258E+03 -0.41815384053E+03  0.78579490579E+03  0.10136431221E+03 0.  0.
         23    2    4    4    0    0 -0.13114242511E+03  0.27267452446E+03 -0.19131416734E+03  0.36954562450E+03  0.91723094185E+02 0.  0.
          3    1    3    3  502    0 -0.28493103433E+03  0.16312510899E+03 -0.75545605415E+03  0.82371678705E+03  0.00000000000E+00 0. -1.
         -4    1    3    3    0  502 -0.26301127349E+02  0.50668249129E+02 -0.10973625654E+03  0.12369748085E+03  0.00000000000E+00 0.  1.
         13    1    5    5    0    0  0.36998249344E+03 -0.41795717189E+03 -0.39400881360E+03  0.68324094446E+03  0.00000000000E+00 0.  1.
        -13    1    5    5    0    0  0.72392093350E+02 -0.68510710691E+02 -0.24145026925E+02  0.10255396133E+03  0.00000000000E+00 0. -1.
          4    1    6    6  503    0 -0.11295044426E+03  0.12988091105E+03 -0.99627508746E+02  0.19887808933E+03  0.00000000000E+00 0. -1.
         -4    1    6    6    0  503 -0.18191980845E+02  0.14279361341E+03 -0.91686658597E+02  0.17066753517E+03  0.00000000000E+00 0.  1.
<mgrwt>
<rscale>  0 0.14989846E+04</rscale>
<asrwt>0</asrwt>
<pdfrwt beam="1">  1        1 0.27518578E+00 0.14989846E+04</pdfrwt>
<pdfrwt beam="2">  1       -2 0.48314960E-01 0.14989846E+04</pdfrwt>
<totfact> 0.14291739E+01</totfact>
</mgrwt>
</event>
<event>
12    5  0.5264288E-008  0.1099309E+04  0.7818608E-02  0.9205866E-01
          3   -1    0    0  501    0  0.00000000000E+00  0.00000000000E+00  0.50395513925E+03  0.50395513925E+03  0.00000000000E+00 0. -1.
         -4   -1    0    0    0  501 -0.00000000000E+00 -0.00000000000E+00 -0.59949763744E+03  0.59949763744E+03  0.00000000000E+00 0.  1.
        -24    2    1    2    0    0  0.11044741392E+02 -0.43075607068E+02 -0.18464222320E+03  0.20597937144E+03  0.79732406415E+02 0.  0.
        254    2    1    2    0    0 -0.11044741392E+02  0.43075607068E+02  0.89099725006E+02  0.89747340525E+03  0.89193175630E+03 0.  0.
         23    2    4    4    0    0 -0.72813856102E+02 -0.39283596920E+03 -0.79693335052E+02  0.41717308043E+03  0.89779702873E+02 0.  0.
         23    2    4    4    0    0  0.61769114710E+02  0.43591157626E+03  0.16879306006E+03  0.48030032482E+03  0.91449325007E+02 0.  0.
          3    1    3    3  502    0  0.23678266083E+02  0.13216082106E+02 -0.27674664775E+02  0.38745479495E+02  0.00000000000E+00 0. -1.
         -4    1    3    3    0  502 -0.12633524691E+02 -0.56291689173E+02 -0.15696755843E+03  0.16723389194E+03  0.00000000000E+00 0.  1.
         13    1    5    5    0    0 -0.92564694602E+01 -0.73350663646E+01  0.10934145203E+02  0.16094749354E+02  0.00000000000E+00 0.  1.
        -13    1    5    5    0    0 -0.63557386642E+02 -0.38550090283E+03 -0.90627480255E+02  0.40107833108E+03  0.00000000000E+00 0. -1.
          2    1    6    6  503    0  0.83596424445E+02  0.34659703151E+03  0.14801182897E+03  0.38603803692E+03  0.00000000000E+00 0. -1.
         -2    1    6    6    0  503 -0.21827309735E+02  0.89314544751E+02  0.20781231086E+02  0.94262287898E+02  0.00000000000E+00 0.  1.
<mgrwt>
<rscale>  0 0.10993087E+04</rscale>
<asrwt>0</asrwt>
<pdfrwt beam="1">  1        3 0.77531561E-01 0.10993087E+04</pdfrwt>
<pdfrwt beam="2">  1       -4 0.92230405E-01 0.10993087E+04</pdfrwt>
<totfact> 0.35377843E+00</totfact>
</mgrwt>
</event>
<event>
12    5  0.5264288E-008  0.2088729E+04  0.7818608E-02  0.8566225E-01
         -2   -1    0    0    0  501 -0.00000000000E+00  0.00000000000E+00  0.18446492134E+04  0.18446492134E+04  0.00000000000E+00 0.  1.
          1   -1    0    0  501    0  0.00000000000E+00 -0.00000000000E+00 -0.59127635356E+03  0.59127635356E+03  0.00000000000E+00 0. -1.
        -24    2    1    2    0    0 -0.19791764785E+03 -0.21210808773E+03 -0.43209880918E+03  0.52662145804E+03  0.80371281931E+02 0.  0.
        254    2    1    2    0    0  0.19791764785E+03  0.21210808773E+03  0.16854716690E+04  0.19093041090E+04  0.84880280227E+03 0.  0.
         23    2    4    4    0    0  0.22531984829E+03 -0.11378021110E+03  0.14984199726E+04  0.15225358278E+04  0.95592688471E+02 0.  0.
         23    2    4    4    0    0 -0.27402200439E+02  0.32588829883E+03  0.18705169647E+03  0.38676828121E+03  0.87448855303E+02 0.  0.
          1    1    3    3  502    0 -0.19199533776E+03 -0.17129592720E+03 -0.39337051336E+03  0.47004772649E+03  0.00000000000E+00 0. -1.
         -2    1    3    3    0  502 -0.59223100875E+01 -0.40812160531E+02 -0.38728295817E+02  0.56573731545E+02  0.00000000000E+00 0.  1.
         13    1    5    5    0    0  0.55880503636E+02 -0.47973253309E+02  0.23970361060E+03  0.25076260618E+03  0.00000000000E+00 0.  1.
        -13    1    5    5    0    0  0.16943934465E+03 -0.65806957793E+02  0.12587163620E+04  0.12717732216E+04  0.00000000000E+00 0. -1.
          2    1    6    6  503    0 -0.21772431370E+02  0.30947969254E+03  0.19627827531E+03  0.36711970830E+03  0.00000000000E+00 0. -1.
         -2    1    6    6    0  503 -0.56297690692E+01  0.16408606292E+02 -0.92265788448E+01  0.19648572910E+02  0.00000000000E+00 0.  1.
<mgrwt>
<rscale>  0 0.20887292E+04</rscale>
<asrwt>0</asrwt>
<pdfrwt beam="1">  1        1 0.90965594E-01 0.20887292E+04</pdfrwt>
<pdfrwt beam="2">  1       -2 0.28379218E+00 0.20887292E+04</pdfrwt>
<totfact> 0.11265711E+00</totfact>
</mgrwt>
</event>
<event>
12    5  0.5264288E-008  0.1569794E+04  0.7818608E-02  0.8839323E-01
          1   -1    0    0  501    0  0.00000000000E+00  0.00000000000E+00  0.28924743749E+04  0.28924743749E+04  0.00000000000E+00 0. -1.
         -2   -1    0    0    0  501 -0.00000000000E+00 -0.00000000000E+00 -0.21298827993E+03  0.21298827993E+03  0.00000000000E+00 0.  1.
        -24    2    1    2    0    0 -0.42714789248E+03  0.18241078425E+03  0.12506636541E+04  0.13368341563E+04  0.85070379067E+02 0.  0.
        254    2    1    2    0    0  0.42714789248E+03 -0.18241078425E+03  0.14288224408E+04  0.17686284985E+04  0.93315817638E+03 0.  0.
         23    2    4    4    0    0  0.38981082334E+03 -0.52316418150E+03  0.71991853294E+03  0.97589443731E+03  0.91836920167E+02 0.  0.
         23    2    4    4    0    0  0.37337069143E+02  0.34075339725E+03  0.70890390789E+03  0.79273406123E+03  0.91518340950E+02 0.  0.
          3    1    3    3  502    0 -0.12229015392E+03  0.82338291993E+02  0.47732635663E+03  0.49957474597E+03  0.00000000000E+00 0. -1.
         -4    1    3    3    0  502 -0.30485773856E+03  0.10007249226E+03  0.77333729750E+03  0.83725941032E+03  0.00000000000E+00 0.  1.
         13    1    5    5    0    0  0.20382439300E+03 -0.34755569424E+03  0.45039810798E+03  0.60431597650E+03  0.00000000000E+00 0. -1.
        -13    1    5    5    0    0  0.18598643034E+03 -0.17560848726E+03  0.26952042496E+03  0.37157846081E+03  0.00000000000E+00 0.  1.
          4    1    6    6  503    0  0.34999975462E+02  0.27781334814E+03  0.64426825172E+03  0.70248618126E+03  0.00000000000E+00 0. -1.
         -4    1    6    6    0  503  0.23370936811E+01  0.62940049117E+02  0.64635656173E+02  0.90247879967E+02  0.00000000000E+00 0.  1.
<mgrwt>
<rscale>  0 0.15697938E+04</rscale>
<asrwt>0</asrwt>
<pdfrwt beam="1">  1        1 0.44499603E+00 0.15697938E+04</pdfrwt>
<pdfrwt beam="2">  1       -2 0.32767430E-01 0.15697938E+04</pdfrwt>
<totfact> 0.52725538E+00</totfact>
</mgrwt>
</event>
<event>
12    5  0.5264288E-008  0.1156977E+04  0.7818608E-02  0.9151371E-01
          1   -1    0    0  501    0  0.00000000000E+00  0.00000000000E+00  0.40479589584E+03  0.40479589584E+03  0.00000000000E+00 0. -1.
         -2   -1    0    0    0  501 -0.00000000000E+00 -0.00000000000E+00 -0.82671012320E+03  0.82671012320E+03  0.00000000000E+00 0.  1.
        -24    2    1    2    0    0  0.97011414034E+02 -0.11475801835E+03  0.81281026423E+02  0.19072275327E+03  0.84781755877E+02 0.  0.
        254    2    1    2    0    0 -0.97011414034E+02  0.11475801835E+03 -0.50319525379E+03  0.10407832658E+04  0.89857872536E+03 0.  0.
         23    2    4    4    0    0  0.18421752424E+03  0.42996958716E+03 -0.29849520804E+03  0.56241761437E+03  0.91674650853E+02 0.  0.
         23    2    4    4    0    0 -0.28122893828E+03 -0.31521156881E+03 -0.20470004574E+03  0.47836565141E+03  0.92106128361E+02 0.  0.
          1    1    3    3  502    0  0.72264230400E+02 -0.97768955802E+02  0.20993906156E+02  0.12337597744E+03  0.00000000000E+00 0. -1.
         -2    1    3    3    0  502  0.24747183634E+02 -0.16989062544E+02  0.60287120267E+02  0.67346775825E+02  0.00000000000E+00 0.  1.
         13    1    5    5    0    0  0.11668510966E+03  0.27152993288E+03 -0.23937597949E+03  0.38032194102E+03  0.00000000000E+00 0. -1.
        -13    1    5    5    0    0  0.67532414583E+02  0.15843965428E+03 -0.59119228557E+02  0.18209567335E+03  0.00000000000E+00 0.  1.
          2    1    6    6  503    0 -0.20115320005E+03 -0.27796870496E+03 -0.14989877282E+03  0.37443137277E+03  0.00000000000E+00 0. -1.
         -2    1    6    6    0  503 -0.80075738229E+02 -0.37242863857E+02 -0.54801272921E+02  0.10393427863E+03  0.00000000000E+00 0.  1.
<mgrwt>
<rscale>  0 0.11569769E+04</rscale>
<asrwt>0</asrwt>
<pdfrwt beam="1">  1        1 0.62276293E-01 0.11569769E+04</pdfrwt>
<pdfrwt beam="2">  1       -2 0.12718617E+00 0.11569769E+04</pdfrwt>
<totfact> 0.23494238E+01</totfact>
</mgrwt>
</event>
<event>
12    5  0.5264288E-008  0.2572144E+04  0.7818608E-02  0.8377725E-01
         -2   -1    0    0    0  501 -0.00000000000E+00  0.00000000000E+00  0.91807441278E+03  0.91807441278E+03  0.00000000000E+00 0.  1.
          1   -1    0    0  501    0  0.00000000000E+00 -0.00000000000E+00 -0.18015757857E+04  0.18015757857E+04  0.00000000000E+00 0. -1.
        -24    2    1    2    0    0 -0.52709477059E+03 -0.65475655291E+03  0.40332947067E+03  0.93571794244E+03  0.79739357498E+02 0.  0.
        254    2    1    2    0    0  0.52709477059E+03  0.65475655291E+03 -0.12868308436E+04  0.17839322560E+04  0.90550849436E+03 0.  0.
         23    2    4    4    0    0 -0.20254961161E+03  0.38167876916E+03 -0.56844463373E+03  0.72029518899E+03  0.94819985604E+02 0.  0.
         23    2    4    4    0    0  0.72964438220E+03  0.27307778375E+03 -0.71838620985E+03  0.10636370670E+04  0.91064062232E+02 0.  0.
          1    1    3    3  502    0 -0.19116554922E+02 -0.40007215385E+02  0.59903699188E+01  0.44742647292E+02  0.00000000000E+00 0. -1.
         -2    1    3    3    0  502 -0.50797821567E+03 -0.61474933753E+03  0.39733910075E+03  0.89097529515E+03  0.00000000000E+00 0.  1.
         13    1    5    5    0    0 -0.14461900303E+03  0.34320351561E+03 -0.46744741201E+03  0.59767080585E+03  0.00000000000E+00 0.  1.
        -13    1    5    5    0    0 -0.57930608579E+02  0.38475253557E+02 -0.10099722172E+03  0.12262438314E+03  0.00000000000E+00 0. -1.
          1    1    6    6  503    0  0.41098611965E+03  0.18855198110E+03 -0.37300722183E+03  0.58617047661E+03  0.00000000000E+00 0. -1.
         -1    1    6    6    0  503  0.31865826255E+03  0.84525802646E+02 -0.34537898802E+03  0.47746659043E+03  0.00000000000E+00 0.  1.
<mgrwt>
<rscale>  0 0.25721436E+04</rscale>
<asrwt>0</asrwt>
<pdfrwt beam="1">  1        1 0.27716551E+00 0.25721436E+04</pdfrwt>
<pdfrwt beam="2">  1       -2 0.14124222E+00 0.25721436E+04</pdfrwt>
<totfact> 0.11064853E+00</totfact>
</mgrwt>
</event>
<event>
12    5  0.5264288E-008  0.1745363E+04  0.7818608E-02  0.8735907E-01
          1   -1    0    0  501    0  0.00000000000E+00  0.00000000000E+00  0.93277905826E+03  0.93277905826E+03  0.00000000000E+00 0. -1.
         -4   -1    0    0    0  501 -0.00000000000E+00 -0.00000000000E+00 -0.81645582104E+03  0.81645582104E+03  0.00000000000E+00 0.  1.
        -24    2    1    2    0    0 -0.25518697873E+02  0.46799942824E+03  0.48380954406E+03  0.67820781207E+03  0.78863760014E+02 0.  0.
        254    2    1    2    0    0  0.25518697873E+02 -0.46799942824E+03 -0.36748630685E+03  0.10710270672E+04  0.89015623586E+03 0.  0.
         23    2    4    4    0    0 -0.32102352868E+03 -0.53841932447E+03 -0.17138947687E+03  0.65643694601E+03  0.92647916168E+02 0.  0.
         23    2    4    4    0    0  0.34654222655E+03  0.70419896233E+02 -0.19609682997E+03  0.41459012122E+03  0.91545209159E+02 0.  0.
          1    1    3    3  502    0 -0.43543319562E+02  0.42303154791E+03  0.44984935668E+03  0.61904455002E+03  0.00000000000E+00 0. -1.
         -2    1    3    3    0  502  0.18024621689E+02  0.44967880333E+02  0.33960187385E+02  0.59163262046E+02  0.00000000000E+00 0.  1.
         13    1    5    5    0    0 -0.29376388162E+03 -0.52654971396E+03 -0.17088673443E+03  0.62670096172E+03  0.00000000000E+00 0.  1.
        -13    1    5    5    0    0 -0.27259647061E+02 -0.11869610510E+02 -0.50274244084E+00  0.29735984287E+02  0.00000000000E+00 0. -1.
          2    1    6    6  503    0  0.33154689875E+03  0.46726437276E+02 -0.16692200664E+03  0.37412519604E+03  0.00000000000E+00 0.  1.
         -2    1    6    6    0  503  0.14995327797E+02  0.23693458957E+02 -0.29174823333E+02  0.40464925177E+02  0.00000000000E+00 0. -1.
<mgrwt>
<rscale>  0 0.17453629E+04</rscale>
<asrwt>0</asrwt>
<pdfrwt beam="1">  1        1 0.14350447E+00 0.17453629E+04</pdfrwt>
<pdfrwt beam="2">  1       -4 0.12560859E+00 0.17453629E+04</pdfrwt>
<totfact> 0.37117533E+00</totfact>
</mgrwt>
</event>
<event>
12    5  0.5264288E-008  0.2495475E+04  0.7818608E-02  0.8404599E-01
          1   -1    0    0  501    0  0.00000000000E+00  0.00000000000E+00  0.10094857128E+04  0.10094857128E+04  0.00000000000E+00 0. -1.
         -2   -1    0    0    0  501 -0.00000000000E+00 -0.00000000000E+00 -0.15422196990E+04  0.15422196990E+04  0.00000000000E+00 0.  1.
        -24    2    1    2    0    0 -0.88459784135E+03 -0.62421372135E+02  0.41874288677E+03  0.98374931735E+03  0.77507067729E+02 0.  0.
        254    2    1    2    0    0  0.88459784135E+03  0.62421372135E+02 -0.95147687295E+03  0.15679560944E+04  0.87565307383E+03 0.  0.
         23    2    4    4    0    0  0.10510667378E+04  0.51873348667E+02 -0.80723733759E+03  0.13289953226E+04  0.84642287754E+02 0.  0.
         23    2    4    4    0    0 -0.16646889641E+03  0.10548023468E+02 -0.14423953536E+03  0.23896077180E+03  0.92054617627E+02 0.  0.
          3    1    3    3  502    0 -0.46825138080E+03 -0.46523757535E+02  0.26208997895E+03  0.53862321961E+03  0.00000000000E+00 0. -1.
         -4    1    3    3    0  502 -0.41634646055E+03 -0.15897614600E+02  0.15665290782E+03  0.44512609775E+03  0.00000000000E+00 0.  1.
         13    1    5    5    0    0  0.72233814809E+03  0.55092982649E+02 -0.51161700774E+03  0.88688195355E+03  0.00000000000E+00 0. -1.
        -13    1    5    5    0    0  0.32872858967E+03 -0.32196339820E+01 -0.29562032985E+03  0.44211336909E+03  0.00000000000E+00 0.  1.
          1    1    6    6  503    0 -0.64483228338E+02 -0.12824752785E+02 -0.11130079802E+03  0.12926882324E+03  0.00000000000E+00 0. -1.
         -1    1    6    6    0  503 -0.10198566807E+03  0.23372776252E+02 -0.32938737340E+02  0.10969194856E+03  0.00000000000E+00 0.  1.
<mgrwt>
<rscale>  0 0.24954749E+04</rscale>
<asrwt>0</asrwt>
<pdfrwt beam="1">  1        1 0.15530549E+00 0.24954749E+04</pdfrwt>
<pdfrwt beam="2">  1       -2 0.23726457E+00 0.24954749E+04</pdfrwt>
<totfact> 0.89305919E-01</totfact>
</mgrwt>
</event>
<event>
12    5  0.5264288E-008  0.1993982E+04  0.7818608E-02  0.8609439E-01
          1   -1    0    0  501    0  0.00000000000E+00  0.00000000000E+00  0.16337018338E+04  0.16337018338E+04  0.00000000000E+00 0. -1.
         -2   -1    0    0    0  501 -0.00000000000E+00 -0.00000000000E+00 -0.60842862355E+03  0.60842862355E+03  0.00000000000E+00 0.  1.
        -24    2    1    2    0    0 -0.21650160483E+03 -0.54729175813E+03 -0.18366447274E+03  0.62215533904E+03  0.83327150094E+02 0.  0.
        254    2    1    2    0    0  0.21650160483E+03  0.54729175813E+03  0.12089376830E+04  0.16199751183E+04  0.90354183589E+03 0.  0.
         23    2    4    4    0    0  0.77897559723E+02 -0.22882032746E+03  0.46642167975E+03  0.53309069030E+03  0.90607553045E+02 0.  0.
         23    2    4    4    0    0  0.13860404511E+03  0.77611208558E+03  0.74251600324E+03  0.10868844280E+04  0.91797026632E+02 0.  0.
          3    1    3    3  502    0  0.31926253245E+01  0.79456839303E+00 -0.34996382302E+01  0.48032971110E+01  0.00000000000E+00 0. -1.
         -4    1    3    3    0  502 -0.21969423015E+03 -0.54808632652E+03 -0.18016483451E+03  0.61735204193E+03  0.00000000000E+00 0.  1.
         13    1    5    5    0    0 -0.15378859327E+02 -0.11049114786E+02  0.19035082174E+02  0.26850076445E+02  0.00000000000E+00 0.  1.
        -13    1    5    5    0    0  0.93276419050E+02 -0.21777121267E+03  0.44738659758E+03  0.50624061385E+03  0.00000000000E+00 0. -1.
          1    1    6    6  503    0  0.15177284239E+03  0.70665259715E+03  0.68399192035E+03  0.99510694694E+03  0.00000000000E+00 0. -1.
         -1    1    6    6    0  503 -0.13168797282E+02  0.69459488435E+02  0.58524082887E+02  0.91777481080E+02  0.00000000000E+00 0.  1.
<mgrwt>
<rscale>  0 0.19939819E+04</rscale>
<asrwt>0</asrwt>
<pdfrwt beam="1">  1        1 0.25133874E+00 0.19939819E+04</pdfrwt>
<pdfrwt beam="2">  1       -2 0.93604404E-01 0.19939819E+04</pdfrwt>
<totfact> 0.41588800E+00</totfact>
</mgrwt>
</event>
<event>
12    5  0.5264288E-008  0.2433846E+04  0.7818608E-02  0.8426940E-01
          1   -1    0    0  501    0  0.00000000000E+00  0.00000000000E+00  0.16391407188E+04  0.16391407188E+04  0.00000000000E+00 0. -1.
         -2   -1    0    0    0  501 -0.00000000000E+00 -0.00000000000E+00 -0.90346238326E+03  0.90346238326E+03  0.00000000000E+00 0.  1.
        -24    2    1    2    0    0  0.80106029097E+03  0.15106470030E+03 -0.40279049886E+03  0.91283972268E+03  0.80734378637E+02 0.  0.
        254    2    1    2    0    0 -0.80106029097E+03 -0.15106470030E+03  0.11384688344E+04  0.16297633794E+04  0.83396597795E+03 0.  0.
         23    2    4    4    0    0  0.74603914955E+02 -0.24485432720E+03  0.18826118696E+03  0.33101275665E+03  0.92778148681E+02 0.  0.
         23    2    4    4    0    0 -0.87566420592E+03  0.93789626899E+02  0.95020764745E+03  0.12987506227E+04  0.90963240469E+02 0.  0.
          3    1    3    3  502    0  0.52664107557E+03  0.81409817768E+02 -0.22448088917E+03  0.57824739560E+03  0.00000000000E+00 0. -1.
         -4    1    3    3    0  502  0.27441921540E+03  0.69654882531E+02 -0.17830960969E+03  0.33459232709E+03  0.00000000000E+00 0.  1.
         13    1    5    5    0    0  0.76555789889E+02 -0.16902401095E+03  0.17289005931E+03  0.25361561042E+03  0.00000000000E+00 0.  1.
        -13    1    5    5    0    0 -0.19518749347E+01 -0.75830316249E+02  0.15371127653E+02  0.77397146224E+02  0.00000000000E+00 0. -1.
          2    1    6    6  503    0 -0.29988865661E+02  0.17536423482E+02  0.53725028458E+02  0.63978409600E+02  0.00000000000E+00 0. -1.
         -2    1    6    6    0  503 -0.84567534026E+03  0.76253203417E+02  0.89648261899E+03  0.12347722131E+04  0.00000000000E+00 0.  1.
<mgrwt>
<rscale>  0 0.24338463E+04</rscale>
<asrwt>0</asrwt>
<pdfrwt beam="1">  1        1 0.25217550E+00 0.24338463E+04</pdfrwt>
<pdfrwt beam="2">  1       -2 0.13899421E+00 0.24338463E+04</pdfrwt>
<totfact> 0.15064147E+00</totfact>
</mgrwt>
</event>
<event>
12    5  0.5264288E-008  0.1651959E+04  0.7818608E-02  0.8789248E-01
          1   -1    0    0  501    0  0.00000000000E+00  0.00000000000E+00  0.74734155363E+03  0.74734155363E+03  0.00000000000E+00 0. -1.
         -2   -1    0    0    0  501 -0.00000000000E+00 -0.00000000000E+00 -0.91289210421E+03  0.91289210421E+03  0.00000000000E+00 0.  1.
        -24    2    1    2    0    0 -0.39013642235E+03 -0.38275600375E+03  0.11934380601E+03  0.56524757024E+03  0.80952363672E+02 0.  0.
        254    2    1    2    0    0  0.39013642235E+03  0.38275600375E+03 -0.28489435659E+03  0.10949860876E+04  0.90505312063E+03 0.  0.
         23    2    4    4    0    0  0.16701177631E+03 -0.28612970837E+03 -0.12954342822E+03  0.36711557478E+03  0.90714949228E+02 0.  0.
         23    2    4    4    0    0  0.22312464603E+03  0.66888571212E+03 -0.15535092837E+03  0.72787051281E+03  0.92026457744E+02 0.  0.
          1    1    3    3  502    0 -0.29537828731E+03 -0.24462828693E+03  0.10192793248E+03  0.39683829805E+03  0.00000000000E+00 0. -1.
         -2    1    3    3    0  502 -0.94758135041E+02 -0.13812771682E+03  0.17415873525E+02  0.16840927219E+03  0.00000000000E+00 0.  1.
         13    1    5    5    0    0  0.12174891447E+03 -0.12041974371E+03 -0.74350726683E+02  0.18668621644E+03  0.00000000000E+00 0. -1.
        -13    1    5    5    0    0  0.45262861843E+02 -0.16570996466E+03 -0.55192701537E+02  0.18042935834E+03  0.00000000000E+00 0.  1.
          4    1    6    6  503    0  0.36769342452E+02  0.36475280414E+02 -0.10282561758E+02  0.52803046332E+02  0.00000000000E+00 0.  1.
         -4    1    6    6    0  503  0.18635530358E+03  0.63241043171E+03 -0.14506836661E+03  0.67506746648E+03  0.00000000000E+00 0. -1.
<mgrwt>
<rscale>  0 0.16519591E+04</rscale>
<asrwt>0</asrwt>
<pdfrwt beam="1">  1        1 0.11497562E+00 0.16519591E+04</pdfrwt>
<pdfrwt beam="2">  1       -2 0.14044494E+00 0.16519591E+04</pdfrwt>
<totfact> 0.73380539E+00</totfact>
</mgrwt>
</event>
<event>
12    5  0.5264288E-008  0.1259879E+04  0.7818608E-02  0.9062001E-01
          1   -1    0    0  501    0  0.00000000000E+00  0.00000000000E+00  0.10018068342E+04  0.10018068342E+04  0.00000000000E+00 0. -1.
         -2   -1    0    0    0  501 -0.00000000000E+00 -0.00000000000E+00 -0.39610811988E+03  0.39610811988E+03  0.00000000000E+00 0.  1.
        -24    2    1    2    0    0 -0.25948269597E+03 -0.68790985412E+02  0.11206941452E+03  0.30158306680E+03  0.79557044480E+02 0.  0.
        254    2    1    2    0    0  0.25948269597E+03  0.68790985412E+02  0.49362929978E+03  0.10963318873E+04  0.94138740817E+03 0.  0.
         23    2    4    4    0    0  0.20713449377E+03 -0.20260130663E+03 -0.18664204539E+03  0.35652504726E+03  0.91229755347E+02 0.  0.
         23    2    4    4    0    0  0.52348202200E+02  0.27139229204E+03  0.68027134517E+03  0.73980684000E+03  0.90282595252E+02 0.  0.
          3    1    3    3  502    0 -0.55405238890E+02  0.17312674759E+02  0.16499276194E+02  0.60346460697E+02  0.00000000000E+00 0. -1.
         -4    1    3    3    0  502 -0.20407745708E+03 -0.86103660171E+02  0.95570138331E+02  0.24123660610E+03  0.00000000000E+00 0.  1.
         13    1    5    5    0    0 -0.74673075640E+01 -0.21704038873E+02 -0.17060933108E+02  0.28598975929E+02  0.00000000000E+00 0. -1.
        -13    1    5    5    0    0  0.21460180133E+03 -0.18089726776E+03 -0.16958111228E+03  0.32792607133E+03  0.00000000000E+00 0.  1.
          1    1    6    6  503    0 -0.13730966140E+02  0.21036872186E+02  0.11993556934E+03  0.12253828061E+03  0.00000000000E+00 0. -1.
         -1    1    6    6    0  503  0.66079168341E+02  0.25035541985E+03  0.56033577583E+03  0.61726855939E+03  0.00000000000E+00 0.  1.
<mgrwt>
<rscale>  0 0.12598791E+04</rscale>
<asrwt>0</asrwt>
<pdfrwt beam="1">  1        1 0.15412413E+00 0.12598791E+04</pdfrwt>
<pdfrwt beam="2">  1       -2 0.60939711E-01 0.12598791E+04</pdfrwt>
<totfact> 0.32653158E+01</totfact>
</mgrwt>
</event>
<event>
12    5  0.5264288E-008  0.3411268E+04  0.7818608E-02  0.8135146E-01
          1   -1    0    0  501    0  0.00000000000E+00  0.00000000000E+00  0.14981948104E+04  0.14981948104E+04  0.00000000000E+00 0. -1.
         -2   -1    0    0    0  501 -0.00000000000E+00 -0.00000000000E+00 -0.19417951276E+04  0.19417951276E+04  0.00000000000E+00 0.  1.
        -24    2    1    2    0    0  0.84690629346E+03  0.16420120896E+02 -0.15780832357E+04  0.17928324147E+04  0.79884154373E+02 0.  0.
        254    2    1    2    0    0 -0.84690629346E+03 -0.16420120896E+02  0.11344829185E+04  0.16471575234E+04  0.84175799630E+03 0.  0.
         23    2    4    4    0    0 -0.66930391342E+03  0.10986724451E+03  0.24525731208E+03  0.72696980384E+03  0.91079122890E+02 0.  0.
         23    2    4    4    0    0 -0.17760238004E+03 -0.12628736540E+03  0.88922560638E+03  0.92018771956E+03  0.92369671048E+02 0.  0.
          3    1    3    3  502    0  0.41308716832E+03 -0.27252509521E+02 -0.72913500191E+03  0.83846380895E+03  0.00000000000E+00 0. -1.
         -4    1    3    3    0  502  0.43381912514E+03  0.43672630417E+02 -0.84894823376E+03  0.95436860572E+03  0.00000000000E+00 0.  1.
         13    1    5    5    0    0 -0.21979358661E+03  0.47726258093E+02  0.12587718119E+03  0.25774421656E+03  0.00000000000E+00 0. -1.
        -13    1    5    5    0    0 -0.44951032681E+03  0.62140986412E+02  0.11938013089E+03  0.46922558728E+03  0.00000000000E+00 0.  1.
          2    1    6    6  503    0 -0.44260701853E+02 -0.74725022270E+02  0.44924531405E+03  0.45756331898E+03  0.00000000000E+00 0. -1.
         -2    1    6    6    0  503 -0.13334167818E+03 -0.51562343131E+02  0.43998029234E+03  0.46262440058E+03  0.00000000000E+00 0.  1.
<mgrwt>
<rscale>  0 0.34112680E+04</rscale>
<asrwt>0</asrwt>
<pdfrwt beam="1">  1        1 0.23049151E+00 0.34112680E+04</pdfrwt>
<pdfrwt beam="2">  1       -2 0.29873771E+00 0.34112680E+04</pdfrwt>
<totfact> 0.15321713E-01</totfact>
</mgrwt>
</event>
<event>
12    5  0.5264288E-008  0.2124743E+04  0.7818608E-02  0.8550422E-01
          1   -1    0    0  501    0  0.00000000000E+00  0.00000000000E+00  0.11117440217E+04  0.11117440217E+04  0.00000000000E+00 0. -1.
         -2   -1    0    0    0  501 -0.00000000000E+00 -0.00000000000E+00 -0.10151913705E+04  0.10151913705E+04  0.00000000000E+00 0.  1.
        -24    2    1    2    0    0  0.66255364679E+03 -0.41054215768E+03  0.44663697068E+03  0.90035180727E+03  0.60221218487E+02 0.  0.
        254    2    1    2    0    0 -0.66255364679E+03  0.41054215768E+03 -0.35008431948E+03  0.12265835849E+04  0.88001480770E+03 0.  0.
         23    2    4    4    0    0 -0.39369076837E+03  0.25604580182E+03  0.25415065608E+03  0.54155635002E+03  0.90215578060E+02 0.  0.
         23    2    4    4    0    0 -0.26886287842E+03  0.15449635585E+03 -0.60423497557E+03  0.68502723483E+03  0.89476451637E+02 0.  0.
          3    1    3    3  502    0  0.76927878750E+02 -0.29983620965E+02  0.59964037813E+02  0.10204215740E+03  0.00000000000E+00 0. -1.
         -4    1    3    3    0  502  0.58562576804E+03 -0.38055853671E+03  0.38667293287E+03  0.79830964987E+03  0.00000000000E+00 0.  1.
         13    1    5    5    0    0 -0.39594085263E+03  0.25934288780E+03  0.25475328011E+03  0.53751941915E+03  0.00000000000E+00 0. -1.
        -13    1    5    5    0    0  0.22500842593E+01 -0.32970859765E+01 -0.60262403044E+00  0.40369308680E+01  0.00000000000E+00 0.  1.
          3    1    6    6  503    0 -0.17177722720E+03  0.14387625489E+03 -0.44494385873E+03  0.49817951577E+03  0.00000000000E+00 0. -1.
         -3    1    6    6    0  503 -0.97085651218E+02  0.10620100962E+02 -0.15929111684E+03  0.18684771907E+03  0.00000000000E+00 0.  1.
<mgrwt>
<rscale>  0 0.21247427E+04</rscale>
<asrwt>0</asrwt>
<pdfrwt beam="1">  1        1 0.17103754E+00 0.21247427E+04</pdfrwt>
<pdfrwt beam="2">  1       -2 0.15618329E+00 0.21247427E+04</pdfrwt>
<totfact> 0.26890885E+00</totfact>
</mgrwt>
</event>
<event>
12    5  0.5264288E-008  0.1396145E+04  0.7818608E-02  0.8956613E-01
          1   -1    0    0  501    0  0.00000000000E+00  0.00000000000E+00  0.12822928007E+04  0.12822928007E+04  0.00000000000E+00 0. -1.
         -2   -1    0    0    0  501 -0.00000000000E+00 -0.00000000000E+00 -0.38002674377E+03  0.38002674377E+03  0.00000000000E+00 0.  1.
        -24    2    1    2    0    0  0.13201662965E+03  0.38785404526E+03  0.45552533543E+02  0.41918410644E+03  0.76033748076E+02 0.  0.
        254    2    1    2    0    0 -0.13201662965E+03 -0.38785404526E+03  0.85671352337E+03  0.12431354380E+04  0.80222721545E+03 0.  0.
         23    2    4    4    0    0 -0.16669062147E+03 -0.59250532253E+03  0.41906594838E+03  0.75038814221E+03  0.92831968427E+02 0.  0.
         23    2    4    4    0    0  0.34673991819E+02  0.20465127727E+03  0.43764757499E+03  0.49274729581E+03  0.90443720844E+02 0.  0.
          3    1    3    3  502    0  0.99873783866E+02  0.32732613017E+03  0.64123132623E+02  0.34817947145E+03  0.00000000000E+00 0. -1.
         -4    1    3    3    0  502  0.32142845787E+02  0.60527915089E+02 -0.18570599080E+02  0.71004634993E+02  0.00000000000E+00 0.  1.
         13    1    5    5    0    0 -0.34738720905E+02 -0.83855235044E+02  0.26807484026E+02  0.94642064508E+02  0.00000000000E+00 0. -1.
        -13    1    5    5    0    0 -0.13195190057E+03 -0.50865008749E+03  0.39225846435E+03  0.65574607770E+03  0.00000000000E+00 0.  1.
          2    1    6    6  503    0 -0.26366073603E+02  0.85159816344E+02  0.13614657632E+03  0.16273676414E+03  0.00000000000E+00 0. -1.
         -2    1    6    6    0  503  0.61040065422E+02  0.11949146092E+03  0.30150099867E+03  0.33001053167E+03  0.00000000000E+00 0.  1.
<mgrwt>
<rscale>  0 0.13961455E+04</rscale>
<asrwt>0</asrwt>
<pdfrwt beam="1">  1        1 0.19727581E+00 0.13961455E+04</pdfrwt>
<pdfrwt beam="2">  1       -2 0.58465654E-01 0.13961455E+04</pdfrwt>
<totfact> 0.21797827E+01</totfact>
</mgrwt>
</event>
<event>
12    5  0.5264288E-008  0.1858435E+04  0.7818608E-02  0.8675827E-01
          1   -1    0    0  501    0  0.00000000000E+00  0.00000000000E+00  0.87978383332E+03  0.87978383332E+03  0.00000000000E+00 0. -1.
         -2   -1    0    0    0  501 -0.00000000000E+00 -0.00000000000E+00 -0.98142908152E+03  0.98142908152E+03  0.00000000000E+00 0.  1.
        -24    2    1    2    0    0  0.30191408455E+03 -0.32663778671E+03  0.51106004695E+03  0.68228819733E+03  0.80563356840E+02 0.  0.
        254    2    1    2    0    0 -0.30191408455E+03  0.32663778671E+03 -0.61270529514E+03  0.11789247175E+04  0.90366550931E+03 0.  0.
         23    2    4    4    0    0 -0.19891687222E+03  0.57275722648E+03 -0.65018044319E+03  0.89364217362E+03  0.90790766136E+02 0.  0.
         23    2    4    4    0    0 -0.10299721233E+03 -0.24611943977E+03  0.37475148045E+02  0.28528254390E+03  0.93800526394E+02 0.  0.
          3    1    3    3  502    0  0.18055615607E+03 -0.25042909815E+03  0.34873020072E+03  0.46575531300E+03  0.00000000000E+00 0. -1.
         -4    1    3    3    0  502  0.12135792848E+03 -0.76208688564E+02  0.16232984623E+03  0.21653288433E+03  0.00000000000E+00 0.  1.
         13    1    5    5    0    0 -0.16302412859E+03  0.36976632063E+03 -0.47014546044E+03  0.61995221779E+03  0.00000000000E+00 0. -1.
        -13    1    5    5    0    0 -0.35892743627E+02  0.20299090585E+03 -0.18003498275E+03  0.27368995582E+03  0.00000000000E+00 0.  1.
          2    1    6    6  503    0 -0.32060164328E+02 -0.18088951581E+03  0.43282621456E+02  0.18873859274E+03  0.00000000000E+00 0. -1.
         -2    1    6    6    0  503 -0.70937048002E+02 -0.65229923956E+02 -0.58074734104E+01  0.96543951162E+02  0.00000000000E+00 0.  1.
<mgrwt>
<rscale>  0 0.18584353E+04</rscale>
<asrwt>0</asrwt>
<pdfrwt beam="1">  1        1 0.13535136E+00 0.18584353E+04</pdfrwt>
<pdfrwt beam="2">  1       -2 0.15098909E+00 0.18584353E+04</pdfrwt>
<totfact> 0.45797408E+00</totfact>
</mgrwt>
</event>
<event>
12    5  0.5264288E-008  0.2761523E+04  0.7818608E-02  0.8315314E-01
         -2   -1    0    0    0  501 -0.00000000000E+00  0.00000000000E+00  0.11194897457E+04  0.11194897457E+04  0.00000000000E+00 0.  1.
          1   -1    0    0  501    0  0.00000000000E+00 -0.00000000000E+00 -0.17030102723E+04  0.17030102723E+04  0.00000000000E+00 0. -1.
        -24    2    1    2    0    0 -0.84046599742E+03  0.87823679944E+02  0.64571814457E+03  0.10663914726E+04  0.78375755200E+02 0.  0.
        254    2    1    2    0    0  0.84046599742E+03 -0.87823679944E+02 -0.12292386711E+04  0.17561085454E+04  0.92671107755E+03 0.  0.
         23    2    4    4    0    0  0.25486124569E+03  0.21222532812E+03  0.16223441294E+02  0.34452969205E+03  0.91889412913E+02 0.  0.
         23    2    4    4    0    0  0.58560475173E+03 -0.30004900806E+03 -0.12454621124E+04  0.14115788534E+04  0.91742320980E+02 0.  0.
          1    1    3    3  502    0 -0.98431207772E+02  0.27524205772E+02  0.10288852969E+03  0.14502528783E+03  0.00000000000E+00 0. -1.
         -2    1    3    3    0  502 -0.74203478965E+03  0.60299474171E+02  0.54282961487E+03  0.92136618476E+03  0.00000000000E+00 0.  1.
         13    1    5    5    0    0  0.25789182508E+03  0.21217726945E+03  0.61538810517E+01  0.33401385805E+03  0.00000000000E+00 0. -1.
        -13    1    5    5    0    0 -0.30305793961E+01  0.48058662656E-01  0.10069560243E+02  0.10515833994E+02  0.00000000000E+00 0.  1.
          1    1    6    6  503    0  0.35969577808E+03 -0.22547721745E+03 -0.84888337335E+03  0.94911749004E+03  0.00000000000E+00 0. -1.
         -1    1    6    6    0  503  0.22590897365E+03 -0.74571790608E+02 -0.39657873902E+03  0.46246136333E+03  0.00000000000E+00 0.  1.
<mgrwt>
<rscale>  0 0.27615232E+04</rscale>
<asrwt>0</asrwt>
<pdfrwt beam="1">  1        1 0.26200158E+00 0.27615232E+04</pdfrwt>
<pdfrwt beam="2">  1       -2 0.17222919E+00 0.27615232E+04</pdfrwt>
<totfact> 0.74394961E-01</totfact>
</mgrwt>
</event>
<event>
12    5  0.5264288E-008  0.1835404E+04  0.7818608E-02  0.8687696E-01
         -2   -1    0    0    0  501 -0.00000000000E+00  0.00000000000E+00  0.12356107567E+04  0.12356107567E+04  0.00000000000E+00 0.  1.
          1   -1    0    0  501    0  0.00000000000E+00 -0.00000000000E+00 -0.68158739454E+03  0.68158739454E+03  0.00000000000E+00 0. -1.
        -24    2    1    2    0    0  0.12040236437E+03 -0.30275038584E+03  0.85028804876E+03  0.91401954063E+03  0.79293311915E+02 0.  0.
        254    2    1    2    0    0 -0.12040236437E+03  0.30275038584E+03 -0.29626468661E+03  0.10031786106E+04  0.90135455551E+03 0.  0.
         23    2    4    4    0    0 -0.13306679107E+02 -0.92222713771E+02 -0.51325081657E+03  0.52951050897E+03  0.90955383337E+02 0.  0.
         23    2    4    4    0    0 -0.10709568527E+03  0.39497309961E+03  0.21698612996E+03  0.47366810162E+03  0.99021485953E+02 0.  0.
          3    1    3    3  502    0  0.45361642033E+02 -0.58831257384E+02  0.12829820598E+03  0.14825392093E+03  0.00000000000E+00 0. -1.
         -4    1    3    3    0  502  0.75040722339E+02 -0.24391912846E+03  0.72198984278E+03  0.76576561970E+03  0.00000000000E+00 0.  1.
         13    1    5    5    0    0 -0.38763017010E+02 -0.70400654469E+01 -0.20226168968E+03  0.20606291545E+03  0.00000000000E+00 0. -1.
        -13    1    5    5    0    0  0.25456337903E+02 -0.85182648324E+02 -0.31098912688E+03  0.32344759352E+03  0.00000000000E+00 0.  1.
          2    1    6    6  503    0 -0.38583481375E+02  0.27862053488E+02  0.25125672575E+02  0.53817083551E+02  0.00000000000E+00 0. -1.
         -2    1    6    6    0  503 -0.68512203890E+02  0.36711104613E+03  0.19186045738E+03  0.41985101807E+03  0.00000000000E+00 0.  1.
<mgrwt>
<rscale>  0 0.18354037E+04</rscale>
<asrwt>0</asrwt>
<pdfrwt beam="1">  1        1 0.10485960E+00 0.18354037E+04</pdfrwt>
<pdfrwt beam="2">  1       -2 0.19009396E+00 0.18354037E+04</pdfrwt>
<totfact> 0.36146417E+00</totfact>
</mgrwt>
</event>
<event>
12    5  0.5264288E-008  0.1754357E+04  0.7818608E-02  0.8730956E-01
          3   -1    0    0  501    0  0.00000000000E+00  0.00000000000E+00  0.13875066571E+04  0.13875066571E+04  0.00000000000E+00 0. -1.
         -4   -1    0    0    0  501 -0.00000000000E+00 -0.00000000000E+00 -0.55454992284E+03  0.55454992284E+03  0.00000000000E+00 0.  1.
        -24    2    1    2    0    0  0.37824200979E+03  0.28286037897E+01 -0.26801563741E+03  0.46765919850E+03  0.61625685225E+02 0.  0.
        254    2    1    2    0    0 -0.37824200979E+03 -0.28286037897E+01  0.11009723717E+04  0.14743973814E+04  0.90478309899E+03 0.  0.
         23    2    4    4    0    0 -0.87375818354E+02  0.42954644521E+03  0.44269822296E+03  0.62984032563E+03  0.92587455645E+02 0.  0.
         23    2    4    4    0    0 -0.29086619143E+03 -0.43237504900E+03  0.65827414870E+03  0.84455705579E+03  0.91653921508E+02 0.  0.
          3    1    3    3  502    0  0.24495903941E+02  0.15271858507E+02 -0.14737156928E+02  0.32410843347E+02  0.00000000000E+00 0. -1.
         -4    1    3    3    0  502  0.35374610585E+03 -0.12443254717E+02 -0.25327848048E+03  0.43524835516E+03  0.00000000000E+00 0.  1.
         13    1    5    5    0    0 -0.60315370141E+02  0.34528939545E+03  0.29725753041E+03  0.45959193843E+03  0.00000000000E+00 0. -1.
        -13    1    5    5    0    0 -0.27060448213E+02  0.84257049764E+02  0.14544069256E+03  0.17024838720E+03  0.00000000000E+00 0.  1.
          3    1    6    6  503    0 -0.20002701792E+03 -0.27781434392E+03  0.49650235586E+03  0.60308059740E+03  0.00000000000E+00 0. -1.
         -3    1    6    6    0  503 -0.90839173517E+02 -0.15456070508E+03  0.16177179283E+03  0.24147645839E+03  0.00000000000E+00 0.  1.
<mgrwt>
<rscale>  0 0.17543565E+04</rscale>
<asrwt>0</asrwt>
<pdfrwt beam="1">  1        3 0.21346256E+00 0.17543565E+04</pdfrwt>
<pdfrwt beam="2">  1       -4 0.85315373E-01 0.17543565E+04</pdfrwt>
<totfact> 0.31611154E-01</totfact>
</mgrwt>
</event>
<event>
12    5  0.5264288E-008  0.1402785E+04  0.7818608E-02  0.8951805E-01
         -2   -1    0    0    0  501 -0.00000000000E+00  0.00000000000E+00  0.25245461025E+03  0.25245461025E+03  0.00000000000E+00 0.  1.
          1   -1    0    0  501    0  0.00000000000E+00 -0.00000000000E+00 -0.19486729633E+04  0.19486729633E+04  0.00000000000E+00 0. -1.
        -24    2    1    2    0    0  0.21696674793E+03  0.36397389019E+03 -0.49873440588E+03  0.65925992189E+03  0.79599463309E+02 0.  0.
        254    2    1    2    0    0 -0.21696674793E+03 -0.36397389019E+03 -0.11974839472E+04  0.15418676517E+04  0.87397739617E+03 0.  0.
         23    2    4    4    0    0 -0.53848179083E+02  0.16871247621E+03 -0.86340832718E+03  0.88603861995E+03  0.90702649222E+02 0.  0.
         23    2    4    4    0    0 -0.16311856885E+03 -0.53268636640E+03 -0.33407561999E+03  0.65582903170E+03  0.90237278894E+02 0.  0.
          1    1    3    3  502    0  0.64880437657E+02  0.15481171599E+03 -0.15009877932E+03  0.22517944434E+03  0.00000000000E+00 0. -1.
         -2    1    3    3    0  502  0.15208631027E+03  0.20916217419E+03 -0.34863562655E+03  0.43408047755E+03  0.00000000000E+00 0.  1.
         13    1    5    5    0    0 -0.17057610427E+02  0.14452431241E+03 -0.75733227026E+03  0.77118765973E+03  0.00000000000E+00 0. -1.
        -13    1    5    5    0    0 -0.36790568656E+02  0.24188163803E+02 -0.10607605692E+03  0.11485096022E+03  0.00000000000E+00 0.  1.
          3    1    6    6  503    0 -0.12850524117E+03 -0.26671970640E+03 -0.16941078319E+03  0.34110557347E+03  0.00000000000E+00 0. -1.
         -3    1    6    6    0  503 -0.34613327674E+02 -0.26596666000E+03 -0.16466483680E+03  0.31472345823E+03  0.00000000000E+00 0.  1.
<mgrwt>
<rscale>  0 0.14027850E+04</rscale>
<asrwt>0</asrwt>
<pdfrwt beam="1">  1        1 0.29979584E+00 0.14027850E+04</pdfrwt>
<pdfrwt beam="2">  1       -2 0.38839171E-01 0.14027850E+04</pdfrwt>
<totfact> 0.17323709E+01</totfact>
</mgrwt>
</event>
<event>
12    5  0.5264288E-008  0.1409439E+04  0.7818608E-02  0.8947014E-01
          3   -1    0    0  501    0  0.00000000000E+00  0.00000000000E+00  0.17427102130E+04  0.17427102130E+04  0.00000000000E+00 0. -1.
         -4   -1    0    0    0  501 -0.00000000000E+00 -0.00000000000E+00 -0.28497552954E+03  0.28497552954E+03  0.00000000000E+00 0.  1.
        -24    2    1    2    0    0 -0.33857296715E+03 -0.15552209461E+03  0.61156347879E+03  0.72085562768E+03  0.82487401272E+02 0.  0.
        254    2    1    2    0    0  0.33857296715E+03  0.15552209461E+03  0.84617120469E+03  0.13068301149E+04  0.92356941564E+03 0.  0.
         23    2    4    4    0    0  0.22327613611E+03  0.53513826802E+03  0.51729654321E+03  0.78317974831E+03  0.97722083928E+02 0.  0.
         23    2    4    4    0    0  0.11529683104E+03 -0.37961617341E+03  0.32887466148E+03  0.52365036657E+03  0.93001962754E+02 0.  0.
          1    1    3    3  502    0 -0.24435058856E+03 -0.72578647526E+02  0.43572135246E+03  0.50480488032E+03  0.00000000000E+00 0. -1.
         -2    1    3    3    0  502 -0.94222378586E+02 -0.82943447081E+02  0.17584212633E+03  0.21605074735E+03  0.00000000000E+00 0.  1.
         13    1    5    5    0    0  0.70483028963E+02  0.23130317502E+03  0.27147832017E+03  0.36355122675E+03  0.00000000000E+00 0.  1.
        -13    1    5    5    0    0  0.15279310714E+03  0.30383509300E+03  0.24581822304E+03  0.41962852156E+03  0.00000000000E+00 0. -1.
          1    1    6    6  503    0  0.11159966298E+03 -0.37133440014E+03  0.33523875618E+03  0.51257072210E+03  0.00000000000E+00 0. -1.
         -1    1    6    6    0  503  0.36971680608E+01 -0.82817732715E+01 -0.63640947008E+01  0.11079644469E+02  0.00000000000E+00 0.  1.
<mgrwt>
<rscale>  0 0.14094393E+04</rscale>
<asrwt>0</asrwt>
<pdfrwt beam="1">  1        3 0.26810926E+00 0.14094393E+04</pdfrwt>
<pdfrwt beam="2">  1       -4 0.43842390E-01 0.14094393E+04</pdfrwt>
<totfact> 0.66019299E-01</totfact>
</mgrwt>
</event>
<event>
12    5  0.5264288E-008  0.4988194E+04  0.7818608E-02  0.7830331E-01
         -2   -1    0    0    0  501 -0.00000000000E+00  0.00000000000E+00  0.41323561488E+04  0.41323561488E+04  0.00000000000E+00 0.  1.
          1   -1    0    0  501    0  0.00000000000E+00 -0.00000000000E+00 -0.15053203628E+04  0.15053203628E+04  0.00000000000E+00 0. -1.
        -24    2    1    2    0    0 -0.22014704455E+04  0.25505937315E+03  0.19069753408E+03  0.22257802859E+04  0.78771350222E+02 0.  0.
        254    2    1    2    0    0  0.22014704455E+04 -0.25505937315E+03  0.24363382520E+04  0.34118962257E+04  0.89093454884E+03 0.  0.
         23    2    4    4    0    0  0.10636111136E+04 -0.46122379614E+03  0.16172923446E+04  0.19918896763E+04  0.89408966854E+02 0.  0.
         23    2    4    4    0    0  0.11378593319E+04  0.20616442299E+03  0.81904590736E+03  0.14200065494E+04  0.91404449797E+02 0.  0.
          3    1    3    3  502    0 -0.20068558814E+03  0.15691142398E+02 -0.40488507511E+01  0.20133879514E+03  0.00000000000E+00 0. -1.
         -4    1    3    3    0  502 -0.20007848573E+04  0.23936823075E+03  0.19474638483E+03  0.20244414908E+04  0.00000000000E+00 0.  1.
         13    1    5    5    0    0  0.32328734282E+03 -0.17045933650E+03  0.45726102599E+03  0.58537059827E+03  0.00000000000E+00 0. -1.
        -13    1    5    5    0    0  0.74032377079E+03 -0.29076445964E+03  0.11600313186E+04  0.14065190780E+04  0.00000000000E+00 0.  1.
          2    1    6    6  503    0  0.72576015689E+03  0.86674096405E+02  0.51480973275E+03  0.89401860453E+03  0.00000000000E+00 0. -1.
         -2    1    6    6    0  503  0.41209917499E+03  0.11949032658E+03  0.30423617462E+03  0.52598794485E+03  0.00000000000E+00 0.  1.
<mgrwt>
<rscale>  0 0.49881940E+04</rscale>
<asrwt>0</asrwt>
<pdfrwt beam="1">  1        1 0.23158775E+00 0.49881940E+04</pdfrwt>
<pdfrwt beam="2">  1       -2 0.63574710E+00 0.49881940E+04</pdfrwt>
<totfact> 0.15592898E-03</totfact>
</mgrwt>
</event>
<event>
12    5  0.5264288E-008  0.3164958E+04  0.7818608E-02  0.8198133E-01
         -2   -1    0    0    0  501 -0.00000000000E+00  0.00000000000E+00  0.30572750125E+04  0.30572750125E+04  0.00000000000E+00 0.  1.
          1   -1    0    0  501    0  0.00000000000E+00 -0.00000000000E+00 -0.81910846131E+03  0.81910846131E+03  0.00000000000E+00 0. -1.
        -24    2    1    2    0    0  0.10613441808E+03 -0.90788656393E+03 -0.35654365728E+03  0.98480018999E+03  0.84767369914E+02 0.  0.
        254    2    1    2    0    0 -0.10613441808E+03  0.90788656393E+03  0.25947102085E+04  0.28915832838E+04  0.89062354206E+03 0.  0.
         23    2    4    4    0    0 -0.43034335867E+03  0.56364777998E+03  0.20147172254E+04  0.21377349595E+04  0.89056346238E+02 0.  0.
         23    2    4    4    0    0  0.32420894059E+03  0.34423878395E+03  0.57999298311E+03  0.75384832429E+03  0.91014603487E+02 0.  0.
          3    1    3    3  502    0  0.11201468990E+03 -0.90376783819E+03 -0.35224469681E+03  0.97643224165E+03  0.00000000000E+00 0. -1.
         -4    1    3    3    0  502 -0.58802718191E+01 -0.41187257384E+01 -0.42989604744E+01  0.83679483468E+01  0.00000000000E+00 0.  1.
         13    1    5    5    0    0 -0.30074407788E+03  0.45305575640E+03  0.14972022643E+04  0.15928970899E+04  0.00000000000E+00 0. -1.
        -13    1    5    5    0    0 -0.12959928079E+03  0.11059202358E+03  0.51751496111E+03  0.54483786967E+03  0.00000000000E+00 0.  1.
          1    1    6    6  503    0  0.54222237703E+02  0.15979310011E+02  0.67489297386E+02  0.88035189961E+02  0.00000000000E+00 0. -1.
         -1    1    6    6    0  503  0.26998670288E+03  0.32825947394E+03  0.51250368572E+03  0.66581313433E+03  0.00000000000E+00 0.  1.
<mgrwt>
<rscale>  0 0.31649580E+04</rscale>
<asrwt>0</asrwt>
<pdfrwt beam="1">  1        1 0.12601669E+00 0.31649580E+04</pdfrwt>
<pdfrwt beam="2">  1       -2 0.47035000E+00 0.31649580E+04</pdfrwt>
<totfact> 0.39888117E-02</totfact>
</mgrwt>
</event>
<event>
12    5  0.5264288E-008  0.1448261E+04  0.7818608E-02  0.8919607E-01
         -2   -1    0    0    0  501 -0.00000000000E+00  0.00000000000E+00  0.68752680091E+03  0.68752680091E+03  0.00000000000E+00 0.  1.
          1   -1    0    0  501    0  0.00000000000E+00 -0.00000000000E+00 -0.76268348530E+03  0.76268348530E+03  0.00000000000E+00 0. -1.
        -24    2    1    2    0    0 -0.36500405124E+03  0.58452978404E+02 -0.26150869195E+03  0.45980084441E+03  0.79908150104E+02 0.  0.
        254    2    1    2    0    0  0.36500405124E+03 -0.58452978404E+02  0.18635200756E+03  0.99040944180E+03  0.89974389889E+03 0.  0.
         23    2    4    4    0    0  0.34158296587E+03 -0.10158466377E+02 -0.31756805471E+03  0.47554071309E+03  0.92235478132E+02 0.  0.
         23    2    4    4    0    0  0.23421085369E+02 -0.48294512027E+02  0.50392006228E+03  0.51486872871E+03  0.90958625236E+02 0.  0.
          3    1    3    3  502    0 -0.19910832047E+03  0.45021382346E+02 -0.18921228555E+03  0.27833852977E+03  0.00000000000E+00 0. -1.
         -4    1    3    3    0  502 -0.16589573076E+03  0.13431596058E+02 -0.72296406403E+02  0.18146231465E+03  0.00000000000E+00 0.  1.
         13    1    5    5    0    0  0.13220741896E+03  0.29187197141E+02 -0.16534581602E+03  0.21370524790E+03  0.00000000000E+00 0.  1.
        -13    1    5    5    0    0  0.20937554691E+03 -0.39345663518E+02 -0.15222223870E+03  0.26183546520E+03  0.00000000000E+00 0. -1.
          4    1    6    6  503    0  0.77791390325E+01  0.16180311207E+02  0.29766247321E+03  0.29820339608E+03  0.00000000000E+00 0. -1.
         -4    1    6    6    0  503  0.15641946336E+02 -0.64474823234E+02  0.20625758907E+03  0.21666533263E+03  0.00000000000E+00 0.  1.
<mgrwt>
<rscale>  0 0.14482615E+04</rscale>
<asrwt>0</asrwt>
<pdfrwt beam="1">  1        1 0.11733592E+00 0.14482615E+04</pdfrwt>
<pdfrwt beam="2">  1       -2 0.10577335E+00 0.14482615E+04</pdfrwt>
<totfact> 0.14658980E+01</totfact>
</mgrwt>
</event>
<event>
12    5  0.5264288E-008  0.1829536E+04  0.7818608E-02  0.8690748E-01
         -2   -1    0    0    0  501 -0.00000000000E+00  0.00000000000E+00  0.42119177719E+03  0.42119177719E+03  0.00000000000E+00 0.  1.
          1   -1    0    0  501    0  0.00000000000E+00 -0.00000000000E+00 -0.19867456317E+04  0.19867456317E+04  0.00000000000E+00 0. -1.
        -24    2    1    2    0    0 -0.10162998289E+03 -0.94168714718E+02  0.29495330032E+03  0.33575174435E+03  0.80841723176E+02 0.  0.
        254    2    1    2    0    0  0.10162998289E+03  0.94168714718E+02 -0.18605071549E+04  0.20721856646E+04  0.90181492276E+03 0.  0.
         23    2    4    4    0    0 -0.10430094367E+03  0.18131276205E+03 -0.35478479333E+02  0.23130051163E+03  0.92131425968E+02 0.  0.
         23    2    4    4    0    0  0.20593092656E+03 -0.87144047331E+02 -0.18250286755E+04  0.18408851530E+04  0.90149033997E+02 0.  0.
          1    1    3    3  502    0 -0.17874332726E+02  0.82606355297E+01  0.87555150043E+02  0.89742042371E+02  0.00000000000E+00 0. -1.
         -2    1    3    3    0  502 -0.83755650168E+02 -0.10242935025E+03  0.20739815028E+03  0.24600970198E+03  0.00000000000E+00 0.  1.
         13    1    5    5    0    0 -0.73269690544E+01  0.10179057698E+03 -0.27204290268E+02  0.10561760954E+03  0.00000000000E+00 0. -1.
        -13    1    5    5    0    0 -0.96973974615E+02  0.79522185072E+02 -0.82741890646E+01  0.12568290208E+03  0.00000000000E+00 0.  1.
          1    1    6    6  503    0  0.54327465950E+02 -0.34627956358E+02 -0.87812783919E+03  0.88048797316E+03  0.00000000000E+00 0. -1.
         -1    1    6    6    0  503  0.15160346061E+03 -0.52516090973E+02 -0.94690083635E+03  0.96039717979E+03  0.00000000000E+00 0.  1.
<mgrwt>
<rscale>  0 0.18295365E+04</rscale>
<asrwt>0</asrwt>
<pdfrwt beam="1">  1        1 0.30565317E+00 0.18295365E+04</pdfrwt>
<pdfrwt beam="2">  1       -2 0.64798736E-01 0.18295365E+04</pdfrwt>
<totfact> 0.55265942E+00</totfact>
</mgrwt>
</event>
<event>
12    5  0.5264288E-008  0.2618917E+04  0.7818608E-02  0.8361804E-01
         -4   -1    0    0    0  501 -0.00000000000E+00  0.00000000000E+00  0.19207400855E+04  0.19207400855E+04  0.00000000000E+00 0.  1.
          3   -1    0    0  501    0  0.00000000000E+00 -0.00000000000E+00 -0.89271935423E+03  0.89271935423E+03  0.00000000000E+00 0. -1.
        -24    2    1    2    0    0 -0.62145895539E+03 -0.83935102843E+03 -0.71974503522E+02  0.10501030533E+04  0.82551264823E+02 0.  0.
        254    2    1    2    0    0  0.62145895539E+03  0.83935102843E+03  0.10999952348E+04  0.17633563864E+04  0.89928574253E+03 0.  0.
         23    2    4    4    0    0  0.35152727417E+03  0.41959887574E+03  0.11265398616E+04  0.12558851867E+04  0.92308728980E+02 0.  0.
         23    2    4    4    0    0  0.26993168122E+03  0.41975215269E+03 -0.26544626791E+02  0.50747119969E+03  0.88132962541E+02 0.  0.
          3    1    3    3  502    0 -0.31705095721E+03 -0.43763764874E+03 -0.78197652694E+02  0.54604294149E+03  0.00000000000E+00 0. -1.
         -4    1    3    3    0  502 -0.30440799819E+03 -0.40171337969E+03  0.62231491724E+01  0.50406011186E+03  0.00000000000E+00 0.  1.
         13    1    5    5    0    0  0.26591003190E+03  0.24991285806E+03  0.72735455729E+03  0.81376239389E+03  0.00000000000E+00 0. -1.
        -13    1    5    5    0    0  0.85617242273E+02  0.16968601768E+03  0.39918530431E+03  0.44212279283E+03  0.00000000000E+00 0.  1.
          3    1    6    6  503    0  0.23670238693E+03  0.34228994542E+03  0.83493241927E+01  0.41624528578E+03  0.00000000000E+00 0. -1.
         -3    1    6    6    0  503  0.33229294290E+02  0.77462207267E+02 -0.34893950984E+02  0.91225913911E+02  0.00000000000E+00 0.  1.
<mgrwt>
<rscale>  0 0.26189172E+04</rscale>
<asrwt>0</asrwt>
<pdfrwt beam="1">  1        3 0.13734144E+00 0.26189172E+04</pdfrwt>
<pdfrwt beam="2">  1       -4 0.29549847E+00 0.26189172E+04</pdfrwt>
<totfact> 0.26828459E-02</totfact>
</mgrwt>
</event>
<event>
12    5  0.5264288E-008  0.2086354E+04  0.7818608E-02  0.8567279E-01
          1   -1    0    0  501    0  0.00000000000E+00  0.00000000000E+00  0.20403569494E+04  0.20403569494E+04  0.00000000000E+00 0. -1.
         -2   -1    0    0    0  501 -0.00000000000E+00 -0.00000000000E+00 -0.53334676442E+03  0.53334676442E+03  0.00000000000E+00 0.  1.
        -24    2    1    2    0    0  0.52613011761E+03  0.63213871770E+03  0.35610780254E+03  0.89969218896E+03  0.78873371823E+02 0.  0.
        254    2    1    2    0    0 -0.52613011761E+03 -0.63213871770E+03  0.11509023824E+04  0.16740115248E+04  0.89516815869E+03 0.  0.
         23    2    4    4    0    0  0.12534495908E+03  0.96899989470E+02  0.39294512204E+03  0.43354853771E+03  0.91964661069E+02 0.  0.
         23    2    4    4    0    0 -0.65147507669E+03 -0.72903870717E+03  0.75795726037E+03  0.12404629871E+04  0.91279799340E+02 0.  0.
          1    1    3    3  502    0  0.39232802648E+03  0.42627078244E+03  0.22633415637E+03  0.62197685702E+03  0.00000000000E+00 0. -1.
         -2    1    3    3    0  502  0.13380209112E+03  0.20586793526E+03  0.12977364617E+03  0.27771533194E+03  0.00000000000E+00 0.  1.
         13    1    5    5    0    0 -0.38141005370E+01 -0.91186893567E+01  0.48525771427E+01  0.11011147234E+02  0.00000000000E+00 0.  1.
        -13    1    5    5    0    0  0.12915905962E+03  0.10601867883E+03  0.38809254490E+03  0.42253739047E+03  0.00000000000E+00 0. -1.
          4    1    6    6  503    0 -0.48240220679E+03 -0.58581965406E+03  0.61475092579E+03  0.97663465890E+03  0.00000000000E+00 0. -1.
         -4    1    6    6    0  503 -0.16907286989E+03 -0.14321905311E+03  0.14320633458E+03  0.26382832822E+03  0.00000000000E+00 0.  1.
<mgrwt>
<rscale>  0 0.20863535E+04</rscale>
<asrwt>0</asrwt>
<pdfrwt beam="1">  1        1 0.31390107E+00 0.20863535E+04</pdfrwt>
<pdfrwt beam="2">  1       -2 0.82053349E-01 0.20863535E+04</pdfrwt>
<totfact> 0.29536768E+00</totfact>
</mgrwt>
</event>
<event>
12    5  0.5264288E-008  0.1830244E+04  0.7818608E-02  0.8690379E-01
          1   -1    0    0  501    0  0.00000000000E+00  0.00000000000E+00  0.17576957328E+04  0.17576957328E+04  0.00000000000E+00 0. -1.
         -2   -1    0    0    0  501 -0.00000000000E+00 -0.00000000000E+00 -0.47644672024E+03  0.47644672024E+03  0.00000000000E+00 0.  1.
        -24    2    1    2    0    0  0.28144154732E+03  0.53181822302E+03  0.90567730169E+03  0.10901168475E+04  0.77867834179E+02 0.  0.
        254    2    1    2    0    0 -0.28144154732E+03 -0.53181822302E+03  0.37557171085E+03  0.11440256055E+04  0.89760821581E+03 0.  0.
         23    2    4    4    0    0 -0.55496363322E+03 -0.11610982493E+03  0.19294864312E+03  0.60609429563E+03  0.93032202291E+02 0.  0.
         23    2    4    4    0    0  0.27352208590E+03 -0.41570839808E+03  0.18262306773E+03  0.53793130985E+03  0.91602977753E+02 0.  0.
          3    1    3    3  502    0  0.19361674570E+03  0.43406916543E+03  0.71256558801E+03  0.85653558117E+03  0.00000000000E+00 0. -1.
         -4    1    3    3    0  502  0.87824801611E+02  0.97749057585E+02  0.19311171368E+03  0.23358126637E+03  0.00000000000E+00 0.  1.
         13    1    5    5    0    0 -0.17397762212E+03 -0.66869917487E+02  0.29897572429E+02  0.18876881019E+03  0.00000000000E+00 0. -1.
        -13    1    5    5    0    0 -0.38098601110E+03 -0.49239907447E+02  0.16305107069E+03  0.41732548543E+03  0.00000000000E+00 0.  1.
          2    1    6    6  503    0  0.12154829618E+03 -0.11893894348E+03  0.87271662018E+02  0.19114602683E+03  0.00000000000E+00 0. -1.
         -2    1    6    6    0  503  0.15197378973E+03 -0.29676945460E+03  0.95351405709E+02  0.34678528302E+03  0.00000000000E+00 0.  1.
<mgrwt>
<rscale>  0 0.18302441E+04</rscale>
<asrwt>0</asrwt>
<pdfrwt beam="1">  1        1 0.27041472E+00 0.18302441E+04</pdfrwt>
<pdfrwt beam="2">  1       -2 0.73299497E-01 0.18302441E+04</pdfrwt>
<totfact> 0.60424476E+00</totfact>
</mgrwt>
</event>
<event>
12    5  0.5264288E-008  0.3650565E+04  0.7818608E-02  0.8079006E-01
          1   -1    0    0  501    0  0.00000000000E+00  0.00000000000E+00  0.27360480461E+04  0.27360480461E+04  0.00000000000E+00 0. -1.
         -2   -1    0    0    0  501 -0.00000000000E+00 -0.00000000000E+00 -0.12176891609E+04  0.12176891609E+04  0.00000000000E+00 0.  1.
        -24    2    1    2    0    0  0.42733191599E+03 -0.86084245448E+03  0.22168195243E+04  0.24174952093E+04  0.79573776266E+02 0.  0.
        254    2    1    2    0    0 -0.42733191599E+03  0.86084245448E+03 -0.69846063904E+03  0.15362419977E+04  0.97392500394E+03 0.  0.
         23    2    4    4    0    0  0.18449005046E+03  0.55107235630E+02  0.10880267519E+03  0.23874797869E+03  0.89939919173E+02 0.  0.
         23    2    4    4    0    0 -0.61182196645E+03  0.80573521885E+03 -0.80726331423E+03  0.12974940190E+04  0.91001699379E+02 0.  0.
          3    1    3    3  502    0  0.17998989252E+03 -0.45030331584E+03  0.10952285368E+04  0.11977875377E+04  0.00000000000E+00 0. -1.
         -4    1    3    3    0  502  0.24734202347E+03 -0.41053913864E+03  0.11215909875E+04  0.12197076716E+04  0.00000000000E+00 0.  1.
         13    1    5    5    0    0  0.10410113243E+03 -0.15776335017E+02  0.56464166778E+02  0.11947443513E+03  0.00000000000E+00 0. -1.
        -13    1    5    5    0    0  0.80388918033E+02  0.70883570647E+02  0.52338508413E+02  0.11927354356E+03  0.00000000000E+00 0.  1.
          4    1    6    6  503    0 -0.42412498473E+03  0.59581025648E+03 -0.53842170930E+03  0.90816837725E+03  0.00000000000E+00 0. -1.
         -4    1    6    6    0  503 -0.18769698172E+03  0.20992496237E+03 -0.26884160493E+03  0.38932564174E+03  0.00000000000E+00 0.  1.
<mgrwt>
<rscale>  0 0.36505649E+04</rscale>
<asrwt>0</asrwt>
<pdfrwt beam="1">  1        1 0.42093047E+00 0.36505649E+04</pdfrwt>
<pdfrwt beam="2">  1       -2 0.18733679E+00 0.36505649E+04</pdfrwt>
<totfact> 0.10598354E-01</totfact>
</mgrwt>
</event>
<event>
12    5  0.5264288E-008  0.2161375E+04  0.7818608E-02  0.8534679E-01
          1   -1    0    0  501    0  0.00000000000E+00  0.00000000000E+00  0.10394331858E+04  0.10394331858E+04  0.00000000000E+00 0. -1.
         -2   -1    0    0    0  501 -0.00000000000E+00 -0.00000000000E+00 -0.11235788996E+04  0.11235788996E+04  0.00000000000E+00 0.  1.
        -24    2    1    2    0    0 -0.62948143223E+03 -0.28867436322E+03 -0.59540876128E+03  0.91662441994E+03  0.78159917653E+02 0.  0.
        254    2    1    2    0    0  0.62948143223E+03  0.28867436322E+03  0.51126304744E+03  0.12463876654E+04  0.90139477882E+03 0.  0.
         23    2    4    4    0    0  0.63925535490E+03  0.37543831461E+03  0.69791524085E+03  0.10214356191E+04  0.81508918522E+02 0.  0.
         23    2    4    4    0    0 -0.97739226726E+01 -0.86763951391E+02 -0.18665219341E+03  0.22495204626E+03  0.90226764230E+02 0.  0.
          3    1    3    3  502    0 -0.15113062719E+03 -0.48570731553E+02 -0.17295789025E+03  0.23476374131E+03  0.00000000000E+00 0. -1.
         -4    1    3    3    0  502 -0.47835080504E+03 -0.24010363167E+03 -0.42245087103E+03  0.68186067863E+03  0.00000000000E+00 0.  1.
         13    1    5    5    0    0  0.16925179910E+03  0.12323619054E+03  0.15634311143E+03  0.26129772033E+03  0.00000000000E+00 0.  1.
        -13    1    5    5    0    0  0.47000355580E+03  0.25220212407E+03  0.54157212942E+03  0.76013789882E+03  0.00000000000E+00 0. -1.
          3    1    6    6  503    0 -0.27064957200E+02 -0.14961919254E+02 -0.12493278424E+03  0.12870342464E+03  0.00000000000E+00 0. -1.
         -3    1    6    6    0  503  0.17291034528E+02 -0.71802032137E+02 -0.61719409169E+02  0.96248621612E+02  0.00000000000E+00 0.  1.
<mgrwt>
<rscale>  0 0.21613747E+04</rscale>
<asrwt>0</asrwt>
<pdfrwt beam="1">  1        1 0.15991280E+00 0.21613747E+04</pdfrwt>
<pdfrwt beam="2">  1       -2 0.17285829E+00 0.21613747E+04</pdfrwt>
<totfact> 0.23006200E+00</totfact>
</mgrwt>
</event>
<event>
12    5  0.5264288E-008  0.1279324E+04  0.7818608E-02  0.9046124E-01
          1   -1    0    0  501    0  0.00000000000E+00  0.00000000000E+00  0.74035066757E+03  0.74035066757E+03  0.00000000000E+00 0. -1.
         -2   -1    0    0    0  501 -0.00000000000E+00 -0.00000000000E+00 -0.55266716099E+03  0.55266716099E+03  0.00000000000E+00 0.  1.
        -24    2    1    2    0    0  0.57784681941E+02  0.22110916161E+03  0.26559872187E+03  0.35808373282E+03  0.73844077856E+02 0.  0.
        254    2    1    2    0    0 -0.57784681941E+02 -0.22110916161E+03 -0.77915215295E+02  0.93493409574E+03  0.90321794257E+03 0.  0.
         23    2    4    4    0    0 -0.24763771001E+03 -0.49896216088E+03  0.40763433454E+02  0.56643125114E+03  0.94313473881E+02 0.  0.
         23    2    4    4    0    0  0.18985302807E+03  0.27785299927E+03 -0.11867864875E+03  0.36850284460E+03  0.91995996307E+02 0.  0.
          1    1    3    3  502    0  0.45799697242E+02  0.21585815121E+03  0.26519342795E+03  0.34499262012E+03  0.00000000000E+00 0. -1.
         -2    1    3    3    0  502  0.11984984698E+02  0.52510103990E+01  0.40529392153E+00  0.13091112695E+02  0.00000000000E+00 0.  1.
         13    1    5    5    0    0 -0.20979066645E+03 -0.38211446120E+03 -0.33371971219E+01  0.43592972148E+03  0.00000000000E+00 0.  1.
        -13    1    5    5    0    0 -0.37847043568E+02 -0.11684769968E+03  0.44100630576E+02  0.13050152967E+03  0.00000000000E+00 0. -1.
          1    1    6    6  503    0  0.13309427960E+03  0.16615570737E+03 -0.11759205657E+03  0.24320710952E+03  0.00000000000E+00 0. -1.
         -1    1    6    6    0  503  0.56758748477E+02  0.11169729190E+03 -0.10865921807E+01  0.12529573508E+03  0.00000000000E+00 0.  1.
<mgrwt>
<rscale>  0 0.12793240E+04</rscale>
<asrwt>0</asrwt>
<pdfrwt beam="1">  1        1 0.11390010E+00 0.12793240E+04</pdfrwt>
<pdfrwt beam="2">  1       -2 0.85025717E-01 0.12793240E+04</pdfrwt>
<totfact> 0.25941376E+01</totfact>
</mgrwt>
</event>
<event>
12    5  0.5264288E-008  0.1096202E+04  0.7818608E-02  0.9208901E-01
         -2   -1    0    0    0  501 -0.00000000000E+00  0.00000000000E+00  0.16296688076E+03  0.16296688076E+03  0.00000000000E+00 0.  1.
          1   -1    0    0  501    0  0.00000000000E+00 -0.00000000000E+00 -0.18434102945E+04  0.18434102945E+04  0.00000000000E+00 0. -1.
        -24    2    1    2    0    0 -0.15944072014E+03 -0.12753674976E+02 -0.35360190439E+03  0.39632552065E+03  0.80346823653E+02 0.  0.
        254    2    1    2    0    0  0.15944072014E+03  0.12753674976E+02 -0.13268415094E+04  0.16100516546E+04  0.89787189516E+03 0.  0.
         23    2    4    4    0    0 -0.12689118438E+03 -0.20462844677E+03 -0.26802412095E+02  0.25806660445E+03  0.88914729585E+02 0.  0.
         23    2    4    4    0    0  0.28633190452E+03  0.21738212175E+03 -0.13000390973E+04  0.13519850502E+04  0.92309127602E+02 0.  0.
          3    1    3    3  502    0 -0.11924688121E+03  0.26858908700E+02 -0.25283863062E+03  0.28083552623E+03  0.00000000000E+00 0. -1.
         -4    1    3    3    0  502 -0.40193838927E+02 -0.39612583676E+02 -0.10076327377E+03  0.11548999443E+03  0.00000000000E+00 0.  1.
         13    1    5    5    0    0 -0.12728730290E+03 -0.14692537315E+03  0.11159127757E+00  0.19439427771E+03  0.00000000000E+00 0. -1.
        -13    1    5    5    0    0  0.39611851223E+00 -0.57703073624E+02 -0.26914003373E+02  0.63672326744E+02  0.00000000000E+00 0.  1.
          1    1    6    6  503    0  0.19950389225E+03  0.16047786108E+03 -0.10595377162E+04  0.10900344577E+04  0.00000000000E+00 0. -1.
         -1    1    6    6    0  503  0.86828012272E+02  0.56904260667E+02 -0.24050138107E+03  0.26195059246E+03  0.00000000000E+00 0.  1.
<mgrwt>
<rscale>  0 0.10962022E+04</rscale>
<asrwt>0</asrwt>
<pdfrwt beam="1">  1        1 0.28360158E+00 0.10962022E+04</pdfrwt>
<pdfrwt beam="2">  1       -2 0.25071828E-01 0.10962022E+04</pdfrwt>
<totfact> 0.47607388E+01</totfact>
</mgrwt>
</event>
<event>
12    5  0.5264288E-008  0.1213995E+04  0.7818608E-02  0.9100695E-01
         -2   -1    0    0    0  501 -0.00000000000E+00  0.00000000000E+00  0.25453152076E+03  0.25453152076E+03  0.00000000000E+00 0.  1.
          1   -1    0    0  501    0  0.00000000000E+00 -0.00000000000E+00 -0.14475444565E+04  0.14475444565E+04  0.00000000000E+00 0. -1.
        -24    2    1    2    0    0  0.15416584058E+03 -0.23125349785E+03 -0.44991087040E+02  0.29277248656E+03  0.80288506673E+02 0.  0.
        254    2    1    2    0    0 -0.15416584058E+03  0.23125349785E+03 -0.11480218487E+04  0.14093034907E+04  0.76872418797E+03 0.  0.
         23    2    4    4    0    0 -0.34060608638E+03  0.22177598514E+03 -0.11261168018E+04  0.12005044145E+04  0.88739530935E+02 0.  0.
         23    2    4    4    0    0  0.18644024580E+03  0.94775127092E+01 -0.21905046943E+02  0.20879907621E+03  0.90925434521E+02 0.  0.
          3    1    3    3  502    0  0.27856048415E+02 -0.10799990439E+03 -0.30867687393E+02  0.11572706212E+03  0.00000000000E+00 0. -1.
         -4    1    3    3    0  502  0.12630979217E+03 -0.12325359345E+03 -0.14123399646E+02  0.17704542443E+03  0.00000000000E+00 0.  1.
         13    1    5    5    0    0  0.12372788372E+01  0.14333243817E+02 -0.22753177345E+02  0.26919877721E+02  0.00000000000E+00 0.  1.
        -13    1    5    5    0    0 -0.34184336522E+03  0.20744274132E+03 -0.11033636245E+04  0.11735845368E+04  0.00000000000E+00 0. -1.
          3    1    6    6  503    0  0.18952848458E+03  0.21275396985E+02 -0.31473023562E+02  0.19329831918E+03  0.00000000000E+00 0. -1.
         -3    1    6    6    0  503 -0.30882387755E+01 -0.11797884276E+02  0.95679766195E+01  0.15500757037E+02  0.00000000000E+00 0.  1.
<mgrwt>
<rscale>  0 0.12139946E+04</rscale>
<asrwt>0</asrwt>
<pdfrwt beam="1">  1        1 0.22269915E+00 0.12139946E+04</pdfrwt>
<pdfrwt beam="2">  1       -2 0.39158696E-01 0.12139946E+04</pdfrwt>
<totfact> 0.38051863E+01</totfact>
</mgrwt>
</event>
<event>
12    5  0.5264288E-008  0.1491870E+04  0.7818608E-02  0.8889877E-01
         -2   -1    0    0    0  501 -0.00000000000E+00  0.00000000000E+00  0.40192071384E+03  0.40192071384E+03  0.00000000000E+00 0.  1.
          1   -1    0    0  501    0  0.00000000000E+00 -0.00000000000E+00 -0.13843999960E+04  0.13843999960E+04  0.00000000000E+00 0. -1.
        -24    2    1    2    0    0 -0.16768971302E+01  0.14835167689E+03  0.21903233799E+03  0.27642968480E+03  0.80169654687E+02 0.  0.
        254    2    1    2    0    0  0.16768971302E+01 -0.14835167689E+03 -0.12015116202E+04  0.15098910251E+04  0.90229136211E+03 0.  0.
         23    2    4    4    0    0  0.19881646707E+03 -0.40735044064E+03 -0.10287446624E+04  0.11279541569E+04  0.92209709864E+02 0.  0.
         23    2    4    4    0    0 -0.19713956994E+03  0.25899876375E+03 -0.17276695780E+03  0.38193686819E+03  0.10041404243E+03 0.  0.
          1    1    3    3  502    0  0.40617795801E+00  0.87980909637E+01 -0.66781649868E+01  0.11053020978E+02  0.00000000000E+00 0. -1.
         -2    1    3    3    0  502 -0.20830750882E+01  0.13955358593E+03  0.22571050298E+03  0.26537666383E+03  0.00000000000E+00 0.  1.
         13    1    5    5    0    0  0.93082929695E+02 -0.16347422578E+03 -0.53651616618E+03  0.56854010489E+03  0.00000000000E+00 0.  1.
        -13    1    5    5    0    0  0.10573353737E+03 -0.24387621486E+03 -0.49222849619E+03  0.55941405199E+03  0.00000000000E+00 0. -1.
          1    1    6    6  503    0 -0.86107932195E+02  0.18890588467E+03 -0.12430112792E+03  0.24197268369E+03  0.00000000000E+00 0. -1.
         -1    1    6    6    0  503 -0.11103163774E+03  0.70092879084E+02 -0.48465829883E+02  0.13996418450E+03  0.00000000000E+00 0.  1.
<mgrwt>
<rscale>  0 0.14918700E+04</rscale>
<asrwt>0</asrwt>
<pdfrwt beam="1">  1        1 0.21298461E+00 0.14918700E+04</pdfrwt>
<pdfrwt beam="2">  1       -2 0.61833956E-01 0.14918700E+04</pdfrwt>
<totfact> 0.16257105E+01</totfact>
</mgrwt>
</event>
<event>
12    5  0.5264288E-008  0.1421036E+04  0.7818608E-02  0.8938731E-01
          1   -1    0    0  501    0  0.00000000000E+00  0.00000000000E+00  0.76921424221E+03  0.76921424221E+03  0.00000000000E+00 0. -1.
         -2   -1    0    0    0  501 -0.00000000000E+00 -0.00000000000E+00 -0.65630048349E+03  0.65630048349E+03  0.00000000000E+00 0.  1.
        -24    2    1    2    0    0  0.63607862022E+01  0.33277653153E+03 -0.21662397240E+03  0.40444828609E+03  0.76627613560E+02 0.  0.
        254    2    1    2    0    0 -0.63607862022E+01 -0.33277653153E+03  0.32953773113E+03  0.10210664396E+04  0.90730418181E+03 0.  0.
         23    2    4    4    0    0  0.59484410797E+02 -0.63389431734E+03  0.24652759983E+03  0.68934092447E+03  0.95155935111E+02 0.  0.
         23    2    4    4    0    0 -0.65845196999E+02  0.30111778581E+03  0.83010131294E+02  0.33172551514E+03  0.90242033447E+02 0.  0.
          3    1    3    3  502    0  0.22581572420E+02  0.55013837603E+02 -0.16493072650E+02  0.61712812172E+02  0.00000000000E+00 0. -1.
         -4    1    3    3    0  502 -0.16220786217E+02  0.27776269393E+03 -0.20013089975E+03  0.34273547392E+03  0.00000000000E+00 0.  1.
         13    1    5    5    0    0  0.30430216081E+02 -0.59060350950E+03  0.22148182433E+03  0.63150035787E+03  0.00000000000E+00 0.  1.
        -13    1    5    5    0    0  0.29054194716E+02 -0.43290807845E+02  0.25045775498E+02  0.57840566601E+02  0.00000000000E+00 0. -1.
          3    1    6    6  503    0 -0.34385714770E+02  0.40659248509E+02 -0.83933466713E+01  0.53907329167E+02  0.00000000000E+00 0. -1.
         -3    1    6    6    0  503 -0.31459482229E+02  0.26045853730E+03  0.91403477966E+02  0.27781818597E+03  0.00000000000E+00 0.  1.
<mgrwt>
<rscale>  0 0.14210358E+04</rscale>
<asrwt>0</asrwt>
<pdfrwt beam="1">  1        1 0.11834065E+00 0.14210358E+04</pdfrwt>
<pdfrwt beam="2">  1       -2 0.10096930E+00 0.14210358E+04</pdfrwt>
<totfact> 0.16202338E+01</totfact>
</mgrwt>
</event>
<event>
12    5  0.5264288E-008  0.1630759E+04  0.7818608E-02  0.8801871E-01
         -4   -1    0    0    0  501 -0.00000000000E+00  0.00000000000E+00  0.88138174066E+03  0.88138174066E+03  0.00000000000E+00 0.  1.
          3   -1    0    0  501    0  0.00000000000E+00 -0.00000000000E+00 -0.75432022302E+03  0.75432022302E+03  0.00000000000E+00 0. -1.
        -24    2    1    2    0    0  0.48624438006E+03  0.24079729299E+03 -0.85316373195E+02  0.55449150811E+03  0.75927699675E+02 0.  0.
        254    2    1    2    0    0 -0.48624438006E+03 -0.24079729299E+03  0.21237789084E+03  0.10812104556E+04  0.91076602223E+03 0.  0.
         23    2    4    4    0    0  0.15119396679E+03 -0.89375945157E+02 -0.21603037289E+03  0.29316743926E+03  0.91816938884E+02 0.  0.
         23    2    4    4    0    0 -0.63743834686E+03 -0.15142134783E+03  0.42840826373E+03  0.78804301630E+03  0.90675710576E+02 0.  0.
          3    1    3    3  502    0  0.34911558287E+03  0.16376142825E+03 -0.94200596894E+02  0.39695496979E+03  0.00000000000E+00 0. -1.
         -4    1    3    3    0  502  0.13712879720E+03  0.77035864737E+02  0.88842236982E+01  0.15753653832E+03  0.00000000000E+00 0.  1.
         13    1    5    5    0    0  0.87744925976E+02 -0.29545072204E+02 -0.49028307967E+02  0.10476573060E+03  0.00000000000E+00 0. -1.
        -13    1    5    5    0    0  0.63449040819E+02 -0.59830872953E+02 -0.16700206492E+03  0.18840170866E+03  0.00000000000E+00 0.  1.
          4    1    6    6  503    0 -0.57053567081E+03 -0.10906202116E+03  0.35982029507E+03  0.68328333864E+03  0.00000000000E+00 0.  1.
         -4    1    6    6    0  503 -0.66902676049E+02 -0.42359326665E+02  0.68587968661E+02  0.10475967766E+03  0.00000000000E+00 0. -1.
<mgrwt>
<rscale>  0 0.16307594E+04</rscale>
<asrwt>0</asrwt>
<pdfrwt beam="1">  1        3 0.11604926E+00 0.16307594E+04</pdfrwt>
<pdfrwt beam="2">  1       -4 0.13559719E+00 0.16307594E+04</pdfrwt>
<totfact> 0.52241056E-01</totfact>
</mgrwt>
</event>
<event>
12    5  0.5264288E-008  0.1276060E+04  0.7818608E-02  0.9048768E-01
          1   -1    0    0  501    0  0.00000000000E+00  0.00000000000E+00  0.36756879764E+03  0.36756879764E+03  0.00000000000E+00 0. -1.
         -2   -1    0    0    0  501 -0.00000000000E+00 -0.00000000000E+00 -0.11074993112E+04  0.11074993112E+04  0.00000000000E+00 0.  1.
        -24    2    1    2    0    0 -0.30961151284E+03  0.27234747897E+02 -0.24051843579E+03  0.40066248948E+03  0.77976228117E+02 0.  0.
        254    2    1    2    0    0  0.30961151284E+03 -0.27234747897E+02 -0.49941207779E+03  0.10744056194E+04  0.89907396310E+03 0.  0.
         23    2    4    4    0    0  0.50851014762E+03 -0.26651171912E+03 -0.47409042333E+03  0.74983924929E+03  0.88803736550E+02 0.  0.
         23    2    4    4    0    0 -0.19889863478E+03  0.23927697123E+03 -0.25321654458E+02  0.32456637008E+03  0.88814449977E+02 0.  0.
          3    1    3    3  502    0 -0.16835984985E+03  0.17314988071E+02 -0.81858156165E+02  0.18800427013E+03  0.00000000000E+00 0. -1.
         -4    1    3    3    0  502 -0.14125166298E+03  0.99197598259E+01 -0.15866027962E+03  0.21265821936E+03  0.00000000000E+00 0.  1.
         13    1    5    5    0    0  0.24903354388E+03 -0.93079128483E+02 -0.18044096062E+03  0.32131039573E+03  0.00000000000E+00 0.  1.
        -13    1    5    5    0    0  0.25947660374E+03 -0.17343259064E+03 -0.29364946271E+03  0.42852885356E+03  0.00000000000E+00 0. -1.
          1    1    6    6  503    0 -0.52894978342E+02  0.10317726486E+03  0.25241343641E+02  0.11866150237E+03  0.00000000000E+00 0. -1.
         -1    1    6    6    0  503 -0.14600365644E+03  0.13609970637E+03 -0.50562998098E+02  0.20590486770E+03  0.00000000000E+00 0.  1.
<mgrwt>
<rscale>  0 0.12760599E+04</rscale>
<asrwt>0</asrwt>
<pdfrwt beam="1">  1        1 0.56549046E-01 0.12760599E+04</pdfrwt>
<pdfrwt beam="2">  1       -2 0.17038451E+00 0.12760599E+04</pdfrwt>
<totfact> 0.12209711E+01</totfact>
</mgrwt>
</event>
<event>
12    5  0.5264288E-008  0.1340729E+04  0.7818608E-02  0.8997876E-01
         -2   -1    0    0    0  501 -0.00000000000E+00  0.00000000000E+00  0.11349261850E+04  0.11349261850E+04  0.00000000000E+00 0.  1.
          1   -1    0    0  501    0  0.00000000000E+00 -0.00000000000E+00 -0.39596295311E+03  0.39596295311E+03  0.00000000000E+00 0. -1.
        -24    2    1    2    0    0 -0.18239324236E+03  0.11136738372E+03  0.52495909816E+03  0.57258195128E+03  0.81228364301E+02 0.  0.
        254    2    1    2    0    0  0.18239324236E+03 -0.11136738372E+03  0.21400413377E+03  0.95830718687E+03  0.90933212092E+03 0.  0.
         23    2    4    4    0    0 -0.35301864394E+03 -0.40802657604E+02  0.18762434442E+03  0.41032551652E+03  0.82928373015E+02 0.  0.
         23    2    4    4    0    0  0.53541188629E+03 -0.70564726116E+02  0.26379789349E+02  0.54798167036E+03  0.89122102796E+02 0.  0.
          3    1    3    3  502    0 -0.62896067501E+02  0.83265766818E+01  0.91900898999E+02  0.11167373202E+03  0.00000000000E+00 0. -1.
         -4    1    3    3    0  502 -0.11949717485E+03  0.10304080704E+03  0.43305819917E+03  0.46090821926E+03  0.00000000000E+00 0.  1.
         13    1    5    5    0    0 -0.18681626137E+03 -0.60554947248E+02  0.84958696336E+02  0.21397475840E+03  0.00000000000E+00 0. -1.
        -13    1    5    5    0    0 -0.16620238257E+03  0.19752289644E+02  0.10266564809E+03  0.19635075812E+03  0.00000000000E+00 0.  1.
          2    1    6    6  503    0  0.39220248906E+03 -0.12507002439E+02  0.28515106549E+02  0.39343656266E+03  0.00000000000E+00 0. -1.
         -2    1    6    6    0  503  0.14320939723E+03 -0.58057723677E+02 -0.21353171996E+01  0.15454510770E+03  0.00000000000E+00 0.  1.
<mgrwt>
<rscale>  0 0.13407292E+04</rscale>
<asrwt>0</asrwt>
<pdfrwt beam="1">  1        1 0.60917378E-01 0.13407292E+04</pdfrwt>
<pdfrwt beam="2">  1       -2 0.17460403E+00 0.13407292E+04</pdfrwt>
<totfact> 0.10280655E+01</totfact>
</mgrwt>
</event>
<event>
12    5  0.5264288E-008  0.1492152E+04  0.7818608E-02  0.8889689E-01
          1   -1    0    0  501    0  0.00000000000E+00  0.00000000000E+00  0.16979681792E+04  0.16979681792E+04  0.00000000000E+00 0. -1.
         -2   -1    0    0    0  501 -0.00000000000E+00 -0.00000000000E+00 -0.32782077966E+03  0.32782077966E+03  0.00000000000E+00 0.  1.
        -24    2    1    2    0    0 -0.15153593103E+03  0.29596486677E+03  0.91448722129E+01  0.34234197371E+03  0.80969485130E+02 0.  0.
        254    2    1    2    0    0  0.15153593103E+03 -0.29596486677E+03  0.13610025274E+04  0.16834469852E+04  0.93333141577E+03 0.  0.
         23    2    4    4    0    0  0.51366275476E+03 -0.32553234371E+03  0.89061663444E+03  0.10822490700E+04  0.90798278987E+02 0.  0.
         23    2    4    4    0    0 -0.36212682373E+03  0.29567476938E+02  0.47038589293E+03  0.60119791522E+03  0.90365772503E+02 0.  0.
          1    1    3    3  502    0 -0.52861561172E+02  0.10641508358E+03  0.42225507114E+02  0.12610118205E+03  0.00000000000E+00 0. -1.
         -2    1    3    3    0  502 -0.98674369855E+02  0.18954978319E+03 -0.33080634901E+02  0.21624079166E+03  0.00000000000E+00 0.  1.
         13    1    5    5    0    0  0.12222300362E+03 -0.12563762789E+03  0.26097718816E+03  0.31437615828E+03  0.00000000000E+00 0.  1.
        -13    1    5    5    0    0  0.39143975113E+03 -0.19989471582E+03  0.62963944629E+03  0.76787291169E+03  0.00000000000E+00 0. -1.
          3    1    6    6  503    0 -0.18028870941E+03 -0.27203296158E+02  0.25764242031E+03  0.31563215110E+03  0.00000000000E+00 0. -1.
         -3    1    6    6    0  503 -0.18183811432E+03  0.56770773096E+02  0.21274347263E+03  0.28556576413E+03  0.00000000000E+00 0.  1.
<mgrwt>
<rscale>  0 0.14921518E+04</rscale>
<asrwt>0</asrwt>
<pdfrwt beam="1">  1        1 0.26122587E+00 0.14921518E+04</pdfrwt>
<pdfrwt beam="2">  1       -2 0.50433967E-01 0.14921518E+04</pdfrwt>
<totfact> 0.15103589E+01</totfact>
</mgrwt>
</event>
<event>
12    5  0.5264288E-008  0.1594088E+04  0.7818608E-02  0.8824188E-01
          1   -1    0    0  501    0  0.00000000000E+00  0.00000000000E+00  0.87872277346E+03  0.87872277346E+03  0.00000000000E+00 0. -1.
         -2   -1    0    0    0  501 -0.00000000000E+00 -0.00000000000E+00 -0.72295755770E+03  0.72295755770E+03  0.00000000000E+00 0.  1.
        -24    2    1    2    0    0 -0.10128727361E+02 -0.51958766503E+03  0.19950212721E+03  0.56224012946E+03  0.78986908097E+02 0.  0.
        254    2    1    2    0    0  0.10128727361E+02  0.51958766503E+03 -0.43736911441E+02  0.10394402017E+04  0.89913796645E+03 0.  0.
         23    2    4    4    0    0  0.22549029023E+03  0.65207696482E+03  0.14502255234E+03  0.71045633096E+03  0.87558086278E+02 0.  0.
         23    2    4    4    0    0 -0.21536156287E+03 -0.13248929980E+03 -0.18875946378E+03  0.32898387074E+03  0.93092613667E+02 0.  0.
          3    1    3    3  502    0  0.57685063301E+01 -0.39530741854E+03  0.18373707445E+03  0.43595933681E+03  0.00000000000E+00 0. -1.
         -4    1    3    3    0  502 -0.15897233691E+02 -0.12428024648E+03  0.15765052753E+02  0.12628079265E+03  0.00000000000E+00 0.  1.
         13    1    5    5    0    0  0.12818220807E+03  0.28389382156E+03  0.31544444284E+02  0.31308374655E+03  0.00000000000E+00 0. -1.
        -13    1    5    5    0    0  0.97308082161E+02  0.36818314326E+03  0.11347810805E+03  0.39737258441E+03  0.00000000000E+00 0.  1.
          4    1    6    6  503    0 -0.14038537181E+03 -0.32905962242E+02 -0.11216321138E+03  0.18267851805E+03  0.00000000000E+00 0. -1.
         -4    1    6    6    0  503 -0.74976191053E+02 -0.99583337556E+02 -0.76596252396E+02  0.14630535269E+03  0.00000000000E+00 0.  1.
<mgrwt>
<rscale>  0 0.15940882E+04</rscale>
<asrwt>0</asrwt>
<pdfrwt beam="1">  1        1 0.13518812E+00 0.15940882E+04</pdfrwt>
<pdfrwt beam="2">  1       -2 0.11122424E+00 0.15940882E+04</pdfrwt>
<totfact> 0.10194734E+01</totfact>
</mgrwt>
</event>
<event>
12    5  0.5264288E-008  0.2081471E+04  0.7818608E-02  0.8569450E-01
         -2   -1    0    0    0  501 -0.00000000000E+00  0.00000000000E+00  0.47134307797E+03  0.47134307797E+03  0.00000000000E+00 0.  1.
          1   -1    0    0  501    0  0.00000000000E+00 -0.00000000000E+00 -0.22979663427E+04  0.22979663427E+04  0.00000000000E+00 0. -1.
        -24    2    1    2    0    0 -0.17801955794E+03 -0.12351365519E+03  0.34155396530E+03  0.41235901445E+03  0.80213836475E+02 0.  0.
        254    2    1    2    0    0  0.17801955794E+03  0.12351365519E+03 -0.21681772301E+04  0.23569504063E+04  0.89848546481E+03 0.  0.
         23    2    4    4    0    0  0.33030797328E+03 -0.30502580798E+03 -0.10071749350E+04  0.11068524899E+04  0.92612008407E+02 0.  0.
         23    2    4    4    0    0 -0.15228841535E+03  0.42853946317E+03 -0.11610022951E+04  0.12500979163E+04  0.89334417729E+02 0.  0.
          1    1    3    3  502    0 -0.13384598007E+02 -0.30175683463E+02  0.10114969946E+03  0.10640009886E+03  0.00000000000E+00 0. -1.
         -2    1    3    3    0  502 -0.16463495993E+03 -0.93337971724E+02  0.24040426584E+03  0.30595891559E+03  0.00000000000E+00 0.  1.
         13    1    5    5    0    0  0.18773695181E+03 -0.23312815708E+03 -0.64920176649E+03  0.71488239195E+03  0.00000000000E+00 0. -1.
        -13    1    5    5    0    0  0.14257102148E+03 -0.71897650898E+02 -0.35797316849E+03  0.39197009800E+03  0.00000000000E+00 0.  1.
          3    1    6    6  503    0 -0.14011325657E+03  0.38421605555E+03 -0.95244102650E+03  0.10365315292E+04  0.00000000000E+00 0. -1.
         -3    1    6    6    0  503 -0.12175158775E+02  0.44323407619E+02 -0.20856126861E+03  0.21356638714E+03  0.00000000000E+00 0.  1.
<mgrwt>
<rscale>  0 0.20814711E+04</rscale>
<asrwt>0</asrwt>
<pdfrwt beam="1">  1        1 0.35353329E+00 0.20814711E+04</pdfrwt>
<pdfrwt beam="2">  1       -2 0.72514319E-01 0.20814711E+04</pdfrwt>
<totfact> 0.25995743E+00</totfact>
</mgrwt>
</event>
<event>
12    5  0.5264288E-008  0.1417912E+04  0.7818608E-02  0.8940954E-01
          1   -1    0    0  501    0  0.00000000000E+00  0.00000000000E+00  0.33434101972E+03  0.33434101972E+03  0.00000000000E+00 0. -1.
         -2   -1    0    0    0  501 -0.00000000000E+00 -0.00000000000E+00 -0.15033108317E+04  0.15033108317E+04  0.00000000000E+00 0.  1.
        -24    2    1    2    0    0  0.19765309261E+03 -0.21178949601E+03 -0.74989204178E+03  0.80796835120E+03  0.80952125214E+02 0.  0.
        254    2    1    2    0    0 -0.19765309261E+03  0.21178949601E+03 -0.41907777018E+03  0.10296835002E+04  0.89481863943E+03 0.  0.
         23    2    4    4    0    0 -0.42648163260E+02  0.11968418638E+03  0.27013917511E+03  0.31189300529E+03  0.90326643453E+02 0.  0.
         23    2    4    4    0    0 -0.15500492935E+03  0.92105309628E+02 -0.68921694530E+03  0.71779049491E+03  0.87711348851E+02 0.  0.
          3    1    3    3  502    0  0.19883995301E+02 -0.35831783157E+02 -0.49547469822E+02  0.64298069326E+02  0.00000000000E+00 0. -1.
         -4    1    3    3    0  502  0.17776909731E+03 -0.17595771285E+03 -0.70034457196E+03  0.74367028187E+03  0.00000000000E+00 0.  1.
         13    1    5    5    0    0  0.15277399313E+02 -0.67520448869E+01  0.32824534808E+02  0.36829867300E+02  0.00000000000E+00 0. -1.
        -13    1    5    5    0    0 -0.57925562573E+02  0.12643623127E+03  0.23731464030E+03  0.27506313799E+03  0.00000000000E+00 0.  1.
          1    1    6    6  503    0 -0.12733188331E+03  0.10156288307E+03 -0.48809173971E+03  0.51455026392E+03  0.00000000000E+00 0.  1.
         -1    1    6    6    0  503 -0.27673046043E+02 -0.94575734407E+01 -0.20112520558E+03  0.20324023099E+03  0.00000000000E+00 0. -1.
<mgrwt>
<rscale>  0 0.14179118E+04</rscale>
<asrwt>0</asrwt>
<pdfrwt beam="1">  1        1 0.51437080E-01 0.14179118E+04</pdfrwt>
<pdfrwt beam="2">  1       -2 0.23127859E+00 0.14179118E+04</pdfrwt>
<totfact> 0.54303524E+00</totfact>
</mgrwt>
</event>
<event>
12    5  0.5264288E-008  0.1451200E+04  0.7818608E-02  0.8917569E-01
          1   -1    0    0  501    0  0.00000000000E+00  0.00000000000E+00  0.18181958030E+04  0.18181958030E+04  0.00000000000E+00 0. -1.
         -2   -1    0    0    0  501 -0.00000000000E+00 -0.00000000000E+00 -0.28957007092E+03  0.28957007092E+03  0.00000000000E+00 0.  1.
        -24    2    1    2    0    0  0.63359020955E+02 -0.39853034675E+03  0.21654596395E+03  0.46491290907E+03  0.80069068293E+02 0.  0.
        254    2    1    2    0    0 -0.63359020955E+02  0.39853034675E+03  0.13120797681E+04  0.16428529648E+04  0.90253628369E+03 0.  0.
         23    2    4    4    0    0 -0.19696330493E+03  0.59481355308E+03  0.12168676313E+04  0.13715212263E+04  0.87783458319E+02 0.  0.
         23    2    4    4    0    0  0.13360428398E+03 -0.19628320633E+03  0.95212136760E+02  0.27133173854E+03  0.90434283136E+02 0.  0.
          3    1    3    3  502    0  0.40809445905E+02 -0.89285345228E+02  0.28261178178E+02  0.10215663434E+03  0.00000000000E+00 0. -1.
         -4    1    3    3    0  502  0.22549575050E+02 -0.30924500152E+03  0.18828478577E+03  0.36275627473E+03  0.00000000000E+00 0.  1.
         13    1    5    5    0    0 -0.70422887462E+02  0.32425599243E+03  0.58320714129E+03  0.67099322005E+03  0.00000000000E+00 0.  1.
        -13    1    5    5    0    0 -0.12654041747E+03  0.27055756065E+03  0.63366049004E+03  0.70052800623E+03  0.00000000000E+00 0. -1.
          4    1    6    6  503    0  0.31646512139E+02 -0.24284069789E+02 -0.15480550456E+02  0.42788610850E+02  0.00000000000E+00 0. -1.
         -4    1    6    6    0  503  0.10195777184E+03 -0.17199913654E+03  0.11069268722E+03  0.22854312769E+03  0.00000000000E+00 0.  1.
<mgrwt>
<rscale>  0 0.14511996E+04</rscale>
<asrwt>0</asrwt>
<pdfrwt beam="1">  1        1 0.27972242E+00 0.14511996E+04</pdfrwt>
<pdfrwt beam="2">  1       -2 0.44549243E-01 0.14511996E+04</pdfrwt>
<totfact> 0.16133919E+01</totfact>
</mgrwt>
</event>
<event>
12    5  0.5264288E-008  0.1379492E+04  0.7818608E-02  0.8968799E-01
          1   -1    0    0  501    0  0.00000000000E+00  0.00000000000E+00  0.19371747623E+04  0.19371747623E+04  0.00000000000E+00 0. -1.
         -2   -1    0    0    0  501 -0.00000000000E+00 -0.00000000000E+00 -0.24558921458E+03  0.24558921458E+03  0.00000000000E+00 0.  1.
        -24    2    1    2    0    0  0.32320486077E+02  0.10910438595E+03 -0.10092303031E+03  0.17123435346E+03  0.78659804888E+02 0.  0.
        254    2    1    2    0    0 -0.32320486077E+02 -0.10910438595E+03  0.17925085781E+04  0.20115296235E+04  0.90565779560E+03 0.  0.
         23    2    4    4    0    0  0.55649488065E+02 -0.47922984529E+03  0.73394683568E+03  0.88299125829E+03  0.90760643838E+02 0.  0.
         23    2    4    4    0    0 -0.87969974143E+02  0.37012545934E+03  0.10585617424E+04  0.11285383652E+04  0.91182822976E+02 0.  0.
          1    1    3    3  502    0  0.79708086200E+00 -0.51634378613E-01  0.11423666270E+02  0.11451556884E+02  0.00000000000E+00 0. -1.
         -2    1    3    3    0  502  0.31523405215E+02  0.10915602033E+03 -0.11234669658E+03  0.15978279658E+03  0.00000000000E+00 0.  1.
         13    1    5    5    0    0  0.32611213093E+02 -0.36208393256E+03  0.47777344416E+03  0.60036299801E+03  0.00000000000E+00 0.  1.
        -13    1    5    5    0    0  0.23038274973E+02 -0.11714591272E+03  0.25617339152E+03  0.28262826028E+03  0.00000000000E+00 0. -1.
          2    1    6    6  503    0 -0.61539770832E+01  0.23053149393E+02  0.22369295171E+02  0.32706337266E+02  0.00000000000E+00 0. -1.
         -2    1    6    6    0  503 -0.81815997059E+02  0.34707230995E+03  0.10361924472E+04  0.10958320279E+04  0.00000000000E+00 0.  1.
<mgrwt>
<rscale>  0 0.13794915E+04</rscale>
<asrwt>0</asrwt>
<pdfrwt beam="1">  1        1 0.29802688E+00 0.13794915E+04</pdfrwt>
<pdfrwt beam="2">  1       -2 0.37782957E-01 0.13794915E+04</pdfrwt>
<totfact> 0.18643704E+01</totfact>
</mgrwt>
</event>
<event>
12    5  0.5264288E-008  0.1215911E+04  0.7818608E-02  0.9099043E-01
          3   -1    0    0  501    0  0.00000000000E+00  0.00000000000E+00  0.74321896047E+03  0.74321896047E+03  0.00000000000E+00 0. -1.
         -4   -1    0    0    0  501 -0.00000000000E+00 -0.00000000000E+00 -0.49730927364E+03  0.49730927364E+03  0.00000000000E+00 0.  1.
        -24    2    1    2    0    0 -0.13581764830E+03 -0.71922377871E+02 -0.16240954531E+03  0.23792008255E+03  0.81300942464E+02 0.  0.
        254    2    1    2    0    0  0.13581764830E+03  0.71922377871E+02  0.40831923213E+03  0.10026081516E+04  0.90270662355E+03 0.  0.
         23    2    4    4    0    0  0.39854322282E+03 -0.56355743522E+02 -0.84935959236E+02  0.42158013161E+03  0.92211820898E+02 0.  0.
         23    2    4    4    0    0 -0.26272557452E+03  0.12827812139E+03  0.49325519137E+03  0.58102801994E+03  0.93876899234E+02 0.  0.
          3    1    3    3  502    0 -0.12381654156E+03 -0.41555763711E+02 -0.90355412319E+02  0.15881283952E+03  0.00000000000E+00 0. -1.
         -4    1    3    3    0  502 -0.12001106738E+02 -0.30366614160E+02 -0.72054132992E+02  0.79107243030E+02  0.00000000000E+00 0.  1.
         13    1    5    5    0    0  0.28793306883E+03 -0.45674796957E+02 -0.10259961825E+03  0.30906038385E+03  0.00000000000E+00 0. -1.
        -13    1    5    5    0    0  0.11061015399E+03 -0.10680946565E+02  0.17663659015E+02  0.11251974776E+03  0.00000000000E+00 0.  1.
          4    1    6    6  503    0 -0.55500758519E+02  0.60640684314E+02  0.19487977654E+03  0.21150828375E+03  0.00000000000E+00 0. -1.
         -4    1    6    6    0  503 -0.20722481600E+03  0.67637437079E+02  0.29837541483E+03  0.36951973619E+03  0.00000000000E+00 0.  1.
<mgrwt>
<rscale>  0 0.12159107E+04</rscale>
<asrwt>0</asrwt>
<pdfrwt beam="1">  1        3 0.11434138E+00 0.12159107E+04</pdfrwt>
<pdfrwt beam="2">  1       -4 0.76509119E-01 0.12159107E+04</pdfrwt>
<totfact> 0.22041130E+00</totfact>
</mgrwt>
</event>
<event>
12    5  0.5264288E-008  0.1547482E+04  0.7818608E-02  0.8853477E-01
         -2   -1    0    0    0  501 -0.00000000000E+00  0.00000000000E+00  0.71453435693E+03  0.71453435693E+03  0.00000000000E+00 0.  1.
          1   -1    0    0  501    0  0.00000000000E+00 -0.00000000000E+00 -0.83785396415E+03  0.83785396415E+03  0.00000000000E+00 0. -1.
        -24    2    1    2    0    0  0.33321557891E+03  0.32593919604E+03  0.14373111397E+03  0.49428830997E+03  0.79958231013E+02 0.  0.
        254    2    1    2    0    0 -0.33321557891E+03 -0.32593919604E+03 -0.26705072119E+03  0.10581000111E+04  0.91158683860E+03 0.  0.
         23    2    4    4    0    0 -0.57098514999E+03 -0.38582387234E+03 -0.35921726970E+03  0.78222699731E+03  0.89207211013E+02 0.  0.
         23    2    4    4    0    0  0.23776957108E+03  0.59884676304E+02  0.92166548510E+02  0.27587301381E+03  0.86548851477E+02 0.  0.
          1    1    3    3  502    0  0.70907725956E+02  0.54102117940E+02 -0.24730558158E+01  0.89224776665E+02  0.00000000000E+00 0. -1.
         -2    1    3    3    0  502  0.26230785295E+03  0.27183707810E+03  0.14620416978E+03  0.40506353330E+03  0.00000000000E+00 0.  1.
         13    1    5    5    0    0 -0.39967827789E+03 -0.31514346214E+03 -0.24911612195E+03  0.56667183604E+03  0.00000000000E+00 0. -1.
        -13    1    5    5    0    0 -0.17130687211E+03 -0.70680410202E+02 -0.11010114775E+03  0.21555516127E+03  0.00000000000E+00 0.  1.
          2    1    6    6  503    0  0.22574336946E+03  0.29939893217E+02  0.79291328591E+02  0.24112980083E+03  0.00000000000E+00 0.  1.
         -2    1    6    6    0  503  0.12026201626E+02  0.29944783087E+02  0.12875219918E+02  0.34743212972E+02  0.00000000000E+00 0. -1.
<mgrwt>
<rscale>  0 0.15474824E+04</rscale>
<asrwt>0</asrwt>
<pdfrwt beam="1">  1        1 0.12890061E+00 0.15474824E+04</pdfrwt>
<pdfrwt beam="2">  1       -2 0.10992836E+00 0.15474824E+04</pdfrwt>
<totfact> 0.11394039E+01</totfact>
</mgrwt>
</event>
<event>
12    5  0.5264288E-008  0.2544293E+04  0.7818608E-02  0.8387374E-01
         -2   -1    0    0    0  501 -0.00000000000E+00  0.00000000000E+00  0.10833113573E+04  0.10833113573E+04  0.00000000000E+00 0.  1.
          1   -1    0    0  501    0  0.00000000000E+00 -0.00000000000E+00 -0.14938976699E+04  0.14938976699E+04  0.00000000000E+00 0. -1.
        -24    2    1    2    0    0  0.89373359941E+03  0.31693567574E+02 -0.84059453741E+03  0.12298194056E+04  0.78053604245E+02 0.  0.
        254    2    1    2    0    0 -0.89373359941E+03 -0.31693567574E+02  0.43000822486E+03  0.13473896216E+04  0.91147544667E+03 0.  0.
         23    2    4    4    0    0 -0.74182567886E+03  0.13490144254E+03  0.66473092037E+03  0.10092968361E+04  0.91154648182E+02 0.  0.
         23    2    4    4    0    0 -0.15190792054E+03 -0.16659501012E+03 -0.23472269551E+03  0.33809278543E+03  0.91553667631E+02 0.  0.
          1    1    3    3  502    0  0.63812316380E+03  0.57899218390E+02 -0.60052855257E+03  0.87817312309E+03  0.00000000000E+00 0. -1.
         -2    1    3    3    0  502  0.25561043561E+03 -0.26205650816E+02 -0.24006598484E+03  0.35164628251E+03  0.00000000000E+00 0.  1.
         13    1    5    5    0    0 -0.52596164484E+02  0.10637068987E+02  0.19675964822E+02  0.57154591650E+02  0.00000000000E+00 0. -1.
        -13    1    5    5    0    0 -0.68922951438E+03  0.12426437355E+03  0.64505495555E+03  0.95214224447E+03  0.00000000000E+00 0.  1.
          4    1    6    6  503    0 -0.60104270904E+02 -0.18132540673E+02 -0.97925184605E+02  0.11632134023E+03  0.00000000000E+00 0.  1.
         -4    1    6    6    0  503 -0.91803649640E+02 -0.14846246944E+03 -0.13679751090E+03  0.22177144521E+03  0.00000000000E+00 0. -1.
<mgrwt>
<rscale>  0 0.25442927E+04</rscale>
<asrwt>0</asrwt>
<pdfrwt beam="1">  1        1 0.22983041E+00 0.25442927E+04</pdfrwt>
<pdfrwt beam="2">  1       -2 0.16666329E+00 0.25442927E+04</pdfrwt>
<totfact> 0.11560651E+00</totfact>
</mgrwt>
</event>
<event>
12    5  0.5264288E-008  0.2114434E+04  0.7818608E-02  0.8554912E-01
          3   -1    0    0  501    0  0.00000000000E+00  0.00000000000E+00  0.10554432523E+04  0.10554432523E+04  0.00000000000E+00 0. -1.
         -4   -1    0    0    0  501 -0.00000000000E+00 -0.00000000000E+00 -0.10589939564E+04  0.10589939564E+04  0.00000000000E+00 0.  1.
        -24    2    1    2    0    0  0.57334181238E+03  0.26753855673E+03  0.56977676787E+03  0.85505314243E+03  0.78565883248E+02 0.  0.
        254    2    1    2    0    0 -0.57334181238E+03 -0.26753855673E+03 -0.57332747190E+03  0.12593840663E+04  0.92576785598E+03 0.  0.
         23    2    4    4    0    0 -0.77245611120E+02 -0.51198291932E+03 -0.43414722717E+03  0.68192572567E+03  0.91899327301E+02 0.  0.
         23    2    4    4    0    0 -0.49609620126E+03  0.24444436260E+03 -0.13918024472E+03  0.57745834059E+03  0.90678041918E+02 0.  0.
          3    1    3    3  502    0  0.39863334550E+03  0.22257529946E+03  0.39164134240E+03  0.60152410521E+03  0.00000000000E+00 0. -1.
         -4    1    3    3    0  502  0.17470846689E+03  0.44963257269E+02  0.17813542548E+03  0.25352903722E+03  0.00000000000E+00 0.  1.
         13    1    5    5    0    0 -0.35791858001E+01  0.34856694915E+01 -0.59462001243E+01  0.77664508441E+01  0.00000000000E+00 0. -1.
        -13    1    5    5    0    0 -0.73666425320E+02 -0.51546858882E+03 -0.42820102705E+03  0.67415927483E+03  0.00000000000E+00 0.  1.
          3    1    6    6  503    0 -0.15750263390E+02  0.27315746678E+02 -0.18926426057E+02  0.36775405052E+02  0.00000000000E+00 0. -1.
         -3    1    6    6    0  503 -0.48034593787E+03  0.21712861592E+03 -0.12025381867E+03  0.54068293554E+03  0.00000000000E+00 0.  1.
<mgrwt>
<rscale>  0 0.21144342E+04</rscale>
<asrwt>0</asrwt>
<pdfrwt beam="1">  1        3 0.16237589E+00 0.21144342E+04</pdfrwt>
<pdfrwt beam="2">  1       -4 0.16292215E+00 0.21144342E+04</pdfrwt>
<totfact> 0.13159205E-01</totfact>
</mgrwt>
</event>
<event>
12    5  0.5264288E-008  0.1516767E+04  0.7818608E-02  0.8873379E-01
         -2   -1    0    0    0  501 -0.00000000000E+00  0.00000000000E+00  0.27271698337E+03  0.27271698337E+03  0.00000000000E+00 0.  1.
          1   -1    0    0  501    0  0.00000000000E+00 -0.00000000000E+00 -0.21089451961E+04  0.21089451961E+04  0.00000000000E+00 0. -1.
        -24    2    1    2    0    0 -0.30907252069E+03 -0.32621779083E+03 -0.29214206807E+03  0.54160240217E+03  0.77732258410E+02 0.  0.
        254    2    1    2    0    0  0.30907252069E+03  0.32621779083E+03 -0.15440861447E+04  0.18400597773E+04  0.89424498423E+03 0.  0.
         23    2    4    4    0    0 -0.73017073423E+02  0.53823932462E+03 -0.92798048072E+03  0.10791933880E+04  0.92073516928E+02 0.  0.
         23    2    4    4    0    0  0.38208959412E+03 -0.21202153380E+03 -0.61610566398E+03  0.76086638934E+03  0.91574475235E+02 0.  0.
          3    1    3    3  502    0 -0.12235124784E+03 -0.10659352072E+03 -0.65855337632E+02  0.17512547503E+03  0.00000000000E+00 0. -1.
         -4    1    3    3    0  502 -0.18672127285E+03 -0.21962427010E+03 -0.22628673044E+03  0.36647692714E+03  0.00000000000E+00 0.  1.
         13    1    5    5    0    0 -0.92243944104E+02  0.47589513705E+03 -0.83696077162E+03  0.96720652393E+03  0.00000000000E+00 0.  1.
        -13    1    5    5    0    0  0.19226870681E+02  0.62344187573E+02 -0.91019709096E+02  0.11198686407E+03  0.00000000000E+00 0. -1.
          1    1    6    6  503    0  0.33579401896E+02 -0.49145755453E+02 -0.11097061366E+03  0.12592600449E+03  0.00000000000E+00 0. -1.
         -1    1    6    6    0  503  0.34851019222E+03 -0.16287577835E+03 -0.50513505032E+03  0.63494038485E+03  0.00000000000E+00 0.  1.
<mgrwt>
<rscale>  0 0.15167665E+04</rscale>
<asrwt>0</asrwt>
<pdfrwt beam="1">  1        1 0.32445309E+00 0.15167665E+04</pdfrwt>
<pdfrwt beam="2">  1       -2 0.41956461E-01 0.15167665E+04</pdfrwt>
<totfact> 0.11484480E+01</totfact>
</mgrwt>
</event>
<event>
12    5  0.5264288E-008  0.1419868E+04  0.7818608E-02  0.8939561E-01
         -4   -1    0    0    0  501 -0.00000000000E+00  0.00000000000E+00  0.94648431234E+03  0.94648431234E+03  0.00000000000E+00 0.  1.
          3   -1    0    0  501    0  0.00000000000E+00 -0.00000000000E+00 -0.53250369540E+03  0.53250369540E+03  0.00000000000E+00 0. -1.
        -24    2    1    2    0    0 -0.15925250964E+03 -0.85919915789E+01  0.52375302497E+03  0.55368867481E+03  0.82575621704E+02 0.  0.
        254    2    1    2    0    0  0.15925250964E+03  0.85919915789E+01 -0.10977240803E+03  0.92529933293E+03  0.90481693718E+03 0.  0.
         23    2    4    4    0    0  0.13756008976E+03  0.37174732635E+03 -0.30003801268E+03  0.50546787117E+03  0.91411743140E+02 0.  0.
         23    2    4    4    0    0  0.21692419881E+02 -0.36315533477E+03  0.19026560465E+03  0.41983146176E+03  0.87778686003E+02 0.  0.
          3    1    3    3  502    0 -0.38215754065E+02 -0.33181327805E+02  0.96828780691E+02  0.10925775553E+03  0.00000000000E+00 0. -1.
         -4    1    3    3    0  502 -0.12103675558E+03  0.24589336226E+02  0.42692424428E+03  0.44443091928E+03  0.00000000000E+00 0.  1.
         13    1    5    5    0    0  0.13902523808E+03  0.27663889890E+03 -0.25029640830E+03  0.39812735301E+03  0.00000000000E+00 0. -1.
        -13    1    5    5    0    0 -0.14651483147E+01  0.95108427455E+02 -0.49741604386E+02  0.10734051816E+03  0.00000000000E+00 0.  1.
          4    1    6    6  503    0  0.13078706380E+02 -0.35340563201E+03  0.19738307147E+03  0.40500206197E+03  0.00000000000E+00 0. -1.
         -4    1    6    6    0  503  0.86137135006E+01 -0.97497027606E+01 -0.71174668183E+01  0.14829399789E+02  0.00000000000E+00 0.  1.
<mgrwt>
<rscale>  0 0.14198682E+04</rscale>
<asrwt>0</asrwt>
<pdfrwt beam="1">  1        3 0.81923645E-01 0.14198682E+04</pdfrwt>
<pdfrwt beam="2">  1       -4 0.14561297E+00 0.14198682E+04</pdfrwt>
<totfact> 0.98882749E-01</totfact>
</mgrwt>
</event>
<event>
12    5  0.5264288E-008  0.1518563E+04  0.7818608E-02  0.8872202E-01
         -2   -1    0    0    0  501 -0.00000000000E+00  0.00000000000E+00  0.46558814795E+03  0.46558814795E+03  0.00000000000E+00 0.  1.
          1   -1    0    0  501    0  0.00000000000E+00 -0.00000000000E+00 -0.12382367735E+04  0.12382367735E+04  0.00000000000E+00 0. -1.
        -24    2    1    2    0    0  0.48506802289E+02 -0.12429935709E+02 -0.79618365188E+03  0.80171159630E+03  0.79534036460E+02 0.  0.
        254    2    1    2    0    0 -0.48506802289E+02  0.12429935709E+02  0.23535026370E+02  0.90211332511E+03  0.90041498250E+03 0.  0.
         23    2    4    4    0    0  0.60319680713E+02  0.43062020186E+03  0.88834063428E+02  0.45515590927E+03  0.10101083501E+03 0.  0.
         23    2    4    4    0    0 -0.10882648300E+03 -0.41819026615E+03 -0.65299037058E+02  0.44695741584E+03  0.93705203850E+02 0.  0.
          1    1    3    3  502    0  0.47696857241E+02 -0.19923603106E+02 -0.24119579995E+03  0.24667256448E+03  0.00000000000E+00 0. -1.
         -2    1    3    3    0  502  0.80994504780E+00  0.74936673971E+01 -0.55498785193E+03  0.55503903182E+03  0.00000000000E+00 0.  1.
         13    1    5    5    0    0  0.59889192041E+02  0.43630149035E+03  0.85701787154E+02  0.44865410075E+03  0.00000000000E+00 0.  1.
        -13    1    5    5    0    0  0.43048867244E+00 -0.56812884857E+01  0.31322762741E+01  0.65018085186E+01  0.00000000000E+00 0. -1.
          4    1    6    6  503    0 -0.49002262992E+02 -0.13730098897E+03 -0.65368558955E+02  0.15976805642E+03  0.00000000000E+00 0. -1.
         -4    1    6    6    0  503 -0.59824220010E+02 -0.28088927718E+03  0.69521896513E-01  0.28718935942E+03  0.00000000000E+00 0.  1.
<mgrwt>
<rscale>  0 0.15185630E+04</rscale>
<asrwt>0</asrwt>
<pdfrwt beam="1">  1        1 0.19049797E+00 0.15185630E+04</pdfrwt>
<pdfrwt beam="2">  1       -2 0.71628946E-01 0.15185630E+04</pdfrwt>
<totfact> 0.15006783E+01</totfact>
</mgrwt>
</event>
<event>
12    5  0.5264288E-008  0.1401488E+04  0.7818608E-02  0.8952742E-01
          1   -1    0    0  501    0  0.00000000000E+00  0.00000000000E+00  0.50776829891E+03  0.50776829891E+03  0.00000000000E+00 0. -1.
         -2   -1    0    0    0  501 -0.00000000000E+00 -0.00000000000E+00 -0.96705951981E+03  0.96705951981E+03  0.00000000000E+00 0.  1.
        -24    2    1    2    0    0  0.53406351158E+02 -0.37611308352E+03 -0.30005712074E+03  0.49054356089E+03  0.79280637475E+02 0.  0.
        254    2    1    2    0    0 -0.53406351158E+02  0.37611308352E+03 -0.15923410015E+03  0.98428425783E+03  0.89395006104E+03 0.  0.
         23    2    4    4    0    0 -0.20380149247E+03 -0.10738073829E+03 -0.35795966082E+03  0.43461757580E+03  0.87702036052E+02 0.  0.
         23    2    4    4    0    0  0.15039514132E+03  0.48349382181E+03  0.19872556066E+03  0.54966668204E+03  0.79098916659E+02 0.  0.
          3    1    3    3  502    0  0.31015904818E+02 -0.31816532571E+03 -0.28084539382E+03  0.42551768009E+03  0.00000000000E+00 0. -1.
         -4    1    3    3    0  502  0.22390446340E+02 -0.57947757809E+02 -0.19211726926E+02  0.65025880801E+02  0.00000000000E+00 0.  1.
         13    1    5    5    0    0 -0.19145476780E+03 -0.12216470359E+03 -0.32621502544E+03  0.39748633403E+03  0.00000000000E+00 0. -1.
        -13    1    5    5    0    0 -0.12346724672E+02  0.14783965295E+02 -0.31744635376E+02  0.37131241767E+02  0.00000000000E+00 0.  1.
          3    1    6    6  503    0  0.13389992567E+03  0.43819650006E+03  0.15258414854E+03  0.48293610876E+03  0.00000000000E+00 0. -1.
         -3    1    6    6    0  503  0.16495215644E+02  0.45297321754E+02  0.46141412118E+02  0.66730573274E+02  0.00000000000E+00 0.  1.
<mgrwt>
<rscale>  0 0.14014880E+04</rscale>
<asrwt>0</asrwt>
<pdfrwt beam="1">  1        1 0.78118200E-01 0.14014880E+04</pdfrwt>
<pdfrwt beam="2">  1       -2 0.14877839E+00 0.14014880E+04</pdfrwt>
<totfact> 0.11317283E+01</totfact>
</mgrwt>
</event>
<event>
12    5  0.5264288E-008  0.1629474E+04  0.7818608E-02  0.8802643E-01
         -2   -1    0    0    0  501 -0.00000000000E+00  0.00000000000E+00  0.93284996135E+03  0.93284996135E+03  0.00000000000E+00 0.  1.
          1   -1    0    0  501    0  0.00000000000E+00 -0.00000000000E+00 -0.71157922821E+03  0.71157922821E+03  0.00000000000E+00 0. -1.
        -24    2    1    2    0    0 -0.12994403023E+02 -0.47649463150E+03  0.37245603420E+03  0.61032405422E+03  0.80968916214E+02 0.  0.
        254    2    1    2    0    0  0.12994403023E+02  0.47649463150E+03 -0.15118530106E+03  0.10341051353E+04  0.90515216804E+03 0.  0.
         23    2    4    4    0    0  0.67454683643E+02 -0.24695412013E+03  0.49442498528E+02  0.27640842298E+03  0.91763739224E+02 0.  0.
         23    2    4    4    0    0 -0.54460280620E+02  0.72344875163E+03 -0.20062779958E+03  0.75769671236E+03  0.86653191216E+02 0.  0.
          3    1    3    3  502    0 -0.27495745633E+02 -0.21934906420E+03  0.12919223768E+03  0.25604816397E+03  0.00000000000E+00 0. -1.
         -4    1    3    3    0  502  0.14501342610E+02 -0.25714556730E+03  0.24326379652E+03  0.35427589026E+03  0.00000000000E+00 0.  1.
         13    1    5    5    0    0  0.14382245089E+02 -0.16805100851E+03 -0.12059207343E+01  0.16866963177E+03  0.00000000000E+00 0. -1.
        -13    1    5    5    0    0  0.53072438554E+02 -0.78903111616E+02  0.50648419262E+02  0.10773879121E+03  0.00000000000E+00 0.  1.
          4    1    6    6  503    0 -0.11710272319E+02  0.59007718475E+03 -0.15216531056E+03  0.60949363916E+03  0.00000000000E+00 0. -1.
         -4    1    6    6    0  503 -0.42750008300E+02  0.13337156688E+03 -0.48462489024E+02  0.14820307319E+03  0.00000000000E+00 0.  1.
<mgrwt>
<rscale>  0 0.16294743E+04</rscale>
<asrwt>0</asrwt>
<pdfrwt beam="1">  1        1 0.10947373E+00 0.16294743E+04</pdfrwt>
<pdfrwt beam="2">  1       -2 0.14351538E+00 0.16294743E+04</pdfrwt>
<totfact> 0.74937134E+00</totfact>
</mgrwt>
</event>
<event>
12    5  0.5264288E-008  0.1816983E+04  0.7818608E-02  0.8697320E-01
         -2   -1    0    0    0  501 -0.00000000000E+00  0.00000000000E+00  0.35364580417E+03  0.35364580417E+03  0.00000000000E+00 0.  1.
          1   -1    0    0  501    0  0.00000000000E+00 -0.00000000000E+00 -0.23338515024E+04  0.23338515024E+04  0.00000000000E+00 0. -1.
        -24    2    1    2    0    0 -0.38085634543E+02  0.34669598736E+03 -0.16179253430E+04  0.16585445863E+04  0.10695375720E+03 0.  0.
        254    2    1    2    0    0  0.38085634543E+02 -0.34669598736E+03 -0.36228035527E+03  0.10289527203E+04  0.89769038177E+03 0.  0.
         23    2    4    4    0    0  0.20613026514E+03 -0.11669846842E+03 -0.59559094049E+03  0.64711596076E+03  0.89007188157E+02 0.  0.
         23    2    4    4    0    0 -0.16804463059E+03 -0.22999751894E+03  0.23331058522E+03  0.38183675950E+03  0.10113172175E+03 0.  0.
          1    1    3    3  502    0 -0.47048698715E+01  0.30369000877E+03 -0.12366474920E+04  0.12733996924E+04  0.00000000000E+00 0. -1.
         -2    1    3    3    0  502 -0.33380764672E+02  0.43005978585E+02 -0.38127785095E+03  0.38514489387E+03  0.00000000000E+00 0.  1.
         13    1    5    5    0    0  0.11922272938E+02 -0.44126320053E+02 -0.10545844558E+03  0.11493805487E+03  0.00000000000E+00 0. -1.
        -13    1    5    5    0    0  0.19420799220E+03 -0.72572148364E+02 -0.49013249491E+03  0.53217790589E+03  0.00000000000E+00 0.  1.
          1    1    6    6  503    0 -0.37810252983E+02 -0.14889585510E+02  0.28376643242E+01  0.40735332650E+02  0.00000000000E+00 0. -1.
         -1    1    6    6    0  503 -0.13023437761E+03 -0.21510793343E+03  0.23047292089E+03  0.34110142685E+03  0.00000000000E+00 0.  1.
<mgrwt>
<rscale>  0 0.18169830E+04</rscale>
<asrwt>0</asrwt>
<pdfrwt beam="1">  1        1 0.35905409E+00 0.18169830E+04</pdfrwt>
<pdfrwt beam="2">  1       -2 0.54407045E-01 0.18169830E+04</pdfrwt>
<totfact> 0.46452174E+00</totfact>
</mgrwt>
</event>
<event>
12    5  0.5264288E-008  0.1806058E+04  0.7818608E-02  0.8703085E-01
          1   -1    0    0  501    0  0.00000000000E+00  0.00000000000E+00  0.11610009827E+04  0.11610009827E+04  0.00000000000E+00 0. -1.
         -2   -1    0    0    0  501 -0.00000000000E+00 -0.00000000000E+00 -0.70237757873E+03  0.70237757873E+03  0.00000000000E+00 0.  1.
        -24    2    1    2    0    0  0.13446384197E+03  0.59820237561E+03 -0.52756106871E+02  0.62087253420E+03  0.82297569438E+02 0.  0.
        254    2    1    2    0    0 -0.13446384197E+03 -0.59820237561E+03  0.51137951083E+03  0.12425060272E+04  0.95204286491E+03 0.  0.
         23    2    4    4    0    0  0.87666829714E+02  0.15615709117E+03  0.39391378148E+03  0.44233065747E+03  0.91748750098E+02 0.  0.
         23    2    4    4    0    0 -0.22213067168E+03 -0.75435946677E+03  0.11746572936E+03  0.80017536976E+03  0.89900969936E+02 0.  0.
          3    1    3    3  502    0  0.98468990516E+02  0.54844534528E+03 -0.47767968388E+02  0.55925863217E+03  0.00000000000E+00 0. -1.
         -4    1    3    3    0  502  0.35994851451E+02  0.49757030321E+02 -0.49881384833E+01  0.61613902026E+02  0.00000000000E+00 0.  1.
         13    1    5    5    0    0  0.64320714606E+02  0.54017684817E+02  0.10170010812E+03  0.13190138965E+03  0.00000000000E+00 0.  1.
        -13    1    5    5    0    0  0.23346115108E+02  0.10213940635E+03  0.29221367336E+03  0.31042926781E+03  0.00000000000E+00 0. -1.
          1    1    6    6  503    0 -0.76010889435E+02 -0.39677565302E+03  0.37761136497E+02  0.40575174377E+03  0.00000000000E+00 0. -1.
         -1    1    6    6    0  503 -0.14611978225E+03 -0.35758381375E+03  0.79704592860E+02  0.39442362600E+03  0.00000000000E+00 0.  1.
<mgrwt>
<rscale>  0 0.18060577E+04</rscale>
<asrwt>0</asrwt>
<pdfrwt beam="1">  1        1 0.17861554E+00 0.18060577E+04</pdfrwt>
<pdfrwt beam="2">  1       -2 0.10805809E+00 0.18060577E+04</pdfrwt>
<totfact> 0.64775309E+00</totfact>
</mgrwt>
</event>
<event>
12    5  0.5264288E-008  0.1772341E+04  0.7818608E-02  0.8721148E-01
          1   -1    0    0  501    0  0.00000000000E+00  0.00000000000E+00  0.96984878781E+03  0.96984878781E+03  0.00000000000E+00 0. -1.
         -2   -1    0    0    0  501 -0.00000000000E+00 -0.00000000000E+00 -0.80971195981E+03  0.80971195981E+03  0.00000000000E+00 0.  1.
        -24    2    1    2    0    0 -0.33298127750E+03  0.32474213688E+02  0.62670992029E+03  0.71521675601E+03  0.82695696160E+02 0.  0.
        254    2    1    2    0    0  0.33298127750E+03 -0.32474213688E+02 -0.46657309229E+03  0.10643439916E+04  0.89621792903E+03 0.  0.
         23    2    4    4    0    0  0.29683323471E+03 -0.20865942327E+03  0.15945926525E+03  0.40668618964E+03  0.91201290664E+02 0.  0.
         23    2    4    4    0    0  0.36148042793E+02  0.17618520958E+03 -0.62603235754E+03  0.65765780198E+03  0.90826002554E+02 0.  0.
          1    1    3    3  502    0 -0.15765146651E+03  0.20919273825E+02  0.21368566666E+03  0.26637035317E+03  0.00000000000E+00 0. -1.
         -2    1    3    3    0  502 -0.17532981099E+03  0.11554939863E+02  0.41302425363E+03  0.44884640284E+03  0.00000000000E+00 0.  1.
         13    1    5    5    0    0  0.40193866490E+02 -0.45944376274E+01  0.42222034501E+02  0.58475259367E+02  0.00000000000E+00 0. -1.
        -13    1    5    5    0    0  0.25663936822E+03 -0.20406498564E+03  0.11723723075E+03  0.34821093027E+03  0.00000000000E+00 0.  1.
          2    1    6    6  503    0  0.29498430392E+02  0.25689736147E+02 -0.57770676270E+02  0.69767979587E+02  0.00000000000E+00 0. -1.
         -2    1    6    6    0  503  0.66496124011E+01  0.15049547344E+03 -0.56826168127E+03  0.58788982239E+03  0.00000000000E+00 0.  1.
<mgrwt>
<rscale>  0 0.17723410E+04</rscale>
<asrwt>0</asrwt>
<pdfrwt beam="1">  1        1 0.14920751E+00 0.17723410E+04</pdfrwt>
<pdfrwt beam="2">  1       -2 0.12457107E+00 0.17723410E+04</pdfrwt>
<totfact> 0.64077667E+00</totfact>
</mgrwt>
</event>
<event>
12    5  0.5264288E-008  0.1835390E+04  0.7818608E-02  0.8687703E-01
         -2   -1    0    0    0  501 -0.00000000000E+00  0.00000000000E+00  0.31636322611E+03  0.31636322611E+03  0.00000000000E+00 0.  1.
          1   -1    0    0  501    0  0.00000000000E+00 -0.00000000000E+00 -0.26620155536E+04  0.26620155536E+04  0.00000000000E+00 0. -1.
        -24    2    1    2    0    0  0.44699799974E+03  0.24758612110E+03 -0.16401881582E+04  0.17198689058E+04  0.81398768563E+02 0.  0.
        254    2    1    2    0    0 -0.44699799974E+03 -0.24758612110E+03 -0.70546416925E+03  0.12585098739E+04  0.90832885540E+03 0.  0.
         23    2    4    4    0    0 -0.36601441821E+03  0.28190710697E+03 -0.47588718687E+03  0.66865974607E+03  0.84847334031E+02 0.  0.
         23    2    4    4    0    0 -0.80983581526E+02 -0.52949322807E+03 -0.22957698238E+03  0.58985012785E+03  0.91083277503E+02 0.  0.
          3    1    3    3  502    0  0.39910689757E+03  0.19450723962E+03 -0.14600892895E+04  0.15260996413E+04  0.00000000000E+00 0. -1.
         -4    1    3    3    0  502  0.47891102168E+02  0.53078881476E+02 -0.18009886870E+03  0.19376926442E+03  0.00000000000E+00 0.  1.
         13    1    5    5    0    0 -0.27762006284E+03  0.23538099343E+03 -0.32653144930E+03  0.48897842359E+03  0.00000000000E+00 0. -1.
        -13    1    5    5    0    0 -0.88394355366E+02  0.46526113549E+02 -0.14935573757E+03  0.17968132248E+03  0.00000000000E+00 0.  1.
          3    1    6    6  503    0 -0.59450231638E+02 -0.44283921310E+03 -0.22544254266E+03  0.50046502249E+03  0.00000000000E+00 0. -1.
         -3    1    6    6    0  503 -0.21533349888E+02 -0.86654014975E+02 -0.41344397199E+01  0.89385105361E+02  0.00000000000E+00 0.  1.
<mgrwt>
<rscale>  0 0.18353897E+04</rscale>
<asrwt>0</asrwt>
<pdfrwt beam="1">  1        1 0.40954087E+00 0.18353897E+04</pdfrwt>
<pdfrwt beam="2">  1       -2 0.48671264E-01 0.18353897E+04</pdfrwt>
<totfact> 0.34531303E+00</totfact>
</mgrwt>
</event>
<event>
12    5  0.5264288E-008  0.1704681E+04  0.7818608E-02  0.8758699E-01
         -2   -1    0    0    0  501 -0.00000000000E+00  0.00000000000E+00  0.50905060930E+03  0.50905060930E+03  0.00000000000E+00 0.  1.
          1   -1    0    0  501    0  0.00000000000E+00 -0.00000000000E+00 -0.14271365932E+04  0.14271365932E+04  0.00000000000E+00 0. -1.
        -24    2    1    2    0    0  0.53489640609E+03  0.29872008481E+03 -0.43251906116E+03  0.75429599343E+03  0.80881723064E+02 0.  0.
        254    2    1    2    0    0 -0.53489640609E+03 -0.29872008481E+03 -0.48556692275E+03  0.11818912091E+04  0.88642187434E+03 0.  0.
         23    2    4    4    0    0 -0.54018900563E+02  0.28706872875E+03 -0.78108019846E+02  0.31670483523E+03  0.94205059575E+02 0.  0.
         23    2    4    4    0    0 -0.48087750552E+03 -0.58578881356E+03 -0.40745890290E+03  0.86518637384E+03  0.90183116556E+02 0.  0.
          3    1    3    3  502    0  0.75222437342E+01  0.15937526637E+02 -0.23863983913E+02  0.29666119299E+02  0.00000000000E+00 0. -1.
         -4    1    3    3    0  502  0.52737416235E+03  0.28278255817E+03 -0.40865507725E+03  0.72462987413E+03  0.00000000000E+00 0.  1.
         13    1    5    5    0    0 -0.10239303467E+02  0.60719112126E+02  0.21966115346E+02  0.65377091831E+02  0.00000000000E+00 0. -1.
        -13    1    5    5    0    0 -0.43779597096E+02  0.22634961663E+03 -0.10007413519E+03  0.25132774340E+03  0.00000000000E+00 0.  1.
          1    1    6    6  503    0 -0.25665012840E+02 -0.45741519880E+02 -0.54351237019E+02  0.75531691961E+02  0.00000000000E+00 0. -1.
         -1    1    6    6    0  503 -0.45521249268E+03 -0.54004729368E+03 -0.35310766589E+03  0.78965468188E+03  0.00000000000E+00 0.  1.
<mgrwt>
<rscale>  0 0.17046815E+04</rscale>
<asrwt>0</asrwt>
<pdfrwt beam="1">  1        1 0.21955947E+00 0.17046815E+04</pdfrwt>
<pdfrwt beam="2">  1       -2 0.78315479E-01 0.17046815E+04</pdfrwt>
<totfact> 0.88989670E+00</totfact>
</mgrwt>
</event>
<event>
12    5  0.5264288E-008  0.1210935E+04  0.7818608E-02  0.9103338E-01
          1   -1    0    0  501    0  0.00000000000E+00  0.00000000000E+00  0.10301195766E+04  0.10301195766E+04  0.00000000000E+00 0. -1.
         -2   -1    0    0    0  501 -0.00000000000E+00 -0.00000000000E+00 -0.35587243726E+03  0.35587243726E+03  0.00000000000E+00 0.  1.
        -24    2    1    2    0    0  0.99103728053E+02 -0.22728270768E+03  0.13197783679E+03  0.29291797092E+03  0.83089169949E+02 0.  0.
        254    2    1    2    0    0 -0.99103728053E+02  0.22728270768E+03  0.54226930257E+03  0.10930740430E+04  0.91612001875E+03 0.  0.
         23    2    4    4    0    0 -0.80430021505E+02 -0.46749226729E+02  0.73437733289E+03  0.74571829472E+03  0.90173330070E+02 0.  0.
         23    2    4    4    0    0 -0.18673706548E+02  0.27403193441E+03 -0.19210803032E+03  0.34735574824E+03  0.91149943110E+02 0.  0.
          3    1    3    3  502    0  0.70037094072E+02 -0.21925632570E+03  0.12517246232E+03  0.26200510725E+03  0.00000000000E+00 0. -1.
         -4    1    3    3    0  502  0.29066633981E+02 -0.80263819815E+01  0.68053744768E+01  0.30912863673E+02  0.00000000000E+00 0.  1.
         13    1    5    5    0    0  0.16364070627E+01  0.49779229940E+01  0.28896978193E+00  0.52479566446E+01  0.00000000000E+00 0.  1.
        -13    1    5    5    0    0 -0.82066428568E+02 -0.51727149723E+02  0.73408836311E+03  0.74047033808E+03  0.00000000000E+00 0. -1.
          4    1    6    6  503    0  0.34488336809E+02  0.88968051925E+02 -0.47732854968E+02  0.10669201040E+03  0.00000000000E+00 0.  1.
         -4    1    6    6    0  503 -0.53162043357E+02  0.18506388248E+03 -0.14437517536E+03  0.24066373784E+03  0.00000000000E+00 0. -1.
<mgrwt>
<rscale>  0 0.12109354E+04</rscale>
<asrwt>0</asrwt>
<pdfrwt beam="1">  1        1 0.15847993E+00 0.12109354E+04</pdfrwt>
<pdfrwt beam="2">  1       -2 0.54749606E-01 0.12109354E+04</pdfrwt>
<totfact> 0.39012345E+01</totfact>
</mgrwt>
</event>
<event>
12    5  0.5264288E-008  0.1953844E+04  0.7818608E-02  0.8628510E-01
          1   -1    0    0  501    0  0.00000000000E+00  0.00000000000E+00  0.11888866793E+04  0.11888866793E+04  0.00000000000E+00 0. -1.
         -2   -1    0    0    0  501 -0.00000000000E+00 -0.00000000000E+00 -0.80274790323E+03  0.80274790323E+03  0.00000000000E+00 0.  1.
        -24    2    1    2    0    0  0.35489606985E+03  0.57236225033E+03  0.51748757647E+03  0.85285878201E+03  0.77620514413E+02 0.  0.
        254    2    1    2    0    0 -0.35489606985E+03 -0.57236225033E+03 -0.13134880044E+03  0.11387758005E+04  0.90884985029E+03 0.  0.
         23    2    4    4    0    0  0.28572858757E+03 -0.31347325109E+03 -0.35283623964E+02  0.43540043947E+03  0.91773109745E+02 0.  0.
         23    2    4    4    0    0 -0.64062465742E+03 -0.25888899925E+03 -0.96065176479E+02  0.70337536100E+03  0.89916153786E+02 0.  0.
          1    1    3    3  502    0  0.10904486056E+03  0.12293160679E+03  0.14896892150E+03  0.22179878525E+03  0.00000000000E+00 0. -1.
         -2    1    3    3    0  502  0.24585120929E+03  0.44943064354E+03  0.36851865497E+03  0.63105999677E+03  0.00000000000E+00 0.  1.
         13    1    5    5    0    0  0.27184348344E+02 -0.64973751446E+02 -0.30532263990E+02  0.76764551169E+02  0.00000000000E+00 0.  1.
        -13    1    5    5    0    0  0.25854423923E+03 -0.24849949964E+03 -0.47513599743E+01  0.35863588831E+03  0.00000000000E+00 0. -1.
          1    1    6    6  503    0 -0.54464041865E+03 -0.25301396348E+03 -0.86466257957E+02  0.60673360308E+03  0.00000000000E+00 0. -1.
         -1    1    6    6    0  503 -0.95984238770E+02 -0.58750357630E+01 -0.95989185221E+01  0.96641757922E+02  0.00000000000E+00 0.  1.
<mgrwt>
<rscale>  0 0.19538437E+04</rscale>
<asrwt>0</asrwt>
<pdfrwt beam="1">  1        1 0.18290564E+00 0.19538437E+04</pdfrwt>
<pdfrwt beam="2">  1       -2 0.12349968E+00 0.19538437E+04</pdfrwt>
<totfact> 0.43960386E+00</totfact>
</mgrwt>
</event>
<event>
12    5  0.5264288E-008  0.1577972E+04  0.7818608E-02  0.8834196E-01
          1   -1    0    0  501    0  0.00000000000E+00  0.00000000000E+00  0.17613378750E+04  0.17613378750E+04  0.00000000000E+00 0. -1.
         -2   -1    0    0    0  501 -0.00000000000E+00 -0.00000000000E+00 -0.35342404222E+03  0.35342404222E+03  0.00000000000E+00 0.  1.
        -24    2    1    2    0    0  0.12297501828E+03 -0.30125480945E+03  0.10563416672E+04  0.11082391679E+04  0.80368029294E+02 0.  0.
        254    2    1    2    0    0 -0.12297501828E+03  0.30125480945E+03  0.35157216563E+03  0.10065227493E+04  0.88521621198E+03 0.  0.
         23    2    4    4    0    0 -0.30402133379E+03  0.50272126195E+03  0.59126140732E+02  0.59754703574E+03  0.91700167849E+02 0.  0.
         23    2    4    4    0    0  0.18104631551E+03 -0.20146645251E+03  0.29244602490E+03  0.40897571360E+03  0.91487469017E+02 0.  0.
          1    1    3    3  502    0  0.11883951717E+03 -0.20034446068E+03  0.69170095650E+03  0.72987050015E+03  0.00000000000E+00 0. -1.
         -2    1    3    3    0  502  0.41355011156E+01 -0.10091034876E+03  0.36464071066E+03  0.37836866774E+03  0.00000000000E+00 0.  1.
         13    1    5    5    0    0 -0.18684695364E+01  0.37175265038E+01  0.11527107878E+02  0.12255015208E+02  0.00000000000E+00 0. -1.
        -13    1    5    5    0    0 -0.30215286426E+03  0.49900373545E+03  0.47599032854E+02  0.58529202053E+03  0.00000000000E+00 0.  1.
          4    1    6    6  503    0  0.12218353697E+03 -0.18947730070E+03  0.23916614278E+03  0.32868055622E+03  0.00000000000E+00 0.  1.
         -4    1    6    6    0  503  0.58862778545E+02 -0.11989151804E+02  0.53279882124E+02  0.80295157377E+02  0.00000000000E+00 0. -1.
<mgrwt>
<rscale>  0 0.15779723E+04</rscale>
<asrwt>0</asrwt>
<pdfrwt beam="1">  1        1 0.27097505E+00 0.15779723E+04</pdfrwt>
<pdfrwt beam="2">  1       -2 0.54372931E-01 0.15779723E+04</pdfrwt>
<totfact> 0.11629584E+01</totfact>
</mgrwt>
</event>
<event>
12    5  0.5264288E-008  0.1756039E+04  0.7818608E-02  0.8730033E-01
          1   -1    0    0  501    0  0.00000000000E+00  0.00000000000E+00  0.17754479260E+04  0.17754479260E+04  0.00000000000E+00 0. -1.
         -4   -1    0    0    0  501 -0.00000000000E+00 -0.00000000000E+00 -0.43421047014E+03  0.43421047014E+03  0.00000000000E+00 0.  1.
        -24    2    1    2    0    0 -0.27184022926E+03 -0.40606111000E+03  0.10277828539E+04  0.11406690616E+04  0.77495664947E+02 0.  0.
        254    2    1    2    0    0  0.27184022926E+03  0.40606111000E+03  0.31345460192E+03  0.10689893345E+04  0.89760886495E+03 0.  0.
         23    2    4    4    0    0 -0.31964983622E+03  0.16195355125E+03  0.59722545697E+02  0.37479665077E+03  0.92199655107E+02 0.  0.
         23    2    4    4    0    0  0.59149006548E+03  0.24410755875E+03  0.25373205622E+03  0.69419268369E+03  0.89858377109E+02 0.  0.
          1    1    3    3  502    0 -0.27697210412E+03 -0.40167469184E+03  0.10108856104E+04  0.11224730829E+04  0.00000000000E+00 0. -1.
         -2    1    3    3    0  502  0.51318748629E+01 -0.43864181583E+01  0.16897243483E+02  0.18195978709E+02  0.00000000000E+00 0.  1.
         13    1    5    5    0    0 -0.21977501574E+03  0.11869045372E+03 -0.17729713968E+01  0.24978315550E+03  0.00000000000E+00 0.  1.
        -13    1    5    5    0    0 -0.99874820489E+02  0.43263097529E+02  0.61495517094E+02  0.12501349526E+03  0.00000000000E+00 0. -1.
          2    1    6    6  503    0  0.96986320098E+02  0.48223951854E+02  0.89526140709E+01  0.10868323292E+03  0.00000000000E+00 0. -1.
         -2    1    6    6    0  503  0.49450374538E+03  0.19588360690E+03  0.24477944215E+03  0.58550945078E+03  0.00000000000E+00 0.  1.
<mgrwt>
<rscale>  0 0.17560388E+04</rscale>
<asrwt>0</asrwt>
<pdfrwt beam="1">  1        1 0.27314583E+00 0.17560388E+04</pdfrwt>
<pdfrwt beam="2">  1       -4 0.66801612E-01 0.17560388E+04</pdfrwt>
<totfact> 0.40965361E+00</totfact>
</mgrwt>
</event>
<event>
12    5  0.5264288E-008  0.1494171E+04  0.7818608E-02  0.8888339E-01
         -2   -1    0    0    0  501 -0.00000000000E+00  0.00000000000E+00  0.42412624643E+03  0.42412624643E+03  0.00000000000E+00 0.  1.
          1   -1    0    0  501    0  0.00000000000E+00 -0.00000000000E+00 -0.13159675829E+04  0.13159675829E+04  0.00000000000E+00 0. -1.
        -24    2    1    2    0    0 -0.39882948762E+03 -0.18582769695E+02 -0.59002891366E+03  0.71698718671E+03  0.80785069334E+02 0.  0.
        254    2    1    2    0    0  0.39882948762E+03  0.18582769695E+02 -0.30181242286E+03  0.10231066427E+04  0.89232627674E+03 0.  0.
         23    2    4    4    0    0  0.43697547916E+03  0.13725715904E+03 -0.55583719783E+03  0.72589940685E+03  0.90486801705E+02 0.  0.
         23    2    4    4    0    0 -0.38145991542E+02 -0.11867438935E+03  0.25402477497E+03  0.29720723582E+03  0.90911095948E+02 0.  0.
          1    1    3    3  502    0 -0.37594607033E+03 -0.18951742125E+02 -0.51078451485E+03  0.63450408741E+03  0.00000000000E+00 0. -1.
         -2    1    3    3    0  502 -0.22883417281E+02  0.36897242904E+00 -0.79244398806E+02  0.82483099295E+02  0.00000000000E+00 0.  1.
         13    1    5    5    0    0  0.19016578809E+03  0.14736863197E+02 -0.24550694727E+03  0.31089204437E+03  0.00000000000E+00 0. -1.
        -13    1    5    5    0    0  0.24680969107E+03  0.12252029584E+03 -0.31033025056E+03  0.41500736248E+03  0.00000000000E+00 0.  1.
          4    1    6    6  503    0 -0.20236913973E+02 -0.22136039488E+02  0.61798144631E+01  0.30622329078E+02  0.00000000000E+00 0. -1.
         -4    1    6    6    0  503 -0.17909077569E+02 -0.96538349857E+02  0.24784496051E+03  0.26658490674E+03  0.00000000000E+00 0.  1.
<mgrwt>
<rscale>  0 0.14941705E+04</rscale>
<asrwt>0</asrwt>
<pdfrwt beam="1">  1        1 0.20245655E+00 0.14941705E+04</pdfrwt>
<pdfrwt beam="2">  1       -2 0.65250192E-01 0.14941705E+04</pdfrwt>
<totfact> 0.16196221E+01</totfact>
</mgrwt>
</event>
<event>
12    5  0.5264288E-008  0.1552217E+04  0.7818608E-02  0.8850453E-01
         -2   -1    0    0    0  501 -0.00000000000E+00  0.00000000000E+00  0.22915709284E+03  0.22915709284E+03  0.00000000000E+00 0.  1.
          1   -1    0    0  501    0  0.00000000000E+00 -0.00000000000E+00 -0.26285220677E+04  0.26285220677E+04  0.00000000000E+00 0. -1.
        -24    2    1    2    0    0 -0.43699281972E+03  0.21247291388E+03 -0.11412750805E+04  0.12453333053E+04  0.11062896737E+03 0.  0.
        254    2    1    2    0    0  0.43699281972E+03 -0.21247291388E+03 -0.12580898944E+04  0.16123458552E+04  0.88360710210E+03 0.  0.
         23    2    4    4    0    0  0.61595159697E+02 -0.15954890884E+02  0.12375321396E+03  0.16412767274E+03  0.87031676712E+02 0.  0.
         23    2    4    4    0    0  0.37539766002E+03 -0.19651802299E+03 -0.13818431084E+04  0.14482181825E+04  0.91119654699E+02 0.  0.
          1    1    3    3  502    0 -0.24234581104E+03  0.88839071702E+02 -0.72320945117E+03  0.76789047595E+03  0.00000000000E+00 0. -1.
         -2    1    3    3    0  502 -0.19464700867E+03  0.12363384217E+03 -0.41806562932E+03  0.47744282939E+03  0.00000000000E+00 0.  1.
         13    1    5    5    0    0  0.39498498905E+02 -0.28174797862E+02  0.12944917747E+03  0.13824268587E+03  0.00000000000E+00 0.  1.
        -13    1    5    5    0    0  0.22096660792E+02  0.12219906978E+02 -0.56959635070E+01  0.25884986864E+02  0.00000000000E+00 0. -1.
          1    1    6    6  503    0  0.40495548544E+02 -0.55186071504E+02 -0.26563198719E+03  0.27430957796E+03  0.00000000000E+00 0. -1.
         -1    1    6    6    0  503  0.33490211148E+03 -0.14133195149E+03 -0.11162111212E+04  0.11739086045E+04  0.00000000000E+00 0.  1.
<mgrwt>
<rscale>  0 0.15522171E+04</rscale>
<asrwt>0</asrwt>
<pdfrwt beam="1">  1        1 0.40438804E+00 0.15522171E+04</pdfrwt>
<pdfrwt beam="2">  1       -2 0.35254934E-01 0.15522171E+04</pdfrwt>
<totfact> 0.70630062E+00</totfact>
</mgrwt>
</event>
<event>
12    5  0.5264288E-008  0.1357917E+04  0.7818608E-02  0.8984856E-01
         -2   -1    0    0    0  501 -0.00000000000E+00  0.00000000000E+00  0.15558081419E+03  0.15558081419E+03  0.00000000000E+00 0.  1.
          1   -1    0    0  501    0  0.00000000000E+00 -0.00000000000E+00 -0.29629935239E+04  0.29629935239E+04  0.00000000000E+00 0. -1.
        -24    2    1    2    0    0  0.47022705557E+02 -0.18012810173E+03 -0.45799576289E+02  0.20774584570E+03  0.80021667983E+02 0.  0.
        254    2    1    2    0    0 -0.47022705557E+02  0.18012810173E+03 -0.27616131334E+04  0.29108284924E+04  0.90097621805E+03 0.  0.
         23    2    4    4    0    0 -0.97357153753E+02 -0.26240986285E+03 -0.20158240129E+04  0.20373048751E+04  0.93420297475E+02 0.  0.
         23    2    4    4    0    0  0.50334448196E+02  0.44253796459E+03 -0.74578912055E+03  0.87352361722E+03  0.92025489580E+02 0.  0.
          3    1    3    3  502    0  0.19524677287E+01 -0.77137305012E+02 -0.55288680670E+02  0.94925308348E+02  0.00000000000E+00 0. -1.
         -4    1    3    3    0  502  0.45070237828E+02 -0.10299079672E+03  0.94891043808E+01  0.11282053735E+03  0.00000000000E+00 0.  1.
         13    1    5    5    0    0 -0.62198632572E+02 -0.22594901556E+03 -0.14076122300E+04  0.14269876726E+04  0.00000000000E+00 0.  1.
        -13    1    5    5    0    0 -0.35158521180E+02 -0.36460847291E+02 -0.60821178281E+03  0.61031720257E+03  0.00000000000E+00 0. -1.
          2    1    6    6  503    0  0.12835674143E+02  0.10176605586E+02 -0.57932296141E+02  0.60203561092E+02  0.00000000000E+00 0. -1.
         -2    1    6    6    0  503  0.37498774053E+02  0.43236135900E+03 -0.68785682441E+03  0.81332005613E+03  0.00000000000E+00 0.  1.
<mgrwt>
<rscale>  0 0.13579174E+04</rscale>
<asrwt>0</asrwt>
<pdfrwt beam="1">  1        1 0.45584517E+00 0.13579174E+04</pdfrwt>
<pdfrwt beam="2">  1       -2 0.23935509E-01 0.13579174E+04</pdfrwt>
<totfact> 0.85509328E+00</totfact>
</mgrwt>
</event>
<event>
12    5  0.5264288E-008  0.3466356E+04  0.7818608E-02  0.8121810E-01
          1   -1    0    0  501    0  0.00000000000E+00  0.00000000000E+00  0.35463507757E+04  0.35463507757E+04  0.00000000000E+00 0. -1.
         -2   -1    0    0    0  501 -0.00000000000E+00 -0.00000000000E+00 -0.84704136580E+03  0.84704136580E+03  0.00000000000E+00 0.  1.
        -24    2    1    2    0    0  0.42050642602E+03 -0.12440675831E+04  0.24534823756E+04  0.27839719146E+04  0.79962792070E+02 0.  0.
        254    2    1    2    0    0 -0.42050642602E+03  0.12440675831E+04  0.24582703431E+03  0.16094202269E+04  0.89736989612E+03 0.  0.
         23    2    4    4    0    0 -0.11523000420E+03  0.85611469826E+03 -0.24935526210E+03  0.90477718041E+03  0.10116011570E+03 0.  0.
         23    2    4    4    0    0 -0.30527642182E+03  0.38795288482E+03  0.49518229641E+03  0.70464304653E+03  0.87265008863E+02 0.  0.
          1    1    3    3  502    0  0.42130537714E+03 -0.12437186500E+04  0.24537800813E+04  0.27830506622E+04  0.00000000000E+00 0. -1.
         -2    1    3    3    0  502 -0.79895111501E+00 -0.34893311272E+00 -0.29770570249E+00  0.92125234687E+00  0.00000000000E+00 0.  1.
         13    1    5    5    0    0 -0.65382745004E+02  0.70386949442E+03 -0.23020390333E+03  0.74343863609E+03  0.00000000000E+00 0.  1.
        -13    1    5    5    0    0 -0.49847259192E+02  0.15224520384E+03 -0.19151358771E+02  0.16133854432E+03  0.00000000000E+00 0. -1.
          1    1    6    6  503    0 -0.18252599253E+02  0.51178828804E+02  0.87364140255E+02  0.10288305448E+03  0.00000000000E+00 0. -1.
         -1    1    6    6    0  503 -0.28702382257E+03  0.33677405602E+03  0.40781815616E+03  0.60175999204E+03  0.00000000000E+00 0.  1.
<mgrwt>
<rscale>  0 0.34663559E+04</rscale>
<asrwt>0</asrwt>
<pdfrwt beam="1">  1        1 0.54559242E+00 0.34663559E+04</pdfrwt>
<pdfrwt beam="2">  1       -2 0.13031406E+00 0.34663559E+04</pdfrwt>
<totfact> 0.71324325E-02</totfact>
</mgrwt>
</event>
<event>
12    5  0.5264288E-008  0.1562763E+04  0.7818608E-02  0.8843756E-01
          1   -1    0    0  501    0  0.00000000000E+00  0.00000000000E+00  0.97777625961E+03  0.97777625961E+03  0.00000000000E+00 0. -1.
         -2   -1    0    0    0  501 -0.00000000000E+00 -0.00000000000E+00 -0.62443455101E+03  0.62443455101E+03  0.00000000000E+00 0.  1.
        -24    2    1    2    0    0  0.83338711936E+02 -0.48169200741E+03  0.22900786276E+03  0.54351785462E+03  0.63202263993E+02 0.  0.
        254    2    1    2    0    0 -0.83338711936E+02  0.48169200741E+03  0.12433384584E+03  0.10586929560E+04  0.93080574717E+03 0.  0.
         23    2    4    4    0    0 -0.36597908949E+03 -0.67902681875E+02  0.19467309528E+03  0.42969647243E+03  0.90498487491E+02 0.  0.
         23    2    4    4    0    0  0.28264037755E+03  0.54959468929E+03 -0.70339249447E+02  0.62899648358E+03  0.93536414450E+02 0.  0.
          3    1    3    3  502    0  0.41831924566E+02 -0.29121816428E+03  0.17022763914E+03  0.33990495472E+03  0.00000000000E+00 0. -1.
         -2    1    3    3    0  502  0.41506787371E+02 -0.19047384313E+03  0.58780223624E+02  0.20361289990E+03  0.00000000000E+00 0.  1.
         13    1    5    5    0    0 -0.24932134299E+03 -0.25231819959E+01  0.12776919887E+03  0.28016507045E+03  0.00000000000E+00 0. -1.
        -13    1    5    5    0    0 -0.11665774650E+03 -0.65379499879E+02  0.66903896411E+02  0.14953140198E+03  0.00000000000E+00 0.  1.
          2    1    6    6  503    0  0.16370985736E+02  0.15335103139E+02 -0.19808035181E+02  0.29925454382E+02  0.00000000000E+00 0. -1.
         -2    1    6    6    0  503  0.26626939182E+03  0.53425958615E+03 -0.50531214266E+02  0.59907102920E+03  0.00000000000E+00 0.  1.
<mgrwt>
<rscale>  0 0.15627633E+04</rscale>
<asrwt>0</asrwt>
<pdfrwt beam="1">  1        1 0.15042712E+00 0.15627633E+04</pdfrwt>
<pdfrwt beam="2">  1       -2 0.96066854E-01 0.15627633E+04</pdfrwt>
<totfact> 0.12066981E+01</totfact>
</mgrwt>
</event>
<event>
12    5  0.5264288E-008  0.2240028E+04  0.7818608E-02  0.8501950E-01
          1   -1    0    0  501    0  0.00000000000E+00  0.00000000000E+00  0.11409699891E+04  0.11409699891E+04  0.00000000000E+00 0. -1.
         -2   -1    0    0    0  501 -0.00000000000E+00 -0.00000000000E+00 -0.10994432755E+04  0.10994432755E+04  0.00000000000E+00 0.  1.
        -24    2    1    2    0    0 -0.91114575446E+03  0.24076901657E+02  0.24791708755E+03  0.94784238632E+03  0.78587683149E+02 0.  0.
        254    2    1    2    0    0  0.91114575446E+03 -0.24076901657E+02 -0.20639037388E+03  0.12925708783E+04  0.89295924090E+03 0.  0.
         23    2    4    4    0    0  0.43628422491E+03  0.44476099384E+02 -0.53967003775E+03  0.70131723815E+03  0.90994893019E+02 0.  0.
         23    2    4    4    0    0  0.47486152954E+03 -0.68553001041E+02  0.33327966387E+03  0.59125364014E+03  0.91173167336E+02 0.  0.
          1    1    3    3  502    0 -0.70498622098E+03  0.46735329637E+02  0.20924151647E+03  0.73686618528E+03  0.00000000000E+00 0. -1.
         -2    1    3    3    0  502 -0.20615953348E+03 -0.22658427980E+02  0.38675571079E+02  0.21097620103E+03  0.00000000000E+00 0.  1.
         13    1    5    5    0    0  0.31079999398E+03  0.64452107480E+02 -0.42273060944E+03  0.52863208243E+03  0.00000000000E+00 0. -1.
        -13    1    5    5    0    0  0.12548423093E+03 -0.19976008096E+02 -0.11693942831E+03  0.17268515572E+03  0.00000000000E+00 0.  1.
          4    1    6    6  503    0  0.42724769292E+03 -0.89210313606E+02  0.29692044305E+03  0.52788334001E+03  0.00000000000E+00 0. -1.
         -4    1    6    6    0  503  0.47613836623E+02  0.20657312565E+02  0.36359220816E+02  0.63370300131E+02  0.00000000000E+00 0.  1.
<mgrwt>
<rscale>  0 0.22400284E+04</rscale>
<asrwt>0</asrwt>
<pdfrwt beam="1">  1        1 0.17553385E+00 0.22400284E+04</pdfrwt>
<pdfrwt beam="2">  1       -2 0.16914512E+00 0.22400284E+04</pdfrwt>
<totfact> 0.20349276E+00</totfact>
</mgrwt>
</event>
<event>
12    5  0.5264288E-008  0.1633567E+04  0.7818608E-02  0.8800188E-01
         -2   -1    0    0    0  501 -0.00000000000E+00  0.00000000000E+00  0.22431643306E+03  0.22431643306E+03  0.00000000000E+00 0.  1.
          1   -1    0    0  501    0  0.00000000000E+00 -0.00000000000E+00 -0.29740797052E+04  0.29740797052E+04  0.00000000000E+00 0. -1.
        -24    2    1    2    0    0 -0.35953593661E+03 -0.12528023202E+03 -0.17669781487E+04  0.18092878136E+04  0.79683048335E+02 0.  0.
        254    2    1    2    0    0  0.35953593661E+03  0.12528023202E+03 -0.98278512350E+03  0.13891083247E+04  0.90487242890E+03 0.  0.
         23    2    4    4    0    0 -0.11362398032E+03  0.39388609352E+03 -0.33933106299E+03  0.54138856960E+03  0.99495474314E+02 0.  0.
         23    2    4    4    0    0  0.47315991694E+03 -0.26860586150E+03 -0.64345406051E+03  0.84771975512E+03  0.92553981033E+02 0.  0.
          1    1    3    3  502    0 -0.39032712579E+02 -0.68678855972E+01 -0.32369194273E+03  0.32610917542E+03  0.00000000000E+00 0. -1.
         -2    1    3    3    0  502 -0.32050322404E+03 -0.11841234642E+03 -0.14432862059E+04  0.14831786381E+04  0.00000000000E+00 0.  1.
         13    1    5    5    0    0 -0.20140861829E+02  0.49567671874E+02 -0.72818973374E+01  0.53996615071E+02  0.00000000000E+00 0. -1.
        -13    1    5    5    0    0 -0.93483118496E+02  0.34431842165E+03 -0.33204916565E+03  0.48739195453E+03  0.00000000000E+00 0.  1.
          1    1    6    6  503    0  0.10354445233E+02  0.57073199879E+01 -0.50496413452E+01  0.12856395889E+02  0.00000000000E+00 0. -1.
         -1    1    6    6    0  503  0.46280547171E+03 -0.27431318149E+03 -0.63840441916E+03  0.83486335923E+03  0.00000000000E+00 0.  1.
<mgrwt>
<rscale>  0 0.16335666E+04</rscale>
<asrwt>0</asrwt>
<pdfrwt beam="1">  1        1 0.45755068E+00 0.16335666E+04</pdfrwt>
<pdfrwt beam="2">  1       -2 0.34510223E-01 0.16335666E+04</pdfrwt>
<totfact> 0.41476990E+00</totfact>
</mgrwt>
</event>
<event>
12    5  0.5264288E-008  0.2660856E+04  0.7818608E-02  0.8347819E-01
         -2   -1    0    0    0  501 -0.00000000000E+00  0.00000000000E+00  0.17472306969E+04  0.17472306969E+04  0.00000000000E+00 0.  1.
          1   -1    0    0  501    0  0.00000000000E+00 -0.00000000000E+00 -0.10130534918E+04  0.10130534918E+04  0.00000000000E+00 0. -1.
        -24    2    1    2    0    0  0.66083464373E+03  0.89477512703E+03 -0.78336965178E+02  0.11179421131E+04  0.79579732257E+02 0.  0.
        254    2    1    2    0    0 -0.66083464373E+03 -0.89477512703E+03  0.81251417027E+03  0.16423420757E+04  0.89430602281E+03 0.  0.
         23    2    4    4    0    0 -0.13734209337E+03 -0.82037005873E+03  0.70701962002E+03  0.10955236250E+04  0.91789900646E+02 0.  0.
         23    2    4    4    0    0 -0.52349255035E+03 -0.74405068298E+02  0.10549455025E+03  0.54681845075E+03  0.91108470981E+02 0.  0.
          3    1    3    3  502    0  0.35536952627E+03  0.41859080133E+03 -0.52781419278E+02  0.55162635667E+03  0.00000000000E+00 0. -1.
         -4    1    3    3    0  502  0.30546511746E+03  0.47618432570E+03 -0.25555545900E+02  0.56631575641E+03  0.00000000000E+00 0.  1.
         13    1    5    5    0    0 -0.22571706248E+02 -0.60803976014E+02  0.85960803014E+02  0.10768409853E+03  0.00000000000E+00 0. -1.
        -13    1    5    5    0    0 -0.11477038712E+03 -0.75956608272E+03  0.62105881700E+03  0.98783952642E+03  0.00000000000E+00 0.  1.
          3    1    6    6  503    0 -0.16842660840E+03 -0.49330010735E+02  0.70570170476E+02  0.18915898429E+03  0.00000000000E+00 0. -1.
         -3    1    6    6    0  503 -0.35506594195E+03 -0.25075057564E+02  0.34924379773E+02  0.35765946646E+03  0.00000000000E+00 0.  1.
<mgrwt>
<rscale>  0 0.26608556E+04</rscale>
<asrwt>0</asrwt>
<pdfrwt beam="1">  1        1 0.15585438E+00 0.26608556E+04</pdfrwt>
<pdfrwt beam="2">  1       -2 0.26880472E+00 0.26608556E+04</pdfrwt>
<totfact> 0.55987244E-01</totfact>
</mgrwt>
</event>
<event>
12    5  0.5264288E-008  0.1290475E+04  0.7818608E-02  0.9037153E-01
         -2   -1    0    0    0  501 -0.00000000000E+00  0.00000000000E+00  0.34752751932E+03  0.34752751932E+03  0.00000000000E+00 0.  1.
          1   -1    0    0  501    0  0.00000000000E+00 -0.00000000000E+00 -0.11979804180E+04  0.11979804180E+04  0.00000000000E+00 0. -1.
        -24    2    1    2    0    0  0.10198699688E+03  0.96294474938E+02 -0.55147439689E+03  0.57447543832E+03  0.78892619199E+02 0.  0.
        254    2    1    2    0    0 -0.10198699688E+03 -0.96294474938E+02 -0.29897850176E+03  0.97103249897E+03  0.91314949275E+03 0.  0.
         23    2    4    4    0    0 -0.33248717103E+03 -0.29747602616E+03 -0.42900523771E+03  0.62590867250E+03  0.93147556565E+02 0.  0.
         23    2    4    4    0    0  0.23050017416E+03  0.20118155122E+03  0.13002673594E+03  0.34512382647E+03  0.92731638065E+02 0.  0.
          1    1    3    3  502    0  0.10006609506E+03  0.50855287224E+02 -0.43973246928E+03  0.45383270944E+03  0.00000000000E+00 0. -1.
         -2    1    3    3    0  502  0.19209018205E+01  0.45439187714E+02 -0.11174192761E+03  0.12064272887E+03  0.00000000000E+00 0.  1.
         13    1    5    5    0    0 -0.11041878256E+03 -0.60291062326E+02 -0.80097095227E+02  0.14914041840E+03  0.00000000000E+00 0.  1.
        -13    1    5    5    0    0 -0.22206838848E+03 -0.23718496383E+03 -0.34890814248E+03  0.47676825410E+03  0.00000000000E+00 0. -1.
          1    1    6    6  503    0  0.23692021420E+03  0.18900060562E+03  0.11353495542E+03  0.32363961891E+03  0.00000000000E+00 0. -1.
         -1    1    6    6    0  503 -0.64200400438E+01  0.12180945597E+02  0.16491780522E+02  0.21484207562E+02  0.00000000000E+00 0.  1.
<mgrwt>
<rscale>  0 0.12904746E+04</rscale>
<asrwt>0</asrwt>
<pdfrwt beam="1">  1        1 0.18430468E+00 0.12904746E+04</pdfrwt>
<pdfrwt beam="2">  1       -2 0.53465772E-01 0.12904746E+04</pdfrwt>
<totfact> 0.30481923E+01</totfact>
</mgrwt>
</event>
<event>
12    5  0.5264288E-008  0.1654223E+04  0.7818608E-02  0.8787912E-01
         -2   -1    0    0    0  501 -0.00000000000E+00  0.00000000000E+00  0.41935939057E+03  0.41935939057E+03  0.00000000000E+00 0.  1.
          1   -1    0    0  501    0  0.00000000000E+00 -0.00000000000E+00 -0.16313290231E+04  0.16313290231E+04  0.00000000000E+00 0. -1.
        -24    2    1    2    0    0  0.36614194531E+03  0.45029545059E+03 -0.44280131397E+03  0.73420059064E+03  0.78432051525E+02 0.  0.
        254    2    1    2    0    0 -0.36614194531E+03 -0.45029545059E+03 -0.76916831853E+03  0.13164878230E+04  0.89704758454E+03 0.  0.
         23    2    4    4    0    0 -0.47145354799E+01 -0.90544504012E+02 -0.78584739264E+03  0.79623765073E+03  0.90651739439E+02 0.  0.
         23    2    4    4    0    0 -0.36142740983E+03 -0.35975094658E+03  0.16679074106E+02  0.52025017227E+03  0.10164415425E+03 0.  0.
          1    1    3    3  502    0  0.17636063841E+03  0.22471491721E+03 -0.16920981764E+03  0.33201179374E+03  0.00000000000E+00 0. -1.
         -2    1    3    3    0  502  0.18978130690E+03  0.22558053338E+03 -0.27359149633E+03  0.40218879690E+03  0.00000000000E+00 0.  1.
         13    1    5    5    0    0 -0.15304060844E+02 -0.81973482232E+02 -0.77308687829E+03  0.77757133914E+03  0.00000000000E+00 0.  1.
        -13    1    5    5    0    0  0.10589525364E+02 -0.85710217798E+01 -0.12760514352E+02  0.18666311588E+02  0.00000000000E+00 0. -1.
          3    1    6    6  503    0 -0.18560898551E+03 -0.24412728428E+03  0.36735257527E+02  0.30886616127E+03  0.00000000000E+00 0. -1.
         -3    1    6    6    0  503 -0.17581842432E+03 -0.11562366230E+03 -0.20056183421E+02  0.21138401100E+03  0.00000000000E+00 0.  1.
<mgrwt>
<rscale>  0 0.16542227E+04</rscale>
<asrwt>0</asrwt>
<pdfrwt beam="1">  1        1 0.25097370E+00 0.16542227E+04</pdfrwt>
<pdfrwt beam="2">  1       -2 0.64516829E-01 0.16542227E+04</pdfrwt>
<totfact> 0.98770964E+00</totfact>
</mgrwt>
</event>
<event>
12    5  0.5264288E-008  0.1264635E+04  0.7818608E-02  0.9058090E-01
         -4   -1    0    0    0  501 -0.00000000000E+00  0.00000000000E+00  0.10669424653E+04  0.10669424653E+04  0.00000000000E+00 0.  1.
          3   -1    0    0  501    0  0.00000000000E+00 -0.00000000000E+00 -0.37473940283E+03  0.37473940283E+03  0.00000000000E+00 0. -1.
        -24    2    1    2    0    0  0.96274674409E+02  0.42840395025E+02  0.45936241732E+03  0.47844943222E+03  0.82437348114E+02 0.  0.
        254    2    1    2    0    0 -0.96274674409E+02 -0.42840395025E+02  0.23284064514E+03  0.96323243591E+03  0.92870762201E+03 0.  0.
         23    2    4    4    0    0  0.24517063239E+03 -0.17714137912E+03 -0.21200439914E+03  0.37957740706E+03  0.87438181106E+02 0.  0.
         23    2    4    4    0    0 -0.34144530680E+03  0.13430098410E+03  0.44484504428E+03  0.58365502885E+03  0.90246481451E+02 0.  0.
          1    1    3    3  502    0  0.23894887169E+02  0.53017345113E+02  0.15836761674E+03  0.16870716211E+03  0.00000000000E+00 0. -1.
         -2    1    3    3    0  502  0.72379787241E+02 -0.10176950088E+02  0.30099480058E+03  0.30974227011E+03  0.00000000000E+00 0.  1.
         13    1    5    5    0    0  0.22840114095E+03 -0.17325696663E+03 -0.16788859154E+03  0.33222227024E+03  0.00000000000E+00 0.  1.
        -13    1    5    5    0    0  0.16769491437E+02 -0.38844124966E+01 -0.44115807603E+02  0.47355136828E+02  0.00000000000E+00 0. -1.
          3    1    6    6  503    0 -0.31562576753E+03  0.14597275573E+03  0.39453165113E+03  0.52591148903E+03  0.00000000000E+00 0.  1.
         -3    1    6    6    0  503 -0.25819539264E+02 -0.11671771631E+02  0.50313393149E+02  0.57743539821E+02  0.00000000000E+00 0. -1.
<mgrwt>
<rscale>  0 0.12646349E+04</rscale>
<asrwt>0</asrwt>
<pdfrwt beam="1">  1        3 0.57652216E-01 0.12646349E+04</pdfrwt>
<pdfrwt beam="2">  1       -4 0.16414499E+00 0.12646349E+04</pdfrwt>
<totfact> 0.15472549E+00</totfact>
</mgrwt>
</event>
<event>
12    5  0.5264288E-008  0.1995266E+04  0.7818608E-02  0.8608837E-01
         -2   -1    0    0    0  501 -0.00000000000E+00  0.00000000000E+00  0.11669934696E+04  0.11669934696E+04  0.00000000000E+00 0.  1.
          1   -1    0    0  501    0  0.00000000000E+00 -0.00000000000E+00 -0.85285083665E+03  0.85285083665E+03  0.00000000000E+00 0. -1.
        -24    2    1    2    0    0  0.34895057390E+03  0.69397370401E+03  0.21761913859E+03  0.81059555957E+03  0.79630815857E+02 0.  0.
        254    2    1    2    0    0 -0.34895057390E+03 -0.69397370401E+03  0.96523494378E+02  0.12092487467E+04  0.92173734954E+03 0.  0.
         23    2    4    4    0    0 -0.48068863799E+02 -0.56822556110E+03 -0.32932789440E+03  0.66459578592E+03  0.89664890953E+02 0.  0.
         23    2    4    4    0    0 -0.30088171010E+03 -0.12574814291E+03  0.42585138878E+03  0.54465296078E+03  0.94631091356E+02 0.  0.
          1    1    3    3  502    0  0.44058043048E+02  0.13954964276E+03  0.19851992346E+02  0.14767977367E+03  0.00000000000E+00 0. -1.
         -2    1    3    3    0  502  0.30489253085E+03  0.55442406125E+03  0.19776714624E+03  0.66291578590E+03  0.00000000000E+00 0.  1.
         13    1    5    5    0    0 -0.38756743648E+02 -0.53365760654E+03 -0.33026628024E+03  0.62878322342E+03  0.00000000000E+00 0.  1.
        -13    1    5    5    0    0 -0.93121201512E+01 -0.34567954564E+02  0.93838583649E+00  0.35812562494E+02  0.00000000000E+00 0. -1.
          1    1    6    6  503    0 -0.58755067504E+02 -0.61938664050E+02  0.75148171254E+02  0.11373567472E+03  0.00000000000E+00 0. -1.
         -1    1    6    6    0  503 -0.24212664259E+03 -0.63809478860E+02  0.35070321752E+03  0.43091728606E+03  0.00000000000E+00 0.  1.
<mgrwt>
<rscale>  0 0.19952658E+04</rscale>
<asrwt>0</asrwt>
<pdfrwt beam="1">  1        1 0.13120782E+00 0.19952658E+04</pdfrwt>
<pdfrwt beam="2">  1       -2 0.17953746E+00 0.19952658E+04</pdfrwt>
<totfact> 0.29575981E+00</totfact>
</mgrwt>
</event>
<event>
12    5  0.5264288E-008  0.1413265E+04  0.7818608E-02  0.8944272E-01
          1   -1    0    0  501    0  0.00000000000E+00  0.00000000000E+00  0.15747612433E+04  0.15747612433E+04  0.00000000000E+00 0. -1.
         -2   -1    0    0    0  501 -0.00000000000E+00 -0.00000000000E+00 -0.31708254448E+03  0.31708254448E+03  0.00000000000E+00 0.  1.
        -24    2    1    2    0    0  0.23909849063E+03 -0.99634318722E+01 -0.77722539930E+02  0.26404085978E+03  0.80058879729E+02 0.  0.
        254    2    1    2    0    0 -0.23909849063E+03  0.99634318722E+01  0.13354012387E+04  0.16278029280E+04  0.89954352076E+03 0.  0.
         23    2    4    4    0    0 -0.47100483923E+03 -0.13890392675E+03  0.12130357827E+04  0.13118801789E+04  0.91836453717E+02 0.  0.
         23    2    4    4    0    0  0.23190634860E+03  0.14886735862E+03  0.12236545602E+03  0.31592274908E+03  0.94296519413E+02 0.  0.
          3    1    3    3  502    0  0.81534597357E+02  0.12260821348E+02  0.87927495325E+01  0.82918820244E+02  0.00000000000E+00 0. -1.
         -4    1    3    3    0  502  0.15756389327E+03 -0.22224253220E+02 -0.86515289462E+02  0.18112203953E+03  0.00000000000E+00 0.  1.
         13    1    5    5    0    0 -0.14791860015E+02 -0.17764503252E+02  0.28085134949E+02  0.36375149534E+02  0.00000000000E+00 0. -1.
        -13    1    5    5    0    0 -0.45621297922E+03 -0.12113942349E+03  0.11849506477E+04  0.12755050293E+04  0.00000000000E+00 0.  1.
          3    1    6    6  503    0  0.69049328012E+01  0.21925337609E+02  0.37528147745E+02  0.44008640054E+02  0.00000000000E+00 0. -1.
         -3    1    6    6    0  503  0.22500141580E+03  0.12694202101E+03  0.84837308280E+02  0.27191410903E+03  0.00000000000E+00 0.  1.
<mgrwt>
<rscale>  0 0.14132647E+04</rscale>
<asrwt>0</asrwt>
<pdfrwt beam="1">  1        1 0.24227096E+00 0.14132647E+04</pdfrwt>
<pdfrwt beam="2">  1       -2 0.48781931E-01 0.14132647E+04</pdfrwt>
<totfact> 0.19755073E+01</totfact>
</mgrwt>
</event>
<event>
12    5  0.5264288E-008  0.1333150E+04  0.7818608E-02  0.9003682E-01
         -2   -1    0    0    0  501 -0.00000000000E+00  0.00000000000E+00  0.26652163167E+03  0.26652163167E+03  0.00000000000E+00 0.  1.
          1   -1    0    0  501    0  0.00000000000E+00 -0.00000000000E+00 -0.16671163004E+04  0.16671163004E+04  0.00000000000E+00 0. -1.
        -24    2    1    2    0    0  0.31572420801E+03 -0.30493757316E+02 -0.14943976256E+03  0.35959734655E+03  0.79789499629E+02 0.  0.
        254    2    1    2    0    0 -0.31572420801E+03  0.30493757316E+02 -0.12511549061E+04  0.15740405855E+04  0.90089040447E+03 0.  0.
         23    2    4    4    0    0  0.96486834407E+02 -0.31259379641E+03 -0.20957806647E+03  0.39910946282E+03  0.91328016500E+02 0.  0.
         23    2    4    4    0    0 -0.41221104242E+03  0.34308755372E+03 -0.10415768397E+04  0.11749311227E+04  0.89184175162E+02 0.  0.
          1    1    3    3  502    0  0.10055204356E+03 -0.27045028581E+02 -0.86541026447E+02  0.13539385619E+03  0.00000000000E+00 0. -1.
         -2    1    3    3    0  502  0.21517216445E+03 -0.34487287346E+01 -0.62898736112E+02  0.22420349036E+03  0.00000000000E+00 0.  1.
         13    1    5    5    0    0  0.11200708043E+03 -0.29797077852E+03 -0.19596461167E+03  0.37381051342E+03  0.00000000000E+00 0.  1.
        -13    1    5    5    0    0 -0.15520246025E+02 -0.14623017889E+02 -0.13613454800E+02  0.25298949395E+02  0.00000000000E+00 0. -1.
          2    1    6    6  503    0 -0.40087628291E+02  0.70452018388E+01 -0.57048472666E+02  0.70079819095E+02  0.00000000000E+00 0. -1.
         -2    1    6    6    0  503 -0.37212341413E+03  0.33604235188E+03 -0.98452836700E+03  0.11048513036E+04  0.00000000000E+00 0.  1.
<mgrwt>
<rscale>  0 0.13331505E+04</rscale>
<asrwt>0</asrwt>
<pdfrwt beam="1">  1        1 0.25647943E+00 0.13331505E+04</pdfrwt>
<pdfrwt beam="2">  1       -2 0.41003328E-01 0.13331505E+04</pdfrwt>
<totfact> 0.24323569E+01</totfact>
</mgrwt>
</event>
<event>
12    5  0.5264288E-008  0.1427200E+04  0.7818608E-02  0.8934362E-01
          1   -1    0    0  501    0  0.00000000000E+00  0.00000000000E+00  0.12544868359E+04  0.12544868359E+04  0.00000000000E+00 0. -1.
         -2   -1    0    0    0  501 -0.00000000000E+00 -0.00000000000E+00 -0.40592289017E+03  0.40592289017E+03  0.00000000000E+00 0.  1.
        -24    2    1    2    0    0 -0.87175760552E+02  0.38730083572E+03  0.80261950400E+02  0.41249557221E+03  0.78160513307E+02 0.  0.
        254    2    1    2    0    0  0.87175760552E+02 -0.38730083572E+03  0.76830199533E+03  0.12479141539E+04  0.89966673207E+03 0.  0.
         23    2    4    4    0    0  0.21722931636E+03  0.18858189597E+03  0.51906213513E+03  0.60077001513E+03  0.93527555149E+02 0.  0.
         23    2    4    4    0    0 -0.13005355581E+03 -0.57588273169E+03  0.24923986020E+03  0.64714413873E+03  0.90112043287E+02 0.  0.
          3    1    3    3  502    0 -0.36225418952E+02  0.24798872680E+03  0.83377986299E+02  0.26412606497E+03  0.00000000000E+00 0. -1.
         -4    1    3    3    0  502 -0.50950341600E+02  0.13931210891E+03 -0.31160358986E+01  0.14836950724E+03  0.00000000000E+00 0.  1.
         13    1    5    5    0    0  0.98890640396E+02  0.99670742703E+02  0.16279923841E+03  0.21498187769E+03  0.00000000000E+00 0. -1.
        -13    1    5    5    0    0  0.11833867596E+03  0.88911153272E+02  0.35626289672E+03  0.38578813744E+03  0.00000000000E+00 0.  1.
          4    1    6    6  503    0 -0.13349335840E+03 -0.56333061951E+03  0.25537642629E+03  0.63275507324E+03  0.00000000000E+00 0. -1.
         -4    1    6    6    0  503  0.34398025989E+01 -0.12552112183E+02 -0.61365660912E+01  0.14389065486E+02  0.00000000000E+00 0.  1.
<mgrwt>
<rscale>  0 0.14271999E+04</rscale>
<asrwt>0</asrwt>
<pdfrwt beam="1">  1        1 0.19299797E+00 0.14271999E+04</pdfrwt>
<pdfrwt beam="2">  1       -2 0.62449676E-01 0.14271999E+04</pdfrwt>
<totfact> 0.19800596E+01</totfact>
</mgrwt>
</event>
<event>
12    5  0.5264288E-008  0.2145664E+04  0.7818608E-02  0.8541391E-01
         -2   -1    0    0    0  501 -0.00000000000E+00  0.00000000000E+00  0.58171785518E+03  0.58171785518E+03  0.00000000000E+00 0.  1.
          1   -1    0    0  501    0  0.00000000000E+00 -0.00000000000E+00 -0.19785680743E+04  0.19785680743E+04  0.00000000000E+00 0. -1.
        -24    2    1    2    0    0  0.35360446108E+03  0.30011295431E+03 -0.14629729787E+04  0.15368090651E+04  0.79926627129E+02 0.  0.
        254    2    1    2    0    0 -0.35360446108E+03 -0.30011295431E+03  0.66122759560E+02  0.10234768645E+04  0.90996086319E+03 0.  0.
         23    2    4    4    0    0 -0.37722180590E+03 -0.34129311741E+03 -0.33065874774E+03  0.61354495687E+03  0.91241020426E+02 0.  0.
         23    2    4    4    0    0  0.23617344821E+02  0.41180163094E+02  0.39678150730E+03  0.40993190760E+03  0.91405795913E+02 0.  0.
          3    1    3    3  502    0  0.27649607229E+03  0.26190007292E+03 -0.12612825335E+04  0.13175262258E+04  0.00000000000E+00 0. -1.
         -4    1    3    3    0  502  0.77108388790E+02  0.38212881398E+02 -0.20169044518E+03  0.21928283929E+03  0.00000000000E+00 0.  1.
         13    1    5    5    0    0 -0.54574111059E+01 -0.36320781913E+01 -0.24504583008E+02  0.25366314599E+02  0.00000000000E+00 0. -1.
        -13    1    5    5    0    0 -0.37176439480E+03 -0.33766103922E+03 -0.30615416473E+03  0.58817864227E+03  0.00000000000E+00 0.  1.
          3    1    6    6  503    0  0.42763726648E+02 -0.12655407935E+02  0.20628035332E+03  0.21104615569E+03  0.00000000000E+00 0. -1.
         -3    1    6    6    0  503 -0.19146381827E+02  0.53835571029E+02  0.19050115398E+03  0.19888575191E+03  0.00000000000E+00 0.  1.
<mgrwt>
<rscale>  0 0.21456639E+04</rscale>
<asrwt>0</asrwt>
<pdfrwt beam="1">  1        1 0.30439508E+00 0.21456639E+04</pdfrwt>
<pdfrwt beam="2">  1       -2 0.89495056E-01 0.21456639E+04</pdfrwt>
<totfact> 0.26543880E+00</totfact>
</mgrwt>
</event>
<event>
12    5  0.5264288E-008  0.1747736E+04  0.7818608E-02  0.8734597E-01
          1   -1    0    0  501    0  0.00000000000E+00  0.00000000000E+00  0.29835948695E+04  0.29835948695E+04  0.00000000000E+00 0. -1.
         -2   -1    0    0    0  501 -0.00000000000E+00 -0.00000000000E+00 -0.25594806490E+03  0.25594806490E+03  0.00000000000E+00 0.  1.
        -24    2    1    2    0    0 -0.20769036822E+02  0.14707427964E+03 -0.14712916367E+03  0.22391004026E+03  0.80165570548E+02 0.  0.
        254    2    1    2    0    0  0.20769036822E+02 -0.14707427964E+03  0.28747759682E+04  0.30156328941E+04  0.89868942792E+03 0.  0.
         23    2    4    4    0    0 -0.16619208070E+03  0.19670550560E+03  0.22890330708E+04  0.23051345596E+04  0.87521856756E+02 0.  0.
         23    2    4    4    0    0  0.18696111752E+03 -0.34377978524E+03  0.58574289749E+03  0.71049833448E+03  0.92596658336E+02 0.  0.
          3    1    3    3  502    0 -0.19220317365E+02  0.46929383662E+02 -0.10229648534E+03  0.11417687403E+03  0.00000000000E+00 0. -1.
         -4    1    3    3    0  502 -0.15487194566E+01  0.10014489598E+03 -0.44832678331E+02  0.10973316622E+03  0.00000000000E+00 0.  1.
         13    1    5    5    0    0 -0.16042489388E+02  0.63409076332E+02  0.38177649129E+03  0.38733882032E+03  0.00000000000E+00 0. -1.
        -13    1    5    5    0    0 -0.15014959131E+03  0.13329642926E+03  0.19072565795E+04  0.19177957393E+04  0.00000000000E+00 0.  1.
          1    1    6    6  503    0  0.67563450991E+01 -0.90606197082E+02  0.11780894092E+03  0.14877525906E+03  0.00000000000E+00 0. -1.
         -1    1    6    6    0  503  0.18020477242E+03 -0.25317358816E+03  0.46793395657E+03  0.56172307542E+03  0.00000000000E+00 0.  1.
<mgrwt>
<rscale>  0 0.17477361E+04</rscale>
<asrwt>0</asrwt>
<pdfrwt beam="1">  1        1 0.45901457E+00 0.17477361E+04</pdfrwt>
<pdfrwt beam="2">  1       -2 0.39376627E-01 0.17477361E+04</pdfrwt>
<totfact> 0.31305558E+00</totfact>
</mgrwt>
</event>
<event>
12    5  0.5264288E-008  0.4283472E+04  0.7818608E-02  0.7949681E-01
         -2   -1    0    0    0  501 -0.00000000000E+00  0.00000000000E+00  0.13751079236E+04  0.13751079236E+04  0.00000000000E+00 0.  1.
          1   -1    0    0  501    0  0.00000000000E+00 -0.00000000000E+00 -0.33357622564E+04  0.33357622564E+04  0.00000000000E+00 0. -1.
        -24    2    1    2    0    0  0.15034394260E+04 -0.92315337732E+03 -0.20817892811E+04  0.27299646173E+04  0.79485441170E+02 0.  0.
        254    2    1    2    0    0 -0.15034394260E+04  0.92315337732E+03  0.12113494822E+03  0.19809055627E+04  0.89262024782E+03 0.  0.
         23    2    4    4    0    0 -0.15632048335E+04  0.72172528447E+03  0.69090643887E+01  0.17240867496E+04  0.89054181029E+02 0.  0.
         23    2    4    4    0    0  0.59765407526E+02  0.20142809285E+03  0.11422588383E+03  0.25681881308E+03  0.93611803135E+02 0.  0.
          3    1    3    3  502    0  0.51816188171E+03 -0.32278269933E+03 -0.77912907094E+03  0.98980933307E+03  0.00000000000E+00 0. -1.
         -4    1    3    3    0  502  0.98527754428E+03 -0.60037067799E+03 -0.13026602101E+04  0.17401552843E+04  0.00000000000E+00 0.  1.
         13    1    5    5    0    0 -0.15044444701E+04  0.69337131913E+03 -0.10460278026E+02  0.16565706647E+04  0.00000000000E+00 0. -1.
        -13    1    5    5    0    0 -0.58760363409E+02  0.28353965337E+02  0.17369342415E+02  0.67516084856E+02  0.00000000000E+00 0.  1.
          2    1    6    6  503    0  0.55571343329E+02  0.13088213797E+03  0.11979692640E+03  0.18592905049E+03  0.00000000000E+00 0. -1.
         -2    1    6    6    0  503  0.41940641969E+01  0.70545954882E+02 -0.55710425729E+01  0.70889762590E+02  0.00000000000E+00 0.  1.
<mgrwt>
<rscale>  0 0.42834720E+04</rscale>
<asrwt>0</asrwt>
<pdfrwt beam="1">  1        1 0.51319420E+00 0.42834720E+04</pdfrwt>
<pdfrwt beam="2">  1       -2 0.21155506E+00 0.42834720E+04</pdfrwt>
<totfact> 0.25252427E-02</totfact>
</mgrwt>
</event>
<event>
12    5  0.5264288E-008  0.1792955E+04  0.7818608E-02  0.8710055E-01
         -2   -1    0    0    0  501 -0.00000000000E+00  0.00000000000E+00  0.94438884862E+03  0.94438884862E+03  0.00000000000E+00 0.  1.
          1   -1    0    0  501    0  0.00000000000E+00 -0.00000000000E+00 -0.85099702534E+03  0.85099702534E+03  0.00000000000E+00 0. -1.
        -24    2    1    2    0    0  0.64339867671E+03  0.17253277368E+03  0.97777703431E+02  0.67805115140E+03  0.80395705418E+02 0.  0.
        254    2    1    2    0    0 -0.64339867671E+03 -0.17253277368E+03 -0.43858801576E+01  0.11173347226E+04  0.89704416340E+03 0.  0.
         23    2    4    4    0    0 -0.44311623165E+03 -0.25508820286E+03  0.39565516390E+03  0.65323212095E+03  0.93526515648E+02 0.  0.
         23    2    4    4    0    0 -0.20028244506E+03  0.82555429177E+02 -0.40004104406E+03  0.46410260161E+03  0.91814656798E+02 0.  0.
          3    1    3    3  502    0  0.86102843549E+02 -0.38322785415E+01  0.18652035654E+02  0.88183243647E+02  0.00000000000E+00 0. -1.
         -4    1    3    3    0  502  0.55729583316E+03  0.17636505222E+03  0.79125667776E+02  0.58986790776E+03  0.00000000000E+00 0.  1.
         13    1    5    5    0    0 -0.43791465674E+03 -0.23121975218E+03  0.38017674297E+03  0.62431256297E+03  0.00000000000E+00 0.  1.
        -13    1    5    5    0    0 -0.52015749110E+01 -0.23868450675E+02  0.15478420925E+02  0.28919557976E+02  0.00000000000E+00 0. -1.
          2    1    6    6  503    0 -0.20400392177E+03  0.87028414350E+02 -0.35431598908E+03  0.41800880986E+03  0.00000000000E+00 0. -1.
         -2    1    6    6    0  503  0.37214767077E+01 -0.44729851730E+01 -0.45725054978E+02  0.46093791751E+02  0.00000000000E+00 0.  1.
<mgrwt>
<rscale>  0 0.17929552E+04</rscale>
<asrwt>0</asrwt>
<pdfrwt beam="1">  1        1 0.13092262E+00 0.17929552E+04</pdfrwt>
<pdfrwt beam="2">  1       -2 0.14529059E+00 0.17929552E+04</pdfrwt>
<totfact> 0.53886835E+00</totfact>
</mgrwt>
</event>
<event>
12    5  0.5264288E-008  0.1256435E+04  0.7818608E-02  0.9064844E-01
          3   -1    0    0  501    0  0.00000000000E+00  0.00000000000E+00  0.45014297295E+03  0.45014297295E+03  0.00000000000E+00 0. -1.
         -4   -1    0    0    0  501 -0.00000000000E+00 -0.00000000000E+00 -0.87673793332E+03  0.87673793332E+03  0.00000000000E+00 0.  1.
        -24    2    1    2    0    0  0.23139893282E+02 -0.25983089404E+03  0.60979131767E+02  0.28001566537E+03  0.81503191222E+02 0.  0.
        254    2    1    2    0    0 -0.23139893282E+02  0.25983089404E+03 -0.48757409214E+03  0.10468652409E+04  0.88890426320E+03 0.  0.
         23    2    4    4    0    0 -0.99388083693E+02  0.52451621741E+03 -0.81231824611E+02  0.54755136712E+03  0.90656697469E+02 0.  0.
         23    2    4    4    0    0  0.76248190411E+02 -0.26468532337E+03 -0.40634226752E+03  0.49931387379E+03  0.91258967937E+02 0.  0.
          3    1    3    3  502    0 -0.21814569557E+02 -0.21240618662E+02  0.86451425430E+01  0.31650873853E+02  0.00000000000E+00 0. -1.
         -4    1    3    3    0  502  0.44954462838E+02 -0.23859027538E+03  0.52333989224E+02  0.24836479151E+03  0.00000000000E+00 0.  1.
         13    1    5    5    0    0 -0.36505733911E+01  0.14089446616E+02 -0.19842135283E+02  0.24607915893E+02  0.00000000000E+00 0. -1.
        -13    1    5    5    0    0 -0.95737510302E+02  0.51042677080E+03 -0.61389689328E+02  0.52294345123E+03  0.00000000000E+00 0.  1.
          1    1    6    6  503    0  0.45253028920E+02 -0.42070429347E+02 -0.12302303239E+03  0.13766780361E+03  0.00000000000E+00 0. -1.
         -1    1    6    6    0  503  0.30995161491E+02 -0.22261489402E+03 -0.28331923513E+03  0.36164607017E+03  0.00000000000E+00 0.  1.
<mgrwt>
<rscale>  0 0.12564353E+04</rscale>
<asrwt>0</asrwt>
<pdfrwt beam="1">  1        3 0.69252765E-01 0.12564353E+04</pdfrwt>
<pdfrwt beam="2">  1       -4 0.13488276E+00 0.12564353E+04</pdfrwt>
<totfact> 0.17678577E+00</totfact>
</mgrwt>
</event>
<event>
12    5  0.5264288E-008  0.1789895E+04  0.7818608E-02  0.8711692E-01
          1   -1    0    0  501    0  0.00000000000E+00  0.00000000000E+00  0.15949940269E+04  0.15949940269E+04  0.00000000000E+00 0. -1.
         -2   -1    0    0    0  501 -0.00000000000E+00 -0.00000000000E+00 -0.50215281896E+03  0.50215281896E+03  0.00000000000E+00 0.  1.
        -24    2    1    2    0    0 -0.31418194859E+02  0.38290343362E+03  0.10920542067E+04  0.11605999632E+04  0.82509040878E+02 0.  0.
        254    2    1    2    0    0  0.31418194859E+02 -0.38290343362E+03  0.78700131646E+00  0.93654688271E+03  0.85411785000E+03 0.  0.
         23    2    4    4    0    0 -0.30611156242E+03 -0.43460025122E+03  0.13824776354E+03  0.55700652185E+03  0.92531909400E+02 0.  0.
         23    2    4    4    0    0  0.33752975728E+03  0.51696817599E+02 -0.13746076222E+03  0.37954036085E+03  0.92501493875E+02 0.  0.
          3    1    3    3  502    0 -0.42583232286E+02  0.37848688545E+03  0.10547651138E+04  0.11214254766E+04  0.00000000000E+00 0. -1.
         -4    1    3    3    0  502  0.11165037427E+02  0.44165481698E+01  0.37289092824E+02  0.39174486622E+02  0.00000000000E+00 0.  1.
         13    1    5    5    0    0 -0.18534099860E+03 -0.29985144541E+03  0.13050738760E+03  0.37589141157E+03  0.00000000000E+00 0.  1.
        -13    1    5    5    0    0 -0.12077056382E+03 -0.13474880581E+03  0.77403759393E+01  0.18111511028E+03  0.00000000000E+00 0. -1.
          4    1    6    6  503    0  0.29872479461E+03  0.59357128841E+02 -0.89642402131E+02  0.31748312068E+03  0.00000000000E+00 0. -1.
         -4    1    6    6    0  503  0.38804962667E+02 -0.76603112425E+01 -0.47818360089E+02  0.62057240170E+02  0.00000000000E+00 0.  1.
<mgrwt>
<rscale>  0 0.17898947E+04</rscale>
<asrwt>0</asrwt>
<pdfrwt beam="1">  1        1 0.24538369E+00 0.17898947E+04</pdfrwt>
<pdfrwt beam="2">  1       -2 0.77254281E-01 0.17898947E+04</pdfrwt>
<totfact> 0.69693709E+00</totfact>
</mgrwt>
</event>
<event>
12    5  0.5264288E-008  0.1759964E+04  0.7818608E-02  0.8727884E-01
          1   -1    0    0  501    0  0.00000000000E+00  0.00000000000E+00  0.34095743906E+03  0.34095743906E+03  0.00000000000E+00 0. -1.
         -2   -1    0    0    0  501 -0.00000000000E+00 -0.00000000000E+00 -0.22711594520E+04  0.22711594520E+04  0.00000000000E+00 0.  1.
        -24    2    1    2    0    0  0.68232877521E+02 -0.28324556888E+03  0.14014741287E+03  0.33242711984E+03  0.77348010978E+02 0.  0.
        254    2    1    2    0    0 -0.68232877521E+02  0.28324556888E+03 -0.20703494259E+04  0.22796897713E+04  0.90871058658E+03 0.  0.
         23    2    4    4    0    0  0.32965448643E+03  0.14399208747E+03 -0.15973222169E+04  0.16398070677E+04  0.90128534814E+02 0.  0.
         23    2    4    4    0    0 -0.39788736395E+03  0.13925348141E+03 -0.47302720892E+03  0.63988270358E+03  0.89382590523E+02 0.  0.
          1    1    3    3  502    0  0.52111915435E+02 -0.27832109235E+03  0.13925413151E+03  0.31554713645E+03  0.00000000000E+00 0. -1.
         -2    1    3    3    0  502  0.16120962085E+02 -0.49244765342E+01  0.89328136034E+00  0.16879983391E+02  0.00000000000E+00 0.  1.
         13    1    5    5    0    0  0.19404832139E+03  0.37033957223E+02 -0.89809454419E+03  0.91956515557E+03  0.00000000000E+00 0. -1.
        -13    1    5    5    0    0  0.13560616504E+03  0.10695813025E+03 -0.69922767275E+03  0.72024191212E+03  0.00000000000E+00 0.  1.
          4    1    6    6  503    0 -0.37884632772E+03  0.13884959694E+03 -0.41502887280E+03  0.57883738291E+03  0.00000000000E+00 0. -1.
         -4    1    6    6    0  503 -0.19041036235E+02  0.40388446932E+00 -0.57998336117E+02  0.61045320672E+02  0.00000000000E+00 0.  1.
<mgrwt>
<rscale>  0 0.17599644E+04</rscale>
<asrwt>0</asrwt>
<pdfrwt beam="1">  1        1 0.52454992E-01 0.17599644E+04</pdfrwt>
<pdfrwt beam="2">  1       -2 0.34940914E+00 0.17599644E+04</pdfrwt>
<totfact> 0.96673691E-01</totfact>
</mgrwt>
</event>
<event>
12    5  0.5264288E-008  0.1062230E+04  0.7818608E-02  0.9242808E-01
          1   -1    0    0  501    0  0.00000000000E+00  0.00000000000E+00  0.83275639644E+03  0.83275639644E+03  0.00000000000E+00 0. -1.
         -2   -1    0    0    0  501 -0.00000000000E+00 -0.00000000000E+00 -0.33873411252E+03  0.33873411252E+03  0.00000000000E+00 0.  1.
        -24    2    1    2    0    0 -0.65322001357E+01 -0.12582868841E+03  0.62600194216E+02  0.16155643215E+03  0.79411384499E+02 0.  0.
        254    2    1    2    0    0  0.65322001357E+01  0.12582868841E+03  0.43142208971E+03  0.10099340768E+04  0.90441488905E+03 0.  0.
         23    2    4    4    0    0 -0.10392353266E+03  0.22922317968E+03  0.66499568673E+03  0.71675707000E+03  0.90432667066E+02 0.  0.
         23    2    4    4    0    0  0.11045573279E+03 -0.10339449127E+03 -0.23357359702E+03  0.29317700681E+03  0.92223870915E+02 0.  0.
          1    1    3    3  502    0 -0.86798504121E+01 -0.12996778424E+02 -0.17276037085E+02  0.23296298202E+02  0.00000000000E+00 0. -1.
         -2    1    3    3    0  502  0.21476502764E+01 -0.11283190999E+03  0.79876231301E+02  0.13826013395E+03  0.00000000000E+00 0.  1.
         13    1    5    5    0    0 -0.96578217514E+01  0.91891453807E+02  0.15724915432E+03  0.18238588032E+03  0.00000000000E+00 0. -1.
        -13    1    5    5    0    0 -0.94265710904E+02  0.13733172587E+03  0.50774653241E+03  0.53437118968E+03  0.00000000000E+00 0.  1.
          4    1    6    6  503    0 -0.79229075411E+01 -0.42939327630E+02 -0.47717255157E+02  0.64679940947E+02  0.00000000000E+00 0. -1.
         -4    1    6    6    0  503  0.11837864033E+03 -0.60455163637E+02 -0.18585634187E+03  0.22849706586E+03  0.00000000000E+00 0.  1.
<mgrwt>
<rscale>  0 0.10622297E+04</rscale>
<asrwt>0</asrwt>
<pdfrwt beam="1">  1        1 0.12811637E+00 0.10622297E+04</pdfrwt>
<pdfrwt beam="2">  1       -2 0.52112940E-01 0.10622297E+04</pdfrwt>
<totfact> 0.63031348E+01</totfact>
</mgrwt>
</event>
<event>
12    5  0.5264288E-008  0.2466690E+04  0.7818608E-02  0.8414949E-01
          1   -1    0    0  501    0  0.00000000000E+00  0.00000000000E+00  0.16567197912E+04  0.16567197912E+04  0.00000000000E+00 0. -1.
         -2   -1    0    0    0  501 -0.00000000000E+00 -0.00000000000E+00 -0.91816401169E+03  0.91816401169E+03  0.00000000000E+00 0.  1.
        -24    2    1    2    0    0  0.84909424082E+03 -0.64085074475E+03  0.35212362584E+03  0.11237308055E+04  0.84434403559E+02 0.  0.
        254    2    1    2    0    0 -0.84909424082E+03  0.64085074475E+03  0.38643215371E+03  0.14511529974E+04  0.90822051602E+03 0.  0.
         23    2    4    4    0    0 -0.48146721915E+02  0.35876471260E+03 -0.19227983758E+03  0.41947807601E+03  0.89219361564E+02 0.  0.
         23    2    4    4    0    0 -0.80094751890E+03  0.28208603215E+03  0.57871199129E+03  0.10316749214E+04  0.91411799391E+02 0.  0.
          3    1    3    3  502    0  0.63375752659E+03 -0.51972164783E+03  0.25656149246E+03  0.85882652099E+03  0.00000000000E+00 0. -1.
         -4    1    3    3    0  502  0.21533671423E+03 -0.12112909692E+03  0.95562133382E+02  0.26490428451E+03  0.00000000000E+00 0.  1.
         13    1    5    5    0    0 -0.57935514539E+02  0.14310010456E+03 -0.56261429582E+02  0.16431528300E+03  0.00000000000E+00 0. -1.
        -13    1    5    5    0    0  0.97887926240E+01  0.21566460804E+03 -0.13601840800E+03  0.25516279301E+03  0.00000000000E+00 0.  1.
          1    1    6    6  503    0 -0.67163564084E+03  0.21389218855E+03  0.51070759043E+03  0.87044043179E+03  0.00000000000E+00 0. -1.
         -1    1    6    6    0  503 -0.12931187806E+03  0.68193843597E+02  0.68004400863E+02  0.16123448964E+03  0.00000000000E+00 0.  1.
<mgrwt>
<rscale>  0 0.24666905E+04</rscale>
<asrwt>0</asrwt>
<pdfrwt beam="1">  1        1 0.25487997E+00 0.24666905E+04</pdfrwt>
<pdfrwt beam="2">  1       -2 0.14125600E+00 0.24666905E+04</pdfrwt>
<totfact> 0.14010595E+00</totfact>
</mgrwt>
</event>
<event>
12    5  0.5264288E-008  0.1325417E+04  0.7818608E-02  0.9009649E-01
          1   -1    0    0  501    0  0.00000000000E+00  0.00000000000E+00  0.20511854766E+03  0.20511854766E+03  0.00000000000E+00 0. -1.
         -2   -1    0    0    0  501 -0.00000000000E+00 -0.00000000000E+00 -0.21411141825E+04  0.21411141825E+04  0.00000000000E+00 0.  1.
        -24    2    1    2    0    0 -0.33905394661E+03 -0.18443681176E+02 -0.38677066887E+03  0.52118945503E+03  0.82153208385E+02 0.  0.
        254    2    1    2    0    0  0.33905394661E+03  0.18443681176E+02 -0.15492249660E+04  0.18250432751E+04  0.90298793614E+03 0.  0.
         23    2    4    4    0    0  0.11667842139E+03 -0.42580061280E+03 -0.60884070305E+03  0.75760879629E+03  0.91455293121E+02 0.  0.
         23    2    4    4    0    0  0.22237552522E+03  0.44424429398E+03 -0.94038426293E+03  0.10674344788E+04  0.91049095102E+02 0.  0.
          1    1    3    3  502    0 -0.21059127094E+03 -0.23091891602E+02 -0.18139492576E+03  0.27890148430E+03  0.00000000000E+00 0. -1.
         -2    1    3    3    0  502 -0.12846267566E+03  0.46482104262E+01 -0.20537574311E+03  0.24228797073E+03  0.00000000000E+00 0.  1.
         13    1    5    5    0    0  0.17193150223E+02 -0.52213730577E+02 -0.33286944413E+02  0.64264288246E+02  0.00000000000E+00 0. -1.
        -13    1    5    5    0    0  0.99485271168E+02 -0.37358688223E+03 -0.57555375863E+03  0.69334450804E+03  0.00000000000E+00 0.  1.
          4    1    6    6  503    0  0.25776393154E+01  0.35073739272E+02 -0.11595255597E+03  0.12116850518E+03  0.00000000000E+00 0. -1.
         -4    1    6    6    0  503  0.21979788590E+03  0.40917055471E+03 -0.82443170696E+03  0.94626597367E+03  0.00000000000E+00 0.  1.
<mgrwt>
<rscale>  0 0.13254165E+04</rscale>
<asrwt>0</asrwt>
<pdfrwt beam="1">  1        1 0.31556700E-01 0.13254165E+04</pdfrwt>
<pdfrwt beam="2">  1       -2 0.32940218E+00 0.13254165E+04</pdfrwt>
<totfact> 0.25997753E+00</totfact>
</mgrwt>
</event>
<event>
12    5  0.5264288E-008  0.1789522E+04  0.7818608E-02  0.8711892E-01
         -2   -1    0    0    0  501 -0.00000000000E+00  0.00000000000E+00  0.57956744384E+03  0.57956744384E+03  0.00000000000E+00 0.  1.
          1   -1    0    0  501    0  0.00000000000E+00 -0.00000000000E+00 -0.13813698961E+04  0.13813698961E+04  0.00000000000E+00 0. -1.
        -24    2    1    2    0    0  0.74254894768E+02  0.54657877906E+03 -0.67789965437E+03  0.87790596285E+03  0.83119113906E+02 0.  0.
        254    2    1    2    0    0 -0.74254894768E+02 -0.54657877906E+03 -0.12390279792E+03  0.10830313771E+04  0.92376561387E+03 0.  0.
         23    2    4    4    0    0  0.17858923332E+03 -0.17708162698E+02 -0.38505136333E+03  0.43462332480E+03  0.91788827106E+02 0.  0.
         23    2    4    4    0    0 -0.25284412809E+03 -0.52887061636E+03  0.26114856541E+03  0.64840805231E+03  0.92736978215E+02 0.  0.
          1    1    3    3  502    0  0.44151182014E+02  0.40580814876E+03 -0.44290149481E+03  0.60232160395E+03  0.00000000000E+00 0. -1.
         -2    1    3    3    0  502  0.30103712754E+02  0.14077063030E+03 -0.23499815956E+03  0.27558435890E+03  0.00000000000E+00 0.  1.
         13    1    5    5    0    0  0.81038352327E+02 -0.54025559974E+02 -0.19255391165E+03  0.21578457909E+03  0.00000000000E+00 0.  1.
        -13    1    5    5    0    0  0.97550880992E+02  0.36317397276E+02 -0.19249745167E+03  0.21883874572E+03  0.00000000000E+00 0. -1.
          2    1    6    6  503    0 -0.15888981710E+03 -0.40908785160E+03  0.16788520018E+03  0.46987688254E+03  0.00000000000E+00 0. -1.
         -2    1    6    6    0  503 -0.93954310986E+02 -0.11978276476E+03  0.93263365222E+02  0.17853116977E+03  0.00000000000E+00 0.  1.
<mgrwt>
<rscale>  0 0.17895217E+04</rscale>
<asrwt>0</asrwt>
<pdfrwt beam="1">  1        1 0.21251844E+00 0.17895217E+04</pdfrwt>
<pdfrwt beam="2">  1       -2 0.89164223E-01 0.17895217E+04</pdfrwt>
<totfact> 0.70856346E+00</totfact>
</mgrwt>
</event>
<event>
12    5  0.5264288E-008  0.2277924E+04  0.7818608E-02  0.8486677E-01
          1   -1    0    0  501    0  0.00000000000E+00  0.00000000000E+00  0.13911910946E+04  0.13911910946E+04  0.00000000000E+00 0. -1.
         -2   -1    0    0    0  501 -0.00000000000E+00 -0.00000000000E+00 -0.93246321958E+03  0.93246321958E+03  0.00000000000E+00 0.  1.
        -24    2    1    2    0    0  0.33825334880E+03  0.89256638681E+03  0.28169098921E+03  0.10004887694E+04  0.10265418419E+03 0.  0.
        254    2    1    2    0    0 -0.33825334880E+03 -0.89256638681E+03  0.17703688584E+03  0.13231655448E+04  0.89907447805E+03 0.  0.
         23    2    4    4    0    0 -0.51182331299E+03 -0.84720979550E+03  0.35426159937E+03  0.10552003621E+04  0.90658602326E+02 0.  0.
         23    2    4    4    0    0  0.17356996419E+03 -0.45356591319E+02 -0.17722471353E+03  0.26796518263E+03  0.90625532678E+02 0.  0.
          1    1    3    3  502    0  0.30020042612E+02  0.12853822303E+03  0.72016774271E+02  0.15036520048E+03  0.00000000000E+00 0. -1.
         -2    1    3    3    0  502  0.30823330619E+03  0.76402816378E+03  0.20967421494E+03  0.85012356896E+03  0.00000000000E+00 0.  1.
         13    1    5    5    0    0 -0.88923071210E+02 -0.20541054705E+03  0.55803115800E+02  0.23068331792E+03  0.00000000000E+00 0.  1.
        -13    1    5    5    0    0 -0.42290024178E+03 -0.64179924845E+03  0.29845848357E+03  0.82451704423E+03  0.00000000000E+00 0. -1.
          2    1    6    6  503    0  0.14113248365E+03 -0.16393047767E+02 -0.83894801546E+02  0.16500135661E+03  0.00000000000E+00 0.  1.
         -2    1    6    6    0  503  0.32437480540E+02 -0.28963543552E+02 -0.93329911981E+02  0.10296382602E+03  0.00000000000E+00 0. -1.
<mgrwt>
<rscale>  0 0.22779241E+04</rscale>
<asrwt>0</asrwt>
<pdfrwt beam="1">  1        1 0.21402940E+00 0.22779241E+04</pdfrwt>
<pdfrwt beam="2">  1       -2 0.14345588E+00 0.22779241E+04</pdfrwt>
<totfact> 0.20878067E+00</totfact>
</mgrwt>
</event>
<event>
12    5  0.5264288E-008  0.1490155E+04  0.7818608E-02  0.8891026E-01
         -2   -1    0    0    0  501 -0.00000000000E+00  0.00000000000E+00  0.28155727224E+03  0.28155727224E+03  0.00000000000E+00 0.  1.
          1   -1    0    0  501    0  0.00000000000E+00 -0.00000000000E+00 -0.19716795829E+04  0.19716795829E+04  0.00000000000E+00 0. -1.
        -24    2    1    2    0    0 -0.10049324628E+03  0.16811581606E+03 -0.11903203576E+04  0.12089513066E+04  0.79617132138E+02 0.  0.
        254    2    1    2    0    0  0.10049324628E+03 -0.16811581606E+03 -0.49980195301E+03  0.10442855485E+04  0.89575024115E+03 0.  0.
         23    2    4    4    0    0  0.31051959747E+03  0.22198464043E+03 -0.43654787674E+03  0.58742538591E+03  0.93781311169E+02 0.  0.
         23    2    4    4    0    0 -0.21002635118E+03 -0.39010045649E+03 -0.63254076265E+02  0.45686016263E+03  0.91818819913E+02 0.  0.
          1    1    3    3  502    0 -0.62036231039E+02  0.74688552848E+02 -0.79574315911E+03  0.80164459030E+03  0.00000000000E+00 0. -1.
         -2    1    3    3    0  502 -0.38457015243E+02  0.93427263211E+02 -0.39457719853E+03  0.40730671629E+03  0.00000000000E+00 0.  1.
         13    1    5    5    0    0  0.22214980098E+03  0.19575744391E+03 -0.36919254182E+03  0.47325959458E+03  0.00000000000E+00 0.  1.
        -13    1    5    5    0    0  0.88369796486E+02  0.26227196521E+02 -0.67355334919E+02  0.11416579133E+03  0.00000000000E+00 0. -1.
          4    1    6    6  503    0 -0.14400587049E+03 -0.22644667113E+03  0.29710104450E+01  0.26837401608E+03  0.00000000000E+00 0.  1.
         -4    1    6    6    0  503 -0.66020480692E+02 -0.16365378536E+03 -0.66225086710E+02  0.18848614656E+03  0.00000000000E+00 0. -1.
<mgrwt>
<rscale>  0 0.14901553E+04</rscale>
<asrwt>0</asrwt>
<pdfrwt beam="1">  1        1 0.30333531E+00 0.14901553E+04</pdfrwt>
<pdfrwt beam="2">  1       -2 0.43316504E-01 0.14901553E+04</pdfrwt>
<totfact> 0.13385841E+01</totfact>
</mgrwt>
</event>
<event>
12    5  0.5264288E-008  0.1103603E+04  0.7818608E-02  0.9201687E-01
          1   -1    0    0  501    0  0.00000000000E+00  0.00000000000E+00  0.90724014303E+03  0.90724014303E+03  0.00000000000E+00 0. -1.
         -2   -1    0    0    0  501 -0.00000000000E+00 -0.00000000000E+00 -0.33561664058E+03  0.33561664058E+03  0.00000000000E+00 0.  1.
        -24    2    1    2    0    0  0.86186467304E+02  0.11290804915E+03 -0.63920800257E+01  0.16403495269E+03  0.81794084800E+02 0.  0.
        254    2    1    2    0    0 -0.86186467304E+02 -0.11290804915E+03  0.57801558247E+03  0.10788218309E+04  0.89976563314E+03 0.  0.
         23    2    4    4    0    0 -0.42700194267E+03 -0.26363289719E+03  0.43079833417E+03  0.66780517561E+03  0.92431511513E+02 0.  0.
         23    2    4    4    0    0  0.34081547537E+03  0.15072484804E+03  0.14721724830E+03  0.41101665531E+03  0.91589326216E+02 0.  0.
          3    1    3    3  502    0 -0.10470959182E+01  0.81273153567E+00  0.19593773085E+02  0.19638556111E+02  0.00000000000E+00 0. -1.
         -4    1    3    3    0  502  0.87233563222E+02  0.11209531762E+03 -0.25985853111E+02  0.14439639658E+03  0.00000000000E+00 0.  1.
         13    1    5    5    0    0 -0.16205953900E+03 -0.10210769507E+03  0.10731953600E+03  0.21956037525E+03  0.00000000000E+00 0.  1.
        -13    1    5    5    0    0 -0.26494240368E+03 -0.16152520213E+03  0.32347879817E+03  0.44824480036E+03  0.00000000000E+00 0. -1.
          4    1    6    6  503    0  0.18647743626E+03  0.12734860851E+03  0.67173717062E+02  0.23559246718E+03  0.00000000000E+00 0. -1.
         -4    1    6    6    0  503  0.15433803911E+03  0.23376239527E+02  0.80043531239E+02  0.17542418813E+03  0.00000000000E+00 0.  1.
<mgrwt>
<rscale>  0 0.11036030E+04</rscale>
<asrwt>0</asrwt>
<pdfrwt beam="1">  1        1 0.13957540E+00 0.11036030E+04</pdfrwt>
<pdfrwt beam="2">  1       -2 0.51633330E-01 0.11036030E+04</pdfrwt>
<totfact> 0.55527634E+01</totfact>
</mgrwt>
</event>
<event>
12    5  0.5264288E-008  0.1767971E+04  0.7818608E-02  0.8723520E-01
         -2   -1    0    0    0  501 -0.00000000000E+00  0.00000000000E+00  0.27075905568E+03  0.27075905568E+03  0.00000000000E+00 0.  1.
          1   -1    0    0  501    0  0.00000000000E+00 -0.00000000000E+00 -0.28860735616E+04  0.28860735616E+04  0.00000000000E+00 0. -1.
        -24    2    1    2    0    0 -0.34781369976E+02  0.44964285957E+03 -0.18097174290E+04  0.18667567079E+04  0.79466902853E+02 0.  0.
        254    2    1    2    0    0  0.34781369976E+02 -0.44964285957E+03 -0.80559707688E+03  0.12900759094E+04  0.90106645529E+03 0.  0.
         23    2    4    4    0    0 -0.20839966713E+03 -0.20860287155E+03  0.94849949026E+02  0.32261905505E+03  0.90227282855E+02 0.  0.
         23    2    4    4    0    0  0.24318103711E+03 -0.24103998803E+03 -0.90044702590E+03  0.96745685434E+03  0.89054061743E+02 0.  0.
          1    1    3    3  502    0 -0.43680788192E+02  0.27550231126E+03 -0.98062125652E+03  0.10195232138E+04  0.00000000000E+00 0. -1.
         -2    1    3    3    0  502  0.88994182164E+01  0.17414054832E+03 -0.82909617250E+03  0.84723349407E+03  0.00000000000E+00 0.  1.
         13    1    5    5    0    0 -0.15707742507E+03 -0.98257405155E+02  0.72111535109E+02  0.19881626852E+03  0.00000000000E+00 0. -1.
        -13    1    5    5    0    0 -0.51322242064E+02 -0.11034546639E+03  0.22738413917E+02  0.12380278652E+03  0.00000000000E+00 0.  1.
          4    1    6    6  503    0  0.70956861688E+02 -0.47820471415E+02 -0.13905874337E+03  0.16327586415E+03  0.00000000000E+00 0. -1.
         -4    1    6    6    0  503  0.17222417542E+03 -0.19321951661E+03 -0.76138828254E+03  0.80418099019E+03  0.00000000000E+00 0.  1.
<mgrwt>
<rscale>  0 0.17679712E+04</rscale>
<asrwt>0</asrwt>
<pdfrwt beam="1">  1        1 0.44401132E+00 0.17679712E+04</pdfrwt>
<pdfrwt beam="2">  1       -2 0.41655239E-01 0.17679712E+04</pdfrwt>
<totfact> 0.32903028E+00</totfact>
</mgrwt>
</event>
<event>
12    5  0.5264288E-008  0.1736025E+04  0.7818608E-02  0.8741081E-01
          1   -1    0    0  501    0  0.00000000000E+00  0.00000000000E+00  0.30709620310E+04  0.30709620310E+04  0.00000000000E+00 0. -1.
         -2   -1    0    0    0  501 -0.00000000000E+00 -0.00000000000E+00 -0.24534517907E+03  0.24534517907E+03  0.00000000000E+00 0.  1.
        -24    2    1    2    0    0  0.39628761433E+03  0.94957749664E+02  0.19877162522E+04  0.20305902043E+04  0.78865903731E+02 0.  0.
        254    2    1    2    0    0 -0.39628761433E+03 -0.94957749664E+02  0.83790059966E+03  0.12857170058E+04  0.88596272863E+03 0.  0.
         23    2    4    4    0    0  0.22214460771E+03 -0.23303969708E+03  0.30011024402E+03  0.44958360978E+03  0.91670804855E+02 0.  0.
         23    2    4    4    0    0 -0.61843222205E+03  0.13808194742E+03  0.53779035564E+03  0.83613339599E+03  0.91518040895E+02 0.  0.
          1    1    3    3  502    0  0.26527985110E+03  0.25330117010E+02  0.12449065679E+04  0.12731093343E+04  0.00000000000E+00 0. -1.
         -4    1    3    3    0  502  0.13100776324E+03  0.69627632654E+02  0.74280968436E+03  0.75748087001E+03  0.00000000000E+00 0.  1.
         13    1    5    5    0    0  0.17776445160E+03 -0.14022077590E+03  0.16695039851E+03  0.28130855268E+03  0.00000000000E+00 0.  1.
        -13    1    5    5    0    0  0.44380156115E+02 -0.92818921183E+02  0.13315984551E+03  0.16827505710E+03  0.00000000000E+00 0. -1.
          4    1    6    6  503    0 -0.31290306685E+03  0.99778834434E+02  0.23147945665E+03  0.40180453444E+03  0.00000000000E+00 0. -1.
         -4    1    6    6    0  503 -0.30552915520E+03  0.38303112982E+02  0.30631089899E+03  0.43432886155E+03  0.00000000000E+00 0.  1.
<mgrwt>
<rscale>  0 0.17360250E+04</rscale>
<asrwt>0</asrwt>
<pdfrwt beam="1">  1        1 0.47245567E+00 0.17360250E+04</pdfrwt>
<pdfrwt beam="2">  1       -2 0.37745414E-01 0.17360250E+04</pdfrwt>
<totfact> 0.29381791E+00</totfact>
</mgrwt>
</event>
<event>
12    5  0.5264288E-008  0.1406536E+04  0.7818608E-02  0.8949101E-01
         -2   -1    0    0    0  501 -0.00000000000E+00  0.00000000000E+00  0.22830314948E+03  0.22830314948E+03  0.00000000000E+00 0.  1.
          1   -1    0    0  501    0  0.00000000000E+00 -0.00000000000E+00 -0.21663558638E+04  0.21663558638E+04  0.00000000000E+00 0. -1.
        -24    2    1    2    0    0  0.39370340883E+03  0.99379436343E+02 -0.58349473318E+03  0.71633840783E+03  0.88294758544E+02 0.  0.
        254    2    1    2    0    0 -0.39370340883E+03 -0.99379436343E+02 -0.13545579811E+04  0.16783206054E+04  0.90391044020E+03 0.  0.
         23    2    4    4    0    0 -0.11385741828E+02  0.28391546181E+03 -0.10849876823E+03  0.31668282270E+03  0.88195254506E+02 0.  0.
         23    2    4    4    0    0 -0.38231766701E+03 -0.38329489815E+03 -0.12460592129E+04  0.13616377827E+04  0.91170784069E+02 0.  0.
          3    1    3    3  502    0  0.96044895883E+02  0.55594073847E+02 -0.11716864958E+03  0.16138096392E+03  0.00000000000E+00 0. -1.
         -4    1    3    3    0  502  0.29765851295E+03  0.43785362496E+02 -0.46632608361E+03  0.55495744391E+03  0.00000000000E+00 0.  1.
         13    1    5    5    0    0  0.31166795274E+02  0.19363186288E+03 -0.56282879693E+02  0.20404026563E+03  0.00000000000E+00 0.  1.
        -13    1    5    5    0    0 -0.42552537102E+02  0.90283598924E+02 -0.52215888536E+02  0.11264255707E+03  0.00000000000E+00 0. -1.
          4    1    6    6  503    0 -0.12823642656E+03 -0.19009162006E+03 -0.54969588467E+03  0.59560471014E+03  0.00000000000E+00 0. -1.
         -4    1    6    6    0  503 -0.25408124045E+03 -0.19320327809E+03 -0.69636332822E+03  0.76603307259E+03  0.00000000000E+00 0.  1.
<mgrwt>
<rscale>  0 0.14065360E+04</rscale>
<asrwt>0</asrwt>
<pdfrwt beam="1">  1        1 0.33328552E+00 0.14065360E+04</pdfrwt>
<pdfrwt beam="2">  1       -2 0.35123562E-01 0.14065360E+04</pdfrwt>
<totfact> 0.14976294E+01</totfact>
</mgrwt>
</event>
<event>
12    5  0.5264288E-008  0.1922562E+04  0.7818608E-02  0.8643706E-01
          1   -1    0    0  501    0  0.00000000000E+00  0.00000000000E+00  0.68083756976E+03  0.68083756976E+03  0.00000000000E+00 0. -1.
         -2   -1    0    0    0  501 -0.00000000000E+00 -0.00000000000E+00 -0.13572421271E+04  0.13572421271E+04  0.00000000000E+00 0.  1.
        -24    2    1    2    0    0 -0.51325626587E+03  0.49468309649E+03 -0.50346387019E+03  0.87626592551E+03  0.78884366169E+02 0.  0.
        254    2    1    2    0    0  0.51325626587E+03 -0.49468309649E+03 -0.17294068721E+03  0.11618137714E+04  0.90097691297E+03 0.  0.
         23    2    4    4    0    0 -0.88240717178E+02 -0.32224047836E+03 -0.36386443878E+03  0.50113372582E+03  0.84334638723E+02 0.  0.
         23    2    4    4    0    0  0.60149698305E+03 -0.17244261813E+03  0.19092375157E+03  0.66068004557E+03  0.92255983778E+02 0.  0.
          3    1    3    3  502    0 -0.20138261902E+03  0.16150752523E+03 -0.14605449693E+03  0.29659999330E+03  0.00000000000E+00 0. -1.
         -2    1    3    3    0  502 -0.31187364685E+03  0.33317557126E+03 -0.35740937325E+03  0.57966593222E+03  0.00000000000E+00 0.  1.
         13    1    5    5    0    0 -0.83153479823E+02 -0.27717005552E+03 -0.26508300968E+03  0.39243692857E+03  0.00000000000E+00 0.  1.
        -13    1    5    5    0    0 -0.50872373549E+01 -0.45070422840E+02 -0.98781429093E+02  0.10869679725E+03  0.00000000000E+00 0. -1.
          3    1    6    6  503    0  0.20575818637E+03 -0.65197091193E+02  0.21032718261E+02  0.21686278426E+03  0.00000000000E+00 0. -1.
         -3    1    6    6    0  503  0.39573879668E+03 -0.10724552694E+03  0.16989103331E+03  0.44381726132E+03  0.00000000000E+00 0.  1.
<mgrwt>
<rscale>  0 0.19225623E+04</rscale>
<asrwt>0</asrwt>
<pdfrwt beam="1">  1        1 0.10474424E+00 0.19225623E+04</pdfrwt>
<pdfrwt beam="2">  1       -2 0.20880648E+00 0.19225623E+04</pdfrwt>
<totfact> 0.27069368E+00</totfact>
</mgrwt>
</event>
<event>
12    5  0.5264288E-008  0.2116797E+04  0.7818608E-02  0.8553880E-01
          1   -1    0    0  501    0  0.00000000000E+00  0.00000000000E+00  0.73838708367E+03  0.73838708367E+03  0.00000000000E+00 0. -1.
         -2   -1    0    0    0  501 -0.00000000000E+00 -0.00000000000E+00 -0.15171010918E+04  0.15171010918E+04  0.00000000000E+00 0.  1.
        -24    2    1    2    0    0 -0.59229783667E+03 -0.20134859966E+03  0.29191661580E+03  0.69493683254E+03  0.79774085584E+02 0.  0.
        254    2    1    2    0    0  0.59229783667E+03  0.20134859966E+03 -0.10706306240E+04  0.15605513430E+04  0.94747695229E+03 0.  0.
         23    2    4    4    0    0  0.50925456310E+03  0.34585075191E+03 -0.17937832890E+03  0.64834620600E+03  0.96037832780E+02 0.  0.
         23    2    4    4    0    0  0.83043273571E+02 -0.14450215225E+03 -0.89125229507E+03  0.91220513695E+03  0.10005249190E+03 0.  0.
          1    1    3    3  502    0 -0.41304909801E+03 -0.14619673855E+03  0.16362769773E+03  0.46771472844E+03  0.00000000000E+00 0. -1.
         -2    1    3    3    0  502 -0.17924873866E+03 -0.55151861113E+02  0.12828891807E+03  0.22722210411E+03  0.00000000000E+00 0.  1.
         13    1    5    5    0    0  0.11632873130E+03  0.12972232058E+03 -0.40458807361E+02  0.17887752591E+03  0.00000000000E+00 0.  1.
        -13    1    5    5    0    0  0.39292583180E+03  0.21612843133E+03 -0.13891952154E+03  0.46946868010E+03  0.00000000000E+00 0. -1.
          2    1    6    6  503    0  0.59592405705E+02 -0.12105448665E+03 -0.45216115179E+03  0.47186348741E+03  0.00000000000E+00 0.  1.
         -2    1    6    6    0  503  0.23450867866E+02 -0.23447665595E+02 -0.43909114327E+03  0.44034164955E+03  0.00000000000E+00 0. -1.
<mgrwt>
<rscale>  0 0.21167974E+04</rscale>
<asrwt>0</asrwt>
<pdfrwt beam="1">  1        1 0.11359801E+00 0.21167974E+04</pdfrwt>
<pdfrwt beam="2">  1       -2 0.23340017E+00 0.21167974E+04</pdfrwt>
<totfact> 0.16434423E+00</totfact>
</mgrwt>
</event>
<event>
12    5  0.5264288E-008  0.1556764E+04  0.7818608E-02  0.8847559E-01
         -2   -1    0    0    0  501 -0.00000000000E+00  0.00000000000E+00  0.76593665182E+03  0.76593665182E+03  0.00000000000E+00 0.  1.
          1   -1    0    0  501    0  0.00000000000E+00 -0.00000000000E+00 -0.79102922346E+03  0.79102922346E+03  0.00000000000E+00 0. -1.
        -24    2    1    2    0    0 -0.14455084017E+03  0.31408129032E+03  0.36697719110E+03  0.51072941810E+03  0.81426515340E+02 0.  0.
        254    2    1    2    0    0  0.14455084017E+03 -0.31408129032E+03 -0.39206976274E+03  0.10462364572E+04  0.90628363284E+03 0.  0.
         23    2    4    4    0    0 -0.23307028736E+03 -0.13943780776E+03 -0.52471619163E+03  0.59782589909E+03  0.91126630459E+02 0.  0.
         23    2    4    4    0    0  0.37762112753E+03 -0.17464348256E+03  0.13264642889E+03  0.44841055809E+03  0.10187684499E+03 0.  0.
          1    1    3    3  502    0  0.25578158634E+01  0.43382833588E+02  0.72590137929E+02  0.84604614512E+02  0.00000000000E+00 0. -1.
         -2    1    3    3    0  502 -0.14710865603E+03  0.27069845674E+03  0.29438705317E+03  0.42612480359E+03  0.00000000000E+00 0.  1.
         13    1    5    5    0    0 -0.64814691481E+02  0.44198402691E+01 -0.12703347790E+03  0.14268140638E+03  0.00000000000E+00 0. -1.
        -13    1    5    5    0    0 -0.16825559588E+03 -0.14385764803E+03 -0.39768271373E+03  0.45514449271E+03  0.00000000000E+00 0.  1.
          4    1    6    6  503    0  0.36029694910E+03 -0.18804572738E+03  0.12486548848E+03  0.42516641133E+03  0.00000000000E+00 0. -1.
         -4    1    6    6    0  503  0.17324178439E+02  0.13402244815E+02  0.77809404120E+01  0.23244146755E+02  0.00000000000E+00 0.  1.
<mgrwt>
<rscale>  0 0.15567637E+04</rscale>
<asrwt>0</asrwt>
<pdfrwt beam="1">  1        1 0.12169680E+00 0.15567637E+04</pdfrwt>
<pdfrwt beam="2">  1       -2 0.11783641E+00 0.15567637E+04</pdfrwt>
<totfact> 0.10546985E+01</totfact>
</mgrwt>
</event>
<event>
12    5  0.5264288E-008  0.2279748E+04  0.7818608E-02  0.8485949E-01
          3   -1    0    0  501    0  0.00000000000E+00  0.00000000000E+00  0.51640976564E+03  0.51640976564E+03  0.00000000000E+00 0. -1.
         -4   -1    0    0    0  501 -0.00000000000E+00 -0.00000000000E+00 -0.25160495998E+04  0.25160495998E+04  0.00000000000E+00 0.  1.
        -24    2    1    2    0    0  0.45249615593E+03 -0.81456929492E+03 -0.11621378028E+04  0.14916949293E+04  0.79458052489E+02 0.  0.
        254    2    1    2    0    0 -0.45249615593E+03  0.81456929492E+03 -0.83750203137E+03  0.15407644361E+04  0.89681073127E+03 0.  0.
         23    2    4    4    0    0 -0.36324891162E+02 -0.17796594010E+03 -0.66995718722E+02  0.21414182806E+03  0.91525530016E+02 0.  0.
         23    2    4    4    0    0 -0.41617126477E+03  0.99253523502E+03 -0.77050631264E+03  0.13266226081E+04  0.89010404080E+02 0.  0.
          1    1    3    3  502    0  0.93558864512E+02 -0.22601770348E+03 -0.33844889090E+03  0.41759419915E+03  0.00000000000E+00 0. -1.
         -2    1    3    3    0  502  0.35893729142E+03 -0.58855159144E+03 -0.82368891186E+03  0.10741007301E+04  0.00000000000E+00 0.  1.
         13    1    5    5    0    0  0.10689174987E+02 -0.34576955553E+02 -0.50802674149E+02  0.62375764668E+02  0.00000000000E+00 0. -1.
        -13    1    5    5    0    0 -0.47014066149E+02 -0.14338898455E+03 -0.16193044573E+02  0.15176606339E+03  0.00000000000E+00 0.  1.
          2    1    6    6  503    0 -0.21950822210E+03  0.45020155293E+03 -0.31621585687E+03  0.59233247924E+03  0.00000000000E+00 0. -1.
         -2    1    6    6    0  503 -0.19666304267E+03  0.54233368209E+03 -0.45429045578E+03  0.73429012883E+03  0.00000000000E+00 0.  1.
<mgrwt>
<rscale>  0 0.22797479E+04</rscale>
<asrwt>0</asrwt>
<pdfrwt beam="1">  1        3 0.79447658E-01 0.22797479E+04</pdfrwt>
<pdfrwt beam="2">  1       -4 0.38708455E+00 0.22797479E+04</pdfrwt>
<totfact> 0.25639357E-02</totfact>
</mgrwt>
</event>
<event>
12    5  0.5264288E-008  0.1669658E+04  0.7818608E-02  0.8778861E-01
         -2   -1    0    0    0  501 -0.00000000000E+00  0.00000000000E+00  0.22456521721E+04  0.22456521721E+04  0.00000000000E+00 0.  1.
          1   -1    0    0  501    0  0.00000000000E+00 -0.00000000000E+00 -0.31035042414E+03  0.31035042414E+03  0.00000000000E+00 0. -1.
        -24    2    1    2    0    0 -0.14963923009E+03 -0.10125726594E+03 -0.16882212996E+03  0.25999278204E+03  0.80314395110E+02 0.  0.
        254    2    1    2    0    0  0.14963923009E+03  0.10125726594E+03  0.21041238779E+04  0.22960098142E+04  0.90093220622E+03 0.  0.
         23    2    4    4    0    0  0.48472365957E+03 -0.11054363520E+03  0.10353823641E+04  0.11519718362E+04  0.88575110629E+02 0.  0.
         23    2    4    4    0    0 -0.33508442948E+03  0.21180090114E+03  0.10687415138E+04  0.11440379780E+04  0.97330750584E+02 0.  0.
          1    1    3    3  502    0 -0.13514421859E+03 -0.10655630293E+03 -0.12271093421E+03  0.21136740261E+03  0.00000000000E+00 0. -1.
         -2    1    3    3    0  502 -0.14495011500E+02  0.52990369875E+01 -0.46111195746E+02  0.48625379428E+02  0.00000000000E+00 0.  1.
         13    1    5    5    0    0  0.32153467696E+02 -0.31607322664E+02  0.10815012722E+03  0.11717217395E+03  0.00000000000E+00 0.  1.
        -13    1    5    5    0    0  0.45257019187E+03 -0.78936312537E+02  0.92723223685E+03  0.10347996623E+04  0.00000000000E+00 0. -1.
          4    1    6    6  503    0 -0.19033674888E+03  0.73802167482E+02  0.45936810169E+03  0.50268667254E+03  0.00000000000E+00 0. -1.
         -4    1    6    6    0  503 -0.14474768060E+03  0.13799873366E+03  0.60937341214E+03  0.64135130541E+03  0.00000000000E+00 0.  1.
<mgrwt>
<rscale>  0 0.16696576E+04</rscale>
<asrwt>0</asrwt>
<pdfrwt beam="1">  1        1 0.47746220E-01 0.16696576E+04</pdfrwt>
<pdfrwt beam="2">  1       -2 0.34548494E+00 0.16696576E+04</pdfrwt>
<totfact> 0.11668493E+00</totfact>
</mgrwt>
</event>
<event>
12    5  0.5264288E-008  0.2323724E+04  0.7818608E-02  0.8468626E-01
          1   -1    0    0  501    0  0.00000000000E+00  0.00000000000E+00  0.10237782608E+04  0.10237782608E+04  0.00000000000E+00 0. -1.
         -2   -1    0    0    0  501 -0.00000000000E+00 -0.00000000000E+00 -0.13185696088E+04  0.13185696088E+04  0.00000000000E+00 0.  1.
        -24    2    1    2    0    0  0.95142878653E+03 -0.42799882876E+02 -0.38143565666E+03  0.10289961366E+04  0.79317861878E+02 0.  0.
        254    2    1    2    0    0 -0.95142878653E+03  0.42799882876E+02  0.86644308721E+02  0.13133517330E+04  0.90018718749E+03 0.  0.
         23    2    4    4    0    0 -0.67513632710E+02  0.32721797196E+03 -0.10763197904E+03  0.36030950202E+03  0.81293311889E+02 0.  0.
         23    2    4    4    0    0 -0.88391515382E+03 -0.28441808909E+03  0.19427628776E+03  0.95304223097E+03  0.91359561579E+02 0.  0.
          1    1    3    3  502    0  0.34839468734E+03 -0.44552201550E+02 -0.11349860071E+03  0.36911473717E+03  0.00000000000E+00 0. -1.
         -2    1    3    3    0  502  0.60303409918E+03  0.17523186732E+01 -0.26793705595E+03  0.65988139946E+03  0.00000000000E+00 0.  1.
         13    1    5    5    0    0 -0.35619137637E+02  0.10644643166E+03  0.88326578938E+00  0.11225126252E+03  0.00000000000E+00 0. -1.
        -13    1    5    5    0    0 -0.31894495073E+02  0.22077154030E+03 -0.10851524483E+03  0.24805823950E+03  0.00000000000E+00 0.  1.
          1    1    6    6  503    0 -0.60006744578E+03 -0.23065179046E+03  0.15690189201E+03  0.66173967060E+03  0.00000000000E+00 0.  1.
         -1    1    6    6    0  503 -0.28384770803E+03 -0.53766298630E+02  0.37374395752E+02  0.29130256037E+03  0.00000000000E+00 0. -1.
<mgrwt>
<rscale>  0 0.23237237E+04</rscale>
<asrwt>0</asrwt>
<pdfrwt beam="1">  1        1 0.15750435E+00 0.23237237E+04</pdfrwt>
<pdfrwt beam="2">  1       -2 0.20285686E+00 0.23237237E+04</pdfrwt>
<totfact> 0.14608857E+00</totfact>
</mgrwt>
</event>
<event>
12    5  0.5264288E-008  0.3511185E+04  0.7818608E-02  0.8111144E-01
         -2   -1    0    0    0  501 -0.00000000000E+00  0.00000000000E+00  0.16794125910E+04  0.16794125910E+04  0.00000000000E+00 0.  1.
          1   -1    0    0  501    0  0.00000000000E+00 -0.00000000000E+00 -0.18352284249E+04  0.18352284249E+04  0.00000000000E+00 0. -1.
        -24    2    1    2    0    0  0.59131704093E+03 -0.15072969795E+04  0.18635731434E+03  0.16317665348E+04  0.79579823450E+02 0.  0.
        254    2    1    2    0    0 -0.59131704093E+03  0.15072969795E+04 -0.34217314825E+03  0.18828744810E+04  0.89807228024E+03 0.  0.
         23    2    4    4    0    0 -0.39531937242E+03  0.95548703723E+03 -0.63975629308E+03  0.12194609088E+04  0.92541390901E+02 0.  0.
         23    2    4    4    0    0 -0.19599766851E+03  0.55180994228E+03  0.29758314482E+03  0.66341357221E+03  0.93019037070E+02 0.  0.
          3    1    3    3  502    0  0.99891040438E+02 -0.26634361639E+03  0.63085854051E+02  0.29137084091E+03  0.00000000000E+00 0. -1.
         -2    1    3    3    0  502  0.49142600049E+03 -0.12409533631E+04  0.12327146029E+03  0.13403956939E+04  0.00000000000E+00 0.  1.
         13    1    5    5    0    0 -0.34142151073E+03  0.81308500464E+03 -0.58208029133E+03  0.10566424837E+04  0.00000000000E+00 0.  1.
        -13    1    5    5    0    0 -0.53897861693E+02  0.14240203259E+03 -0.57676001743E+02  0.16281842512E+03  0.00000000000E+00 0. -1.
          4    1    6    6  503    0 -0.66469010802E+02  0.91665048430E+02  0.77117981421E+02  0.13699559686E+03  0.00000000000E+00 0. -1.
         -4    1    6    6    0  503 -0.12952865771E+03  0.46014489385E+03  0.22046516340E+03  0.52641797535E+03  0.00000000000E+00 0.  1.
<mgrwt>
<rscale>  0 0.35111854E+04</rscale>
<asrwt>0</asrwt>
<pdfrwt beam="1">  1        1 0.28234283E+00 0.35111854E+04</pdfrwt>
<pdfrwt beam="2">  1       -2 0.25837117E+00 0.35111854E+04</pdfrwt>
<totfact> 0.15768314E-01</totfact>
</mgrwt>
</event>
<event>
12    5  0.5264288E-008  0.1782594E+04  0.7818608E-02  0.8715611E-01
         -2   -1    0    0    0  501 -0.00000000000E+00  0.00000000000E+00  0.46425612613E+03  0.46425612613E+03  0.00000000000E+00 0.  1.
          1   -1    0    0  501    0  0.00000000000E+00 -0.00000000000E+00 -0.17111459923E+04  0.17111459923E+04  0.00000000000E+00 0. -1.
        -24    2    1    2    0    0  0.64387544004E+03 -0.21416319356E+02 -0.40006803497E+03  0.76260110705E+03  0.80447342112E+02 0.  0.
        254    2    1    2    0    0 -0.64387544004E+03  0.21416319356E+02 -0.84682183120E+03  0.14128010114E+04  0.92944351251E+03 0.  0.
         23    2    4    4    0    0 -0.44318828939E+03 -0.41812159046E+03 -0.32779406620E+03  0.69755043852E+03  0.88803942366E+02 0.  0.
         23    2    4    4    0    0 -0.20068715065E+03  0.43953790982E+03 -0.51902776500E+03  0.71525057286E+03  0.93405859221E+02 0.  0.
          3    1    3    3  502    0  0.66713037599E+02 -0.19177229351E+02 -0.22769605848E+02  0.73053750497E+02  0.00000000000E+00 0. -1.
         -4    1    3    3    0  502  0.57716240244E+03 -0.22390900056E+01 -0.37729842912E+03  0.68954735655E+03  0.00000000000E+00 0.  1.
         13    1    5    5    0    0 -0.56581932005E+02 -0.96638175206E+02 -0.74921008122E+02  0.13473533091E+03  0.00000000000E+00 0. -1.
        -13    1    5    5    0    0 -0.38660635738E+03 -0.32148341525E+03 -0.25287305808E+03  0.56281510761E+03  0.00000000000E+00 0.  1.
          4    1    6    6  503    0 -0.20041149490E+03  0.44164758145E+03 -0.52138088457E+03  0.71207821220E+03  0.00000000000E+00 0.  1.
         -4    1    6    6    0  503 -0.27565574486E+00 -0.21096716351E+01  0.23531195673E+01  0.31723606661E+01  0.00000000000E+00 0. -1.
<mgrwt>
<rscale>  0 0.17825936E+04</rscale>
<asrwt>0</asrwt>
<pdfrwt beam="1">  1        1 0.26325323E+00 0.17825936E+04</pdfrwt>
<pdfrwt beam="2">  1       -2 0.71424020E-01 0.17825936E+04</pdfrwt>
<totfact> 0.69097771E+00</totfact>
</mgrwt>
</event>
<event>
12    5  0.5264288E-008  0.1579412E+04  0.7818608E-02  0.8833297E-01
         -2   -1    0    0    0  501 -0.00000000000E+00  0.00000000000E+00  0.65233974957E+03  0.65233974957E+03  0.00000000000E+00 0.  1.
          1   -1    0    0  501    0  0.00000000000E+00 -0.00000000000E+00 -0.95599757881E+03  0.95599757881E+03  0.00000000000E+00 0. -1.
        -24    2    1    2    0    0  0.11467216423E+03 -0.18269758195E+03 -0.58638888409E+03  0.63025883825E+03  0.82741574262E+02 0.  0.
        254    2    1    2    0    0 -0.11467216423E+03  0.18269758195E+03  0.28273105485E+03  0.97807849012E+03  0.91113806405E+03 0.  0.
         23    2    4    4    0    0 -0.47554403363E+03  0.89417436952E+02  0.32786808762E+03  0.59137776533E+03  0.89958726602E+02 0.  0.
         23    2    4    4    0    0  0.36087186940E+03  0.93280144999E+02 -0.45137032774E+02  0.38670072480E+03  0.92576494078E+02 0.  0.
          3    1    3    3  502    0  0.12648310709E+03 -0.17713144165E+03 -0.56015799170E+03  0.60095798494E+03  0.00000000000E+00 0. -1.
         -4    1    3    3    0  502 -0.11810942861E+02 -0.55661402957E+01 -0.26230892397E+02  0.29300853315E+02  0.00000000000E+00 0.  1.
         13    1    5    5    0    0 -0.43866694882E+02  0.34658683739E+02  0.25165388152E+02  0.61309118729E+02  0.00000000000E+00 0. -1.
        -13    1    5    5    0    0 -0.43167733874E+03  0.54758753212E+02  0.30270269947E+03  0.53006864660E+03  0.00000000000E+00 0.  1.
          1    1    6    6  503    0  0.13609903997E+03 -0.10349589455E+02 -0.12944032307E+02  0.13710437868E+03  0.00000000000E+00 0. -1.
         -1    1    6    6    0  503  0.22477282943E+03  0.10362973445E+03 -0.32193000466E+02  0.24959634611E+03  0.00000000000E+00 0.  1.
<mgrwt>
<rscale>  0 0.15794116E+04</rscale>
<asrwt>0</asrwt>
<pdfrwt beam="1">  1        1 0.14707655E+00 0.15794116E+04</pdfrwt>
<pdfrwt beam="2">  1       -2 0.10035996E+00 0.15794116E+04</pdfrwt>
<totfact> 0.11310774E+01</totfact>
</mgrwt>
</event>
<event>
12    5  0.5264288E-008  0.3531654E+04  0.7818608E-02  0.8106329E-01
          1   -1    0    0  501    0  0.00000000000E+00  0.00000000000E+00  0.25059439486E+04  0.25059439486E+04  0.00000000000E+00 0. -1.
         -2   -1    0    0    0  501 -0.00000000000E+00 -0.00000000000E+00 -0.12442998176E+04  0.12442998176E+04  0.00000000000E+00 0.  1.
        -24    2    1    2    0    0 -0.68365242498E+03 -0.11335561246E+04 -0.45591063275E+03  0.14032898397E+04  0.95067045614E+02 0.  0.
        254    2    1    2    0    0  0.68365242498E+03  0.11335561246E+04  0.17175547638E+04  0.23469539265E+04  0.89770164338E+03 0.  0.
         23    2    4    4    0    0  0.55003312019E+03  0.70216889894E+03  0.46134136587E+03  0.10084681004E+04  0.92706298519E+02 0.  0.
         23    2    4    4    0    0  0.13361930479E+03  0.43138722570E+03  0.12562133979E+04  0.13384858260E+04  0.97586619588E+02 0.  0.
          3    1    3    3  502    0 -0.11217885135E+03 -0.12583329282E+03 -0.63782785779E+02  0.18023971825E+03  0.00000000000E+00 0. -1.
         -4    1    3    3    0  502 -0.57147357363E+03 -0.10077228318E+04 -0.39212784697E+03  0.12230501214E+04  0.00000000000E+00 0.  1.
         13    1    5    5    0    0  0.32972444904E+03  0.34592121371E+03  0.24582246411E+03  0.53740895252E+03  0.00000000000E+00 0.  1.
        -13    1    5    5    0    0  0.22030867115E+03  0.35624768523E+03  0.21551890175E+03  0.47105914791E+03  0.00000000000E+00 0. -1.
          2    1    6    6  503    0  0.77051606200E+02  0.10605362820E+03  0.39168776052E+03  0.41304191532E+03  0.00000000000E+00 0. -1.
         -2    1    6    6    0  503  0.56567698592E+02  0.32533359750E+03  0.86452563738E+03  0.92544391071E+03  0.00000000000E+00 0.  1.
<mgrwt>
<rscale>  0 0.35316543E+04</rscale>
<asrwt>0</asrwt>
<pdfrwt beam="1">  1        1 0.38552984E+00 0.35316543E+04</pdfrwt>
<pdfrwt beam="2">  1       -2 0.19143074E+00 0.35316543E+04</pdfrwt>
<totfact> 0.14565716E-01</totfact>
</mgrwt>
</event>
<event>
12    5  0.5264288E-008  0.2950665E+04  0.7818608E-02  0.8257961E-01
          1   -1    0    0  501    0  0.00000000000E+00  0.00000000000E+00  0.31174888906E+04  0.31174888906E+04  0.00000000000E+00 0. -1.
         -2   -1    0    0    0  501 -0.00000000000E+00 -0.00000000000E+00 -0.69819201527E+03  0.69819201527E+03  0.00000000000E+00 0.  1.
        -24    2    1    2    0    0  0.49041674709E+03 -0.35918717246E+03  0.26403075704E+04  0.27105703074E+04  0.80270258648E+02 0.  0.
        254    2    1    2    0    0 -0.49041674709E+03  0.35918717246E+03 -0.22101069505E+03  0.11051105985E+04  0.89604670461E+03 0.  0.
         23    2    4    4    0    0  0.62948887866E+02 -0.10624882917E+03  0.20870126944E+03  0.25900073638E+03  0.90960350655E+02 0.  0.
         23    2    4    4    0    0 -0.55336563496E+03  0.46543600164E+03 -0.42971196450E+03  0.84610986210E+03  0.91680579959E+02 0.  0.
          1    1    3    3  502    0  0.42371705316E+03 -0.30494466317E+03  0.21279288942E+04  0.21910291571E+04  0.00000000000E+00 0. -1.
         -2    1    3    3    0  502  0.66699693933E+02 -0.54242509289E+02  0.51237867624E+03  0.51954115029E+03  0.00000000000E+00 0.  1.
         13    1    5    5    0    0  0.49211261449E+02 -0.29428670243E+02  0.31605218327E+02  0.65472778398E+02  0.00000000000E+00 0. -1.
        -13    1    5    5    0    0  0.13737626417E+02 -0.76820158930E+02  0.17709605112E+03  0.19352795798E+03  0.00000000000E+00 0.  1.
          4    1    6    6  503    0 -0.15675715451E+03  0.11867991521E+03 -0.72275918877E+02  0.20947920234E+03  0.00000000000E+00 0. -1.
         -4    1    6    6    0  503 -0.39660848045E+03  0.34675608643E+03 -0.35743604562E+03  0.63663065976E+03  0.00000000000E+00 0.  1.
<mgrwt>
<rscale>  0 0.29506649E+04</rscale>
<asrwt>0</asrwt>
<pdfrwt beam="1">  1        1 0.47961367E+00 0.29506649E+04</pdfrwt>
<pdfrwt beam="2">  1       -2 0.10741416E+00 0.29506649E+04</pdfrwt>
<totfact> 0.25621204E-01</totfact>
</mgrwt>
</event>
<event>
12    5  0.5264288E-008  0.2250128E+04  0.7818608E-02  0.8497848E-01
          1   -1    0    0  501    0  0.00000000000E+00  0.00000000000E+00  0.12852167319E+04  0.12852167319E+04  0.00000000000E+00 0. -1.
         -2   -1    0    0    0  501 -0.00000000000E+00 -0.00000000000E+00 -0.98486853176E+03  0.98486853176E+03  0.00000000000E+00 0.  1.
        -24    2    1    2    0    0 -0.13129734122E+03 -0.88253847583E+03 -0.18713211883E+03  0.91516826420E+03  0.80008554331E+02 0.  0.
        254    2    1    2    0    0  0.13129734122E+03  0.88253847583E+03  0.48748031901E+03  0.13549169995E+04  0.89557236503E+03 0.  0.
         23    2    4    4    0    0 -0.12297674766E+03  0.88075681291E+03  0.12494700534E+03  0.90278700436E+03  0.92502849410E+02 0.  0.
         23    2    4    4    0    0  0.25427408888E+03  0.17816629207E+01  0.36253331367E+03  0.45212999515E+03  0.91283308403E+02 0.  0.
          1    1    3    3  502    0 -0.78797613681E+02 -0.61492307358E+03 -0.16512685407E+03  0.64156552921E+03  0.00000000000E+00 0. -1.
         -2    1    3    3    0  502 -0.52499727535E+02 -0.26761540225E+03 -0.22005264763E+02  0.27360273498E+03  0.00000000000E+00 0.  1.
         13    1    5    5    0    0 -0.83701522960E+02  0.74842636200E+03  0.13199123474E+03  0.76457154690E+03  0.00000000000E+00 0.  1.
        -13    1    5    5    0    0 -0.39275224702E+02  0.13233045091E+03 -0.70442293984E+01  0.13821545746E+03  0.00000000000E+00 0. -1.
          4    1    6    6  503    0  0.38721189669E+02  0.34147322776E+02  0.58309745221E+02  0.77880655942E+02  0.00000000000E+00 0. -1.
         -4    1    6    6    0  503  0.21555289921E+03 -0.32365659856E+02  0.30422356845E+03  0.37424933921E+03  0.00000000000E+00 0.  1.
<mgrwt>
<rscale>  0 0.22501285E+04</rscale>
<asrwt>0</asrwt>
<pdfrwt beam="1">  1        1 0.19772565E+00 0.22501285E+04</pdfrwt>
<pdfrwt beam="2">  1       -2 0.15151823E+00 0.22501285E+04</pdfrwt>
<totfact> 0.21538660E+00</totfact>
</mgrwt>
</event>
<event>
12    5  0.5264288E-008  0.2548857E+04  0.7818608E-02  0.8385784E-01
          1   -1    0    0  501    0  0.00000000000E+00  0.00000000000E+00  0.14830606370E+04  0.14830606370E+04  0.00000000000E+00 0. -1.
         -2   -1    0    0    0  501 -0.00000000000E+00 -0.00000000000E+00 -0.10951462747E+04  0.10951462747E+04  0.00000000000E+00 0.  1.
        -24    2    1    2    0    0 -0.81041869804E+03 -0.70969732407E+03 -0.11593108860E+03  0.10864998212E+04  0.81197821708E+02 0.  0.
        254    2    1    2    0    0  0.81041869804E+03  0.70969732407E+03  0.50384545089E+03  0.14917070905E+04  0.90048933775E+03 0.  0.
         23    2    4    4    0    0  0.28720808271E+03  0.78917694915E+03  0.18225445439E+03  0.86424040441E+03  0.91684516836E+02 0.  0.
         23    2    4    4    0    0  0.52321061533E+03 -0.79479625076E+02  0.32159099650E+03  0.62746668605E+03  0.10113018479E+03 0.  0.
          1    1    3    3  502    0 -0.20985395512E+03 -0.16236612716E+03  0.25820284091E+01  0.26534526300E+03  0.00000000000E+00 0. -1.
         -2    1    3    3    0  502 -0.60056474292E+03 -0.54733119691E+03 -0.11851311701E+03  0.82115455821E+03  0.00000000000E+00 0.  1.
         13    1    5    5    0    0  0.23464347078E+03  0.54227485532E+03  0.15119571507E+03  0.60990140297E+03  0.00000000000E+00 0. -1.
        -13    1    5    5    0    0  0.52564611935E+02  0.24690209382E+03  0.31058739317E+02  0.25433900143E+03  0.00000000000E+00 0.  1.
          4    1    6    6  503    0  0.24089771107E+03 -0.87470039949E+02  0.15828385233E+03  0.30122498734E+03  0.00000000000E+00 0. -1.
         -4    1    6    6    0  503  0.28231290426E+03  0.79904148726E+01  0.16330714417E+03  0.32624169871E+03  0.00000000000E+00 0.  1.
<mgrwt>
<rscale>  0 0.25488573E+04</rscale>
<asrwt>0</asrwt>
<pdfrwt beam="1">  1        1 0.22816317E+00 0.25488573E+04</pdfrwt>
<pdfrwt beam="2">  1       -2 0.16848404E+00 0.25488573E+04</pdfrwt>
<totfact> 0.11409086E+00</totfact>
</mgrwt>
</event>
<event>
12    5  0.5264288E-008  0.1172583E+04  0.7818608E-02  0.9137199E-01
         -2   -1    0    0    0  501 -0.00000000000E+00  0.00000000000E+00  0.36435349086E+03  0.36435349086E+03  0.00000000000E+00 0.  1.
          1   -1    0    0  501    0  0.00000000000E+00 -0.00000000000E+00 -0.94341742191E+03  0.94341742191E+03  0.00000000000E+00 0. -1.
        -24    2    1    2    0    0 -0.48814942680E+02  0.95070124606E+02 -0.33957104174E+03  0.36515352933E+03  0.81285794423E+02 0.  0.
        254    2    1    2    0    0  0.48814942680E+02 -0.95070124606E+02 -0.23949288931E+03  0.94261738344E+03  0.90540016585E+03 0.  0.
         23    2    4    4    0    0 -0.35105840961E+03  0.13534011847E+03  0.48010266463E+02  0.39071863195E+03  0.93792905035E+02 0.  0.
         23    2    4    4    0    0  0.39987335229E+03 -0.23041024307E+03 -0.28750315577E+03  0.55189875150E+03  0.94586411995E+02 0.  0.
          1    1    3    3  502    0 -0.64359285877E+02  0.52853931728E+02 -0.26778261976E+03  0.28043392666E+03  0.00000000000E+00 0. -1.
         -2    1    3    3    0  502  0.15544343197E+02  0.42216192878E+02 -0.71788421986E+02  0.84719602677E+02  0.00000000000E+00 0.  1.
         13    1    5    5    0    0 -0.18489071885E+02  0.15092300301E+02  0.27601556329E+02  0.36489302807E+02  0.00000000000E+00 0.  1.
        -13    1    5    5    0    0 -0.33256933773E+03  0.12024781817E+03  0.20408710134E+02  0.35422932914E+03  0.00000000000E+00 0. -1.
          3    1    6    6  503    0  0.34275520157E+03 -0.22998780930E+03 -0.23901340083E+03  0.47697266841E+03  0.00000000000E+00 0. -1.
         -3    1    6    6    0  503  0.57118150729E+02 -0.42243377019E+00 -0.48489754939E+02  0.74926083089E+02  0.00000000000E+00 0.  1.
<mgrwt>
<rscale>  0 0.11725825E+04</rscale>
<asrwt>0</asrwt>
<pdfrwt beam="1">  1        1 0.14514114E+00 0.11725825E+04</pdfrwt>
<pdfrwt beam="2">  1       -2 0.56054384E-01 0.11725825E+04</pdfrwt>
<totfact> 0.43579309E+01</totfact>
</mgrwt>
</event>
<event>
12    5  0.5264288E-008  0.2111280E+04  0.7818608E-02  0.8556291E-01
          1   -1    0    0  501    0  0.00000000000E+00  0.00000000000E+00  0.11454185639E+04  0.11454185639E+04  0.00000000000E+00 0. -1.
         -2   -1    0    0    0  501 -0.00000000000E+00 -0.00000000000E+00 -0.97289815097E+03  0.97289815097E+03  0.00000000000E+00 0.  1.
        -24    2    1    2    0    0 -0.22932110762E+03 -0.82328794101E+03 -0.38612445974E+02  0.85923398718E+03  0.80005746797E+02 0.  0.
        254    2    1    2    0    0  0.22932110762E+03  0.82328794101E+03  0.21113285886E+03  0.12590827276E+04  0.90017833052E+03 0.  0.
         23    2    4    4    0    0  0.11016972444E+01  0.77341553325E+03  0.46160796859E+03  0.90477649627E+03  0.85824184991E+02 0.  0.
         23    2    4    4    0    0  0.22821941037E+03  0.49872407763E+02 -0.25047510973E+03  0.35430623137E+03  0.90684996929E+02 0.  0.
          1    1    3    3  502    0 -0.25852016881E+02 -0.48174183746E+02  0.13008200677E+02  0.56198683626E+02  0.00000000000E+00 0. -1.
         -2    1    3    3    0  502 -0.20346909073E+03 -0.77511375727E+03 -0.51620646652E+02  0.80303530355E+03  0.00000000000E+00 0.  1.
         13    1    5    5    0    0  0.48395876420E+01  0.75831315089E+03  0.43577728763E+03  0.87462226180E+03  0.00000000000E+00 0. -1.
        -13    1    5    5    0    0 -0.37378903976E+01  0.15102382357E+02  0.25830680963E+02  0.30154234470E+02  0.00000000000E+00 0.  1.
          3    1    6    6  503    0  0.22614563892E+03  0.30680796806E+02 -0.21310449773E+03  0.31224459683E+03  0.00000000000E+00 0. -1.
         -3    1    6    6    0  503  0.20737714502E+01  0.19191610956E+02 -0.37370612002E+02  0.42061634544E+02  0.00000000000E+00 0.  1.
<mgrwt>
<rscale>  0 0.21112798E+04</rscale>
<asrwt>0</asrwt>
<pdfrwt beam="1">  1        1 0.17621824E+00 0.21112798E+04</pdfrwt>
<pdfrwt beam="2">  1       -2 0.14967664E+00 0.21112798E+04</pdfrwt>
<totfact> 0.28469431E+00</totfact>
</mgrwt>
</event>
<event>
12    5  0.5264288E-008  0.1931590E+04  0.7818608E-02  0.8639290E-01
         -2   -1    0    0    0  501 -0.00000000000E+00  0.00000000000E+00  0.31255140912E+03  0.31255140912E+03  0.00000000000E+00 0.  1.
          1   -1    0    0  501    0  0.00000000000E+00 -0.00000000000E+00 -0.29843397855E+04  0.29843397855E+04  0.00000000000E+00 0. -1.
        -24    2    1    2    0    0  0.17810605376E+03  0.73216390940E+03 -0.92495451955E+03  0.11957515113E+04  0.80591915404E+02 0.  0.
        254    2    1    2    0    0 -0.17810605376E+03 -0.73216390940E+03 -0.17468338568E+04  0.21011396834E+04  0.89194937580E+03 0.  0.
         23    2    4    4    0    0 -0.39948710373E+03 -0.81604624878E+03 -0.14436511918E+04  0.17081557810E+04  0.90255096442E+02 0.  0.
         23    2    4    4    0    0  0.22138104996E+03  0.83882339375E+02 -0.30318266507E+03  0.39298390238E+03  0.80441301503E+02 0.  0.
          1    1    3    3  502    0  0.94460655736E+02  0.49024253911E+03 -0.65712380792E+03  0.82527102310E+03  0.00000000000E+00 0. -1.
         -2    1    3    3    0  502  0.83645398028E+02  0.24192137029E+03 -0.26783071164E+03  0.37048048816E+03  0.00000000000E+00 0.  1.
         13    1    5    5    0    0 -0.12955969814E+02 -0.84722266424E+02 -0.14501294843E+03  0.16844724633E+03  0.00000000000E+00 0. -1.
        -13    1    5    5    0    0 -0.38653113391E+03 -0.73132398235E+03 -0.12986382433E+04  0.15397085347E+04  0.00000000000E+00 0.  1.
          4    1    6    6  503    0  0.59442702516E+02 -0.59167135431E+01 -0.42857365348E+02  0.73520039079E+02  0.00000000000E+00 0. -1.
         -4    1    6    6    0  503  0.16193834745E+03  0.89799052918E+02 -0.26032529972E+03  0.31946386330E+03  0.00000000000E+00 0.  1.
<mgrwt>
<rscale>  0 0.19315896E+04</rscale>
<asrwt>0</asrwt>
<pdfrwt beam="1">  1        1 0.45912922E+00 0.19315896E+04</pdfrwt>
<pdfrwt beam="2">  1       -2 0.48084830E-01 0.19315896E+04</pdfrwt>
<totfact> 0.20657261E+00</totfact>
</mgrwt>
</event>
<event>
12    5  0.5264288E-008  0.2507760E+04  0.7818608E-02  0.8400226E-01
          1   -1    0    0  501    0  0.00000000000E+00  0.00000000000E+00  0.41708089922E+04  0.41708089922E+04  0.00000000000E+00 0. -1.
         -2   -1    0    0    0  501 -0.00000000000E+00 -0.00000000000E+00 -0.37695692477E+03  0.37695692477E+03  0.00000000000E+00 0.  1.
        -24    2    1    2    0    0  0.75468966558E+03 -0.80365273542E+03  0.14222264396E+04  0.18013285091E+04  0.81499334914E+02 0.  0.
        254    2    1    2    0    0 -0.75468966558E+03  0.80365273542E+03  0.23716256279E+04  0.27464374079E+04  0.83838899475E+03 0.  0.
         23    2    4    4    0    0 -0.83416526238E+03  0.38110358882E+03  0.18251587877E+04  0.20446337502E+04  0.90834694668E+02 0.  0.
         23    2    4    4    0    0  0.79475596802E+02  0.42254914660E+03  0.54646684016E+03  0.70180365774E+03  0.95069526351E+02 0.  0.
          1    1    3    3  502    0  0.34475309445E+03 -0.38538236501E+03  0.60404368539E+03  0.79513711853E+03  0.00000000000E+00 0. -1.
         -2    1    3    3    0  502  0.40993657113E+03 -0.41827037041E+03  0.81818275423E+03  0.10061913906E+04  0.00000000000E+00 0.  1.
         13    1    5    5    0    0 -0.75942757109E+03  0.32309634943E+03  0.16723990115E+04  0.18649503855E+04  0.00000000000E+00 0. -1.
        -13    1    5    5    0    0 -0.74737691284E+02  0.58007239387E+02  0.15275977620E+03  0.17968336468E+03  0.00000000000E+00 0.  1.
          2    1    6    6  503    0  0.85346975390E+02  0.37048269898E+03  0.42924555399E+03  0.57340498957E+03  0.00000000000E+00 0. -1.
         -2    1    6    6    0  503 -0.58713785879E+01  0.52066447622E+02  0.11722128617E+03  0.12839866816E+03  0.00000000000E+00 0.  1.
<mgrwt>
<rscale>  0 0.25077602E+04</rscale>
<asrwt>0</asrwt>
<pdfrwt beam="1">  1        1 0.64166289E+00 0.25077602E+04</pdfrwt>
<pdfrwt beam="2">  1       -2 0.57993376E-01 0.25077602E+04</pdfrwt>
<totfact> 0.14669899E-01</totfact>
</mgrwt>
</event>
<event>
12    5  0.5264288E-008  0.1178614E+04  0.7818608E-02  0.9131784E-01
          1   -1    0    0  501    0  0.00000000000E+00  0.00000000000E+00  0.13780750277E+04  0.13780750277E+04  0.00000000000E+00 0. -1.
         -2   -1    0    0    0  501 -0.00000000000E+00 -0.00000000000E+00 -0.25200574803E+03  0.25200574803E+03  0.00000000000E+00 0.  1.
        -24    2    1    2    0    0  0.17968387557E+01  0.97395445455E+02  0.52797946811E+03  0.54278499715E+03  0.79775516073E+02 0.  0.
        254    2    1    2    0    0 -0.17968387557E+01 -0.97395445455E+02  0.59808981159E+03  0.10872957786E+04  0.90277992115E+03 0.  0.
         23    2    4    4    0    0  0.43237844161E+03 -0.89280573087E+02  0.39594822661E+03  0.60003702518E+03  0.91363537215E+02 0.  0.
         23    2    4    4    0    0 -0.43417528037E+03 -0.81148723680E+01  0.20214158498E+03  0.48725875343E+03  0.89363567371E+02 0.  0.
          3    1    3    3  502    0  0.21025938357E+02  0.71339356864E+02  0.47428693157E+03  0.48008279222E+03  0.00000000000E+00 0. -1.
         -4    1    3    3    0  502 -0.19229099602E+02  0.26056088591E+02  0.53692536533E+02  0.62702204933E+02  0.00000000000E+00 0.  1.
         13    1    5    5    0    0  0.10667464201E+03 -0.10169781151E+02  0.14982778573E+03  0.18420442197E+03  0.00000000000E+00 0.  1.
        -13    1    5    5    0    0  0.32570379960E+03 -0.79110791936E+02  0.24612044088E+03  0.41583260321E+03  0.00000000000E+00 0. -1.
          3    1    6    6  503    0 -0.34869124708E+03 -0.18680953187E+02  0.19709827619E+03  0.40097667548E+03  0.00000000000E+00 0. -1.
         -3    1    6    6    0  503 -0.85484033286E+02  0.10566080819E+02  0.50433087960E+01  0.86282077943E+02  0.00000000000E+00 0.  1.
<mgrwt>
<rscale>  0 0.11786141E+04</rscale>
<asrwt>0</asrwt>
<pdfrwt beam="1">  1        1 0.21201154E+00 0.11786141E+04</pdfrwt>
<pdfrwt beam="2">  1       -2 0.38770116E-01 0.11786141E+04</pdfrwt>
<totfact> 0.43510353E+01</totfact>
</mgrwt>
</event>
<event>
12    5  0.5264288E-008  0.1795328E+04  0.7818608E-02  0.8708788E-01
         -2   -1    0    0    0  501 -0.00000000000E+00  0.00000000000E+00  0.87044726748E+03  0.87044726748E+03  0.00000000000E+00 0.  1.
          1   -1    0    0  501    0  0.00000000000E+00 -0.00000000000E+00 -0.92573176409E+03  0.92573176409E+03  0.00000000000E+00 0. -1.
        -24    2    1    2    0    0 -0.17808331267E+03 -0.48229584402E+03 -0.45060155833E+03  0.68831073548E+03  0.80043468152E+02 0.  0.
        254    2    1    2    0    0  0.17808331267E+03  0.48229584402E+03  0.39531706171E+03  0.11078682961E+04  0.89820578645E+03 0.  0.
         23    2    4    4    0    0 -0.27373195509E+03  0.46326331933E+03  0.82895721140E+02  0.55106750674E+03  0.85215081550E+02 0.  0.
         23    2    4    4    0    0  0.45181526776E+03  0.19032524687E+02  0.31242134057E+03  0.55680078936E+03  0.88998605670E+02 0.  0.
          1    1    3    3  502    0 -0.92983466163E+02 -0.28915219865E+03 -0.31421018586E+03  0.43701597209E+03  0.00000000000E+00 0. -1.
         -2    1    3    3    0  502 -0.85099846503E+02 -0.19314364537E+03 -0.13639137247E+03  0.25129476339E+03  0.00000000000E+00 0.  1.
         13    1    5    5    0    0 -0.60300470314E+02  0.17657185240E+03  0.42627468223E+02  0.19139191944E+03  0.00000000000E+00 0. -1.
        -13    1    5    5    0    0 -0.21343148478E+03  0.28669146694E+03  0.40268252917E+02  0.35967558730E+03  0.00000000000E+00 0.  1.
          3    1    6    6  503    0  0.25689535696E+03  0.75072411382E+01  0.12362192272E+03  0.28519109887E+03  0.00000000000E+00 0. -1.
         -3    1    6    6    0  503  0.19491991079E+03  0.11525283549E+02  0.18879941785E+03  0.27160969048E+03  0.00000000000E+00 0.  1.
<mgrwt>
<rscale>  0 0.17953280E+04</rscale>
<asrwt>0</asrwt>
<pdfrwt beam="1">  1        1 0.14242027E+00 0.17953280E+04</pdfrwt>
<pdfrwt beam="2">  1       -2 0.13391496E+00 0.17953280E+04</pdfrwt>
<totfact> 0.57760394E+00</totfact>
</mgrwt>
</event>
<event>
12    5  0.5264288E-008  0.1339498E+04  0.7818608E-02  0.8998817E-01
         -2   -1    0    0    0  501 -0.00000000000E+00  0.00000000000E+00  0.12648581627E+04  0.12648581627E+04  0.00000000000E+00 0.  1.
          1   -1    0    0  501    0  0.00000000000E+00 -0.00000000000E+00 -0.35463534524E+03  0.35463534524E+03  0.00000000000E+00 0. -1.
        -24    2    1    2    0    0  0.19470894952E+03  0.10016060746E+03 -0.78091932997E+02  0.24536668160E+03  0.78503096308E+02 0.  0.
        254    2    1    2    0    0 -0.19470894952E+03 -0.10016060746E+03  0.98831475047E+03  0.13741268263E+04  0.92925495242E+03 0.  0.
         23    2    4    4    0    0  0.20923670777E+03  0.28729693964E+03  0.52822258519E+03  0.64371100357E+03  0.95001185333E+02 0.  0.
         23    2    4    4    0    0 -0.40394565730E+03 -0.38745754709E+03  0.46009216528E+03  0.73041582278E+03  0.92341912269E+02 0.  0.
          1    1    3    3  502    0  0.14008098990E+03  0.29763722005E+02 -0.54108467013E+02  0.15308915403E+03  0.00000000000E+00 0. -1.
         -2    1    3    3    0  502  0.54627959620E+02  0.70396885452E+02 -0.23983465984E+02  0.92277527569E+02  0.00000000000E+00 0.  1.
         13    1    5    5    0    0  0.12244482685E+03  0.20086736358E+03  0.41433002835E+03  0.47645546043E+03  0.00000000000E+00 0. -1.
        -13    1    5    5    0    0  0.86791880923E+02  0.86429576051E+02  0.11389255683E+03  0.16725554314E+03  0.00000000000E+00 0.  1.
          2    1    6    6  503    0 -0.36071212048E+03 -0.34830570514E+03  0.37028680810E+03  0.62333170812E+03  0.00000000000E+00 0. -1.
         -2    1    6    6    0  503 -0.43233536819E+02 -0.39151841958E+02  0.89805357178E+02  0.10708411466E+03  0.00000000000E+00 0.  1.
<mgrwt>
<rscale>  0 0.13394975E+04</rscale>
<asrwt>0</asrwt>
<pdfrwt beam="1">  1        1 0.54559285E-01 0.13394975E+04</pdfrwt>
<pdfrwt beam="2">  1       -2 0.19459356E+00 0.13394975E+04</pdfrwt>
<totfact> 0.86891137E+00</totfact>
</mgrwt>
</event>
<event>
12    5  0.5264288E-008  0.1387682E+04  0.7818608E-02  0.8962783E-01
         -2   -1    0    0    0  501 -0.00000000000E+00  0.00000000000E+00  0.22003496807E+03  0.22003496807E+03  0.00000000000E+00 0.  1.
          1   -1    0    0  501    0  0.00000000000E+00 -0.00000000000E+00 -0.21879046879E+04  0.21879046879E+04  0.00000000000E+00 0. -1.
        -24    2    1    2    0    0  0.31321322419E+03 -0.19928467116E+03 -0.60514117906E+03  0.71423783141E+03  0.78249148628E+02 0.  0.
        254    2    1    2    0    0 -0.31321322419E+03  0.19928467116E+03 -0.13627285407E+04  0.16937018245E+04  0.93476194332E+03 0.  0.
         23    2    4    4    0    0 -0.28872108099E+03 -0.23258441463E+03 -0.16270278288E+03  0.41482250837E+03  0.90278155480E+02 0.  0.
         23    2    4    4    0    0 -0.24492143199E+02  0.43186908579E+03 -0.12000257579E+04  0.12788793162E+04  0.91431468371E+02 0.  0.
          1    1    3    3  502    0  0.25794325602E+03 -0.18408709887E+03 -0.54963881418E+03  0.63444905970E+03  0.00000000000E+00 0. -1.
         -2    1    3    3    0  502  0.55269968166E+02 -0.15197572294E+02 -0.55502364880E+02  0.79788771716E+02  0.00000000000E+00 0.  1.
         13    1    5    5    0    0 -0.23319641711E+03 -0.17385975139E+03 -0.16414191006E+03  0.33399153993E+03  0.00000000000E+00 0.  1.
        -13    1    5    5    0    0 -0.55524663871E+02 -0.58724663241E+02  0.14391271844E+01  0.80830968433E+02  0.00000000000E+00 0. -1.
          4    1    6    6  503    0 -0.43891051140E+01  0.13981269013E+02 -0.10788257294E+02  0.18196884963E+02  0.00000000000E+00 0. -1.
         -4    1    6    6    0  503 -0.20103038085E+02  0.41788781678E+03 -0.11892375006E+04  0.12606824312E+04  0.00000000000E+00 0.  1.
<mgrwt>
<rscale>  0 0.13876823E+04</rscale>
<asrwt>0</asrwt>
<pdfrwt beam="1">  1        1 0.33660071E+00 0.13876823E+04</pdfrwt>
<pdfrwt beam="2">  1       -2 0.33851534E-01 0.13876823E+04</pdfrwt>
<totfact> 0.15561598E+01</totfact>
</mgrwt>
</event>
<event>
12    5  0.5264288E-008  0.2331158E+04  0.7818608E-02  0.8465736E-01
          1   -1    0    0  501    0  0.00000000000E+00  0.00000000000E+00  0.13577779782E+04  0.13577779782E+04  0.00000000000E+00 0. -1.
         -2   -1    0    0    0  501 -0.00000000000E+00 -0.00000000000E+00 -0.10005866991E+04  0.10005866991E+04  0.00000000000E+00 0.  1.
        -24    2    1    2    0    0 -0.28589741538E+03  0.38224636398E+01 -0.80753880747E+03  0.86049793817E+03  0.81153143357E+02 0.  0.
        254    2    1    2    0    0  0.28589741538E+03 -0.38224636398E+01  0.11647300865E+04  0.14978667391E+04  0.89736093652E+03 0.  0.
         23    2    4    4    0    0  0.24826182313E+03  0.87500821061E+02  0.12876014654E+04  0.13177555247E+04  0.96289992179E+02 0.  0.
         23    2    4    4    0    0  0.37635592253E+02 -0.91323284701E+02 -0.12287137888E+03  0.18011121445E+03  0.87099332310E+02 0.  0.
          1    1    3    3  502    0 -0.64291964481E+02 -0.32207199984E+02 -0.22396495286E+03  0.23522555248E+03  0.00000000000E+00 0. -1.
         -2    1    3    3    0  502 -0.22160545090E+03  0.36029663624E+02 -0.58357385461E+03  0.62527238569E+03  0.00000000000E+00 0.  1.
         13    1    5    5    0    0  0.89721003616E+02 -0.95397480697E+01  0.32079819873E+03  0.33324517939E+03  0.00000000000E+00 0.  1.
        -13    1    5    5    0    0  0.15854081951E+03  0.97040569131E+02  0.96680326670E+03  0.98451034530E+03  0.00000000000E+00 0. -1.
          4    1    6    6  503    0  0.27734416138E+02 -0.10569478947E+03 -0.12021722479E+03  0.16245851007E+03  0.00000000000E+00 0. -1.
         -4    1    6    6    0  503  0.99011761152E+01  0.14371504769E+02 -0.26541540956E+01  0.17652704375E+02  0.00000000000E+00 0.  1.
<mgrwt>
<rscale>  0 0.23311582E+04</rscale>
<asrwt>0</asrwt>
<pdfrwt beam="1">  1        1 0.20888892E+00 0.23311582E+04</pdfrwt>
<pdfrwt beam="2">  1       -2 0.15393641E+00 0.23311582E+04</pdfrwt>
<totfact> 0.18205973E+00</totfact>
</mgrwt>
</event>
<event>
12    5  0.5264288E-008  0.3536028E+04  0.7818608E-02  0.8105305E-01
         -2   -1    0    0    0  501 -0.00000000000E+00  0.00000000000E+00  0.11776096773E+04  0.11776096773E+04  0.00000000000E+00 0.  1.
          1   -1    0    0  501    0  0.00000000000E+00 -0.00000000000E+00 -0.26544216896E+04  0.26544216896E+04  0.00000000000E+00 0. -1.
        -24    2    1    2    0    0 -0.31324557381E+03  0.16209387884E+04 -0.64778926077E+03  0.17754420809E+04  0.83655908175E+02 0.  0.
        254    2    1    2    0    0  0.31324557381E+03 -0.16209387884E+04 -0.82902275150E+03  0.20565892860E+04  0.90372309015E+03 0.  0.
         23    2    4    4    0    0  0.58682406894E+03 -0.10246165367E+04 -0.71802561616E+03  0.13850269107E+04  0.92397092220E+02 0.  0.
         23    2    4    4    0    0 -0.27357849513E+03 -0.59632225171E+03 -0.11099713535E+03  0.67156237537E+03  0.90720665123E+02 0.  0.
          1    1    3    3  502    0 -0.23574609732E+03  0.11509150554E+04 -0.42237910521E+03  0.12484333365E+04  0.00000000000E+00 0. -1.
         -2    1    3    3    0  502 -0.77499476482E+02  0.47002373297E+03 -0.22541015556E+03  0.52700874437E+03  0.00000000000E+00 0.  1.
         13    1    5    5    0    0  0.53251293794E+03 -0.91060421843E+03 -0.60812267289E+03  0.12176137553E+04  0.00000000000E+00 0. -1.
        -13    1    5    5    0    0  0.54311131000E+02 -0.11401231828E+03 -0.10990294327E+03  0.16741315542E+03  0.00000000000E+00 0.  1.
          4    1    6    6  503    0 -0.23364975562E+03 -0.44565220415E+03 -0.11282066384E+03  0.51568071280E+03  0.00000000000E+00 0. -1.
         -4    1    6    6    0  503 -0.39928739514E+02 -0.15067004756E+03  0.18235284950E+01  0.15588166257E+03  0.00000000000E+00 0.  1.
<mgrwt>
<rscale>  0 0.35360275E+04</rscale>
<asrwt>0</asrwt>
<pdfrwt beam="1">  1        1 0.40837256E+00 0.35360275E+04</pdfrwt>
<pdfrwt beam="2">  1       -2 0.18117072E+00 0.35360275E+04</pdfrwt>
<totfact> 0.13461260E-01</totfact>
</mgrwt>
</event>
<event>
12    5  0.5264288E-008  0.1761798E+04  0.7818608E-02  0.8726883E-01
         -2   -1    0    0    0  501 -0.00000000000E+00  0.00000000000E+00  0.19061129497E+03  0.19061129497E+03  0.00000000000E+00 0.  1.
          1   -1    0    0  501    0  0.00000000000E+00 -0.00000000000E+00 -0.40710235394E+04  0.40710235394E+04  0.00000000000E+00 0. -1.
        -24    2    1    2    0    0 -0.48871243870E+03  0.42443996786E+03 -0.14586410019E+04  0.15978425935E+04  0.80487558820E+02 0.  0.
        254    2    1    2    0    0  0.48871243870E+03 -0.42443996786E+03 -0.24217712425E+04  0.26637922409E+04  0.90101277311E+03 0.  0.
         23    2    4    4    0    0 -0.13999399501E+03  0.12755456789E+03 -0.20874615248E+03  0.29570622182E+03  0.89435602631E+02 0.  0.
         23    2    4    4    0    0  0.62870643371E+03 -0.55199453575E+03 -0.22130250900E+04  0.23680860191E+04  0.10189012295E+03 0.  0.
          1    1    3    3  502    0 -0.14686756151E+03  0.14698033745E+03 -0.55584299108E+03  0.59340941259E+03  0.00000000000E+00 0. -1.
         -2    1    3    3    0  502 -0.34184487719E+03  0.27745963041E+03 -0.90279801081E+03  0.10044331809E+04  0.00000000000E+00 0.  1.
         13    1    5    5    0    0 -0.12194867946E+02  0.38109476207E+02 -0.93681470512E+02  0.10186886128E+03  0.00000000000E+00 0.  1.
        -13    1    5    5    0    0 -0.12779912706E+03  0.89445091683E+02 -0.11506468197E+03  0.19383736054E+03  0.00000000000E+00 0. -1.
          3    1    6    6  503    0  0.52911340419E+03 -0.47675805849E+03 -0.19717158145E+04  0.20964070440E+04  0.00000000000E+00 0. -1.
         -3    1    6    6    0  503  0.99593029520E+02 -0.75236477261E+02 -0.24130927556E+03  0.27167897510E+03  0.00000000000E+00 0.  1.
<mgrwt>
<rscale>  0 0.17617980E+04</rscale>
<asrwt>0</asrwt>
<pdfrwt beam="1">  1        1 0.62631133E+00 0.17617980E+04</pdfrwt>
<pdfrwt beam="2">  1       -2 0.29324814E-01 0.17617980E+04</pdfrwt>
<totfact> 0.74807255E-01</totfact>
</mgrwt>
</event>
<event>
12    5  0.5264288E-008  0.1626043E+04  0.7818608E-02  0.8804706E-01
         -2   -1    0    0    0  501 -0.00000000000E+00  0.00000000000E+00  0.25128254386E+03  0.25128254386E+03  0.00000000000E+00 0.  1.
          1   -1    0    0  501    0  0.00000000000E+00 -0.00000000000E+00 -0.26305223989E+04  0.26305223989E+04  0.00000000000E+00 0. -1.
        -24    2    1    2    0    0  0.20348469388E+03 -0.44925436523E+03 -0.79271454088E+03  0.93713841702E+03  0.81219234231E+02 0.  0.
        254    2    1    2    0    0 -0.20348469388E+03  0.44925436523E+03 -0.15865253142E+04  0.19446665258E+04  0.10106581116E+04 0.  0.
         23    2    4    4    0    0 -0.43115791177E+03  0.65980683684E+03 -0.12197493862E+04  0.14550782221E+04  0.90674474619E+02 0.  0.
         23    2    4    4    0    0  0.22767321789E+03 -0.21055247161E+03 -0.36677592794E+03  0.48958830366E+03  0.94893036232E+02 0.  0.
          3    1    3    3  502    0  0.12235291108E+03 -0.27684921746E+03 -0.55812179985E+03  0.63491390561E+03  0.00000000000E+00 0. -1.
         -4    1    3    3    0  502  0.81131782795E+02 -0.17240514777E+03 -0.23459274103E+03  0.30222451141E+03  0.00000000000E+00 0.  1.
         13    1    5    5    0    0 -0.22297292495E+02  0.22247059599E+02 -0.86246324588E+02  0.91817914474E+02  0.00000000000E+00 0.  1.
        -13    1    5    5    0    0 -0.40886061927E+03  0.63755977724E+03 -0.11335030617E+04  0.13632603076E+04  0.00000000000E+00 0. -1.
          1    1    6    6  503    0  0.20180462042E+03 -0.20583066029E+03 -0.29194765377E+03  0.41027405240E+03  0.00000000000E+00 0. -1.
         -1    1    6    6    0  503  0.25868597474E+02 -0.47218113181E+01 -0.74828274173E+02  0.79314251261E+02  0.00000000000E+00 0.  1.
<mgrwt>
<rscale>  0 0.16260435E+04</rscale>
<asrwt>0</asrwt>
<pdfrwt beam="1">  1        1 0.40469576E+00 0.16260435E+04</pdfrwt>
<pdfrwt beam="2">  1       -2 0.38658852E-01 0.16260435E+04</pdfrwt>
<totfact> 0.58531944E+00</totfact>
</mgrwt>
</event>
<event>
12    5  0.5264288E-008  0.1391525E+04  0.7818608E-02  0.8959976E-01
         -2   -1    0    0    0  501 -0.00000000000E+00  0.00000000000E+00  0.27280252075E+03  0.27280252075E+03  0.00000000000E+00 0.  1.
          1   -1    0    0  501    0  0.00000000000E+00 -0.00000000000E+00 -0.17744900901E+04  0.17744900901E+04  0.00000000000E+00 0. -1.
        -24    2    1    2    0    0  0.32126122438E+03 -0.19527487596E+03 -0.42772574317E+03  0.57449868689E+03  0.75883979834E+02 0.  0.
        254    2    1    2    0    0 -0.32126122438E+03  0.19527487596E+03 -0.10739618262E+04  0.14727939240E+04  0.93508656653E+03 0.  0.
         23    2    4    4    0    0  0.30313598380E+03 -0.33168781928E+02 -0.48438487061E+03  0.57969688389E+03  0.91805128114E+02 0.  0.
         23    2    4    4    0    0 -0.62439720818E+03  0.22844365789E+03 -0.58957695560E+03  0.89309704009E+03  0.89235407950E+02 0.  0.
          1    1    3    3  502    0  0.11476551077E+03 -0.90283684452E+02 -0.11808487876E+03  0.18779324997E+03  0.00000000000E+00 0. -1.
         -2    1    3    3    0  502  0.20649571361E+03 -0.10499119151E+03 -0.30964086442E+03  0.38670543693E+03  0.00000000000E+00 0.  1.
         13    1    5    5    0    0  0.13975437223E+03 -0.58770009650E+02 -0.25966407024E+03  0.30068360109E+03  0.00000000000E+00 0. -1.
        -13    1    5    5    0    0  0.16338161157E+03  0.25601227722E+02 -0.22472080038E+03  0.27901328280E+03  0.00000000000E+00 0.  1.
          4    1    6    6  503    0 -0.42808994939E+02  0.35260577907E+02 -0.29175399268E+02  0.62666756135E+02  0.00000000000E+00 0. -1.
         -4    1    6    6    0  503 -0.58158821324E+03  0.19318307998E+03 -0.56040155633E+03  0.83043028396E+03  0.00000000000E+00 0.  1.
<mgrwt>
<rscale>  0 0.13915249E+04</rscale>
<asrwt>0</asrwt>
<pdfrwt beam="1">  1        1 0.27299848E+00 0.13915249E+04</pdfrwt>
<pdfrwt beam="2">  1       -2 0.41969617E-01 0.13915249E+04</pdfrwt>
<totfact> 0.19542766E+01</totfact>
</mgrwt>
</event>
<event>
12    5  0.5264288E-008  0.3029394E+04  0.7818608E-02  0.8235387E-01
         -2   -1    0    0    0  501 -0.00000000000E+00  0.00000000000E+00  0.96673141314E+03  0.96673141314E+03  0.00000000000E+00 0.  1.
          1   -1    0    0  501    0  0.00000000000E+00 -0.00000000000E+00 -0.23732619675E+04  0.23732619675E+04  0.00000000000E+00 0. -1.
        -24    2    1    2    0    0  0.31096392867E+03  0.91404180296E+03 -0.17273262329E+04  0.19804529904E+04  0.79794420942E+02 0.  0.
        254    2    1    2    0    0 -0.31096392867E+03 -0.91404180296E+03  0.32079567861E+03  0.13595403902E+04  0.90181440595E+03 0.  0.
         23    2    4    4    0    0 -0.51091938478E+03 -0.96402801840E+03  0.28747628739E+03  0.11317415922E+04  0.88361630591E+02 0.  0.
         23    2    4    4    0    0  0.19995545611E+03  0.49986215442E+02  0.33319391216E+02  0.22779879800E+03  0.91111494217E+02 0.  0.
          3    1    3    3  502    0  0.25765711009E+03  0.80921428973E+03 -0.14736085661E+04  0.17008048563E+04  0.00000000000E+00 0. -1.
         -4    1    3    3    0  502  0.53306818580E+02  0.10482751323E+03 -0.25371766678E+03  0.27964813404E+03  0.00000000000E+00 0.  1.
         13    1    5    5    0    0 -0.82985582113E+02 -0.17714403721E+03  0.18414563128E+02  0.19648336543E+03  0.00000000000E+00 0. -1.
        -13    1    5    5    0    0 -0.42793380267E+03 -0.78688398119E+03  0.26906172426E+03  0.93525822680E+03  0.00000000000E+00 0.  1.
          1    1    6    6  503    0  0.60536070004E+02  0.59974542514E+02  0.64113753159E+01  0.85455644956E+02  0.00000000000E+00 0. -1.
         -1    1    6    6    0  503  0.13941938611E+03 -0.99883270728E+01  0.26908015901E+02  0.14234315305E+03  0.00000000000E+00 0.  1.
<mgrwt>
<rscale>  0 0.30293939E+04</rscale>
<asrwt>0</asrwt>
<pdfrwt beam="1">  1        1 0.36511722E+00 0.30293939E+04</pdfrwt>
<pdfrwt beam="2">  1       -2 0.14872791E+00 0.30293939E+04</pdfrwt>
<totfact> 0.37924024E-01</totfact>
</mgrwt>
</event>
<event>
12    5  0.5264288E-008  0.1143638E+04  0.7818608E-02  0.9163673E-01
          1   -1    0    0  501    0  0.00000000000E+00  0.00000000000E+00  0.19592859896E+04  0.19592859896E+04  0.00000000000E+00 0. -1.
         -2   -1    0    0    0  501 -0.00000000000E+00 -0.00000000000E+00 -0.16688580092E+03  0.16688580092E+03  0.00000000000E+00 0.  1.
        -24    2    1    2    0    0  0.47146376898E+02 -0.17363378872E+03  0.52437198198E+03  0.56014158033E+03  0.80132022832E+02 0.  0.
        254    2    1    2    0    0 -0.47146376898E+02  0.17363378872E+03  0.12680282067E+04  0.15660302102E+04  0.90121230174E+03 0.  0.
         23    2    4    4    0    0  0.33561293105E+03  0.31660463844E+03  0.47067625903E+03  0.66555211576E+03  0.92460485661E+02 0.  0.
         23    2    4    4    0    0 -0.38275930795E+03 -0.14297084971E+03  0.79735194767E+03  0.90047809443E+03  0.90251417779E+02 0.  0.
          1    1    3    3  502    0  0.16882581413E+02 -0.16437177462E+03  0.44553344755E+03  0.47518749429E+03  0.00000000000E+00 0. -1.
         -2    1    3    3    0  502  0.30263795485E+02 -0.92620140998E+01  0.78838534437E+02  0.84954086038E+02  0.00000000000E+00 0.  1.
         13    1    5    5    0    0  0.26785350608E+03  0.20564490889E+03  0.30574514492E+03  0.45553860749E+03  0.00000000000E+00 0. -1.
        -13    1    5    5    0    0  0.67759424968E+02  0.11095972955E+03  0.16493111411E+03  0.21001350827E+03  0.00000000000E+00 0.  1.
          4    1    6    6  503    0 -0.36810363553E+03 -0.13048706660E+03  0.70316105985E+03  0.80433987662E+03  0.00000000000E+00 0. -1.
         -4    1    6    6    0  503 -0.14655672419E+02 -0.12483783118E+02  0.94190887823E+02  0.96138217811E+02  0.00000000000E+00 0.  1.
<mgrwt>
<rscale>  0 0.11436381E+04</rscale>
<asrwt>0</asrwt>
<pdfrwt beam="1">  1        1 0.30142860E+00 0.11436381E+04</pdfrwt>
<pdfrwt beam="2">  1       -2 0.25674740E-01 0.11436381E+04</pdfrwt>
<totfact> 0.37938123E+01</totfact>
</mgrwt>
</event>
<event>
12    5  0.5264288E-008  0.1966397E+04  0.7818608E-02  0.8622494E-01
         -2   -1    0    0    0  501 -0.00000000000E+00  0.00000000000E+00  0.18029432103E+04  0.18029432103E+04  0.00000000000E+00 0.  1.
          1   -1    0    0  501    0  0.00000000000E+00 -0.00000000000E+00 -0.53616731321E+03  0.53616731321E+03  0.00000000000E+00 0. -1.
        -24    2    1    2    0    0  0.59967584850E+03  0.48246842036E+03  0.39386506695E+03  0.86876526702E+03  0.85067610132E+02 0.  0.
        254    2    1    2    0    0 -0.59967584850E+03 -0.48246842036E+03  0.87291083016E+03  0.14703452565E+04  0.89864061561E+03 0.  0.
         23    2    4    4    0    0 -0.66602699052E+03 -0.60747185805E+02  0.27280389601E+03  0.72788054340E+03  0.90033033309E+02 0.  0.
         23    2    4    4    0    0  0.66351142026E+02 -0.42172123456E+03  0.60010693415E+03  0.74246471312E+03  0.94203206355E+02 0.  0.
          1    1    3    3  502    0  0.29276599060E+03  0.27611109870E+03  0.17333047586E+03  0.43816973645E+03  0.00000000000E+00 0. -1.
         -2    1    3    3    0  502  0.30690985790E+03  0.20635732166E+03  0.22053459109E+03  0.43059553057E+03  0.00000000000E+00 0.  1.
         13    1    5    5    0    0 -0.60660201050E+03 -0.31329845115E+02  0.25804268934E+03  0.65994968585E+03  0.00000000000E+00 0. -1.
        -13    1    5    5    0    0 -0.59424980026E+02 -0.29417340689E+02  0.14761206674E+02  0.67930857545E+02  0.00000000000E+00 0.  1.
          1    1    6    6  503    0  0.22422341701E+02 -0.26506445380E+03  0.44024204060E+03  0.51436852585E+03  0.00000000000E+00 0. -1.
         -1    1    6    6    0  503  0.43928800325E+02 -0.15665678076E+03  0.15986489354E+03  0.22809618726E+03  0.00000000000E+00 0.  1.
<mgrwt>
<rscale>  0 0.19663969E+04</rscale>
<asrwt>0</asrwt>
<pdfrwt beam="1">  1        1 0.82487280E-01 0.19663969E+04</pdfrwt>
<pdfrwt beam="2">  1       -2 0.27737588E+00 0.19663969E+04</pdfrwt>
<totfact> 0.14315963E+00</totfact>
</mgrwt>
</event>
<event>
12    5  0.5264288E-008  0.2029185E+04  0.7818608E-02  0.8593096E-01
          1   -1    0    0  501    0  0.00000000000E+00  0.00000000000E+00  0.15290796099E+04  0.15290796099E+04  0.00000000000E+00 0. -1.
         -2   -1    0    0    0  501 -0.00000000000E+00 -0.00000000000E+00 -0.67321410384E+03  0.67321410384E+03  0.00000000000E+00 0.  1.
        -24    2    1    2    0    0  0.51562922305E+03 -0.60994567788E+03  0.52043574749E+03  0.95654050123E+03  0.78798081272E+02 0.  0.
        254    2    1    2    0    0 -0.51562922305E+03  0.60994567788E+03  0.33542975859E+03  0.12457532125E+04  0.89525455483E+03 0.  0.
         23    2    4    4    0    0 -0.73014339136E+03  0.51613474032E+03  0.10602232285E+03  0.90533214212E+03  0.94239654685E+02 0.  0.
         23    2    4    4    0    0  0.21451416831E+03  0.93810937561E+02  0.22940743574E+03  0.34042107040E+03  0.91879884575E+02 0.  0.
          1    1    3    3  502    0  0.28626731766E+03 -0.30760779102E+03  0.31373824030E+03  0.52440748820E+03  0.00000000000E+00 0. -1.
         -4    1    3    3    0  502  0.22936190539E+03 -0.30233788686E+03  0.20669750719E+03  0.43213301303E+03  0.00000000000E+00 0.  1.
         13    1    5    5    0    0 -0.66479027410E+03  0.49747706756E+03  0.10816215871E+03  0.83733421874E+03  0.00000000000E+00 0. -1.
        -13    1    5    5    0    0 -0.65353117253E+02  0.18657672760E+02 -0.21398358647E+01  0.67997923387E+02  0.00000000000E+00 0.  1.
          1    1    6    6  503    0  0.16340453402E+03  0.78477367546E+02  0.22190861937E+03  0.28653651479E+03  0.00000000000E+00 0. -1.
         -1    1    6    6    0  503  0.51109634286E+02  0.15333570016E+02  0.74988163619E+01  0.53884555609E+02  0.00000000000E+00 0.  1.
<mgrwt>
<rscale>  0 0.20291850E+04</rscale>
<asrwt>0</asrwt>
<pdfrwt beam="1">  1        1 0.23524302E+00 0.20291850E+04</pdfrwt>
<pdfrwt beam="2">  1       -2 0.10357140E+00 0.20291850E+04</pdfrwt>
<totfact> 0.38533505E+00</totfact>
</mgrwt>
</event>
<event>
12    5  0.5264288E-008  0.3532129E+04  0.7818608E-02  0.8106218E-01
         -2   -1    0    0    0  501 -0.00000000000E+00  0.00000000000E+00  0.13501166457E+04  0.13501166457E+04  0.00000000000E+00 0.  1.
          1   -1    0    0  501    0  0.00000000000E+00 -0.00000000000E+00 -0.23101581839E+04  0.23101581839E+04  0.00000000000E+00 0. -1.
        -24    2    1    2    0    0 -0.22249251228E+03 -0.99336729714E+03  0.89726361844E+03  0.13595328069E+04  0.83462248869E+02 0.  0.
        254    2    1    2    0    0  0.22249251228E+03  0.99336729714E+03 -0.18573051566E+04  0.23007420226E+04  0.89863780510E+03 0.  0.
         23    2    4    4    0    0  0.32681132472E+03  0.64122175624E+03 -0.17690388349E+04  0.19120921772E+04  0.92882248730E+02 0.  0.
         23    2    4    4    0    0 -0.10431881244E+03  0.35214554089E+03 -0.88266321695E+02  0.38864984537E+03  0.91481485350E+02 0.  0.
          1    1    3    3  502    0 -0.87782427457E+02 -0.39499920968E+03  0.41163342026E+03  0.57721070927E+03  0.00000000000E+00 0. -1.
         -2    1    3    3    0  502 -0.13471008483E+03 -0.59836808746E+03  0.48563019818E+03  0.78232209762E+03  0.00000000000E+00 0.  1.
         13    1    5    5    0    0  0.28970749623E+03  0.60694363761E+03 -0.15982032432E+04  0.17339448143E+04  0.00000000000E+00 0. -1.
        -13    1    5    5    0    0  0.37103828491E+02  0.34278118632E+02 -0.17083559176E+03  0.17814736293E+03  0.00000000000E+00 0.  1.
          2    1    6    6  503    0 -0.81980712730E+02  0.26833955351E+03 -0.25804881940E+02  0.28176736001E+03  0.00000000000E+00 0. -1.
         -2    1    6    6    0  503 -0.22338099708E+02  0.83805987388E+02 -0.62461439755E+02  0.10688248536E+03  0.00000000000E+00 0.  1.
<mgrwt>
<rscale>  0 0.35321285E+04</rscale>
<asrwt>0</asrwt>
<pdfrwt beam="1">  1        1 0.35540895E+00 0.35321285E+04</pdfrwt>
<pdfrwt beam="2">  1       -2 0.20771026E+00 0.35321285E+04</pdfrwt>
<totfact> 0.15530562E-01</totfact>
</mgrwt>
</event>
<event>
12    5  0.5264288E-008  0.1463682E+04  0.7818608E-02  0.8908970E-01
          1   -1    0    0  501    0  0.00000000000E+00  0.00000000000E+00  0.14085165717E+04  0.14085165717E+04  0.00000000000E+00 0. -1.
         -2   -1    0    0    0  501 -0.00000000000E+00 -0.00000000000E+00 -0.38025213614E+03  0.38025213614E+03  0.00000000000E+00 0.  1.
        -24    2    1    2    0    0  0.31211506313E+02  0.41399139789E+03  0.12075349863E+03  0.43935622687E+03  0.78034934520E+02 0.  0.
        254    2    1    2    0    0 -0.31211506313E+02 -0.41399139789E+03  0.90751093691E+03  0.13494124809E+04  0.90828129313E+03 0.  0.
         23    2    4    4    0    0 -0.23846838964E+03  0.49900285598E+02 -0.47110926494E+02  0.26426321886E+03  0.90875728812E+02 0.  0.
         23    2    4    4    0    0  0.20725688332E+03 -0.46389168349E+03  0.95462186341E+03  0.10851492621E+04  0.89972824859E+02 0.  0.
          3    1    3    3  502    0 -0.86553802494E+01  0.56919984143E+02 -0.70677051171E+01  0.58006488065E+02  0.00000000000E+00 0. -1.
         -4    1    3    3    0  502  0.39866886563E+02  0.35707141375E+03  0.12782120375E+03  0.38134973881E+03  0.00000000000E+00 0.  1.
         13    1    5    5    0    0 -0.21424985097E+03  0.32951857147E+02 -0.10246634883E+02  0.21701109893E+03  0.00000000000E+00 0. -1.
        -13    1    5    5    0    0 -0.24218538666E+02  0.16948428450E+02 -0.36864291611E+02  0.47252119932E+02  0.00000000000E+00 0.  1.
          2    1    6    6  503    0  0.72533315223E+00  0.39189058942E+01  0.13415737122E+02  0.13995211114E+02  0.00000000000E+00 0. -1.
         -2    1    6    6    0  503  0.20653155017E+03 -0.46781058938E+03  0.94120612628E+03  0.10711540510E+04  0.00000000000E+00 0.  1.
<mgrwt>
<rscale>  0 0.14636823E+04</rscale>
<asrwt>0</asrwt>
<pdfrwt beam="1">  1        1 0.21669485E+00 0.14636823E+04</pdfrwt>
<pdfrwt beam="2">  1       -2 0.58500329E-01 0.14636823E+04</pdfrwt>
<totfact> 0.17621826E+01</totfact>
</mgrwt>
</event>
<event>
12    5  0.5264288E-008  0.1501359E+04  0.7818608E-02  0.8883549E-01
          1   -1    0    0  501    0  0.00000000000E+00  0.00000000000E+00  0.10352104619E+04  0.10352104619E+04  0.00000000000E+00 0. -1.
         -2   -1    0    0    0  501 -0.00000000000E+00 -0.00000000000E+00 -0.54435305186E+03  0.54435305186E+03  0.00000000000E+00 0.  1.
        -24    2    1    2    0    0  0.21638292684E+03  0.37356912539E+03 -0.29565437515E+02  0.43970132123E+03  0.78023549836E+02 0.  0.
        254    2    1    2    0    0 -0.21638292684E+03 -0.37356912539E+03  0.52042284756E+03  0.11398621925E+04  0.91764394797E+03 0.  0.
         23    2    4    4    0    0 -0.16312254999E+03 -0.12122838871E+03  0.75071754231E+03  0.78303840776E+03  0.90923215689E+02 0.  0.
         23    2    4    4    0    0 -0.53260376844E+02 -0.25234073668E+03 -0.23029469476E+03  0.35682378477E+03  0.88176254265E+02 0.  0.
          1    1    3    3  502    0  0.40287806059E+02  0.64172899389E+02  0.24470077936E+02  0.79624450060E+02  0.00000000000E+00 0. -1.
         -2    1    3    3    0  502  0.17609512078E+03  0.30939622600E+03 -0.54035515451E+02  0.36007687117E+03  0.00000000000E+00 0.  1.
         13    1    5    5    0    0 -0.15355914841E+03 -0.13485074170E+03  0.71500255662E+03  0.74363552267E+03  0.00000000000E+00 0. -1.
        -13    1    5    5    0    0 -0.95634015842E+01  0.13622352994E+02  0.35714985689E+02  0.39402885094E+02  0.00000000000E+00 0.  1.
          4    1    6    6  503    0  0.12432014617E+02 -0.71282510631E+02 -0.28235346371E+02  0.77672299399E+02  0.00000000000E+00 0.  1.
         -4    1    6    6    0  503 -0.65692391461E+02 -0.18105822605E+03 -0.20205934838E+03  0.27915148537E+03  0.00000000000E+00 0. -1.
<mgrwt>
<rscale>  0 0.15013593E+04</rscale>
<asrwt>0</asrwt>
<pdfrwt beam="1">  1        1 0.15926315E+00 0.15013593E+04</pdfrwt>
<pdfrwt beam="2">  1       -2 0.83746624E-01 0.15013593E+04</pdfrwt>
<totfact> 0.15016203E+01</totfact>
</mgrwt>
</event>
<event>
12    5  0.5264288E-008  0.1361210E+04  0.7818608E-02  0.8982385E-01
          1   -1    0    0  501    0  0.00000000000E+00  0.00000000000E+00  0.14070139337E+04  0.14070139337E+04  0.00000000000E+00 0. -1.
         -2   -1    0    0    0  501 -0.00000000000E+00 -0.00000000000E+00 -0.32922438538E+03  0.32922438538E+03  0.00000000000E+00 0.  1.
        -24    2    1    2    0    0  0.11276866898E+03 -0.14721312049E+02  0.74304459344E+03  0.75540146580E+03  0.74716912080E+02 0.  0.
        254    2    1    2    0    0 -0.11276866898E+03  0.14721312049E+02  0.33474495489E+03  0.98083685329E+03  0.91490614722E+03 0.  0.
         23    2    4    4    0    0  0.27408504500E+03  0.23078068017E+03 -0.67971251341E+02  0.37569799553E+03  0.90258288263E+02 0.  0.
         23    2    4    4    0    0 -0.38685371399E+03 -0.21605936812E+03  0.40271620623E+03  0.60513885777E+03  0.87608491838E+02 0.  0.
          3    1    3    3  502    0  0.64014765546E+02 -0.43728763237E+02  0.48835535670E+03  0.49447047370E+03  0.00000000000E+00 0. -1.
         -4    1    3    3    0  502  0.48753903435E+02  0.29007451188E+02  0.25468923674E+03  0.26093099210E+03  0.00000000000E+00 0.  1.
         13    1    5    5    0    0  0.23300730973E+03  0.22380723764E+03 -0.78994178467E+02  0.33259910739E+03  0.00000000000E+00 0. -1.
        -13    1    5    5    0    0  0.41077735275E+02  0.69734425314E+01  0.11022927126E+02  0.43098888136E+02  0.00000000000E+00 0.  1.
          4    1    6    6  503    0 -0.20793313442E+03 -0.16142415227E+03  0.21204966840E+03  0.33802219926E+03  0.00000000000E+00 0. -1.
         -4    1    6    6    0  503 -0.17892057957E+03 -0.54635215855E+02  0.19066653783E+03  0.26711665850E+03  0.00000000000E+00 0.  1.
<mgrwt>
<rscale>  0 0.13612102E+04</rscale>
<asrwt>0</asrwt>
<pdfrwt beam="1">  1        1 0.21646368E+00 0.13612102E+04</pdfrwt>
<pdfrwt beam="2">  1       -2 0.50649906E-01 0.13612102E+04</pdfrwt>
<totfact> 0.24019980E+01</totfact>
</mgrwt>
</event>
<event>
12    5  0.5264288E-008  0.3161766E+04  0.7818608E-02  0.8198988E-01
         -2   -1    0    0    0  501 -0.00000000000E+00  0.00000000000E+00  0.13016762018E+04  0.13016762018E+04  0.00000000000E+00 0.  1.
          1   -1    0    0  501    0  0.00000000000E+00 -0.00000000000E+00 -0.19199790527E+04  0.19199790527E+04  0.00000000000E+00 0. -1.
        -24    2    1    2    0    0 -0.86825548869E+03 -0.26514484124E+03  0.86861577887E+03  0.12589589818E+04  0.79466760514E+02 0.  0.
        254    2    1    2    0    0  0.86825548869E+03  0.26514484124E+03 -0.14869186298E+04  0.19626962728E+04  0.90392492343E+03 0.  0.
         23    2    4    4    0    0 -0.51941471122E+02  0.31152814956E+03 -0.57921654705E+03  0.66599859808E+03  0.91184537490E+02 0.  0.
         23    2    4    4    0    0  0.92019695981E+03 -0.46383308321E+02 -0.90770208272E+03  0.12966976747E+04  0.92671098460E+02 0.  0.
          3    1    3    3  502    0 -0.79061565774E+02 -0.18380431964E+02  0.11080234239E+03  0.13735257748E+03  0.00000000000E+00 0. -1.
         -4    1    3    3    0  502 -0.78919392292E+03 -0.24676440927E+03  0.75781343648E+03  0.11216064043E+04  0.00000000000E+00 0.  1.
         13    1    5    5    0    0 -0.16547121133E+02  0.24598755279E+03 -0.37659487493E+03  0.45011929882E+03  0.00000000000E+00 0. -1.
        -13    1    5    5    0    0 -0.35394349989E+02  0.65540596764E+02 -0.20262167212E+03  0.21587929926E+03  0.00000000000E+00 0.  1.
          2    1    6    6  503    0  0.79219829814E+03 -0.21221330322E+02 -0.81420291936E+03  0.11362019549E+04  0.00000000000E+00 0. -1.
         -2    1    6    6    0  503  0.12799866168E+03 -0.25161978000E+02 -0.93499163354E+02  0.16049571980E+03  0.00000000000E+00 0.  1.
<mgrwt>
<rscale>  0 0.31617660E+04</rscale>
<asrwt>0</asrwt>
<pdfrwt beam="1">  1        1 0.29538139E+00 0.31617660E+04</pdfrwt>
<pdfrwt beam="2">  1       -2 0.20025788E+00 0.31617660E+04</pdfrwt>
<totfact> 0.33013433E-01</totfact>
</mgrwt>
</event>
<event>
12    5  0.5264288E-008  0.1595987E+04  0.7818608E-02  0.8823017E-01
         -4   -1    0    0    0  501 -0.00000000000E+00  0.00000000000E+00  0.31745832194E+03  0.31745832194E+03  0.00000000000E+00 0.  1.
          1   -1    0    0  501    0  0.00000000000E+00 -0.00000000000E+00 -0.20059127940E+04  0.20059127940E+04  0.00000000000E+00 0. -1.
        -24    2    1    2    0    0 -0.47553776656E+03 -0.52773362775E+02 -0.94591464602E+03  0.10628854304E+04  0.77779979911E+02 0.  0.
        254    2    1    2    0    0  0.47553776656E+03  0.52773362775E+02 -0.74253982603E+03  0.12604856856E+04  0.89918717464E+03 0.  0.
         23    2    4    4    0    0 -0.31483259024E+02 -0.12338556183E+03  0.14860903295E+03  0.21623615523E+03  0.91968677754E+02 0.  0.
         23    2    4    4    0    0  0.50702102558E+03  0.17615892461E+03 -0.89114885898E+03  0.10442495303E+04  0.90600803732E+02 0.  0.
          1    1    3    3  502    0 -0.38989314965E+03 -0.13203798354E+02 -0.74713075695E+03  0.84284955740E+03  0.00000000000E+00 0. -1.
         -4    1    3    3    0  502 -0.85644616906E+02 -0.39569564421E+02 -0.19878388907E+03  0.22003587296E+03  0.00000000000E+00 0.  1.
         13    1    5    5    0    0 -0.52158903513E+00 -0.12195118372E+03  0.13628141523E+03  0.18287970746E+03  0.00000000000E+00 0.  1.
        -13    1    5    5    0    0 -0.30961669989E+02 -0.14343781171E+01  0.12327617719E+02  0.33356447768E+02  0.00000000000E+00 0. -1.
          2    1    6    6  503    0  0.66086826466E+02 -0.19550243507E+01 -0.77987320929E+02  0.10224144452E+03  0.00000000000E+00 0. -1.
         -2    1    6    6    0  503  0.44093419911E+03  0.17811394896E+03 -0.81316153806E+03  0.94200808581E+03  0.00000000000E+00 0.  1.
<mgrwt>
<rscale>  0 0.15959871E+04</rscale>
<asrwt>0</asrwt>
<pdfrwt beam="1">  1        1 0.30860197E+00 0.15959871E+04</pdfrwt>
<pdfrwt beam="2">  1       -4 0.48839742E-01 0.15959871E+04</pdfrwt>
<totfact> 0.56791051E+00</totfact>
</mgrwt>
</event>
<event>
12    5  0.5264288E-008  0.1784896E+04  0.7818608E-02  0.8714373E-01
         -2   -1    0    0    0  501 -0.00000000000E+00  0.00000000000E+00  0.10282933506E+04  0.10282933506E+04  0.00000000000E+00 0.  1.
          1   -1    0    0  501    0  0.00000000000E+00 -0.00000000000E+00 -0.77454901120E+03  0.77454901120E+03  0.00000000000E+00 0. -1.
        -24    2    1    2    0    0  0.42420786333E+03  0.26859685946E+03  0.51012241043E+03  0.72017813274E+03  0.79593247341E+02 0.  0.
        254    2    1    2    0    0 -0.42420786333E+03 -0.26859685946E+03 -0.25637807102E+03  0.10826642291E+04  0.92430272821E+03 0.  0.
         23    2    4    4    0    0 -0.38134371101E+03 -0.50239024526E+02  0.28819197639E+03  0.48887029474E+03  0.89401142708E+02 0.  0.
         23    2    4    4    0    0 -0.42864152329E+02 -0.21835783494E+03 -0.54457004741E+03  0.59379393433E+03  0.80729302468E+02 0.  0.
          1    1    3    3  502    0  0.11286341641E+03  0.46678325050E+02  0.87324214183E+02  0.15014171698E+03  0.00000000000E+00 0. -1.
         -2    1    3    3    0  502  0.31134444692E+03  0.22191853441E+03  0.42279819625E+03  0.57003641576E+03  0.00000000000E+00 0.  1.
         13    1    5    5    0    0 -0.24963936796E+03 -0.39275655423E+02  0.13486110153E+03  0.28644355089E+03  0.00000000000E+00 0. -1.
        -13    1    5    5    0    0 -0.13170434305E+03 -0.10963369103E+02  0.15333087486E+03  0.20242674385E+03  0.00000000000E+00 0.  1.
          3    1    6    6  503    0 -0.35409035321E+02 -0.31786209713E+02 -0.79665604267E+02  0.92794242351E+02  0.00000000000E+00 0. -1.
         -3    1    6    6    0  503 -0.74551170085E+01 -0.18657162522E+03 -0.46490444314E+03  0.50099969198E+03  0.00000000000E+00 0.  1.
<mgrwt>
<rscale>  0 0.17848962E+04</rscale>
<asrwt>0</asrwt>
<pdfrwt beam="1">  1        1 0.11916139E+00 0.17848962E+04</pdfrwt>
<pdfrwt beam="2">  1       -2 0.15819898E+00 0.17848962E+04</pdfrwt>
<totfact> 0.50029518E+00</totfact>
</mgrwt>
</event>
<event>
12    5  0.5264288E-008  0.2480877E+04  0.7818608E-02  0.8409830E-01
         -2   -1    0    0    0  501 -0.00000000000E+00  0.00000000000E+00  0.13428284906E+04  0.13428284906E+04  0.00000000000E+00 0.  1.
          1   -1    0    0  501    0  0.00000000000E+00 -0.00000000000E+00 -0.11458556161E+04  0.11458556161E+04  0.00000000000E+00 0. -1.
        -24    2    1    2    0    0 -0.10313861563E+04 -0.14246697000E+02 -0.21141313937E+03  0.10559502599E+04  0.79843997918E+02 0.  0.
        254    2    1    2    0    0  0.10313861563E+04  0.14246697000E+02  0.40838601388E+03  0.14327338468E+04  0.90663485908E+03 0.  0.
         23    2    4    4    0    0 -0.68944200454E+02  0.15759866194E+03 -0.88474172297E+02  0.21396077210E+03  0.91437912334E+02 0.  0.
         23    2    4    4    0    0  0.11003303568E+04 -0.14335196494E+03  0.49686018617E+03  0.12187730747E+04  0.85211989722E+02 0.  0.
          1    1    3    3  502    0 -0.75193724157E+01  0.34842799583E+01 -0.87808153985E+01  0.12074099859E+02  0.00000000000E+00 0. -1.
         -4    1    3    3    0  502 -0.10238667839E+04 -0.17730976958E+02 -0.20263232397E+03  0.10438761600E+04  0.00000000000E+00 0.  1.
         13    1    5    5    0    0 -0.34113023621E+02  0.44380641195E+02 -0.76655477762E+02  0.94917869574E+02  0.00000000000E+00 0.  1.
        -13    1    5    5    0    0 -0.34831176833E+02  0.11321802075E+03 -0.11818694534E+02  0.11904290253E+03  0.00000000000E+00 0. -1.
          1    1    6    6  503    0  0.10047693940E+04 -0.12743694804E+03  0.42607551028E+03  0.10987911773E+04  0.00000000000E+00 0. -1.
         -1    1    6    6    0  503  0.95560962737E+02 -0.15915016899E+02  0.70784675896E+02  0.11998189740E+03  0.00000000000E+00 0.  1.
<mgrwt>
<rscale>  0 0.24808769E+04</rscale>
<asrwt>0</asrwt>
<pdfrwt beam="1">  1        1 0.17628548E+00 0.24808769E+04</pdfrwt>
<pdfrwt beam="2">  1       -2 0.20658900E+00 0.24808769E+04</pdfrwt>
<totfact> 0.11017244E+00</totfact>
</mgrwt>
</event>
<event>
12    5  0.5264288E-008  0.1739089E+04  0.7818608E-02  0.8739379E-01
          1   -1    0    0  501    0  0.00000000000E+00  0.00000000000E+00  0.14318775168E+04  0.14318775168E+04  0.00000000000E+00 0. -1.
         -2   -1    0    0    0  501 -0.00000000000E+00 -0.00000000000E+00 -0.52805356204E+03  0.52805356204E+03  0.00000000000E+00 0.  1.
        -24    2    1    2    0    0  0.24626740598E+03 -0.38604739510E+03 -0.15577728644E+03  0.49033422186E+03  0.80503786526E+02 0.  0.
        254    2    1    2    0    0 -0.24626740598E+03  0.38604739510E+03  0.10596012412E+04  0.14695968570E+04  0.90954928684E+03 0.  0.
         23    2    4    4    0    0 -0.28384127445E+03 -0.22371469917E+03  0.57137263200E+03  0.68217190286E+03  0.90981782504E+02 0.  0.
         23    2    4    4    0    0  0.37573868467E+02  0.60976209426E+03  0.48822860920E+03  0.78742495413E+03  0.91919945314E+02 0.  0.
          1    1    3    3  502    0  0.45060610308E+02 -0.63479764984E+02  0.39951626772E+01  0.77949345659E+02  0.00000000000E+00 0. -1.
         -2    1    3    3    0  502  0.20120679567E+03 -0.32256763011E+03 -0.15977244911E+03  0.41238487620E+03  0.00000000000E+00 0.  1.
         13    1    5    5    0    0 -0.20975796148E+03 -0.15530642490E+03  0.47865893399E+03  0.54519066675E+03  0.00000000000E+00 0. -1.
        -13    1    5    5    0    0 -0.74083312962E+02 -0.68408274266E+02  0.92713698014E+02  0.13698123611E+03  0.00000000000E+00 0.  1.
          2    1    6    6  503    0  0.27731675184E+01  0.48841619788E+03  0.41858634863E+03  0.64325158692E+03  0.00000000000E+00 0. -1.
         -2    1    6    6    0  503  0.34800700949E+02  0.12134589638E+03  0.69642260573E+02  0.14417336721E+03  0.00000000000E+00 0.  1.
<mgrwt>
<rscale>  0 0.17390894E+04</rscale>
<asrwt>0</asrwt>
<pdfrwt beam="1">  1        1 0.22028885E+00 0.17390894E+04</pdfrwt>
<pdfrwt beam="2">  1       -2 0.81239010E-01 0.17390894E+04</pdfrwt>
<totfact> 0.81090200E+00</totfact>
</mgrwt>
</event>
<event>
12    5  0.5264288E-008  0.1801099E+04  0.7818608E-02  0.8705715E-01
          1   -1    0    0  501    0  0.00000000000E+00  0.00000000000E+00  0.99218345228E+03  0.99218345228E+03  0.00000000000E+00 0. -1.
         -2   -1    0    0    0  501 -0.00000000000E+00 -0.00000000000E+00 -0.81737820465E+03  0.81737820465E+03  0.00000000000E+00 0.  1.
        -24    2    1    2    0    0  0.41869098426E+03  0.52200447396E+03  0.90470596262E+02  0.67994965611E+03  0.79723239503E+02 0.  0.
        254    2    1    2    0    0 -0.41869098426E+03 -0.52200447396E+03  0.84334651372E+02  0.11296120008E+04  0.90615678988E+03 0.  0.
         23    2    4    4    0    0  0.25354293966E+03 -0.26332558999E+03 -0.79440825506E+02  0.38521589438E+03  0.91956793845E+02 0.  0.
         23    2    4    4    0    0 -0.67223392392E+03 -0.25867888398E+03  0.16377547688E+03  0.74439610644E+03  0.92140886559E+02 0.  0.
          3    1    3    3  502    0  0.10264497276E+02  0.76556339005E+01  0.13602511463E+02  0.18681460137E+02  0.00000000000E+00 0. -1.
         -4    1    3    3    0  502  0.40842648698E+03  0.51434884006E+03  0.76868084799E+02  0.66126819597E+03  0.00000000000E+00 0.  1.
         13    1    5    5    0    0  0.33009013673E+02 -0.44903091177E+02  0.20113021862E+02  0.59248765636E+02  0.00000000000E+00 0.  1.
        -13    1    5    5    0    0  0.22053392599E+03 -0.21842249881E+03 -0.99553847368E+02  0.32596712875E+03  0.00000000000E+00 0. -1.
          2    1    6    6  503    0 -0.27590895028E+03 -0.77836813999E+02  0.10261181058E+03  0.30448891955E+03  0.00000000000E+00 0. -1.
         -2    1    6    6    0  503 -0.39632497365E+03 -0.18084206998E+03  0.61163666297E+02  0.43990718690E+03  0.00000000000E+00 0.  1.
<mgrwt>
<rscale>  0 0.18010987E+04</rscale>
<asrwt>0</asrwt>
<pdfrwt beam="1">  1        1 0.15264361E+00 0.18010987E+04</pdfrwt>
<pdfrwt beam="2">  1       -2 0.12575049E+00 0.18010987E+04</pdfrwt>
<totfact> 0.59947298E+00</totfact>
</mgrwt>
</event>
<event>
12    5  0.5264288E-008  0.2092328E+04  0.7818608E-02  0.8564630E-01
         -2   -1    0    0    0  501 -0.00000000000E+00  0.00000000000E+00  0.12469828227E+04  0.12469828227E+04  0.00000000000E+00 0.  1.
          1   -1    0    0  501    0  0.00000000000E+00 -0.00000000000E+00 -0.87768608985E+03  0.87768608985E+03  0.00000000000E+00 0. -1.
        -24    2    1    2    0    0  0.75707975465E+03 -0.37682470989E+03  0.63339255911E+02  0.85196425532E+03  0.81637087904E+02 0.  0.
        254    2    1    2    0    0 -0.75707975465E+03  0.37682470989E+03  0.30595747698E+03  0.12727046573E+04  0.90055568958E+03 0.  0.
         23    2    4    4    0    0 -0.55007917432E+03 -0.20433668309E+03  0.46387625845E+02  0.59707680717E+03  0.10004161007E+03 0.  0.
         23    2    4    4    0    0 -0.20700058032E+03  0.58116139298E+03  0.25956985113E+03  0.67562785010E+03  0.92188281616E+02 0.  0.
          1    1    3    3  502    0  0.56462527494E+03 -0.24260696297E+03  0.57974610126E+02  0.61726890008E+03  0.00000000000E+00 0. -1.
         -2    1    3    3    0  502  0.19245447970E+03 -0.13421774692E+03  0.53646457854E+01  0.23469535524E+03  0.00000000000E+00 0.  1.
         13    1    5    5    0    0 -0.98483717701E+02 -0.77068791545E+02 -0.45256339359E+01  0.12513641614E+03  0.00000000000E+00 0. -1.
        -13    1    5    5    0    0 -0.45159545662E+03 -0.12726789155E+03  0.50913259780E+02  0.47194039103E+03  0.00000000000E+00 0.  1.
          3    1    6    6  503    0 -0.35277526835E+01  0.11340414308E+03  0.40350624043E+02  0.12042058615E+03  0.00000000000E+00 0. -1.
         -3    1    6    6    0  503 -0.20347282764E+03  0.46775724990E+03  0.21921922709E+03  0.55520726395E+03  0.00000000000E+00 0.  1.
<mgrwt>
<rscale>  0 0.20923283E+04</rscale>
<asrwt>0</asrwt>
<pdfrwt beam="1">  1        1 0.13502863E+00 0.20923283E+04</pdfrwt>
<pdfrwt beam="2">  1       -2 0.19184351E+00 0.20923283E+04</pdfrwt>
<totfact> 0.23062741E+00</totfact>
</mgrwt>
</event>
<event>
12    5  0.5264288E-008  0.1065107E+04  0.7818608E-02  0.9239884E-01
          1   -1    0    0  501    0  0.00000000000E+00  0.00000000000E+00  0.43106996233E+03  0.43106996233E+03  0.00000000000E+00 0. -1.
         -2   -1    0    0    0  501 -0.00000000000E+00 -0.00000000000E+00 -0.65792863040E+03  0.65792863040E+03  0.00000000000E+00 0.  1.
        -24    2    1    2    0    0 -0.94636649096E+02  0.68670309635E+02  0.37545193817E+02  0.14609804241E+03  0.79140947938E+02 0.  0.
        254    2    1    2    0    0  0.94636649096E+02 -0.68670309635E+02 -0.26440386188E+03  0.94290055031E+03  0.89748556469E+03 0.  0.
         23    2    4    4    0    0  0.27500392906E+03  0.30910273018E+03 -0.29088522775E+03  0.51353775962E+03  0.89079492759E+02 0.  0.
         23    2    4    4    0    0 -0.18036727997E+03 -0.37777303982E+03  0.26481365862E+02  0.42936279069E+03  0.91685974912E+02 0.  0.
          3    1    3    3  502    0 -0.33520247489E+02  0.25720896612E+02  0.55031256057E+02  0.69380189229E+02  0.00000000000E+00 0. -1.
         -4    1    3    3    0  502 -0.61116401607E+02  0.42949413023E+02 -0.17486062240E+02  0.76717853184E+02  0.00000000000E+00 0.  1.
         13    1    5    5    0    0  0.26305401248E+03  0.27839757913E+03 -0.23710799732E+03  0.45046956383E+03  0.00000000000E+00 0.  1.
        -13    1    5    5    0    0  0.11949916582E+02  0.30705151053E+02 -0.53777230430E+02  0.63068195791E+02  0.00000000000E+00 0. -1.
          3    1    6    6  503    0  0.92111428141E+01 -0.12478820103E+02  0.78497098153E+01  0.17383441756E+02  0.00000000000E+00 0. -1.
         -3    1    6    6    0  503 -0.18957842278E+03 -0.36529421972E+03  0.18631656046E+02  0.41197934893E+03  0.00000000000E+00 0.  1.
<mgrwt>
<rscale>  0 0.10651071E+04</rscale>
<asrwt>0</asrwt>
<pdfrwt beam="1">  1        1 0.66318456E-01 0.10651071E+04</pdfrwt>
<pdfrwt beam="2">  1       -2 0.10121979E+00 0.10651071E+04</pdfrwt>
<totfact> 0.38018227E+01</totfact>
</mgrwt>
</event>
<event>
12    5  0.5264288E-008  0.3061032E+04  0.7818608E-02  0.8226514E-01
         -2   -1    0    0    0  501 -0.00000000000E+00  0.00000000000E+00  0.11613032933E+04  0.11613032933E+04  0.00000000000E+00 0.  1.
          1   -1    0    0  501    0  0.00000000000E+00 -0.00000000000E+00 -0.20171119868E+04  0.20171119868E+04  0.00000000000E+00 0. -1.
        -24    2    1    2    0    0 -0.22643133885E+03  0.85968894726E+03 -0.15128872418E+04  0.17564452044E+04  0.77043575395E+02 0.  0.
        254    2    1    2    0    0  0.22643133885E+03 -0.85968894726E+03  0.65707854829E+03  0.14219700757E+04  0.89437712422E+03 0.  0.
         23    2    4    4    0    0  0.28603540093E+03  0.46350661547E+02  0.33973208736E+03  0.45572817460E+03  0.91135303433E+02 0.  0.
         23    2    4    4    0    0 -0.59604062086E+02 -0.90603960881E+03  0.31734646093E+03  0.96624190110E+03  0.91946822842E+02 0.  0.
          1    1    3    3  502    0 -0.16849714588E+03  0.61665867114E+03 -0.11525980137E+04  0.13180065956E+04  0.00000000000E+00 0. -1.
         -2    1    3    3    0  502 -0.57934192966E+02  0.24303027613E+03 -0.36028922808E+03  0.43843860882E+03  0.00000000000E+00 0.  1.
         13    1    5    5    0    0  0.55849577738E+02  0.23064793967E+02  0.13041145766E+03  0.14372998415E+03  0.00000000000E+00 0. -1.
        -13    1    5    5    0    0  0.23018582320E+03  0.23285867580E+02  0.20932062970E+03  0.31199819046E+03  0.00000000000E+00 0.  1.
          3    1    6    6  503    0 -0.11864030933E+01 -0.14588246294E+03  0.17235577613E+02  0.14690189135E+03  0.00000000000E+00 0. -1.
         -3    1    6    6    0  503 -0.58417658993E+02 -0.76015714587E+03  0.30011088331E+03  0.81934000975E+03  0.00000000000E+00 0.  1.
<mgrwt>
<rscale>  0 0.30610317E+04</rscale>
<asrwt>0</asrwt>
<pdfrwt beam="1">  1        1 0.31032492E+00 0.30610317E+04</pdfrwt>
<pdfrwt beam="2">  1       -2 0.17866204E+00 0.30610317E+04</pdfrwt>
<totfact> 0.40005413E-01</totfact>
</mgrwt>
</event>
<event>
12    5  0.5264288E-008  0.2431441E+04  0.7818608E-02  0.8427825E-01
         -2   -1    0    0    0  501 -0.00000000000E+00  0.00000000000E+00  0.21106179997E+04  0.21106179997E+04  0.00000000000E+00 0.  1.
          1   -1    0    0  501    0  0.00000000000E+00 -0.00000000000E+00 -0.70025779470E+03  0.70025779470E+03  0.00000000000E+00 0. -1.
        -24    2    1    2    0    0 -0.82833302183E+03 -0.31867608734E+03  0.12572605413E+04  0.15405210372E+04  0.69361039506E+02 0.  0.
        254    2    1    2    0    0  0.82833302183E+03  0.31867608734E+03  0.15309966377E+03  0.12703547572E+04  0.89591944863E+03 0.  0.
         23    2    4    4    0    0  0.80492764010E+03 -0.98446648324E+02  0.57882908305E+00  0.81606932072E+03  0.91479794522E+02 0.  0.
         23    2    4    4    0    0  0.23405381725E+02  0.41712273566E+03  0.15252083469E+03  0.45428543649E+03  0.92593003481E+02 0.  0.
          3    1    3    3  502    0 -0.27340647070E+03 -0.10573580964E+03  0.36009064440E+03  0.46432362836E+03  0.00000000000E+00 0. -1.
         -4    1    3    3    0  502 -0.55492655112E+03 -0.21294027770E+03  0.89716989687E+03  0.10761974089E+04  0.00000000000E+00 0.  1.
         13    1    5    5    0    0  0.42621941937E+03 -0.49804883085E+02  0.45910795677E+02  0.43156844299E+03  0.00000000000E+00 0. -1.
        -13    1    5    5    0    0  0.37870822074E+03 -0.48641765240E+02 -0.45331966594E+02  0.38450087773E+03  0.00000000000E+00 0.  1.
          2    1    6    6  503    0  0.24512043288E+02  0.14994095244E+03  0.10028090233E+03  0.18204227217E+03  0.00000000000E+00 0.  1.
         -2    1    6    6    0  503 -0.11066615629E+01  0.26718178322E+03  0.52239932354E+02  0.27224316432E+03  0.00000000000E+00 0. -1.
<mgrwt>
<rscale>  0 0.24314413E+04</rscale>
<asrwt>0</asrwt>
<pdfrwt beam="1">  1        1 0.10773197E+00 0.24314413E+04</pdfrwt>
<pdfrwt beam="2">  1       -2 0.32471046E+00 0.24314413E+04</pdfrwt>
<totfact> 0.47777197E-01</totfact>
</mgrwt>
</event>
<event>
12    5  0.5264288E-008  0.2365817E+04  0.7818608E-02  0.8452413E-01
         -2   -1    0    0    0  501 -0.00000000000E+00  0.00000000000E+00  0.88542851594E+03  0.88542851594E+03  0.00000000000E+00 0.  1.
          1   -1    0    0  501    0  0.00000000000E+00 -0.00000000000E+00 -0.15803341466E+04  0.15803341466E+04  0.00000000000E+00 0. -1.
        -24    2    1    2    0    0  0.89688265924E+03  0.26659268926E+03 -0.20272293235E+03  0.96065296587E+03  0.79292919758E+02 0.  0.
        254    2    1    2    0    0 -0.89688265924E+03 -0.26659268926E+03 -0.49218269831E+03  0.15051096967E+04  0.10712801800E+04 0.  0.
         23    2    4    4    0    0 -0.63736543072E+03 -0.13874840380E+03 -0.82477077884E+03  0.10555146371E+04  0.91534144403E+02 0.  0.
         23    2    4    4    0    0 -0.25951722852E+03 -0.12784428546E+03  0.33258808053E+03  0.44959505960E+03  0.88473346744E+02 0.  0.
          3    1    3    3  502    0  0.20675578188E+03  0.27130358072E+02 -0.45210342575E+02  0.21337287725E+03  0.00000000000E+00 0. -1.
         -4    1    3    3    0  502  0.69012687737E+03  0.23946233119E+03 -0.15751258977E+03  0.74728008863E+03  0.00000000000E+00 0.  1.
         13    1    5    5    0    0 -0.23841430730E+03 -0.47089207201E+02 -0.23869068711E+03  0.34063473028E+03  0.00000000000E+00 0.  1.
        -13    1    5    5    0    0 -0.39895112342E+03 -0.91659196601E+02 -0.58608009173E+03  0.71487990678E+03  0.00000000000E+00 0. -1.
          4    1    6    6  503    0 -0.58993715264E+02 -0.73848836562E+02  0.11403208775E+03  0.14811220793E+03  0.00000000000E+00 0.  1.
         -4    1    6    6    0  503 -0.20052351326E+03 -0.53995448902E+02  0.21855599278E+03  0.30148285167E+03  0.00000000000E+00 0. -1.
<mgrwt>
<rscale>  0 0.23658173E+04</rscale>
<asrwt>0</asrwt>
<pdfrwt beam="1">  1        1 0.24312833E+00 0.23658173E+04</pdfrwt>
<pdfrwt beam="2">  1       -2 0.13621977E+00 0.23658173E+04</pdfrwt>
<totfact> 0.17516738E+00</totfact>
</mgrwt>
</event>
<event>
12    5  0.5264288E-008  0.3639897E+04  0.7818608E-02  0.8081414E-01
         -2   -1    0    0    0  501 -0.00000000000E+00  0.00000000000E+00  0.17324147272E+04  0.17324147272E+04  0.00000000000E+00 0.  1.
          1   -1    0    0  501    0  0.00000000000E+00 -0.00000000000E+00 -0.19119045700E+04  0.19119045700E+04  0.00000000000E+00 0. -1.
        -24    2    1    2    0    0 -0.18175306916E+03 -0.12393440734E+04  0.10772309113E+04  0.16543152293E+04  0.85583476162E+02 0.  0.
        254    2    1    2    0    0  0.18175306916E+03  0.12393440734E+04 -0.12567207541E+04  0.19900040679E+04  0.90097792770E+03 0.  0.
         23    2    4    4    0    0  0.34211788041E+03  0.70275170396E+03 -0.23467811244E+03  0.82105427248E+03  0.90286767444E+02 0.  0.
         23    2    4    4    0    0 -0.16036481125E+03  0.53659236939E+03 -0.10220426417E+04  0.11689497955E+04  0.90687481365E+02 0.  0.
          1    1    3    3  502    0 -0.38548810569E+02 -0.54913383271E+03  0.46074962334E+03  0.71786084475E+03  0.00000000000E+00 0. -1.
         -2    1    3    3    0  502 -0.14320425859E+03 -0.69021024065E+03  0.61648128791E+03  0.93645438454E+03  0.00000000000E+00 0.  1.
         13    1    5    5    0    0  0.12424141686E+03  0.16831499349E+03 -0.74857859698E+02  0.22219263231E+03  0.00000000000E+00 0. -1.
        -13    1    5    5    0    0  0.21787646355E+03  0.53443671047E+03 -0.15982025274E+03  0.59886164016E+03  0.00000000000E+00 0.  1.
          3    1    6    6  503    0 -0.22855441510E+02  0.51777180534E+02 -0.57418432130E+02  0.80623346364E+02  0.00000000000E+00 0. -1.
         -3    1    6    6    0  503 -0.13750936974E+03  0.48481518886E+03 -0.96462420956E+03  0.10883264491E+04  0.00000000000E+00 0.  1.
<mgrwt>
<rscale>  0 0.36398965E+04</rscale>
<asrwt>0</asrwt>
<pdfrwt beam="1">  1        1 0.29413916E+00 0.36398965E+04</pdfrwt>
<pdfrwt beam="2">  1       -2 0.26652534E+00 0.36398965E+04</pdfrwt>
<totfact> 0.12337459E-01</totfact>
</mgrwt>
</event>
<event>
12    5  0.7432838E-008  0.1494942E+04  0.7818608E-02  0.8887823E-01
         -2   -1    0    0    0  501 -0.00000000000E+00  0.00000000000E+00  0.47507869137E+03  0.47507869137E+03  0.00000000000E+00 0.  1.
          1   -1    0    0  501    0  0.00000000000E+00 -0.00000000000E+00 -0.11760429109E+04  0.11760429109E+04  0.00000000000E+00 0. -1.
        -24    2    1    2    0    0 -0.23242372908E+03  0.29506380716E+02 -0.68514632309E+03  0.72891358540E+03  0.83654734410E+02 0.  0.
        254    2    1    2    0    0  0.23242372908E+03 -0.29506380716E+02 -0.15817896446E+02  0.92220801687E+03  0.89181052034E+03 0.  0.
         23    2    4    4    0    0  0.27973147050E+03  0.28900055966E+03 -0.27779069318E+03  0.49716015629E+03  0.90716771945E+02 0.  0.
         23    2    4    4    0    0 -0.47307741421E+02 -0.31850694037E+03  0.26197279674E+03  0.42504786058E+03  0.91385141520E+02 0.  0.
          1    1    3    3  502    0 -0.21895977803E+03  0.16068517486E+02 -0.54623070936E+03  0.58870159631E+03  0.00000000000E+00 0. -1.
         -4    1    3    3    0  502 -0.13463951054E+02  0.13437863230E+02 -0.13891561373E+03  0.14021198909E+03  0.00000000000E+00 0.  1.
         13    1    5    5    0    0  0.27113687328E+03  0.24214869910E+03 -0.25694408905E+03  0.44516453298E+03  0.00000000000E+00 0. -1.
        -13    1    5    5    0    0  0.85945972194E+01  0.46851860561E+02 -0.20846604137E+02  0.51995623310E+02  0.00000000000E+00 0.  1.
          2    1    6    6  503    0 -0.67287524391E+02 -0.30005290155E+03  0.23959680998E+03  0.38982814934E+03  0.00000000000E+00 0. -1.
         -2    1    6    6    0  503  0.19979782970E+02 -0.18454038822E+02  0.22375986760E+02  0.35219711241E+02  0.00000000000E+00 0.  1.
<mgrwt>
<rscale>  0 0.14949420E+04</rscale>
<asrwt>0</asrwt>
<pdfrwt beam="1">  1        1 0.18092968E+00 0.14949420E+04</pdfrwt>
<pdfrwt beam="2">  1       -2 0.73089031E-01 0.14949420E+04</pdfrwt>
<totfact> 0.15967579E+01</totfact>
</mgrwt>
</event>
<event>
12    5  0.5264288E-008  0.2407196E+04  0.7818608E-02  0.8436814E-01
          1   -1    0    0  501    0  0.00000000000E+00  0.00000000000E+00  0.20315029131E+04  0.20315029131E+04  0.00000000000E+00 0. -1.
         -2   -1    0    0    0  501 -0.00000000000E+00 -0.00000000000E+00 -0.71309194271E+03  0.71309194271E+03  0.00000000000E+00 0.  1.
        -24    2    1    2    0    0  0.37122328079E+03  0.81857387544E+03 -0.33356821615E+02  0.90368837170E+03  0.87579003441E+02 0.  0.
        254    2    1    2    0    0 -0.37122328079E+03 -0.81857387544E+03  0.13517677920E+04  0.18409064841E+04  0.86821115286E+03 0.  0.
         23    2    4    4    0    0 -0.33415427123E+03 -0.76662357425E+03  0.14592745550E+04  0.16842172823E+04  0.87947970308E+02 0.  0.
         23    2    4    4    0    0 -0.37069009561E+02 -0.51950301194E+02 -0.10750676301E+03  0.15668920181E+03  0.94450286432E+02 0.  0.
          3    1    3    3  502    0  0.71970641690E+02  0.88655006148E+02 -0.38497890759E+01  0.11425543425E+03  0.00000000000E+00 0. -1.
         -4    1    3    3    0  502  0.29925263910E+03  0.72991886930E+03 -0.29507032539E+02  0.78943293745E+03  0.00000000000E+00 0.  1.
         13    1    5    5    0    0 -0.26104754813E+03 -0.49633293246E+03  0.98529374319E+03  0.11337089409E+04  0.00000000000E+00 0. -1.
        -13    1    5    5    0    0 -0.73106723097E+02 -0.27029064179E+03  0.47398081178E+03  0.55050834139E+03  0.00000000000E+00 0.  1.
          1    1    6    6  503    0  0.24235623581E+02 -0.29537438739E+02 -0.10249331317E+02  0.39558495043E+02  0.00000000000E+00 0. -1.
         -1    1    6    6    0  503 -0.61304633142E+02 -0.22412862455E+02 -0.97257431697E+02  0.11713070677E+03  0.00000000000E+00 0.  1.
<mgrwt>
<rscale>  0 0.24071962E+04</rscale>
<asrwt>0</asrwt>
<pdfrwt beam="1">  1        1 0.31253891E+00 0.24071962E+04</pdfrwt>
<pdfrwt beam="2">  1       -2 0.10970645E+00 0.24071962E+04</pdfrwt>
<totfact> 0.14761059E+00</totfact>
</mgrwt>
</event>
<event>
12    5  0.5264288E-008  0.1240215E+04  0.7818608E-02  0.9078367E-01
         -2   -1    0    0    0  501 -0.00000000000E+00  0.00000000000E+00  0.69386422989E+03  0.69386422989E+03  0.00000000000E+00 0.  1.
          1   -1    0    0  501    0  0.00000000000E+00 -0.00000000000E+00 -0.55419076875E+03  0.55419076875E+03  0.00000000000E+00 0. -1.
        -24    2    1    2    0    0 -0.35938122237E+02 -0.25509927895E+03  0.15637513496E+03  0.31160491730E+03  0.79229103858E+02 0.  0.
        254    2    1    2    0    0  0.35938122237E+02  0.25509927895E+03 -0.16701673814E+02  0.93645008134E+03  0.90016255098E+03 0.  0.
         23    2    4    4    0    0  0.43024829123E+01 -0.19167763834E+03  0.30839920002E+03  0.37493494252E+03  0.93313000963E+02 0.  0.
         23    2    4    4    0    0  0.31635639325E+02  0.44677691729E+03 -0.32510087384E+03  0.56151513882E+03  0.94859082086E+02 0.  0.
          1    1    3    3  502    0 -0.22931933026E+02 -0.59233223471E+02  0.49890037098E+01  0.63712938035E+02  0.00000000000E+00 0. -1.
         -2    1    3    3    0  502 -0.13006189212E+02 -0.19586605548E+03  0.15138613125E+03  0.24789197926E+03  0.00000000000E+00 0.  1.
         13    1    5    5    0    0  0.31229848590E+02 -0.20007807191E+02  0.35063289534E+02  0.51039691070E+02  0.00000000000E+00 0.  1.
        -13    1    5    5    0    0 -0.26927365678E+02 -0.17166983115E+03  0.27333591049E+03  0.32389525145E+03  0.00000000000E+00 0. -1.
          4    1    6    6  503    0  0.59265169919E+02  0.37758877603E+03 -0.25701578603E+03  0.46058957697E+03  0.00000000000E+00 0. -1.
         -4    1    6    6    0  503 -0.27629530594E+02  0.69188141266E+02 -0.68085087809E+02  0.10092556185E+03  0.00000000000E+00 0.  1.
<mgrwt>
<rscale>  0 0.12402147E+04</rscale>
<asrwt>0</asrwt>
<pdfrwt beam="1">  1        1 0.85260118E-01 0.12402147E+04</pdfrwt>
<pdfrwt beam="2">  1       -2 0.10674834E+00 0.12402147E+04</pdfrwt>
<totfact> 0.23405933E+01</totfact>
</mgrwt>
</event>
<event>
12    5  0.5264288E-008  0.2661213E+04  0.7818608E-02  0.8347701E-01
         -2   -1    0    0    0  501 -0.00000000000E+00  0.00000000000E+00  0.18603790472E+04  0.18603790472E+04  0.00000000000E+00 0.  1.
          1   -1    0    0  501    0  0.00000000000E+00 -0.00000000000E+00 -0.95169530294E+03  0.95169530294E+03  0.00000000000E+00 0. -1.
        -24    2    1    2    0    0  0.60585200210E+03  0.23292660198E+03 -0.63324968771E+03  0.91036436714E+03  0.80291118010E+02 0.  0.
        254    2    1    2    0    0 -0.60585200210E+03 -0.23292660198E+03  0.15419334319E+04  0.19017099830E+04  0.90422934060E+03 0.  0.
         23    2    4    4    0    0 -0.44922364328E+03  0.16256738763E+03  0.13287043187E+04  0.14151053192E+04  0.94009896333E+02 0.  0.
         23    2    4    4    0    0 -0.15662835882E+03 -0.39549398961E+03  0.21322911324E+03  0.48660466379E+03  0.10183076887E+03 0.  0.
          3    1    3    3  502    0  0.57997123785E+03  0.23761294050E+03 -0.61671348923E+03  0.87929635165E+03  0.00000000000E+00 0. -1.
         -4    1    3    3    0  502  0.25880764248E+02 -0.46863385199E+01 -0.16536198477E+02  0.31068015496E+02  0.00000000000E+00 0.  1.
         13    1    5    5    0    0 -0.36343637238E+03  0.16850653795E+03  0.11124178737E+04  0.11823510375E+04  0.00000000000E+00 0.  1.
        -13    1    5    5    0    0 -0.85787270897E+02 -0.59391503193E+01  0.21628644503E+03  0.23275428172E+03  0.00000000000E+00 0. -1.
          3    1    6    6  503    0 -0.90453132308E+02 -0.11621296859E+03  0.10027628679E+03  0.17816440976E+03  0.00000000000E+00 0. -1.
         -3    1    6    6    0  503 -0.66175226510E+02 -0.27928102102E+03  0.11295282645E+03  0.30844025403E+03  0.00000000000E+00 0.  1.
<mgrwt>
<rscale>  0 0.26612133E+04</rscale>
<asrwt>0</asrwt>
<pdfrwt beam="1">  1        1 0.14641466E+00 0.26612133E+04</pdfrwt>
<pdfrwt beam="2">  1       -2 0.28621216E+00 0.26612133E+04</pdfrwt>
<totfact> 0.49002006E-01</totfact>
</mgrwt>
</event>
<event>
12    5  0.5264288E-008  0.1180237E+04  0.7818608E-02  0.9130333E-01
          1   -1    0    0  501    0  0.00000000000E+00  0.00000000000E+00  0.55331860657E+03  0.55331860657E+03  0.00000000000E+00 0. -1.
         -2   -1    0    0    0  501 -0.00000000000E+00 -0.00000000000E+00 -0.62936589140E+03  0.62936589140E+03  0.00000000000E+00 0.  1.
        -24    2    1    2    0    0 -0.18932494256E+03 -0.11424826946E+03  0.46642442021E+02  0.23990543880E+03  0.80513981490E+02 0.  0.
        254    2    1    2    0    0  0.18932494256E+03  0.11424826946E+03 -0.12268972685E+03  0.94277905917E+03  0.90823068897E+03 0.  0.
         23    2    4    4    0    0  0.27890965136E+03  0.24961705296E+03 -0.43346481539E+03  0.58117155562E+03  0.98840093743E+02 0.  0.
         23    2    4    4    0    0 -0.89584708796E+02 -0.13536878350E+03  0.31077508854E+03  0.36160750355E+03  0.88479960293E+02 0.  0.
          3    1    3    3  502    0 -0.18225045828E+02 -0.43632652542E+02  0.25162266803E+02  0.53563983552E+02  0.00000000000E+00 0. -1.
         -4    1    3    3    0  502 -0.17109989673E+03 -0.70615616922E+02  0.21480175218E+02  0.18634145524E+03  0.00000000000E+00 0.  1.
         13    1    5    5    0    0  0.94809272604E+02  0.28027022183E+02 -0.10322490933E+03  0.14293248074E+03  0.00000000000E+00 0. -1.
        -13    1    5    5    0    0  0.18410037875E+03  0.22159003078E+03 -0.33023990607E+03  0.43823907488E+03  0.00000000000E+00 0.  1.
          2    1    6    6  503    0 -0.79700881701E+01 -0.15473464038E+02  0.12358103116E+03  0.12480072779E+03  0.00000000000E+00 0. -1.
         -2    1    6    6    0  503 -0.81614620626E+02 -0.11989531946E+03  0.18719405738E+03  0.23680677576E+03  0.00000000000E+00 0.  1.
<mgrwt>
<rscale>  0 0.11802370E+04</rscale>
<asrwt>0</asrwt>
<pdfrwt beam="1">  1        1 0.85125940E-01 0.11802370E+04</pdfrwt>
<pdfrwt beam="2">  1       -2 0.96825521E-01 0.11802370E+04</pdfrwt>
<totfact> 0.29730782E+01</totfact>
</mgrwt>
</event>
<event>
12    5  0.5264288E-008  0.1988034E+04  0.7818608E-02  0.8612236E-01
          1   -1    0    0  501    0  0.00000000000E+00  0.00000000000E+00  0.15376856265E+04  0.15376856265E+04  0.00000000000E+00 0. -1.
         -2   -1    0    0    0  501 -0.00000000000E+00 -0.00000000000E+00 -0.64256956358E+03  0.64256956358E+03  0.00000000000E+00 0.  1.
        -24    2    1    2    0    0 -0.26319383314E+03 -0.72791922496E+03  0.41898383367E+03  0.88395234184E+03  0.81773454718E+02 0.  0.
        254    2    1    2    0    0  0.26319383314E+03  0.72791922496E+03  0.47613222922E+03  0.12963028482E+04  0.92442510929E+03 0.  0.
         23    2    4    4    0    0  0.59957026545E+03  0.44218040011E+03  0.23924750904E+03  0.78781645189E+03  0.91691776294E+02 0.  0.
         23    2    4    4    0    0 -0.33637643230E+03  0.28573882485E+03  0.23688472018E+03  0.50848639631E+03  0.87454355776E+02 0.  0.
          1    1    3    3  502    0 -0.16695345665E+03 -0.34350974180E+03  0.21404295727E+03  0.43782049627E+03  0.00000000000E+00 0. -1.
         -2    1    3    3    0  502 -0.96240376496E+02 -0.38440948316E+03  0.20494087640E+03  0.44613184557E+03  0.00000000000E+00 0.  1.
         13    1    5    5    0    0  0.57233979210E+03  0.42077842375E+03  0.24742871103E+03  0.75222887910E+03  0.00000000000E+00 0.  1.
        -13    1    5    5    0    0  0.27230473342E+02  0.21401976361E+02 -0.81812019946E+01  0.35587572784E+02  0.00000000000E+00 0. -1.
          1    1    6    6  503    0 -0.15064285342E+03  0.77140044490E+02  0.10891836889E+03  0.20126367489E+03  0.00000000000E+00 0. -1.
         -1    1    6    6    0  503 -0.18573357888E+03  0.20859878036E+03  0.12796635129E+03  0.30722272142E+03  0.00000000000E+00 0.  1.
<mgrwt>
<rscale>  0 0.19880342E+04</rscale>
<asrwt>0</asrwt>
<pdfrwt beam="1">  1        1 0.23656702E+00 0.19880342E+04</pdfrwt>
<pdfrwt beam="2">  1       -2 0.98856857E-01 0.19880342E+04</pdfrwt>
<totfact> 0.42618446E+00</totfact>
</mgrwt>
</event>
<event>
12    5  0.5264288E-008  0.1711356E+04  0.7818608E-02  0.8754914E-01
         -2   -1    0    0    0  501 -0.00000000000E+00  0.00000000000E+00  0.79968065578E+03  0.79968065578E+03  0.00000000000E+00 0.  1.
          1   -1    0    0  501    0  0.00000000000E+00 -0.00000000000E+00 -0.91559644989E+03  0.91559644989E+03  0.00000000000E+00 0. -1.
        -24    2    1    2    0    0  0.26686737152E+03 -0.68334903868E+02 -0.58722816829E+03  0.65344335471E+03  0.79141917556E+02 0.  0.
        254    2    1    2    0    0 -0.26686737152E+03  0.68334903868E+02  0.47131237418E+03  0.10618337510E+04  0.91075117763E+03 0.  0.
         23    2    4    4    0    0 -0.27816478691E+03  0.45621331876E+03  0.35113302926E+03  0.64557407437E+03  0.89248195382E+02 0.  0.
         23    2    4    4    0    0  0.11297415391E+02 -0.38787841489E+03  0.12017934492E+03  0.41625967659E+03  0.90839127458E+02 0.  0.
          3    1    3    3  502    0  0.18857560034E+03 -0.57540705052E+02 -0.33064962366E+03  0.38496865250E+03  0.00000000000E+00 0. -1.
         -4    1    3    3    0  502  0.78291771177E+02 -0.10794198816E+02 -0.25657854463E+03  0.26847470221E+03  0.00000000000E+00 0.  1.
         13    1    5    5    0    0 -0.22360267265E+03  0.39223685714E+03  0.25764198128E+03  0.51983391370E+03  0.00000000000E+00 0. -1.
        -13    1    5    5    0    0 -0.54562114265E+02  0.63976461615E+02  0.93491047983E+02  0.12574016068E+03  0.00000000000E+00 0.  1.
          3    1    6    6  503    0  0.19969143472E+02 -0.38787589949E+03  0.12255795709E+03  0.40726764289E+03  0.00000000000E+00 0. -1.
         -3    1    6    6    0  503 -0.86717280807E+01 -0.25153979755E-02 -0.23786121705E+01  0.89920337016E+01  0.00000000000E+00 0.  1.
<mgrwt>
<rscale>  0 0.17113559E+04</rscale>
<asrwt>0</asrwt>
<pdfrwt beam="1">  1        1 0.14086099E+00 0.17113559E+04</pdfrwt>
<pdfrwt beam="2">  1       -2 0.12302779E+00 0.17113559E+04</pdfrwt>
<totfact> 0.73454723E+00</totfact>
</mgrwt>
</event>
<event>
12    5  0.5264288E-008  0.2726223E+04  0.7818608E-02  0.8326546E-01
          1   -1    0    0  501    0  0.00000000000E+00  0.00000000000E+00  0.24864220961E+04  0.24864220961E+04  0.00000000000E+00 0. -1.
         -2   -1    0    0    0  501 -0.00000000000E+00 -0.00000000000E+00 -0.74728798639E+03  0.74728798639E+03  0.00000000000E+00 0.  1.
        -24    2    1    2    0    0 -0.16131884914E+03 -0.53255616912E+03  0.20465242422E+04  0.21223959937E+04  0.81629872959E+02 0.  0.
        254    2    1    2    0    0  0.16131884914E+03  0.53255616912E+03 -0.30739013241E+03  0.11113140888E+04  0.91153193366E+03 0.  0.
         23    2    4    4    0    0  0.36933757704E+03  0.18542108456E+02 -0.38781993440E+03  0.54365392468E+03  0.91658238593E+02 0.  0.
         23    2    4    4    0    0 -0.20801872790E+03  0.51401406067E+03  0.80429801984E+02  0.56766016411E+03  0.91032209426E+02 0.  0.
          1    1    3    3  502    0 -0.69981286908E+02 -0.35860672695E+03  0.13756519137E+04  0.14233461817E+04  0.00000000000E+00 0. -1.
         -2    1    3    3    0  502 -0.91337562235E+02 -0.17394944217E+03  0.67087232844E+03  0.69904981208E+03  0.00000000000E+00 0.  1.
         13    1    5    5    0    0  0.21326753255E+03  0.55811241655E+02 -0.21877061483E+03  0.31057771499E+03  0.00000000000E+00 0. -1.
        -13    1    5    5    0    0  0.15607004449E+03 -0.37269133199E+02 -0.16904931957E+03  0.23307620969E+03  0.00000000000E+00 0.  1.
          1    1    6    6  503    0 -0.19036080607E+03  0.37990150416E+03  0.41771422093E+02  0.42697452038E+03  0.00000000000E+00 0. -1.
         -1    1    6    6    0  503 -0.17657921826E+02  0.13411255651E+03  0.38658379891E+02  0.14068564373E+03  0.00000000000E+00 0.  1.
<mgrwt>
<rscale>  0 0.27262233E+04</rscale>
<asrwt>0</asrwt>
<pdfrwt beam="1">  1        1 0.38252647E+00 0.27262233E+04</pdfrwt>
<pdfrwt beam="2">  1       -2 0.11496738E+00 0.27262233E+04</pdfrwt>
<totfact> 0.62568958E-01</totfact>
</mgrwt>
</event>
<event>
12    5  0.5264288E-008  0.2421056E+04  0.7818608E-02  0.8431662E-01
         -2   -1    0    0    0  501 -0.00000000000E+00  0.00000000000E+00  0.19654404366E+04  0.19654404366E+04  0.00000000000E+00 0.  1.
          1   -1    0    0  501    0  0.00000000000E+00 -0.00000000000E+00 -0.74557223746E+03  0.74557223746E+03  0.00000000000E+00 0. -1.
        -24    2    1    2    0    0 -0.63527665590E+03 -0.80933820449E+03  0.71724891623E+03  0.12574075039E+04  0.89570443186E+02 0.  0.
        254    2    1    2    0    0  0.63527665590E+03  0.80933820449E+03  0.50261928287E+03  0.14536051701E+04  0.89539772631E+03 0.  0.
         23    2    4    4    0    0  0.68223993045E+03  0.73678548207E+03  0.79164676253E+02  0.10115866836E+04  0.93468728616E+02 0.  0.
         23    2    4    4    0    0 -0.46963274555E+02  0.72552722421E+02  0.42345460662E+03  0.44201848649E+03  0.92720503874E+02 0.  0.
          3    1    3    3  502    0 -0.48262032509E+02 -0.40301295170E+02  0.66034821693E+02  0.91181225317E+02  0.00000000000E+00 0. -1.
         -4    1    3    3    0  502 -0.58701462339E+03 -0.76903690932E+03  0.65121409454E+03  0.11662262786E+04  0.00000000000E+00 0.  1.
         13    1    5    5    0    0  0.50372302330E+03  0.49822788616E+03  0.26358326172E+02  0.70898707472E+03  0.00000000000E+00 0.  1.
        -13    1    5    5    0    0  0.17851690715E+03  0.23855759590E+03  0.52806350081E+02  0.30259960891E+03  0.00000000000E+00 0. -1.
          3    1    6    6  503    0  0.63604655630E+01 -0.11597761748E+02  0.96046432073E+01  0.16346644025E+02  0.00000000000E+00 0. -1.
         -3    1    6    6    0  503 -0.53323740118E+02  0.84150484169E+02  0.41384996341E+03  0.42567184246E+03  0.00000000000E+00 0.  1.
<mgrwt>
<rscale>  0 0.24210558E+04</rscale>
<asrwt>0</asrwt>
<pdfrwt beam="1">  1        1 0.11470342E+00 0.24210558E+04</pdfrwt>
<pdfrwt beam="2">  1       -2 0.30237545E+00 0.24210558E+04</pdfrwt>
<totfact> 0.59592783E-01</totfact>
</mgrwt>
</event>
<event>
12    5  0.5264288E-008  0.1381989E+04  0.7818608E-02  0.8966960E-01
         -2   -1    0    0    0  501 -0.00000000000E+00  0.00000000000E+00  0.27042517083E+03  0.27042517083E+03  0.00000000000E+00 0.  1.
          1   -1    0    0  501    0  0.00000000000E+00 -0.00000000000E+00 -0.17656397740E+04  0.17656397740E+04  0.00000000000E+00 0. -1.
        -24    2    1    2    0    0  0.35203015147E+02  0.22550636652E+03  0.30848127236E+02  0.24419195338E+03  0.81152507818E+02 0.  0.
        254    2    1    2    0    0 -0.35203015147E+02 -0.22550636652E+03 -0.15260627305E+04  0.17918729915E+04  0.91096047486E+03 0.  0.
         23    2    4    4    0    0  0.34834348789E+03 -0.37380006350E+03 -0.82397644593E+03  0.97376635928E+03  0.90631484579E+02 0.  0.
         23    2    4    4    0    0 -0.38354650303E+03  0.14829369698E+03 -0.70208628452E+03  0.81810663221E+03  0.85289918540E+02 0.  0.
          1    1    3    3  502    0  0.40450695267E+02  0.76213310505E+02 -0.15748092183E+02  0.87708208585E+02  0.00000000000E+00 0. -1.
         -2    1    3    3    0  502 -0.52476801208E+01  0.14929305601E+03  0.46596219420E+02  0.15648374479E+03  0.00000000000E+00 0.  1.
         13    1    5    5    0    0  0.26073838787E+01 -0.33605370523E+02 -0.60059379088E+02  0.68871245052E+02  0.00000000000E+00 0. -1.
        -13    1    5    5    0    0  0.34573610401E+03 -0.34019469297E+03 -0.76391706684E+03  0.90489511423E+03  0.00000000000E+00 0.  1.
          3    1    6    6  503    0  0.18373745833E+01 -0.71267028147E+00  0.12848815410E+01  0.23526080982E+01  0.00000000000E+00 0. -1.
         -3    1    6    6    0  503 -0.38538387762E+03  0.14900636726E+03 -0.70337116606E+03  0.81575402411E+03  0.00000000000E+00 0.  1.
<mgrwt>
<rscale>  0 0.13819891E+04</rscale>
<asrwt>0</asrwt>
<pdfrwt beam="1">  1        1 0.27163690E+00 0.13819891E+04</pdfrwt>
<pdfrwt beam="2">  1       -2 0.41603870E-01 0.13819891E+04</pdfrwt>
<totfact> 0.20176035E+01</totfact>
</mgrwt>
</event>
<event>
12    5  0.5264288E-008  0.2081132E+04  0.7818608E-02  0.8569601E-01
         -2   -1    0    0    0  501 -0.00000000000E+00  0.00000000000E+00  0.17051346271E+04  0.17051346271E+04  0.00000000000E+00 0.  1.
          1   -1    0    0  501    0  0.00000000000E+00 -0.00000000000E+00 -0.63500994700E+03  0.63500994700E+03  0.00000000000E+00 0. -1.
        -24    2    1    2    0    0 -0.75868710209E+03  0.19933980145E+03  0.78909752258E+03  0.11155105891E+04  0.79664916318E+02 0.  0.
        254    2    1    2    0    0  0.75868710209E+03 -0.19933980145E+03  0.28102715754E+03  0.12246339850E+04  0.89744618709E+03 0.  0.
         23    2    4    4    0    0  0.45332018366E+03  0.27432138260E+02 -0.27969494699E+03  0.54053003530E+03  0.87702591580E+02 0.  0.
         23    2    4    4    0    0  0.30536691843E+03 -0.22677193971E+03  0.56072210453E+03  0.68410394973E+03  0.94416460564E+02 0.  0.
          1    1    3    3  502    0 -0.12736108283E+02  0.15757868770E+02  0.19862620222E+02  0.28373272009E+02  0.00000000000E+00 0. -1.
         -2    1    3    3    0  502 -0.74595099381E+03  0.18358193268E+03  0.76923490235E+03  0.10871373171E+04  0.00000000000E+00 0.  1.
         13    1    5    5    0    0  0.30333507645E+03  0.56260301089E+02 -0.16773769340E+03  0.35115996906E+03  0.00000000000E+00 0.  1.
        -13    1    5    5    0    0  0.14998510721E+03 -0.28828162829E+02 -0.11195725359E+03  0.18937006624E+03  0.00000000000E+00 0. -1.
          1    1    6    6  503    0  0.26408584882E+03 -0.15119387849E+03  0.46055302216E+03  0.55200544441E+03  0.00000000000E+00 0. -1.
         -1    1    6    6    0  503  0.41281069610E+02 -0.75578061224E+02  0.10016908237E+03  0.13209850533E+03  0.00000000000E+00 0.  1.
<mgrwt>
<rscale>  0 0.20811319E+04</rscale>
<asrwt>0</asrwt>
<pdfrwt beam="1">  1        1 0.97693839E-01 0.20811319E+04</pdfrwt>
<pdfrwt beam="2">  1       -2 0.26232840E+00 0.20811319E+04</pdfrwt>
<totfact> 0.13734089E+00</totfact>
</mgrwt>
</event>
<event>
12    5  0.8111899E-008  0.2589908E+04  0.7818608E-02  0.8371637E-01
          1   -1    0    0  501    0  0.00000000000E+00  0.00000000000E+00  0.21478714501E+04  0.21478714501E+04  0.00000000000E+00 0. -1.
         -2   -1    0    0    0  501 -0.00000000000E+00 -0.00000000000E+00 -0.78072891555E+03  0.78072891555E+03  0.00000000000E+00 0.  1.
        -24    2    1    2    0    0 -0.46105424996E+03 -0.61516198655E+03  0.15504354114E+04  0.17324264708E+04  0.80350609749E+02 0.  0.
        254    2    1    2    0    0  0.46105424996E+03  0.61516198655E+03 -0.18329287683E+03  0.11961738949E+04  0.89790891361E+03 0.  0.
         23    2    4    4    0    0  0.18255192131E+03  0.59345636526E+03 -0.47142585615E+03  0.78467299040E+03  0.89183533093E+02 0.  0.
         23    2    4    4    0    0  0.27850232865E+03  0.21705621287E+02  0.28813297932E+03  0.41150090454E+03  0.90981864133E+02 0.  0.
          3    1    3    3  502    0 -0.45171679945E+03 -0.58360840671E+03  0.15062929602E+04  0.16773685705E+04  0.00000000000E+00 0. -1.
         -4    1    3    3    0  502 -0.93374505111E+01 -0.31553579840E+02  0.44142451198E+02  0.55057900256E+02  0.00000000000E+00 0.  1.
         13    1    5    5    0    0  0.18208491478E+03  0.58790579066E+03 -0.47552174258E+03  0.77775900030E+03  0.00000000000E+00 0.  1.
        -13    1    5    5    0    0  0.46700652879E+00  0.55505746056E+01  0.40958864272E+01  0.69139901052E+01  0.00000000000E+00 0. -1.
          3    1    6    6  503    0 -0.56439574501E+01  0.26838530070E+01 -0.18202834802E+00  0.62522361585E+01  0.00000000000E+00 0. -1.
         -3    1    6    6    0  503  0.28414628610E+03  0.19021768280E+02  0.28831500767E+03  0.40524866838E+03  0.00000000000E+00 0.  1.
<mgrwt>
<rscale>  0 0.25899076E+04</rscale>
<asrwt>0</asrwt>
<pdfrwt beam="1">  1        1 0.33044176E+00 0.25899076E+04</pdfrwt>
<pdfrwt beam="2">  1       -2 0.12011214E+00 0.25899076E+04</pdfrwt>
<totfact> 0.97040903E-01</totfact>
</mgrwt>
</event>
<event>
12    5  0.5264288E-008  0.1756928E+04  0.7818608E-02  0.8729546E-01
          1   -1    0    0  501    0  0.00000000000E+00  0.00000000000E+00  0.24352753155E+04  0.24352753155E+04  0.00000000000E+00 0. -1.
         -2   -1    0    0    0  501 -0.00000000000E+00 -0.00000000000E+00 -0.31688366358E+03  0.31688366358E+03  0.00000000000E+00 0.  1.
        -24    2    1    2    0    0  0.14988604137E+03 -0.63504871707E+03  0.85774716306E+03  0.10806708976E+04  0.79791571145E+02 0.  0.
        254    2    1    2    0    0 -0.14988604137E+03  0.63504871707E+03  0.12606444889E+04  0.16714880814E+04  0.88255038419E+03 0.  0.
         23    2    4    4    0    0  0.27155488830E+03  0.59829619825E+03  0.71015488648E+03  0.97193478784E+03  0.92934766429E+02 0.  0.
         23    2    4    4    0    0 -0.42144092967E+03  0.36752518821E+02  0.55048960238E+03  0.69955329359E+03  0.85865030218E+02 0.  0.
          1    1    3    3  502    0  0.10299853221E+03 -0.37840676751E+03  0.57438415249E+03  0.69549804742E+03  0.00000000000E+00 0. -1.
         -2    1    3    3    0  502  0.46887509159E+02 -0.25664194956E+03  0.28336301058E+03  0.38517285023E+03  0.00000000000E+00 0.  1.
         13    1    5    5    0    0  0.32290059505E+02  0.25022811853E+02  0.61231790684E+02  0.73607888479E+02  0.00000000000E+00 0. -1.
        -13    1    5    5    0    0  0.23926482880E+03  0.57327338640E+03  0.64892309580E+03  0.89832689936E+03  0.00000000000E+00 0.  1.
          3    1    6    6  503    0 -0.12971579648E+03  0.45742051574E+00  0.11055187627E+03  0.17043507396E+03  0.00000000000E+00 0. -1.
         -3    1    6    6    0  503 -0.29172513319E+03  0.36295098305E+02  0.43993772610E+03  0.52911821963E+03  0.00000000000E+00 0.  1.
<mgrwt>
<rscale>  0 0.17569280E+04</rscale>
<asrwt>0</asrwt>
<pdfrwt beam="1">  1        1 0.37465773E+00 0.17569280E+04</pdfrwt>
<pdfrwt beam="2">  1       -2 0.48751334E-01 0.17569280E+04</pdfrwt>
<totfact> 0.49831871E+00</totfact>
</mgrwt>
</event>
<event>
12    5  0.5264288E-008  0.1378633E+04  0.7818608E-02  0.8969432E-01
          1   -1    0    0  501    0  0.00000000000E+00  0.00000000000E+00  0.16053339884E+04  0.16053339884E+04  0.00000000000E+00 0. -1.
         -2   -1    0    0    0  501 -0.00000000000E+00 -0.00000000000E+00 -0.29598668151E+03  0.29598668151E+03  0.00000000000E+00 0.  1.
        -24    2    1    2    0    0 -0.14862658382E+03  0.91652700299E+02 -0.91305236857E+02  0.22207436748E+03  0.10242216325E+03 0.  0.
        254    2    1    2    0    0  0.14862658382E+03 -0.91652700299E+02  0.14006525438E+04  0.16792463025E+04  0.90969803619E+03 0.  0.
         23    2    4    4    0    0 -0.15382675772E+03  0.28083111615E+03  0.97416190166E+03  0.10294087202E+04  0.90344426152E+02 0.  0.
         23    2    4    4    0    0  0.30245334154E+03 -0.37248381645E+03  0.42649064211E+03  0.64983758228E+03  0.10085830760E+03 0.  0.
          3    1    3    3  502    0 -0.88604799630E+01  0.45149006592E+02  0.47007267080E+01  0.46249732248E+02  0.00000000000E+00 0. -1.
         -4    1    3    3    0  502 -0.13976610386E+03  0.46503693707E+02 -0.96005963565E+02  0.17582463524E+03  0.00000000000E+00 0.  1.
         13    1    5    5    0    0 -0.16524258078E+03  0.27201269593E+03  0.93325566660E+03  0.98603354735E+03  0.00000000000E+00 0. -1.
        -13    1    5    5    0    0  0.11415823055E+02  0.88184202183E+01  0.40906235056E+02  0.43375172825E+02  0.00000000000E+00 0.  1.
          3    1    6    6  503    0  0.23722139246E+03 -0.22453788206E+03  0.31213723468E+03  0.45179741344E+03  0.00000000000E+00 0. -1.
         -3    1    6    6    0  503  0.65231949086E+02 -0.14794593439E+03  0.11435340743E+03  0.19804016884E+03  0.00000000000E+00 0.  1.
<mgrwt>
<rscale>  0 0.13786334E+04</rscale>
<asrwt>0</asrwt>
<pdfrwt beam="1">  1        1 0.24697445E+00 0.13786334E+04</pdfrwt>
<pdfrwt beam="2">  1       -2 0.45536413E-01 0.13786334E+04</pdfrwt>
<totfact> 0.21689803E+01</totfact>
</mgrwt>
</event>
<event>
12    5  0.5264288E-008  0.1922092E+04  0.7818608E-02  0.8643937E-01
         -2   -1    0    0    0  501 -0.00000000000E+00  0.00000000000E+00  0.12310915293E+04  0.12310915293E+04  0.00000000000E+00 0.  1.
          1   -1    0    0  501    0  0.00000000000E+00 -0.00000000000E+00 -0.75023615408E+03  0.75023615408E+03  0.00000000000E+00 0. -1.
        -24    2    1    2    0    0  0.35712366330E+03  0.10344641887E+03  0.85360634176E+03  0.93472346002E+03  0.82617719355E+02 0.  0.
        254    2    1    2    0    0 -0.35712366330E+03 -0.10344641887E+03 -0.37275096654E+03  0.10466042234E+04  0.90454333496E+03 0.  0.
         23    2    4    4    0    0 -0.45334867579E+03  0.12005228884E+02  0.15687613607E+03  0.48890276239E+03  0.93523481788E+02 0.  0.
         23    2    4    4    0    0  0.96225012486E+02 -0.11545164775E+03 -0.52962710260E+03  0.55770146096E+03  0.89093859204E+02 0.  0.
          3    1    3    3  502    0  0.10910377421E+03  0.50576171208E+02  0.19645355167E+03  0.23033797039E+03  0.00000000000E+00 0. -1.
         -4    1    3    3    0  502  0.24801988909E+03  0.52870247659E+02  0.65715279009E+03  0.70438548963E+03  0.00000000000E+00 0.  1.
         13    1    5    5    0    0 -0.17867958769E+02  0.51834152890E+01  0.29936910779E+02  0.35246990959E+02  0.00000000000E+00 0. -1.
        -13    1    5    5    0    0 -0.43548071702E+03  0.68218135947E+01  0.12693922529E+03  0.45365577143E+03  0.00000000000E+00 0.  1.
          2    1    6    6  503    0  0.38145448911E+01  0.73583891410E+01 -0.25481427088E+01  0.86711979992E+01  0.00000000000E+00 0. -1.
         -2    1    6    6    0  503  0.92410467595E+02 -0.12281003689E+03 -0.52707895990E+03  0.54903026296E+03  0.00000000000E+00 0.  1.
<mgrwt>
<rscale>  0 0.19220920E+04</rscale>
<asrwt>0</asrwt>
<pdfrwt beam="1">  1        1 0.11542095E+00 0.19220920E+04</pdfrwt>
<pdfrwt beam="2">  1       -2 0.18939870E+00 0.19220920E+04</pdfrwt>
<totfact> 0.31313018E+00</totfact>
</mgrwt>
</event>
<event>
12    5  0.5264288E-008  0.2460312E+04  0.7818608E-02  0.8417263E-01
         -2   -1    0    0    0  501 -0.00000000000E+00  0.00000000000E+00  0.15496579646E+04  0.15496579646E+04  0.00000000000E+00 0.  1.
          1   -1    0    0  501    0  0.00000000000E+00 -0.00000000000E+00 -0.97652722650E+03  0.97652722650E+03  0.00000000000E+00 0. -1.
        -24    2    1    2    0    0  0.66119820999E+02 -0.48627102642E+03  0.12167155272E+04  0.13143830935E+04  0.79842972744E+02 0.  0.
        254    2    1    2    0    0 -0.66119820999E+02  0.48627102642E+03 -0.64358478916E+03  0.12118020976E+04  0.90190443013E+03 0.  0.
         23    2    4    4    0    0 -0.22596928438E+03  0.48504367723E+03  0.54538523029E+00  0.54291537650E+03  0.91800448210E+02 0.  0.
         23    2    4    4    0    0  0.15984946338E+03  0.12273491869E+01 -0.64413017439E+03  0.66888672112E+03  0.83381093792E+02 0.  0.
          1    1    3    3  502    0  0.18046367714E+02 -0.84086873097E+02  0.30184248519E+03  0.31385531615E+03  0.00000000000E+00 0. -1.
         -2    1    3    3    0  502  0.48073453285E+02 -0.40218415332E+03  0.91487304205E+03  0.10005277773E+04  0.00000000000E+00 0.  1.
         13    1    5    5    0    0 -0.11625961002E+03  0.31227252376E+03 -0.35523278935E+02  0.33510047652E+03  0.00000000000E+00 0. -1.
        -13    1    5    5    0    0 -0.10970967436E+03  0.17277115347E+03  0.36068664165E+02  0.20781489998E+03  0.00000000000E+00 0.  1.
          4    1    6    6  503    0  0.14905562115E+02 -0.28604430250E+02 -0.10898305658E+03  0.11365604178E+03  0.00000000000E+00 0. -1.
         -4    1    6    6    0  503  0.14494390126E+03  0.29831779437E+02 -0.53514711781E+03  0.55523067934E+03  0.00000000000E+00 0.  1.
<mgrwt>
<rscale>  0 0.24603115E+04</rscale>
<asrwt>0</asrwt>
<pdfrwt beam="1">  1        1 0.15023496E+00 0.24603115E+04</pdfrwt>
<pdfrwt beam="2">  1       -2 0.23840892E+00 0.24603115E+04</pdfrwt>
<totfact> 0.93524632E-01</totfact>
</mgrwt>
</event>
<event>
12    5  0.5264288E-008  0.1979324E+04  0.7818608E-02  0.8616349E-01
         -2   -1    0    0    0  501 -0.00000000000E+00  0.00000000000E+00  0.80519641259E+03  0.80519641259E+03  0.00000000000E+00 0.  1.
          1   -1    0    0  501    0  0.00000000000E+00 -0.00000000000E+00 -0.12163870417E+04  0.12163870417E+04  0.00000000000E+00 0. -1.
        -24    2    1    2    0    0  0.17894100447E+03 -0.76643573074E+03 -0.29638009142E+03  0.84479714731E+03  0.79984055196E+02 0.  0.
        254    2    1    2    0    0 -0.17894100447E+03  0.76643573074E+03 -0.11481053766E+03  0.11767863069E+04  0.86729518632E+03 0.  0.
         23    2    4    4    0    0 -0.12402074016E+03  0.90959253746E+03  0.62863123246E+02  0.92462291040E+03  0.90752553585E+02 0.  0.
         23    2    4    4    0    0 -0.54920264310E+02 -0.14315680672E+03 -0.17767366090E+03  0.25216339654E+03  0.92240674501E+02 0.  0.
          1    1    3    3  502    0  0.17980228148E+03 -0.64548355977E+03 -0.25556773319E+03  0.71714207282E+03  0.00000000000E+00 0. -1.
         -2    1    3    3    0  502 -0.86127700962E+00 -0.12095217097E+03 -0.40812358232E+02  0.12765507449E+03  0.00000000000E+00 0.  1.
         13    1    5    5    0    0 -0.82132492414E+02  0.44385788376E+03 -0.92086979694E+01  0.45148684079E+03  0.00000000000E+00 0. -1.
        -13    1    5    5    0    0 -0.41888247745E+02  0.46573465370E+03  0.72071821215E+02  0.47313606961E+03  0.00000000000E+00 0.  1.
          4    1    6    6  503    0  0.12545605649E+02 -0.55501412973E+02 -0.21591089604E+02  0.60860284369E+02  0.00000000000E+00 0. -1.
         -4    1    6    6    0  503 -0.67465869959E+02 -0.87655393748E+02 -0.15608257130E+03  0.19130311217E+03  0.00000000000E+00 0.  1.
<mgrwt>
<rscale>  0 0.19793236E+04</rscale>
<asrwt>0</asrwt>
<pdfrwt beam="1">  1        1 0.18713647E+00 0.19793236E+04</pdfrwt>
<pdfrwt beam="2">  1       -2 0.12387637E+00 0.19793236E+04</pdfrwt>
<totfact> 0.41563333E+00</totfact>
</mgrwt>
</event>
<event>
12    5  0.5264288E-008  0.2892414E+04  0.7818608E-02  0.8275138E-01
          1   -1    0    0  501    0  0.00000000000E+00  0.00000000000E+00  0.24768605515E+04  0.24768605515E+04  0.00000000000E+00 0. -1.
         -2   -1    0    0    0  501 -0.00000000000E+00 -0.00000000000E+00 -0.84442165102E+03  0.84442165102E+03  0.00000000000E+00 0.  1.
        -24    2    1    2    0    0 -0.10803518147E+04  0.56724635750E+03  0.18944546166E+03  0.12375106805E+04  0.81330361769E+02 0.  0.
        254    2    1    2    0    0  0.10803518147E+04 -0.56724635750E+03  0.14429934388E+04  0.20837715220E+04  0.87803486142E+03 0.  0.
         23    2    4    4    0    0 -0.11947911242E+03  0.32062962557E+02  0.90862119905E+02  0.17701957469E+03  0.88185674103E+02 0.  0.
         23    2    4    4    0    0  0.11998309271E+04 -0.59930932006E+03  0.13521313189E+04  0.19067519473E+04  0.93155623805E+02 0.  0.
          3    1    3    3  502    0 -0.54475908518E+03  0.27555573871E+03  0.13483623457E+03  0.62519935715E+03  0.00000000000E+00 0. -1.
         -4    1    3    3    0  502 -0.53559272953E+03  0.29169061879E+03  0.54609227086E+02  0.61231132334E+03  0.00000000000E+00 0.  1.
         13    1    5    5    0    0 -0.61299812780E+02  0.14005878094E+02  0.97208592597E+02  0.11577280399E+03  0.00000000000E+00 0.  1.
        -13    1    5    5    0    0 -0.58179299642E+02  0.18057084463E+02 -0.63464726920E+01  0.61246770705E+02  0.00000000000E+00 0. -1.
          4    1    6    6  503    0  0.64349456610E+03 -0.37204676782E+03  0.76138496120E+03  0.10640540932E+04  0.00000000000E+00 0. -1.
         -4    1    6    6    0  503  0.55633636103E+03 -0.22726255224E+03  0.59074635768E+03  0.84269785414E+03  0.00000000000E+00 0.  1.
<mgrwt>
<rscale>  0 0.28924140E+04</rscale>
<asrwt>0</asrwt>
<pdfrwt beam="1">  1        1 0.38105547E+00 0.28924140E+04</pdfrwt>
<pdfrwt beam="2">  1       -2 0.12991102E+00 0.28924140E+04</pdfrwt>
<totfact> 0.46191698E-01</totfact>
</mgrwt>
</event>
<event>
12    5  0.5264288E-008  0.2049120E+04  0.7818608E-02  0.8583994E-01
          1   -1    0    0  501    0  0.00000000000E+00  0.00000000000E+00  0.13920755899E+04  0.13920755899E+04  0.00000000000E+00 0. -1.
         -2   -1    0    0    0  501 -0.00000000000E+00 -0.00000000000E+00 -0.75407022184E+03  0.75407022184E+03  0.00000000000E+00 0.  1.
        -24    2    1    2    0    0  0.26878920448E+03  0.48157923823E+03 -0.38458978003E+03  0.67746786445E+03  0.82989212036E+02 0.  0.
        254    2    1    2    0    0 -0.26878920448E+03 -0.48157923823E+03  0.10225951481E+04  0.14686779473E+04  0.89841408983E+03 0.  0.
         23    2    4    4    0    0 -0.29081723295E+03 -0.72650681820E+03  0.70612742419E+03  0.10578125228E+04  0.89244464030E+02 0.  0.
         23    2    4    4    0    0  0.22028028475E+02  0.24492757996E+03  0.31646772390E+03  0.41086542447E+03  0.90464486365E+02 0.  0.
          1    1    3    3  502    0  0.15629062547E+03  0.23291574371E+03 -0.15290195047E+03  0.31946128049E+03  0.00000000000E+00 0. -1.
         -2    1    3    3    0  502  0.11249857901E+03  0.24866349453E+03 -0.23168782956E+03  0.35800658395E+03  0.00000000000E+00 0.  1.
         13    1    5    5    0    0 -0.17362158232E+03 -0.34286545607E+03  0.30638977305E+03  0.49150368040E+03  0.00000000000E+00 0. -1.
        -13    1    5    5    0    0 -0.11719565063E+03 -0.38364136212E+03  0.39973765113E+03  0.56630884241E+03  0.00000000000E+00 0.  1.
          3    1    6    6  503    0  0.22864167717E+02  0.84001621219E+02  0.17967218424E+03  0.19965253899E+03  0.00000000000E+00 0. -1.
         -3    1    6    6    0  503 -0.83613924263E+00  0.16092595874E+03  0.13679553966E+03  0.21121288549E+03  0.00000000000E+00 0.  1.
<mgrwt>
<rscale>  0 0.20491196E+04</rscale>
<asrwt>0</asrwt>
<pdfrwt beam="1">  1        1 0.21416547E+00 0.20491196E+04</pdfrwt>
<pdfrwt beam="2">  1       -2 0.11601080E+00 0.20491196E+04</pdfrwt>
<totfact> 0.36412521E+00</totfact>
</mgrwt>
</event>
<event>
12    5  0.5264288E-008  0.1265257E+04  0.7818608E-02  0.9057580E-01
         -2   -1    0    0    0  501 -0.00000000000E+00  0.00000000000E+00  0.61472104112E+03  0.61472104112E+03  0.00000000000E+00 0.  1.
          1   -1    0    0  501    0  0.00000000000E+00 -0.00000000000E+00 -0.65105710963E+03  0.65105710963E+03  0.00000000000E+00 0. -1.
        -24    2    1    2    0    0  0.28104448046E+03 -0.16004557480E+03 -0.82116878144E+02  0.34283570776E+03  0.78692787644E+02 0.  0.
        254    2    1    2    0    0 -0.28104448046E+03  0.16004557480E+03  0.45780809633E+02  0.92294244298E+03  0.86320697664E+03 0.  0.
         23    2    4    4    0    0  0.21695985304E+03 -0.98465656359E+02 -0.17926294351E+03  0.31127433623E+03  0.89383701906E+02 0.  0.
         23    2    4    4    0    0 -0.49800433350E+03  0.25851123116E+03  0.22504375314E+03  0.61166810676E+03  0.93041975332E+02 0.  0.
          1    1    3    3  502    0  0.36623270295E+02 -0.38038530505E+02  0.11534610194E+02  0.54048505644E+02  0.00000000000E+00 0. -1.
         -2    1    3    3    0  502  0.24442121017E+03 -0.12200704429E+03 -0.93651488338E+02  0.28878720211E+03  0.00000000000E+00 0.  1.
         13    1    5    5    0    0  0.16207959356E+03 -0.96065043612E+02 -0.95828225807E+02  0.21137960193E+03  0.00000000000E+00 0.  1.
        -13    1    5    5    0    0  0.54880259482E+02 -0.24006127470E+01 -0.83434717698E+02  0.99894734294E+02  0.00000000000E+00 0. -1.
          1    1    6    6  503    0 -0.63659214650E+02  0.62972436422E+02  0.58966987621E+02  0.10721533933E+03  0.00000000000E+00 0. -1.
         -1    1    6    6    0  503 -0.43434511885E+03  0.19553879473E+03  0.16607676552E+03  0.50445276742E+03  0.00000000000E+00 0.  1.
<mgrwt>
<rscale>  0 0.12652565E+04</rscale>
<asrwt>0</asrwt>
<pdfrwt beam="1">  1        1 0.10016263E+00 0.12652565E+04</pdfrwt>
<pdfrwt beam="2">  1       -2 0.94572468E-01 0.12652565E+04</pdfrwt>
<totfact> 0.24682150E+01</totfact>
</mgrwt>
</event>
<event>
12    5  0.5264288E-008  0.1648542E+04  0.7818608E-02  0.8791270E-01
          1   -1    0    0  501    0  0.00000000000E+00  0.00000000000E+00  0.28127992077E+04  0.28127992077E+04  0.00000000000E+00 0. -1.
         -2   -1    0    0    0  501 -0.00000000000E+00 -0.00000000000E+00 -0.24154673195E+03  0.24154673195E+03  0.00000000000E+00 0.  1.
        -24    2    1    2    0    0 -0.28924867951E+03  0.29938775022E+03  0.16845218897E+03  0.45627976957E+03  0.80729576783E+02 0.  0.
        254    2    1    2    0    0  0.28924867951E+03 -0.29938775022E+03  0.24028002868E+04  0.25980661701E+04  0.89621469663E+03 0.  0.
         23    2    4    4    0    0 -0.18092184667E+03  0.20280090478E+03  0.56201633264E+03  0.63092474405E+03  0.91338671549E+02 0.  0.
         23    2    4    4    0    0  0.47017052618E+03 -0.50218865500E+03  0.18407839541E+04  0.19671414260E+04  0.88916001594E+02 0.  0.
          1    1    3    3  502    0  0.43083877358E+01  0.13311491198E+02  0.33883648270E+01  0.14395798658E+02  0.00000000000E+00 0. -1.
         -2    1    3    3    0  502 -0.29355706724E+03  0.28607625902E+03  0.16506382415E+03  0.44188397091E+03  0.00000000000E+00 0.  1.
         13    1    5    5    0    0 -0.13149970604E+03  0.17796267016E+03  0.50567915988E+03  0.55197309481E+03  0.00000000000E+00 0. -1.
        -13    1    5    5    0    0 -0.49422140625E+02  0.24838234618E+02  0.56337172764E+02  0.78951649242E+02  0.00000000000E+00 0.  1.
          3    1    6    6  503    0  0.41738538674E+03 -0.47569507235E+03  0.17190279238E+04  0.18318169574E+04  0.00000000000E+00 0. -1.
         -3    1    6    6    0  503  0.52785139435E+02 -0.26493582654E+02  0.12175603036E+03  0.13532446858E+03  0.00000000000E+00 0.  1.
<mgrwt>
<rscale>  0 0.16485417E+04</rscale>
<asrwt>0</asrwt>
<pdfrwt beam="1">  1        1 0.43273832E+00 0.16485417E+04</pdfrwt>
<pdfrwt beam="2">  1       -2 0.37161038E-01 0.16485417E+04</pdfrwt>
<totfact> 0.46907954E+00</totfact>
</mgrwt>
</event>
<event>
12    5  0.5264288E-008  0.2534385E+04  0.7818608E-02  0.8390837E-01
          1   -1    0    0  501    0  0.00000000000E+00  0.00000000000E+00  0.17286146391E+04  0.17286146391E+04  0.00000000000E+00 0. -1.
         -2   -1    0    0    0  501 -0.00000000000E+00 -0.00000000000E+00 -0.92893857334E+03  0.92893857334E+03  0.00000000000E+00 0.  1.
        -24    2    1    2    0    0  0.80169734366E+03  0.44381932175E+03  0.99569774525E+03  0.13555432922E+04  0.79933696268E+02 0.  0.
        254    2    1    2    0    0 -0.80169734366E+03 -0.44381932175E+03 -0.19602167948E+03  0.13020099203E+04  0.90394198515E+03 0.  0.
         23    2    4    4    0    0 -0.21884181832E+03 -0.41116487661E+03  0.27375282262E+03  0.54704761788E+03  0.85861464780E+02 0.  0.
         23    2    4    4    0    0 -0.58285552534E+03 -0.32654445143E+02 -0.46977450210E+03  0.75496230241E+03  0.92158119765E+02 0.  0.
          1    1    3    3  502    0  0.69578092524E+03  0.37913853189E+03  0.81851907218E+03  0.11392236803E+04  0.00000000000E+00 0. -1.
         -2    1    3    3    0  502  0.10591641842E+03  0.64680789862E+02  0.17717867307E+03  0.21631961183E+03  0.00000000000E+00 0.  1.
         13    1    5    5    0    0 -0.16132974034E+03 -0.21327511120E+03  0.14831908848E+03  0.30579749866E+03  0.00000000000E+00 0.  1.
        -13    1    5    5    0    0 -0.57512077983E+02 -0.19788976540E+03  0.12543373413E+03  0.24125011922E+03  0.00000000000E+00 0. -1.
          2    1    6    6  503    0 -0.17415619168E+03 -0.44576365658E+00 -0.89611882242E+02  0.19585930472E+03  0.00000000000E+00 0. -1.
         -2    1    6    6    0  503 -0.40869933366E+03 -0.32208681486E+02 -0.38016261986E+03  0.55910299770E+03  0.00000000000E+00 0.  1.
<mgrwt>
<rscale>  0 0.25343850E+04</rscale>
<asrwt>0</asrwt>
<pdfrwt beam="1">  1        1 0.26594071E+00 0.25343850E+04</pdfrwt>
<pdfrwt beam="2">  1       -2 0.14291363E+00 0.25343850E+04</pdfrwt>
<totfact> 0.12068062E+00</totfact>
</mgrwt>
</event>
<event>
12    5  0.5264288E-008  0.1503106E+04  0.7818608E-02  0.8882390E-01
         -2   -1    0    0    0  501 -0.00000000000E+00  0.00000000000E+00  0.10536390714E+04  0.10536390714E+04  0.00000000000E+00 0.  1.
          1   -1    0    0  501    0  0.00000000000E+00 -0.00000000000E+00 -0.53607748734E+03  0.53607748734E+03  0.00000000000E+00 0. -1.
        -24    2    1    2    0    0 -0.31998921508E+03 -0.11462869294E+03 -0.20208303841E+03  0.40331042802E+03  0.79302660258E+02 0.  0.
        254    2    1    2    0    0  0.31998921508E+03  0.11462869294E+03  0.71964462246E+03  0.11864061307E+04  0.87985128818E+03 0.  0.
         23    2    4    4    0    0  0.18307581995E+03 -0.32578390813E+03  0.79179676999E+02  0.39171640509E+03  0.86720298207E+02 0.  0.
         23    2    4    4    0    0  0.13691339512E+03  0.44041260107E+03  0.64046494546E+03  0.79468972561E+03  0.92886364290E+02 0.  0.
          3    1    3    3  502    0 -0.31126235351E+03 -0.12355205592E+03 -0.20145921139E+03  0.39081348120E+03  0.00000000000E+00 0. -1.
         -4    1    3    3    0  502 -0.87268615696E+01  0.89233629774E+01 -0.62382702249E+00  0.12496946821E+02  0.00000000000E+00 0.  1.
         13    1    5    5    0    0  0.45153686928E+02 -0.68824760355E+02 -0.18107895684E+02  0.84282850967E+02  0.00000000000E+00 0.  1.
        -13    1    5    5    0    0  0.13792213303E+03 -0.25695914777E+03  0.97287572683E+02  0.30743355413E+03  0.00000000000E+00 0. -1.
          4    1    6    6  503    0  0.13297834478E+03  0.27977201118E+03  0.41947618641E+03  0.52145554881E+03  0.00000000000E+00 0. -1.
         -4    1    6    6    0  503  0.39350503450E+01  0.16064058989E+03  0.22098875905E+03  0.27323417679E+03  0.00000000000E+00 0.  1.
<mgrwt>
<rscale>  0 0.15031064E+04</rscale>
<asrwt>0</asrwt>
<pdfrwt beam="1">  1        1 0.82473459E-01 0.15031064E+04</pdfrwt>
<pdfrwt beam="2">  1       -2 0.16209832E+00 0.15031064E+04</pdfrwt>
<totfact> 0.82639006E+00</totfact>
</mgrwt>
</event>
<event>
12    5  0.5264288E-008  0.1884319E+04  0.7818608E-02  0.8662701E-01
          1   -1    0    0  501    0  0.00000000000E+00  0.00000000000E+00  0.12010028371E+04  0.12010028371E+04  0.00000000000E+00 0. -1.
         -2   -1    0    0    0  501 -0.00000000000E+00 -0.00000000000E+00 -0.73910298249E+03  0.73910298249E+03  0.00000000000E+00 0.  1.
        -24    2    1    2    0    0  0.67210964001E+02  0.26134437431E+03 -0.51362421167E+03  0.58537385096E+03  0.77682165960E+02 0.  0.
        254    2    1    2    0    0 -0.67210964001E+02 -0.26134437431E+03  0.97552406632E+03  0.13547319687E+04  0.90046282951E+03 0.  0.
         23    2    4    4    0    0  0.24056677565E+02 -0.49454677460E+03  0.96446295563E+03  0.10880696642E+04  0.92474674606E+02 0.  0.
         23    2    4    4    0    0 -0.91267641566E+02  0.23320240030E+03  0.11061110690E+02  0.26666230444E+03  0.90957652448E+02 0.  0.
          1    1    3    3  502    0 -0.90202107241E+01  0.46698693065E+02 -0.51134258019E+02  0.69834407555E+02  0.00000000000E+00 0. -1.
         -2    1    3    3    0  502  0.76231174725E+02  0.21464568124E+03 -0.46248995365E+03  0.51553944340E+03  0.00000000000E+00 0.  1.
         13    1    5    5    0    0  0.24993274571E+02 -0.33279040727E+02  0.64098162326E+02  0.76424686712E+02  0.00000000000E+00 0.  1.
        -13    1    5    5    0    0 -0.93659700517E+00 -0.46126773388E+03  0.90036479330E+03  0.10116449775E+04  0.00000000000E+00 0. -1.
          3    1    6    6  503    0 -0.97962357665E+02  0.17417551203E+03 -0.17784287346E+02  0.20062405984E+03  0.00000000000E+00 0. -1.
         -3    1    6    6    0  503  0.66947160989E+01  0.59026888265E+02  0.28845398037E+02  0.66038244600E+02  0.00000000000E+00 0.  1.
<mgrwt>
<rscale>  0 0.18843193E+04</rscale>
<asrwt>0</asrwt>
<pdfrwt beam="1">  1        1 0.18476967E+00 0.18843193E+04</pdfrwt>
<pdfrwt beam="2">  1       -2 0.11370815E+00 0.18843193E+04</pdfrwt>
<totfact> 0.53137625E+00</totfact>
</mgrwt>
</event>
<event>
12    5  0.5264288E-008  0.1896510E+04  0.7818608E-02  0.8656595E-01
         -2   -1    0    0    0  501 -0.00000000000E+00  0.00000000000E+00  0.10684067948E+04  0.10684067948E+04  0.00000000000E+00 0.  1.
          1   -1    0    0  501    0  0.00000000000E+00 -0.00000000000E+00 -0.84161562521E+03  0.84161562521E+03  0.00000000000E+00 0. -1.
        -24    2    1    2    0    0 -0.72336917739E+03  0.66176788704E+02  0.55557649492E+02  0.73279358688E+03  0.79104073166E+02 0.  0.
        254    2    1    2    0    0  0.72336917739E+03 -0.66176788704E+02  0.17123352007E+03  0.11772288331E+04  0.91044191080E+03 0.  0.
         23    2    4    4    0    0 -0.12585984330E+03  0.57456886255E+01 -0.19077362502E+03  0.24632236469E+03  0.91686521635E+02 0.  0.
         23    2    4    4    0    0  0.84922902069E+03 -0.71922477330E+02  0.36200714509E+03  0.93090646842E+03  0.95785737531E+02 0.  0.
          1    1    3    3  502    0 -0.68692416038E+03  0.65824754974E+02  0.35020301938E+02  0.69095884250E+03  0.00000000000E+00 0. -1.
         -2    1    3    3    0  502 -0.36445017008E+02  0.35203373039E+00  0.20537347554E+02  0.41834744376E+02  0.00000000000E+00 0.  1.
         13    1    5    5    0    0 -0.11456404681E+03  0.35975654133E+02 -0.16929330545E+03  0.20755575584E+03  0.00000000000E+00 0. -1.
        -13    1    5    5    0    0 -0.11295796490E+02 -0.30229965507E+02 -0.21480319570E+02  0.38766608850E+02  0.00000000000E+00 0.  1.
          3    1    6    6  503    0  0.70618235619E+03 -0.83004494562E+02  0.27063561099E+03  0.76080674304E+03  0.00000000000E+00 0. -1.
         -3    1    6    6    0  503  0.14304666450E+03  0.11082017232E+02  0.91371534103E+02  0.17009972538E+03  0.00000000000E+00 0.  1.
<mgrwt>
<rscale>  0 0.18965103E+04</rscale>
<asrwt>0</asrwt>
<pdfrwt beam="1">  1        1 0.12947933E+00 0.18965103E+04</pdfrwt>
<pdfrwt beam="2">  1       -2 0.16437028E+00 0.18965103E+04</pdfrwt>
<totfact> 0.39045398E+00</totfact>
</mgrwt>
</event>
<event>
12    5  0.5264288E-008  0.1402772E+04  0.7818608E-02  0.8951814E-01
         -2   -1    0    0    0  501 -0.00000000000E+00  0.00000000000E+00  0.86500813889E+03  0.86500813889E+03  0.00000000000E+00 0.  1.
          1   -1    0    0  501    0  0.00000000000E+00 -0.00000000000E+00 -0.56871435327E+03  0.56871435327E+03  0.00000000000E+00 0. -1.
        -24    2    1    2    0    0 -0.81690532928E+02  0.37949086581E+03 -0.11383612304E+03  0.41207917776E+03  0.78510670809E+02 0.  0.
        254    2    1    2    0    0  0.81690532928E+02 -0.37949086581E+03  0.41012990867E+03  0.10216433144E+04  0.85138819551E+03 0.  0.
         23    2    4    4    0    0 -0.13729199640E+03 -0.52874492820E+03  0.37813890493E+02  0.55532901914E+03  0.92412866086E+02 0.  0.
         23    2    4    4    0    0  0.21898252933E+03  0.14925406238E+03  0.37231601818E+03  0.46631429525E+03  0.92734466504E+02 0.  0.
          1    1    3    3  502    0 -0.66556301390E+02  0.36697311920E+03 -0.11950330635E+03  0.39163765357E+03  0.00000000000E+00 0. -1.
         -2    1    3    3    0  502 -0.15134231538E+02  0.12517746617E+02  0.56671833065E+01  0.20441524191E+02  0.00000000000E+00 0.  1.
         13    1    5    5    0    0 -0.14020630031E+03 -0.41507942272E+03  0.98144812340E+01  0.43822945800E+03  0.00000000000E+00 0.  1.
        -13    1    5    5    0    0  0.29143039062E+01 -0.11366550547E+03  0.27999409259E+02  0.11709956114E+03  0.00000000000E+00 0. -1.
          1    1    6    6  503    0  0.17254158345E+03  0.11736118219E+03  0.21680522449E+03  0.30091319424E+03  0.00000000000E+00 0. -1.
         -1    1    6    6    0  503  0.46440945876E+02  0.31892880189E+02  0.15551079369E+03  0.16540110101E+03  0.00000000000E+00 0.  1.
<mgrwt>
<rscale>  0 0.14027723E+04</rscale>
<asrwt>0</asrwt>
<pdfrwt beam="1">  1        1 0.87494516E-01 0.14027723E+04</pdfrwt>
<pdfrwt beam="2">  1       -2 0.13307817E+00 0.14027723E+04</pdfrwt>
<totfact> 0.12903945E+01</totfact>
</mgrwt>
</event>
<event>
12    5  0.5264288E-008  0.2454985E+04  0.7818608E-02  0.8419200E-01
         -2   -1    0    0    0  501 -0.00000000000E+00  0.00000000000E+00  0.27543078913E+04  0.27543078913E+04  0.00000000000E+00 0.  1.
          1   -1    0    0  501    0  0.00000000000E+00 -0.00000000000E+00 -0.54704783649E+03  0.54704783649E+03  0.00000000000E+00 0. -1.
        -24    2    1    2    0    0  0.43529761239E+03  0.83753743109E+03  0.31082269580E+03  0.99727456413E+03  0.83623251657E+02 0.  0.
        254    2    1    2    0    0 -0.43529761239E+03 -0.83753743109E+03  0.18964373590E+04  0.23040811636E+04  0.90629045687E+03 0.  0.
         23    2    4    4    0    0 -0.26080191568E+03 -0.60317655894E+03  0.39402583902E+03  0.77096433731E+03  0.85381772693E+02 0.  0.
         23    2    4    4    0    0 -0.17449569671E+03 -0.23436087215E+03  0.15024115200E+04  0.15331168263E+04  0.88504583218E+02 0.  0.
          3    1    3    3  502    0  0.29215123045E+03  0.58534311243E+03  0.17590357754E+03  0.67743705930E+03  0.00000000000E+00 0. -1.
         -4    1    3    3    0  502  0.14314638194E+03  0.25219431866E+03  0.13491911826E+03  0.31983750483E+03  0.00000000000E+00 0.  1.
         13    1    5    5    0    0 -0.39402352265E+02 -0.11669478716E+03  0.11273828114E+03  0.16697346720E+03  0.00000000000E+00 0. -1.
        -13    1    5    5    0    0 -0.22139956342E+03 -0.48648177178E+03  0.28128755787E+03  0.60399087010E+03  0.00000000000E+00 0.  1.
          4    1    6    6  503    0 -0.30360191406E+02 -0.11563001133E+02  0.83334076890E+02  0.89442789472E+02  0.00000000000E+00 0. -1.
         -4    1    6    6    0  503 -0.14413550530E+03 -0.22279787102E+03  0.14190774431E+04  0.14436740369E+04  0.00000000000E+00 0.  1.
<mgrwt>
<rscale>  0 0.24549853E+04</rscale>
<asrwt>0</asrwt>
<pdfrwt beam="1">  1        1 0.84161207E-01 0.24549853E+04</pdfrwt>
<pdfrwt beam="2">  1       -2 0.42373967E+00 0.24549853E+04</pdfrwt>
<totfact> 0.15823192E-01</totfact>
</mgrwt>
</event>
<event>
12    5  0.5264288E-008  0.1378012E+04  0.7818608E-02  0.8969890E-01
          1   -1    0    0  501    0  0.00000000000E+00  0.00000000000E+00  0.16423968100E+04  0.16423968100E+04  0.00000000000E+00 0. -1.
         -2   -1    0    0    0  501 -0.00000000000E+00 -0.00000000000E+00 -0.28904679782E+03  0.28904679782E+03  0.00000000000E+00 0.  1.
        -24    2    1    2    0    0 -0.24255278118E+02 -0.34317309257E+03  0.12347221869E+03  0.37449313299E+03  0.81508452861E+02 0.  0.
        254    2    1    2    0    0  0.24255278118E+02  0.34317309257E+03  0.12298777935E+04  0.15569504748E+04  0.89058368734E+03 0.  0.
         23    2    4    4    0    0 -0.12524534903E+03 -0.18637688608E+03  0.84639339403E+03  0.88016336564E+03  0.88786438366E+02 0.  0.
         23    2    4    4    0    0  0.14950062714E+03  0.52954997865E+03  0.38348439942E+03  0.67678710915E+03  0.90591882131E+02 0.  0.
          3    1    3    3  502    0  0.17735492197E+02 -0.34320785601E+02  0.30523506249E+02  0.49235641983E+02  0.00000000000E+00 0. -1.
         -4    1    3    3    0  502 -0.41990770315E+02 -0.30885230697E+03  0.92948712440E+02  0.32525749101E+03  0.00000000000E+00 0.  1.
         13    1    5    5    0    0 -0.34271839526E+02 -0.11742804556E+03  0.34828474033E+03  0.36914247279E+03  0.00000000000E+00 0. -1.
        -13    1    5    5    0    0 -0.90973509500E+02 -0.68948840517E+02  0.49810865370E+03  0.51102089285E+03  0.00000000000E+00 0.  1.
          3    1    6    6  503    0  0.20664590596E+02  0.11447991820E+02  0.19532876578E+02  0.30653141578E+02  0.00000000000E+00 0. -1.
         -3    1    6    6    0  503  0.12883603655E+03  0.51810198683E+03  0.36395152284E+03  0.64613396757E+03  0.00000000000E+00 0.  1.
<mgrwt>
<rscale>  0 0.13780124E+04</rscale>
<asrwt>0</asrwt>
<pdfrwt beam="1">  1        1 0.25267643E+00 0.13780124E+04</pdfrwt>
<pdfrwt beam="2">  1       -2 0.44468739E-01 0.13780124E+04</pdfrwt>
<totfact> 0.21454805E+01</totfact>
</mgrwt>
</event>
<event>
12    5  0.5264288E-008  0.9868062E+03  0.7818608E-02  0.9323135E-01
          1   -1    0    0  501    0  0.00000000000E+00  0.00000000000E+00  0.24796763162E+04  0.24796763162E+04  0.00000000000E+00 0. -1.
         -2   -1    0    0    0  501 -0.00000000000E+00 -0.00000000000E+00 -0.98176773754E+02  0.98176773754E+02  0.00000000000E+00 0.  1.
        -24    2    1    2    0    0 -0.96266258903E+02 -0.57140708887E+02  0.87829278280E+02  0.16302819112E+03  0.79573587086E+02 0.  0.
        254    2    1    2    0    0  0.96266258903E+02  0.57140708887E+02  0.22936702642E+04  0.24148248988E+04  0.74694294165E+03 0.  0.
         23    2    4    4    0    0  0.28539442736E+03 -0.16993191295E+03  0.58828096496E+03  0.68163244612E+03  0.90672287124E+02 0.  0.
         23    2    4    4    0    0 -0.18912816846E+03  0.22707262184E+03  0.17053892992E+04  0.17331924527E+04  0.90950407478E+02 0.  0.
          3    1    3    3  502    0 -0.70214247999E+01  0.14685241184E+02  0.31304825125E+02  0.35283831863E+02  0.00000000000E+00 0. -1.
         -4    1    3    3    0  502 -0.89244834103E+02 -0.71825950072E+02  0.56524453155E+02  0.12774435926E+03  0.00000000000E+00 0.  1.
         13    1    5    5    0    0  0.16845108519E+03 -0.47750883964E+02  0.30715604990E+03  0.35355445693E+03  0.00000000000E+00 0. -1.
        -13    1    5    5    0    0  0.11694334217E+03 -0.12218102899E+03  0.28112491506E+03  0.32807798919E+03  0.00000000000E+00 0.  1.
          2    1    6    6  503    0 -0.15226080807E+02  0.73683393909E+02  0.50999720410E+03  0.51551743352E+03  0.00000000000E+00 0.  1.
         -2    1    6    6    0  503 -0.17390208765E+03  0.15338922793E+03  0.11953920951E+04  0.12176750192E+04  0.00000000000E+00 0. -1.
<mgrwt>
<rscale>  0 0.98680620E+03</rscale>
<asrwt>0</asrwt>
<pdfrwt beam="1">  1        1 0.38148862E+00 0.98680620E+03</pdfrwt>
<pdfrwt beam="2">  1       -2 0.15104121E-01 0.98680620E+03</pdfrwt>
<totfact> 0.43336590E+01</totfact>
</mgrwt>
</event>
<event>
12    5  0.5264288E-008  0.1410688E+04  0.7818608E-02  0.8946118E-01
          1   -1    0    0  501    0  0.00000000000E+00  0.00000000000E+00  0.47337586183E+03  0.47337586183E+03  0.00000000000E+00 0. -1.
         -2   -1    0    0    0  501 -0.00000000000E+00 -0.00000000000E+00 -0.10509840445E+04  0.10509840445E+04  0.00000000000E+00 0.  1.
        -24    2    1    2    0    0 -0.31485600956E+03  0.20239861465E+03 -0.34509736237E+03  0.51560305348E+03  0.81577038887E+02 0.  0.
        254    2    1    2    0    0  0.31485600956E+03 -0.20239861465E+03 -0.23251082025E+03  0.10087568528E+04  0.90743021801E+03 0.  0.
         23    2    4    4    0    0  0.95054059355E+02 -0.74295230708E+02 -0.56256766237E+03  0.58239962916E+03  0.90287860680E+02 0.  0.
         23    2    4    4    0    0  0.21980195021E+03 -0.12810338394E+03  0.33005684212E+03  0.42635722364E+03  0.90108761116E+02 0.  0.
          1    1    3    3  502    0 -0.18685912376E+02  0.64959550716E+01 -0.50414040629E+02  0.54156590053E+02  0.00000000000E+00 0. -1.
         -2    1    3    3    0  502 -0.29617009719E+03  0.19590265958E+03 -0.29468332174E+03  0.46144646343E+03  0.00000000000E+00 0.  1.
         13    1    5    5    0    0  0.16065378004E+02 -0.68935904487E+02 -0.29438257844E+03  0.30277278244E+03  0.00000000000E+00 0. -1.
        -13    1    5    5    0    0  0.78988681352E+02 -0.53593262209E+01 -0.26818508393E+03  0.27962684671E+03  0.00000000000E+00 0.  1.
          3    1    6    6  503    0  0.21912939997E+02 -0.46875398925E+01  0.23587015158E+00  0.22409944317E+02  0.00000000000E+00 0. -1.
         -3    1    6    6    0  503  0.19788901021E+03 -0.12341584405E+03  0.32982097197E+03  0.40394727933E+03  0.00000000000E+00 0.  1.
<mgrwt>
<rscale>  0 0.14106885E+04</rscale>
<asrwt>0</asrwt>
<pdfrwt beam="1">  1        1 0.72827055E-01 0.14106885E+04</pdfrwt>
<pdfrwt beam="2">  1       -2 0.16168985E+00 0.14106885E+04</pdfrwt>
<totfact> 0.99542471E+00</totfact>
</mgrwt>
</event>
<event>
12    5  0.5264288E-008  0.3542956E+04  0.7818608E-02  0.8103685E-01
          3   -1    0    0  501    0  0.00000000000E+00  0.00000000000E+00  0.12745911448E+04  0.12745911448E+04  0.00000000000E+00 0. -1.
         -4   -1    0    0    0  501 -0.00000000000E+00 -0.00000000000E+00 -0.24620715999E+04  0.24620715999E+04  0.00000000000E+00 0.  1.
        -24    2    1    2    0    0 -0.15482657520E+04 -0.34503029476E+03 -0.71837181574E+02  0.15897992222E+04  0.78283096093E+02 0.  0.
        254    2    1    2    0    0  0.15482657520E+04  0.34503029476E+03 -0.11156432736E+04  0.21468635225E+04  0.92097248973E+03 0.  0.
         23    2    4    4    0    0 -0.12756033748E+02 -0.16229552333E+03 -0.15828434619E+03  0.24448712548E+03  0.90650245382E+02 0.  0.
         23    2    4    4    0    0  0.15610217858E+04  0.50732581809E+03 -0.95735892743E+03  0.19023763970E+04  0.91276165757E+02 0.  0.
          1    1    3    3  502    0 -0.15004279149E+04 -0.32245877762E+03 -0.77234923121E+02  0.15366290458E+04  0.00000000000E+00 0. -1.
         -2    1    3    3    0  502 -0.47837837193E+02 -0.22571517139E+02  0.53977415470E+01  0.53170176481E+02  0.00000000000E+00 0.  1.
         13    1    5    5    0    0 -0.44992587892E+02 -0.12440495491E+03 -0.90001372599E+02  0.16000366508E+03  0.00000000000E+00 0. -1.
        -13    1    5    5    0    0  0.32236554144E+02 -0.37890568422E+02 -0.68282973589E+02  0.84483460396E+02  0.00000000000E+00 0.  1.
          1    1    6    6  503    0  0.10548848318E+04  0.37149933619E+03 -0.61378291168E+03  0.12757441859E+04  0.00000000000E+00 0. -1.
         -1    1    6    6    0  503  0.50613695402E+03  0.13582648190E+03 -0.34357601575E+03  0.62663221112E+03  0.00000000000E+00 0.  1.
<mgrwt>
<rscale>  0 0.35429562E+04</rscale>
<asrwt>0</asrwt>
<pdfrwt beam="1">  1        3 0.19609094E+00 0.35429562E+04</pdfrwt>
<pdfrwt beam="2">  1       -4 0.37878025E+00 0.35429562E+04</pdfrwt>
<totfact> 0.27391355E-03</totfact>
</mgrwt>
</event>
<event>
12    5  0.5264288E-008  0.1300983E+04  0.7818608E-02  0.9028786E-01
          1   -1    0    0  501    0  0.00000000000E+00  0.00000000000E+00  0.53830284375E+03  0.53830284375E+03  0.00000000000E+00 0. -1.
         -2   -1    0    0    0  501 -0.00000000000E+00 -0.00000000000E+00 -0.78606194968E+03  0.78606194968E+03  0.00000000000E+00 0.  1.
        -24    2    1    2    0    0  0.21108879116E+02 -0.13817624403E+03  0.24185995122E+03  0.29061171846E+03  0.80129119000E+02 0.  0.
        254    2    1    2    0    0 -0.21108879116E+02  0.13817624403E+03 -0.48961905714E+03  0.10337530750E+04  0.89965567842E+03 0.  0.
         23    2    4    4    0    0 -0.30458837983E+03  0.12704760684E+03 -0.61965115584E+03  0.70811231918E+03  0.92413884817E+02 0.  0.
         23    2    4    4    0    0  0.28347950071E+03  0.11128637185E+02  0.13003209870E+03  0.32564075579E+03  0.93000436829E+02 0.  0.
          3    1    3    3  502    0  0.14552483078E+02 -0.96993854374E+02  0.22533681603E+03  0.24575651204E+03  0.00000000000E+00 0. -1.
         -2    1    3    3    0  502  0.65563960380E+01 -0.41182389652E+02  0.16523135183E+02  0.44855206417E+02  0.00000000000E+00 0.  1.
         13    1    5    5    0    0 -0.12546401691E+03  0.99903601595E+02 -0.26194619921E+03  0.30714452695E+03  0.00000000000E+00 0. -1.
        -13    1    5    5    0    0 -0.17912436291E+03  0.27144005247E+02 -0.35770495663E+03  0.40096779223E+03  0.00000000000E+00 0.  1.
          3    1    6    6  503    0  0.13922239699E+03 -0.40889904326E+02  0.67435061762E+02  0.16000733625E+03  0.00000000000E+00 0. -1.
         -3    1    6    6    0  503  0.14425710372E+03  0.52018541510E+02  0.62597036942E+02  0.16563341954E+03  0.00000000000E+00 0.  1.
<mgrwt>
<rscale>  0 0.13009833E+04</rscale>
<asrwt>0</asrwt>
<pdfrwt beam="1">  1        1 0.82815822E-01 0.13009833E+04</pdfrwt>
<pdfrwt beam="2">  1       -2 0.12093261E+00 0.13009833E+04</pdfrwt>
<totfact> 0.17892843E+01</totfact>
</mgrwt>
</event>
<event>
12    5  0.5264288E-008  0.2644336E+04  0.7818608E-02  0.8353295E-01
         -2   -1    0    0    0  501 -0.00000000000E+00  0.00000000000E+00  0.19224026179E+04  0.19224026179E+04  0.00000000000E+00 0.  1.
          1   -1    0    0  501    0  0.00000000000E+00 -0.00000000000E+00 -0.90934546786E+03  0.90934546786E+03  0.00000000000E+00 0. -1.
        -24    2    1    2    0    0  0.87660020537E+02 -0.33537108278E+03 -0.71419193748E+03  0.79759285887E+03  0.76981832878E+02 0.  0.
        254    2    1    2    0    0 -0.87660020537E+02  0.33537108278E+03  0.17272490875E+04  0.20341552269E+04  0.10169759262E+04 0.  0.
         23    2    4    4    0    0  0.10582698638E+03  0.66610174047E+03  0.11146806927E+04  0.13059213582E+04  0.89591670315E+02 0.  0.
         23    2    4    4    0    0 -0.19348700691E+03 -0.33073065769E+03  0.61256839479E+03  0.72823386869E+03  0.90909512327E+02 0.  0.
          1    1    3    3  502    0  0.75343826759E+02 -0.25339422498E+03 -0.60714416354E+03  0.66220039323E+03  0.00000000000E+00 0. -1.
         -2    1    3    3    0  502  0.12316193779E+02 -0.81976857808E+02 -0.10704777394E+03  0.13539246563E+03  0.00000000000E+00 0.  1.
         13    1    5    5    0    0  0.10380115982E+03  0.47395900853E+03  0.74072167057E+03  0.88548315388E+03  0.00000000000E+00 0.  1.
        -13    1    5    5    0    0  0.20258265541E+01  0.19214273194E+03  0.37395902216E+03  0.42043820434E+03  0.00000000000E+00 0. -1.
          3    1    6    6  503    0 -0.59637704169E+02 -0.19185561139E+03  0.31608394859E+03  0.37453210001E+03  0.00000000000E+00 0. -1.
         -3    1    6    6    0  503 -0.13384930274E+03 -0.13887504630E+03  0.29648444621E+03  0.35370176868E+03  0.00000000000E+00 0.  1.
<mgrwt>
<rscale>  0 0.26443359E+04</rscale>
<asrwt>0</asrwt>
<pdfrwt beam="1">  1        1 0.13989930E+00 0.26443359E+04</pdfrwt>
<pdfrwt beam="2">  1       -2 0.29575425E+00 0.26443359E+04</pdfrwt>
<totfact> 0.46425445E-01</totfact>
</mgrwt>
</event>
<event>
12    5  0.5264288E-008  0.2192457E+04  0.7818608E-02  0.8521574E-01
          1   -1    0    0  501    0  0.00000000000E+00  0.00000000000E+00  0.17964953218E+04  0.17964953218E+04  0.00000000000E+00 0. -1.
         -2   -1    0    0    0  501 -0.00000000000E+00 -0.00000000000E+00 -0.66892323856E+03  0.66892323856E+03  0.00000000000E+00 0.  1.
        -24    2    1    2    0    0 -0.44628089588E+03 -0.32480036429E+03 -0.34160336730E+03  0.65389991718E+03  0.78932417115E+02 0.  0.
        254    2    1    2    0    0  0.44628089588E+03  0.32480036429E+03  0.14691754505E+04  0.18115186432E+04  0.90468855164E+03 0.  0.
         23    2    4    4    0    0  0.89985876174E+02 -0.20829362021E+03  0.95149765729E+03  0.98241746816E+03  0.91173459878E+02 0.  0.
         23    2    4    4    0    0  0.35629501971E+03  0.53309398450E+03  0.51767779324E+03  0.82910117502E+03  0.91011666433E+02 0.  0.
          1    1    3    3  502    0 -0.30654417202E+02 -0.11341623837E+02 -0.28535188400E+01  0.32809576270E+02  0.00000000000E+00 0. -1.
         -2    1    3    3    0  502 -0.41562647868E+03 -0.31345874045E+03 -0.33874984846E+03  0.62109034091E+03  0.00000000000E+00 0.  1.
         13    1    5    5    0    0  0.87219096417E+00 -0.19757250218E+02  0.24470663019E+03  0.24550446943E+03  0.00000000000E+00 0. -1.
        -13    1    5    5    0    0  0.89113685210E+02 -0.18853636999E+03  0.70679102710E+03  0.73691299872E+03  0.00000000000E+00 0.  1.
          3    1    6    6  503    0  0.21267587267E+02  0.39768312129E+02  0.70653843081E+02  0.83820012288E+02  0.00000000000E+00 0. -1.
         -3    1    6    6    0  503  0.33502743244E+03  0.49332567237E+03  0.44702395016E+03  0.74528116273E+03  0.00000000000E+00 0.  1.
<mgrwt>
<rscale>  0 0.21924575E+04</rscale>
<asrwt>0</asrwt>
<pdfrwt beam="1">  1        1 0.27638389E+00 0.21924575E+04</pdfrwt>
<pdfrwt beam="2">  1       -2 0.10291127E+00 0.21924575E+04</pdfrwt>
<totfact> 0.25317574E+00</totfact>
</mgrwt>
</event>
<event>
12    5  0.5264288E-008  0.2047869E+04  0.7818608E-02  0.8584562E-01
         -2   -1    0    0    0  501 -0.00000000000E+00  0.00000000000E+00  0.57872360201E+03  0.57872360201E+03  0.00000000000E+00 0.  1.
          1   -1    0    0  501    0  0.00000000000E+00 -0.00000000000E+00 -0.18116452379E+04  0.18116452379E+04  0.00000000000E+00 0. -1.
        -24    2    1    2    0    0 -0.68045952083E+02  0.67266177672E+03 -0.10432005094E+04  0.12457598353E+04  0.80908262927E+02 0.  0.
        254    2    1    2    0    0  0.68045952083E+02 -0.67266177672E+03 -0.18972112647E+03  0.11446090046E+04  0.90389797547E+03 0.  0.
         23    2    4    4    0    0 -0.40691208033E+03 -0.36686627136E+03 -0.10627591388E+03  0.56556664605E+03  0.91666564602E+02 0.  0.
         23    2    4    4    0    0  0.47495803242E+03 -0.30579550536E+03 -0.83445212593E+02  0.57904235852E+03  0.96077707111E+02 0.  0.
          3    1    3    3  502    0 -0.61637377814E+02  0.56951390979E+03 -0.82564774601E+03  0.10049076874E+04  0.00000000000E+00 0. -1.
         -4    1    3    3    0  502 -0.64085742691E+01  0.10314786693E+03 -0.21755276336E+03  0.24085214785E+03  0.00000000000E+00 0.  1.
         13    1    5    5    0    0 -0.40049149101E+03 -0.36217444568E+03 -0.89950422397E+02  0.54740738209E+03  0.00000000000E+00 0. -1.
        -13    1    5    5    0    0 -0.64205893246E+01 -0.46918256847E+01 -0.16325491481E+02  0.18159263962E+02  0.00000000000E+00 0.  1.
          2    1    6    6  503    0  0.37879753999E+03 -0.28631341621E+03 -0.72163062913E+02  0.48028164264E+03  0.00000000000E+00 0. -1.
         -2    1    6    6    0  503  0.96160492423E+02 -0.19482089152E+02 -0.11282149680E+02  0.98760715885E+02  0.00000000000E+00 0.  1.
<mgrwt>
<rscale>  0 0.20478690E+04</rscale>
<asrwt>0</asrwt>
<pdfrwt beam="1">  1        1 0.27871465E+00 0.20478690E+04</pdfrwt>
<pdfrwt beam="2">  1       -2 0.89034402E-01 0.20478690E+04</pdfrwt>
<totfact> 0.35159044E+00</totfact>
</mgrwt>
</event>
<event>
12    5  0.5264288E-008  0.1083425E+04  0.7818608E-02  0.9221499E-01
         -2   -1    0    0    0  501 -0.00000000000E+00  0.00000000000E+00  0.37512046582E+03  0.37512046582E+03  0.00000000000E+00 0.  1.
          1   -1    0    0  501    0  0.00000000000E+00 -0.00000000000E+00 -0.78228813748E+03  0.78228813748E+03  0.00000000000E+00 0. -1.
        -24    2    1    2    0    0  0.83371997429E+02  0.60123997197E+02 -0.18812985445E+03  0.22866021727E+03  0.79541610705E+02 0.  0.
        254    2    1    2    0    0 -0.83371997429E+02 -0.60123997197E+02 -0.21903781721E+03  0.92874838602E+03  0.89667731887E+03 0.  0.
         23    2    4    4    0    0 -0.32285785237E+03 -0.36454022858E+03 -0.55682272056E+02  0.49863642562E+03  0.91711495713E+02 0.  0.
         23    2    4    4    0    0  0.23948585494E+03  0.30441623139E+03 -0.16335554516E+03  0.43011196040E+03  0.91041461419E+02 0.  0.
          3    1    3    3  502    0 -0.61336474191E+00  0.28923784608E+02 -0.95521553372E+02  0.99806456159E+02  0.00000000000E+00 0. -1.
         -4    1    3    3    0  502  0.83985362171E+02  0.31200212589E+02 -0.92608301076E+02  0.12885376111E+03  0.00000000000E+00 0.  1.
         13    1    5    5    0    0 -0.13005452490E+03 -0.84232885512E+02 -0.86941947354E+01  0.15519325846E+03  0.00000000000E+00 0.  1.
        -13    1    5    5    0    0 -0.19280332747E+03 -0.28030734307E+03 -0.46988077320E+02  0.34344316716E+03  0.00000000000E+00 0. -1.
          1    1    6    6  503    0  0.53884280213E+02  0.11000010784E+03 -0.88445146598E+02  0.15108303457E+03  0.00000000000E+00 0. -1.
         -1    1    6    6    0  503  0.18560157472E+03  0.19441612354E+03 -0.74910398559E+02  0.27902892582E+03  0.00000000000E+00 0.  1.
<mgrwt>
<rscale>  0 0.10834247E+04</rscale>
<asrwt>0</asrwt>
<pdfrwt beam="1">  1        1 0.12035202E+00 0.10834247E+04</pdfrwt>
<pdfrwt beam="2">  1       -2 0.57710842E-01 0.10834247E+04</pdfrwt>
<totfact> 0.56315977E+01</totfact>
</mgrwt>
</event>
<event>
12    5  0.5264288E-008  0.1547552E+04  0.7818608E-02  0.8853433E-01
          1   -1    0    0  501    0  0.00000000000E+00  0.00000000000E+00  0.31024289409E+03  0.31024289409E+03  0.00000000000E+00 0. -1.
         -2   -1    0    0    0  501 -0.00000000000E+00 -0.00000000000E+00 -0.19298727218E+04  0.19298727218E+04  0.00000000000E+00 0.  1.
        -24    2    1    2    0    0 -0.18592644212E+03 -0.32959852875E+03 -0.10555814830E+04  0.11241578806E+04  0.79213895234E+02 0.  0.
        254    2    1    2    0    0  0.18592644212E+03  0.32959852875E+03 -0.56404834467E+03  0.11159577353E+04  0.88544186695E+03 0.  0.
         23    2    4    4    0    0 -0.90826130992E+02  0.36770011043E+03  0.88836817165E+02  0.39996791990E+03  0.92895638102E+02 0.  0.
         23    2    4    4    0    0  0.27675257311E+03 -0.38101581687E+02 -0.65288516183E+03  0.71598981537E+03  0.91316285113E+02 0.  0.
          3    1    3    3  502    0 -0.11218740644E+02 -0.48103080735E+02 -0.81755178395E+02  0.95517933982E+02  0.00000000000E+00 0. -1.
         -4    1    3    3    0  502 -0.17470770147E+03 -0.28149544801E+03 -0.97382630465E+03  0.10286399466E+04  0.00000000000E+00 0.  1.
         13    1    5    5    0    0 -0.58325770160E+02  0.78328051272E+02  0.35631290991E+02  0.10395560581E+03  0.00000000000E+00 0. -1.
        -13    1    5    5    0    0 -0.32500360832E+02  0.28937205916E+03  0.53205526175E+02  0.29601231409E+03  0.00000000000E+00 0.  1.
          3    1    6    6  503    0  0.41949854012E+02  0.13388342868E+02 -0.18255803294E+03  0.18779369896E+03  0.00000000000E+00 0. -1.
         -3    1    6    6    0  503  0.23480271910E+03 -0.51489924555E+02 -0.47032712889E+03  0.52819611641E+03  0.00000000000E+00 0.  1.
<mgrwt>
<rscale>  0 0.15475520E+04</rscale>
<asrwt>0</asrwt>
<pdfrwt beam="1">  1        1 0.47729676E-01 0.15475520E+04</pdfrwt>
<pdfrwt beam="2">  1       -2 0.29690350E+00 0.15475520E+04</pdfrwt>
<totfact> 0.23522237E+00</totfact>
</mgrwt>
</event>
<event>
12    5  0.5264288E-008  0.1929995E+04  0.7818608E-02  0.8640068E-01
         -2   -1    0    0    0  501 -0.00000000000E+00  0.00000000000E+00  0.49413224591E+03  0.49413224591E+03  0.00000000000E+00 0.  1.
          1   -1    0    0  501    0  0.00000000000E+00 -0.00000000000E+00 -0.18845565359E+04  0.18845565359E+04  0.00000000000E+00 0. -1.
        -24    2    1    2    0    0  0.73247784997E+03  0.16492064492E+03 -0.57184750516E+03  0.94731968254E+03  0.81745898652E+02 0.  0.
        254    2    1    2    0    0 -0.73247784997E+03 -0.16492064492E+03 -0.81857678487E+03  0.14313690993E+04  0.90278841704E+03 0.  0.
         23    2    4    4    0    0  0.41787735920E+02 -0.30998509296E+03 -0.54312848432E+02  0.33017779860E+03  0.90722215874E+02 0.  0.
         23    2    4    4    0    0 -0.77426558589E+03  0.14506444805E+03 -0.76426393644E+03  0.11011913007E+04  0.89398124436E+02 0.  0.
          1    1    3    3  502    0  0.63465654112E+03  0.13663555196E+03 -0.45751632777E+03  0.79421621075E+03  0.00000000000E+00 0. -1.
         -2    1    3    3    0  502  0.97821308851E+02  0.28285092956E+02 -0.11433117739E+03  0.15310347179E+03  0.00000000000E+00 0.  1.
         13    1    5    5    0    0  0.32972031190E+02 -0.14225926404E+03 -0.69132715851E+02  0.16156789733E+03  0.00000000000E+00 0.  1.
        -13    1    5    5    0    0  0.88157047294E+01 -0.16772582892E+03  0.14819867419E+02  0.16860990128E+03  0.00000000000E+00 0. -1.
          3    1    6    6  503    0 -0.65002092260E+03  0.11417702879E+03 -0.68181833711E+03  0.94891508500E+03  0.00000000000E+00 0. -1.
         -3    1    6    6    0  503 -0.12424466329E+03  0.30887419251E+02 -0.82445599327E+02  0.15227621571E+03  0.00000000000E+00 0.  1.
<mgrwt>
<rscale>  0 0.19299950E+04</rscale>
<asrwt>0</asrwt>
<pdfrwt beam="1">  1        1 0.28993177E+00 0.19299950E+04</pdfrwt>
<pdfrwt beam="2">  1       -2 0.76020346E-01 0.19299950E+04</pdfrwt>
<totfact> 0.45320133E+00</totfact>
</mgrwt>
</event>
<event>
12    5  0.5264288E-008  0.2483429E+04  0.7818608E-02  0.8408913E-01
         -2   -1    0    0    0  501 -0.00000000000E+00  0.00000000000E+00  0.15684965195E+04  0.15684965195E+04  0.00000000000E+00 0.  1.
          1   -1    0    0  501    0  0.00000000000E+00 -0.00000000000E+00 -0.98301441562E+03  0.98301441562E+03  0.00000000000E+00 0. -1.
        -24    2    1    2    0    0  0.84922093048E+03  0.21832823823E+03  0.90861117321E+03  0.12658278038E+04  0.88895199542E+02 0.  0.
        254    2    1    2    0    0 -0.84922093048E+03 -0.21832823823E+03 -0.32312906936E+03  0.12856831313E+04  0.88302056045E+03 0.  0.
         23    2    4    4    0    0 -0.29412652837E+03  0.85768813365E+02  0.26707955494E+03  0.41631857005E+03  0.90127460101E+02 0.  0.
         23    2    4    4    0    0 -0.55509440211E+03 -0.30409705159E+03 -0.59020862430E+03  0.86936456121E+03  0.82726707004E+02 0.  0.
          1    1    3    3  502    0  0.10252491069E+03  0.27677913041E+02  0.71639011920E+02  0.12809985250E+03  0.00000000000E+00 0. -1.
         -2    1    3    3    0  502  0.74669601979E+03  0.19065032519E+03  0.83697216129E+03  0.11377279513E+04  0.00000000000E+00 0.  1.
         13    1    5    5    0    0  0.16966502975E+01  0.14548992290E+02  0.17173080567E+02  0.22571364492E+02  0.00000000000E+00 0.  1.
        -13    1    5    5    0    0 -0.29582317866E+03  0.71219821075E+02  0.24990647437E+03  0.39374720556E+03  0.00000000000E+00 0. -1.
          3    1    6    6  503    0 -0.44343001624E+03 -0.22630511063E+03 -0.50311528326E+03  0.70779175656E+03  0.00000000000E+00 0. -1.
         -3    1    6    6    0  503 -0.11166438587E+03 -0.77791940961E+02 -0.87093341036E+02  0.16157280465E+03  0.00000000000E+00 0.  1.
<mgrwt>
<rscale>  0 0.24834288E+04</rscale>
<asrwt>0</asrwt>
<pdfrwt beam="1">  1        1 0.15123299E+00 0.24834288E+04</pdfrwt>
<pdfrwt beam="2">  1       -2 0.24130716E+00 0.24834288E+04</pdfrwt>
<totfact> 0.88510781E-01</totfact>
</mgrwt>
</event>
<event>
12    5  0.5264288E-008  0.1970339E+04  0.7818608E-02  0.8620615E-01
          1   -1    0    0  501    0  0.00000000000E+00  0.00000000000E+00  0.23135001369E+04  0.23135001369E+04  0.00000000000E+00 0. -1.
         -2   -1    0    0    0  501 -0.00000000000E+00 -0.00000000000E+00 -0.41951952430E+03  0.41951952430E+03  0.00000000000E+00 0.  1.
        -24    2    1    2    0    0 -0.68243781410E+03 -0.34492627903E+03  0.57583207296E+03  0.96048740143E+03  0.79107294110E+02 0.  0.
        254    2    1    2    0    0  0.68243781410E+03  0.34492627903E+03  0.13181485396E+04  0.17725322598E+04  0.90535050189E+03 0.  0.
         23    2    4    4    0    0  0.12154489529E+03  0.10642597483E+03  0.11040090735E+04  0.11198395449E+04  0.95419715568E+02 0.  0.
         23    2    4    4    0    0  0.56089291881E+03  0.23850030419E+03  0.21413946608E+03  0.65269271487E+03  0.93106431803E+02 0.  0.
          3    1    3    3  502    0 -0.19143345294E+03 -0.86602302261E+02  0.20214765350E+03  0.29156542915E+03  0.00000000000E+00 0. -1.
         -4    1    3    3    0  502 -0.49100436116E+03 -0.25832397677E+03  0.37368441946E+03  0.66892197228E+03  0.00000000000E+00 0.  1.
         13    1    5    5    0    0  0.11355925830E+03  0.68949458595E+02  0.60763916838E+03  0.62199283914E+03  0.00000000000E+00 0.  1.
        -13    1    5    5    0    0  0.79856369862E+01  0.37476516240E+02  0.49636990517E+03  0.49784670575E+03  0.00000000000E+00 0. -1.
          4    1    6    6  503    0  0.11212154768E+03  0.70747935623E+02  0.13447798612E+02  0.13325672642E+03  0.00000000000E+00 0.  1.
         -4    1    6    6    0  503  0.44877137113E+03  0.16775236857E+03  0.20069166747E+03  0.51943598845E+03  0.00000000000E+00 0. -1.
<mgrwt>
<rscale>  0 0.19703385E+04</rscale>
<asrwt>0</asrwt>
<pdfrwt beam="1">  1        1 0.35592309E+00 0.19703385E+04</pdfrwt>
<pdfrwt beam="2">  1       -2 0.64541467E-01 0.19703385E+04</pdfrwt>
<totfact> 0.32999238E+00</totfact>
</mgrwt>
</event>
<event>
12    5  0.5525918E-008  0.2432285E+04  0.7818608E-02  0.8427514E-01
         -2   -1    0    0    0  501 -0.00000000000E+00  0.00000000000E+00  0.80014804430E+03  0.80014804430E+03  0.00000000000E+00 0.  1.
          1   -1    0    0  501    0  0.00000000000E+00 -0.00000000000E+00 -0.18484118596E+04  0.18484118596E+04  0.00000000000E+00 0. -1.
        -24    2    1    2    0    0 -0.45038029935E+03 -0.54563167455E+03  0.38950468739E+03  0.81156709938E+03  0.79818024107E+02 0.  0.
        254    2    1    2    0    0  0.45038029935E+03  0.54563167455E+03 -0.14377685027E+04  0.18369928045E+04  0.89822489289E+03 0.  0.
         23    2    4    4    0    0  0.21511166850E+03 -0.20274565521E+03 -0.19819772389E+03  0.36711987335E+03  0.90087918273E+02 0.  0.
         23    2    4    4    0    0  0.23526863085E+03  0.74837732977E+03 -0.12395707788E+04  0.14698729312E+04  0.92578408726E+02 0.  0.
          1    1    3    3  502    0 -0.96241534450E+02 -0.70480212220E+02  0.60427358308E+02  0.13372119839E+03  0.00000000000E+00 0. -1.
         -2    1    3    3    0  502 -0.35413876490E+03 -0.47515146233E+03  0.32907732908E+03  0.67784590098E+03  0.00000000000E+00 0.  1.
         13    1    5    5    0    0  0.79302897902E+01  0.61910616800E+01 -0.21910353065E+02  0.24109797019E+02  0.00000000000E+00 0. -1.
        -13    1    5    5    0    0  0.20718137871E+03 -0.20893671689E+03 -0.17628737083E+03  0.34301007633E+03  0.00000000000E+00 0.  1.
          1    1    6    6  503    0  0.74305178379E+01  0.98766876187E+02 -0.12008869495E+03  0.15566439246E+03  0.00000000000E+00 0. -1.
         -1    1    6    6    0  503  0.22783811301E+03  0.64961045358E+03 -0.11194820839E+04  0.13142085387E+04  0.00000000000E+00 0.  1.
<mgrwt>
<rscale>  0 0.24322855E+04</rscale>
<asrwt>0</asrwt>
<pdfrwt beam="1">  1        1 0.28437105E+00 0.24322855E+04</pdfrwt>
<pdfrwt beam="2">  1       -2 0.12309970E+00 0.24322855E+04</pdfrwt>
<totfact> 0.14773614E+00</totfact>
</mgrwt>
</event>
<event>
12    5  0.5264288E-008  0.1672633E+04  0.7818608E-02  0.8777129E-01
          1   -1    0    0  501    0  0.00000000000E+00  0.00000000000E+00  0.12511903273E+04  0.12511903273E+04  0.00000000000E+00 0. -1.
         -2   -1    0    0    0  501 -0.00000000000E+00 -0.00000000000E+00 -0.55900761739E+03  0.55900761739E+03  0.00000000000E+00 0.  1.
        -24    2    1    2    0    0  0.30364387329E+03  0.11171828853E+03 -0.28843977055E+03  0.44107655310E+03  0.81672802610E+02 0.  0.
        254    2    1    2    0    0 -0.30364387329E+03 -0.11171828853E+03  0.98062248048E+03  0.13691213916E+04  0.89899519350E+03 0.  0.
         23    2    4    4    0    0  0.24150670410E+03  0.19207166091E+03  0.38488450070E+03  0.50161408936E+03  0.90904371293E+02 0.  0.
         23    2    4    4    0    0 -0.54515057738E+03 -0.30378994944E+03  0.59573797977E+03  0.86750730223E+03  0.90485874518E+02 0.  0.
          1    1    3    3  502    0  0.15135468229E+03  0.24778061788E+02 -0.17267772644E+03  0.23095408506E+03  0.00000000000E+00 0. -1.
         -2    1    3    3    0  502  0.15228919100E+03  0.86940226741E+02 -0.11576204411E+03  0.21012246804E+03  0.00000000000E+00 0.  1.
         13    1    5    5    0    0  0.16810806167E+03  0.13981642612E+03  0.33078735591E+03  0.39652140956E+03  0.00000000000E+00 0. -1.
        -13    1    5    5    0    0  0.73398642431E+02  0.52255234786E+02  0.54097144789E+02  0.10509267980E+03  0.00000000000E+00 0.  1.
          1    1    6    6  503    0 -0.52610705096E+03 -0.28502040831E+03  0.54133431000E+03  0.80688790883E+03  0.00000000000E+00 0. -1.
         -1    1    6    6    0  503 -0.19043526420E+02 -0.18769541126E+02  0.54403669769E+02  0.60619393406E+02  0.00000000000E+00 0.  1.
<mgrwt>
<rscale>  0 0.16726326E+04</rscale>
<asrwt>0</asrwt>
<pdfrwt beam="1">  1        1 0.19249082E+00 0.16726326E+04</pdfrwt>
<pdfrwt beam="2">  1       -2 0.86001172E-01 0.16726326E+04</pdfrwt>
<totfact> 0.96259386E+00</totfact>
</mgrwt>
</event>
<event>
12    5  0.5264288E-008  0.1278971E+04  0.7818608E-02  0.9046410E-01
          3   -1    0    0  501    0  0.00000000000E+00  0.00000000000E+00  0.85723558103E+03  0.85723558103E+03  0.00000000000E+00 0. -1.
         -4   -1    0    0    0  501 -0.00000000000E+00 -0.00000000000E+00 -0.47704678782E+03  0.47704678782E+03  0.00000000000E+00 0.  1.
        -24    2    1    2    0    0 -0.99857893038E+02  0.21445197172E+03  0.36468580011E+03  0.44187860734E+03  0.79370799743E+02 0.  0.
        254    2    1    2    0    0  0.99857893038E+02 -0.21445197172E+03  0.15502993096E+02  0.89240376151E+03  0.86033881918E+03 0.  0.
         23    2    4    4    0    0  0.18380439177E+03 -0.22795092263E+03  0.39065368362E+03  0.49715163688E+03  0.93828417677E+02 0.  0.
         23    2    4    4    0    0 -0.83946498733E+02  0.13498950916E+02 -0.37515069053E+03  0.39525212463E+03  0.90867844126E+02 0.  0.
          3    1    3    3  502    0 -0.11072727018E+03  0.20213857436E+03  0.32072226279E+03  0.39494721350E+03  0.00000000000E+00 0. -1.
         -4    1    3    3    0  502  0.10869377144E+02  0.12313397354E+02  0.43963537321E+02  0.46931393839E+02  0.00000000000E+00 0.  1.
         13    1    5    5    0    0  0.18340762238E+03 -0.17345107026E+03  0.33223092189E+03  0.41725413740E+03  0.00000000000E+00 0.  1.
        -13    1    5    5    0    0  0.39676939265E+00 -0.54499852371E+02  0.58422761736E+02  0.79897499481E+02  0.00000000000E+00 0. -1.
          1    1    6    6  503    0 -0.25343396546E+02  0.43832033173E+02 -0.97441164146E+02  0.10981036085E+03  0.00000000000E+00 0. -1.
         -1    1    6    6    0  503 -0.58603102188E+02 -0.30333082257E+02 -0.27770952638E+03  0.28544176378E+03  0.00000000000E+00 0.  1.
<mgrwt>
<rscale>  0 0.12789706E+04</rscale>
<asrwt>0</asrwt>
<pdfrwt beam="1">  1        3 0.13188240E+00 0.12789706E+04</pdfrwt>
<pdfrwt beam="2">  1       -4 0.73391813E-01 0.12789706E+04</pdfrwt>
<totfact> 0.16995485E+00</totfact>
</mgrwt>
</event>
<event>
12    5  0.5264288E-008  0.1777466E+04  0.7818608E-02  0.8718375E-01
         -2   -1    0    0    0  501 -0.00000000000E+00  0.00000000000E+00  0.34168322025E+03  0.34168322025E+03  0.00000000000E+00 0.  1.
          1   -1    0    0  501    0  0.00000000000E+00 -0.00000000000E+00 -0.23116339736E+04  0.23116339736E+04  0.00000000000E+00 0. -1.
        -24    2    1    2    0    0 -0.58691517034E+02 -0.36909202373E+03 -0.14657644282E+04  0.15149008596E+04  0.82374991850E+02 0.  0.
        254    2    1    2    0    0  0.58691517034E+02  0.36909202373E+03 -0.50418632519E+03  0.11384163343E+04  0.94979696963E+03 0.  0.
         23    2    4    4    0    0  0.11345581316E+03  0.66196590668E+03 -0.20483155502E+03  0.70659275982E+03  0.79033405297E+02 0.  0.
         23    2    4    4    0    0 -0.54764296123E+02 -0.29287388295E+03 -0.29935477016E+03  0.43182357447E+03  0.89911520955E+02 0.  0.
          3    1    3    3  502    0 -0.63681673444E+02 -0.33687051236E+03 -0.14016839363E+04  0.14430020634E+04  0.00000000000E+00 0. -1.
         -4    1    3    3    0  502  0.49901564108E+01 -0.32221511364E+02 -0.64080491897E+02  0.71898796216E+02  0.00000000000E+00 0.  1.
         13    1    5    5    0    0  0.11562713304E+03  0.62276212127E+03 -0.17457242073E+03  0.65702193545E+03  0.00000000000E+00 0. -1.
        -13    1    5    5    0    0 -0.21713198874E+01  0.39203785413E+02 -0.30259134295E+02  0.49570824373E+02  0.00000000000E+00 0.  1.
          3    1    6    6  503    0 -0.77833641018E+02 -0.24523121310E+03 -0.23459865451E+03  0.34818522693E+03  0.00000000000E+00 0. -1.
         -3    1    6    6    0  503  0.23069344896E+02 -0.47642669852E+02 -0.64756115655E+02  0.83638347540E+02  0.00000000000E+00 0.  1.
<mgrwt>
<rscale>  0 0.17774662E+04</rscale>
<asrwt>0</asrwt>
<pdfrwt beam="1">  1        1 0.35563601E+00 0.17774662E+04</pdfrwt>
<pdfrwt beam="2">  1       -2 0.52566648E-01 0.17774662E+04</pdfrwt>
<totfact> 0.51839655E+00</totfact>
</mgrwt>
</event>
<event>
12    5  0.5264288E-008  0.1441557E+04  0.7818608E-02  0.8924275E-01
         -2   -1    0    0    0  501 -0.00000000000E+00  0.00000000000E+00  0.82747956646E+03  0.82747956646E+03  0.00000000000E+00 0.  1.
          1   -1    0    0  501    0  0.00000000000E+00 -0.00000000000E+00 -0.62783605577E+03  0.62783605577E+03  0.00000000000E+00 0. -1.
        -24    2    1    2    0    0  0.27106611740E+03  0.65160467920E+02 -0.27590750773E+03  0.40029036180E+03  0.79904282397E+02 0.  0.
        254    2    1    2    0    0 -0.27106611740E+03 -0.65160467920E+02  0.47555101841E+03  0.10550252604E+04  0.89955922677E+03 0.  0.
         23    2    4    4    0    0  0.73992192186E+02  0.14965707323E+03 -0.19043181555E+03  0.26945086169E+03  0.92018511269E+02 0.  0.
         23    2    4    4    0    0 -0.34505830959E+03 -0.21481754115E+03  0.66598283396E+03  0.78557439875E+03  0.91554288987E+02 0.  0.
          3    1    3    3  502    0  0.26474244641E+03  0.75556963013E+02 -0.27312522652E+03  0.38780769326E+03  0.00000000000E+00 0. -1.
         -4    1    3    3    0  502  0.63236709910E+01 -0.10396495094E+02 -0.27822812039E+01  0.12482668534E+02  0.00000000000E+00 0.  1.
         13    1    5    5    0    0 -0.15062747569E+01  0.49254840267E+02 -0.11124949312E+02  0.50518042822E+02  0.00000000000E+00 0. -1.
        -13    1    5    5    0    0  0.75498466943E+02  0.10040223297E+03 -0.17930686624E+03  0.21893281887E+03  0.00000000000E+00 0.  1.
          3    1    6    6  503    0 -0.12968843525E+03 -0.33160830500E+02  0.24095298429E+03  0.27563938680E+03  0.00000000000E+00 0.  1.
         -3    1    6    6    0  503 -0.21536987434E+03 -0.18165671065E+03  0.42502984968E+03  0.50993501195E+03  0.00000000000E+00 0. -1.
<mgrwt>
<rscale>  0 0.14415568E+04</rscale>
<asrwt>0</asrwt>
<pdfrwt beam="1">  1        1 0.96590163E-01 0.14415568E+04</pdfrwt>
<pdfrwt beam="2">  1       -2 0.12730455E+00 0.14415568E+04</pdfrwt>
<totfact> 0.12482745E+01</totfact>
</mgrwt>
</event>
<event>
12    5  0.5264288E-008  0.1906423E+04  0.7818608E-02  0.8651666E-01
          1   -1    0    0  501    0  0.00000000000E+00  0.00000000000E+00  0.79322374005E+03  0.79322374005E+03  0.00000000000E+00 0. -1.
         -2   -1    0    0    0  501 -0.00000000000E+00 -0.00000000000E+00 -0.11454673692E+04  0.11454673692E+04  0.00000000000E+00 0.  1.
        -24    2    1    2    0    0 -0.14953622906E+03 -0.53339372425E+03  0.31680871062E+03  0.64300043151E+03  0.78815270871E+02 0.  0.
        254    2    1    2    0    0  0.14953622906E+03  0.53339372425E+03 -0.66905233981E+03  0.12956906778E+04  0.96141216459E+03 0.  0.
         23    2    4    4    0    0  0.21198149202E+03  0.72961547595E+03 -0.73483619748E+03  0.10609399314E+04  0.91292964004E+02 0.  0.
         23    2    4    4    0    0 -0.62445262957E+02 -0.19622175169E+03  0.65783857670E+02  0.23475074635E+03  0.91531471527E+02 0.  0.
          3    1    3    3  502    0 -0.12400059487E+03 -0.47821201091E+03  0.30635218175E+03  0.58130416665E+03  0.00000000000E+00 0. -1.
         -4    1    3    3    0  502 -0.25535634195E+02 -0.55181713341E+02  0.10456528871E+02  0.61696264855E+02  0.00000000000E+00 0.  1.
         13    1    5    5    0    0  0.13270731289E+03  0.43991355090E+03 -0.38173077925E+03  0.59737220473E+03  0.00000000000E+00 0. -1.
        -13    1    5    5    0    0  0.79274179132E+02  0.28970192505E+03 -0.35310541824E+03  0.46356772670E+03  0.00000000000E+00 0.  1.
          1    1    6    6  503    0 -0.75506470614E+02 -0.13087497206E+03  0.16759043548E+02  0.15202088987E+03  0.00000000000E+00 0. -1.
         -1    1    6    6    0  503  0.13061207657E+02 -0.65346779634E+02  0.49024814122E+02  0.82729856483E+02  0.00000000000E+00 0.  1.
<mgrwt>
<rscale>  0 0.19064227E+04</rscale>
<asrwt>0</asrwt>
<pdfrwt beam="1">  1        1 0.12203442E+00 0.19064227E+04</pdfrwt>
<pdfrwt beam="2">  1       -2 0.17622575E+00 0.19064227E+04</pdfrwt>
<totfact> 0.35353052E+00</totfact>
</mgrwt>
</event>
<event>
12    5  0.5264288E-008  0.1680409E+04  0.7818608E-02  0.8772617E-01
         -2   -1    0    0    0  501 -0.00000000000E+00  0.00000000000E+00  0.87440057166E+03  0.87440057166E+03  0.00000000000E+00 0.  1.
          1   -1    0    0  501    0  0.00000000000E+00 -0.00000000000E+00 -0.80734605724E+03  0.80734605724E+03  0.00000000000E+00 0. -1.
        -24    2    1    2    0    0 -0.38424954869E+03  0.20340991777E+03  0.41840996830E+03  0.60869130588E+03  0.80093033184E+02 0.  0.
        254    2    1    2    0    0  0.38424954869E+03 -0.20340991777E+03 -0.35135545387E+03  0.10730553230E+04  0.91595510861E+03 0.  0.
         23    2    4    4    0    0 -0.17075882833E+03  0.22560903920E+03 -0.40836114197E+02  0.30060623978E+03  0.92943569738E+02 0.  0.
         23    2    4    4    0    0  0.55500837702E+03 -0.42901895697E+03 -0.31051933968E+03  0.77244908324E+03  0.90353538368E+02 0.  0.
          3    1    3    3  502    0 -0.29663844328E+02  0.44348537315E+02  0.54829339424E+02  0.76504855296E+02  0.00000000000E+00 0. -1.
         -4    1    3    3    0  502 -0.35458570436E+03  0.15906138046E+03  0.36358062887E+03  0.53218645058E+03  0.00000000000E+00 0.  1.
         13    1    5    5    0    0 -0.56440644352E+02  0.14687229670E+03 -0.37528177259E+02  0.16175716974E+03  0.00000000000E+00 0.  1.
        -13    1    5    5    0    0 -0.11431818397E+03  0.78736742496E+02 -0.33079369390E+01  0.13884907005E+03  0.00000000000E+00 0. -1.
          1    1    6    6  503    0  0.41131948087E+03 -0.26835841134E+03 -0.23064151928E+03  0.54258221746E+03  0.00000000000E+00 0. -1.
         -1    1    6    6    0  503  0.14368889614E+03 -0.16066054563E+03 -0.79877820395E+02  0.22986686579E+03  0.00000000000E+00 0.  1.
<mgrwt>
<rscale>  0 0.16804093E+04</rscale>
<asrwt>0</asrwt>
<pdfrwt beam="1">  1        1 0.12420709E+00 0.16804093E+04</pdfrwt>
<pdfrwt beam="2">  1       -2 0.13452316E+00 0.16804093E+04</pdfrwt>
<totfact> 0.72400116E+00</totfact>
</mgrwt>
</event>
<event>
12    5  0.5264288E-008  0.1385375E+04  0.7818608E-02  0.8964473E-01
          1   -1    0    0  501    0  0.00000000000E+00  0.00000000000E+00  0.23676597086E+04  0.23676597086E+04  0.00000000000E+00 0. -1.
         -2   -1    0    0    0  501 -0.00000000000E+00 -0.00000000000E+00 -0.20265422752E+03  0.20265422752E+03  0.00000000000E+00 0.  1.
        -24    2    1    2    0    0 -0.64211610436E+01 -0.17848858517E+03 -0.20406775527E+02  0.19526238409E+03  0.76233560886E+02 0.  0.
        254    2    1    2    0    0  0.64211610436E+01  0.17848858517E+03  0.21854122566E+04  0.23750515520E+04  0.91265751358E+03 0.  0.
         23    2    4    4    0    0 -0.19533669296E+03 -0.13857617534E+03  0.18362015277E+04  0.18545086821E+04  0.10102782579E+03 0.  0.
         23    2    4    4    0    0  0.20175785401E+03  0.31706476052E+03  0.34921072886E+03  0.52054286990E+03  0.88206871841E+02 0.  0.
          1    1    3    3  502    0 -0.30320933882E+02 -0.36802553194E+02 -0.19645916463E+02  0.51572754307E+02  0.00000000000E+00 0. -1.
         -2    1    3    3    0  502  0.23899772839E+02 -0.14168603198E+03 -0.76085906333E+00  0.14368962978E+03  0.00000000000E+00 0.  1.
         13    1    5    5    0    0 -0.18409314968E+03 -0.15457286322E+03  0.16963913051E+04  0.17133378295E+04  0.00000000000E+00 0. -1.
        -13    1    5    5    0    0 -0.11243543278E+02  0.15996687874E+02  0.13981022259E+03  0.14117085262E+03  0.00000000000E+00 0.  1.
          1    1    6    6  503    0  0.11722907070E+03  0.24493888854E+03  0.27771188373E+03  0.38840906851E+03  0.00000000000E+00 0. -1.
         -1    1    6    6    0  503  0.84528783301E+02  0.72125871976E+02  0.71498845131E+02  0.13213380139E+03  0.00000000000E+00 0.  1.
<mgrwt>
<rscale>  0 0.13853754E+04</rscale>
<asrwt>0</asrwt>
<pdfrwt beam="1">  1        1 0.36425532E+00 0.13853754E+04</pdfrwt>
<pdfrwt beam="2">  1       -2 0.31177575E-01 0.13853754E+04</pdfrwt>
<totfact> 0.13712681E+01</totfact>
</mgrwt>
</event>
<event>
12    5  0.5264288E-008  0.2326517E+04  0.7818608E-02  0.8467539E-01
         -2   -1    0    0    0  501 -0.00000000000E+00  0.00000000000E+00  0.13817434513E+04  0.13817434513E+04  0.00000000000E+00 0.  1.
          1   -1    0    0  501    0  0.00000000000E+00 -0.00000000000E+00 -0.97932123658E+03  0.97932123658E+03  0.00000000000E+00 0. -1.
        -24    2    1    2    0    0 -0.32525001346E+02 -0.45807947648E+03  0.10584345379E+04  0.11565499798E+04  0.80184177699E+02 0.  0.
        254    2    1    2    0    0  0.32525001346E+02  0.45807947648E+03 -0.65601232324E+03  0.12045147080E+04  0.89978265767E+03 0.  0.
         23    2    4    4    0    0  0.44822620774E+03  0.31353128611E+03 -0.29154981512E+03  0.62627476162E+03  0.89499618300E+02 0.  0.
         23    2    4    4    0    0 -0.41570120639E+03  0.14454819037E+03 -0.36446250812E+03  0.57823994637E+03  0.88469449034E+02 0.  0.
          3    1    3    3  502    0  0.17541140280E+02 -0.19558120901E+03  0.50931242218E+03  0.54585606555E+03  0.00000000000E+00 0. -1.
         -4    1    3    3    0  502 -0.50066141625E+02 -0.26249826748E+03  0.54912211573E+03  0.61069391429E+03  0.00000000000E+00 0.  1.
         13    1    5    5    0    0  0.25403363263E+03  0.12620935016E+03 -0.13259838906E+03  0.31312013566E+03  0.00000000000E+00 0. -1.
        -13    1    5    5    0    0  0.19419257511E+03  0.18732193595E+03 -0.15895142606E+03  0.31315462597E+03  0.00000000000E+00 0.  1.
          3    1    6    6  503    0 -0.35195048075E+03  0.15454329488E+03 -0.31287670711E+03  0.49562546822E+03  0.00000000000E+00 0. -1.
         -3    1    6    6    0  503 -0.63750725640E+02 -0.99951045098E+01 -0.51585801011E+02  0.82614478148E+02  0.00000000000E+00 0.  1.
<mgrwt>
<rscale>  0 0.23265173E+04</rscale>
<asrwt>0</asrwt>
<pdfrwt beam="1">  1        1 0.15066481E+00 0.23265173E+04</pdfrwt>
<pdfrwt beam="2">  1       -2 0.21257592E+00 0.23265173E+04</pdfrwt>
<totfact> 0.13689167E+00</totfact>
</mgrwt>
</event>
<event>
12    5  0.5264288E-008  0.1979775E+04  0.7818608E-02  0.8616135E-01
         -2   -1    0    0    0  501 -0.00000000000E+00  0.00000000000E+00  0.13885018004E+04  0.13885018004E+04  0.00000000000E+00 0.  1.
          1   -1    0    0  501    0  0.00000000000E+00 -0.00000000000E+00 -0.70570817064E+03  0.70570817064E+03  0.00000000000E+00 0. -1.
        -24    2    1    2    0    0  0.13833988016E+03  0.75096328728E+03  0.44398601893E+03  0.88693209603E+03  0.80256941629E+02 0.  0.
        254    2    1    2    0    0 -0.13833988016E+03 -0.75096328728E+03  0.23880761087E+03  0.12072778750E+04  0.90410564166E+03 0.  0.
         23    2    4    4    0    0  0.54083815972E+02 -0.89795617055E+03  0.86270154184E+02  0.90817494141E+03  0.89937985978E+02 0.  0.
         23    2    4    4    0    0 -0.19242369614E+03  0.14699288327E+03  0.15253745669E+03  0.29910293363E+03  0.86954601065E+02 0.  0.
          3    1    3    3  502    0  0.56095165440E+02  0.18374855468E+03  0.80909957307E+02  0.20846251491E+03  0.00000000000E+00 0. -1.
         -4    1    3    3    0  502  0.82244714723E+02  0.56721473260E+03  0.36307606162E+03  0.67846958111E+03  0.00000000000E+00 0.  1.
         13    1    5    5    0    0 -0.16295865796E+02 -0.39601598684E+03  0.57597248033E+02  0.40051424451E+03  0.00000000000E+00 0.  1.
        -13    1    5    5    0    0  0.70379681768E+02 -0.50194018371E+03  0.28672906152E+02  0.50766069690E+03  0.00000000000E+00 0. -1.
          4    1    6    6  503    0 -0.13774439736E+03  0.53364471002E+02  0.10175008154E+03  0.17937214071E+03  0.00000000000E+00 0. -1.
         -4    1    6    6    0  503 -0.54679298777E+02  0.93628412273E+02  0.50787375144E+02  0.11973079292E+03  0.00000000000E+00 0.  1.
<mgrwt>
<rscale>  0 0.19797748E+04</rscale>
<asrwt>0</asrwt>
<pdfrwt beam="1">  1        1 0.10857049E+00 0.19797748E+04</pdfrwt>
<pdfrwt beam="2">  1       -2 0.21361566E+00 0.19797748E+04</pdfrwt>
<totfact> 0.23760921E+00</totfact>
</mgrwt>
</event>
<event>
12    5  0.5264288E-008  0.1072178E+04  0.7818608E-02  0.9232742E-01
         -2   -1    0    0    0  501 -0.00000000000E+00  0.00000000000E+00  0.34431286582E+03  0.34431286582E+03  0.00000000000E+00 0.  1.
          1   -1    0    0  501    0  0.00000000000E+00 -0.00000000000E+00 -0.83468050495E+03  0.83468050495E+03  0.00000000000E+00 0. -1.
        -24    2    1    2    0    0  0.13056775000E+03  0.79483190579E+02 -0.69773492740E+02  0.18588348482E+03  0.79490972542E+02 0.  0.
        254    2    1    2    0    0 -0.13056775000E+03 -0.79483190579E+02 -0.42059414638E+03  0.99310988595E+03  0.88656770450E+03 0.  0.
         23    2    4    4    0    0  0.28550166558E+03 -0.15734616754E+03  0.61798029227E+02  0.34458002830E+03  0.92991300630E+02 0.  0.
         23    2    4    4    0    0 -0.41606941559E+03  0.77862976965E+02 -0.48239217561E+03  0.64852985765E+03  0.93340041812E+02 0.  0.
          1    1    3    3  502    0  0.99509507701E+02  0.35401480732E+02 -0.78049015776E+02  0.13132804660E+03  0.00000000000E+00 0. -1.
         -2    1    3    3    0  502  0.31058242303E+02  0.44081709847E+02  0.82755230363E+01  0.54555438221E+02  0.00000000000E+00 0.  1.
         13    1    5    5    0    0 -0.25670327371E+01 -0.17478694209E+02  0.96592737561E+01  0.20134447542E+02  0.00000000000E+00 0. -1.
        -13    1    5    5    0    0  0.28806869832E+03 -0.13986747334E+03  0.52138755471E+02  0.32444558076E+03  0.00000000000E+00 0.  1.
          4    1    6    6  503    0 -0.16914270049E+03 -0.13551153622E+02 -0.17438672527E+03  0.24331793367E+03  0.00000000000E+00 0. -1.
         -4    1    6    6    0  503 -0.24692671510E+03  0.91414130586E+02 -0.30800545034E+03  0.40521192399E+03  0.00000000000E+00 0.  1.
<mgrwt>
<rscale>  0 0.10721777E+04</rscale>
<asrwt>0</asrwt>
<pdfrwt beam="1">  1        1 0.12841238E+00 0.10721777E+04</pdfrwt>
<pdfrwt beam="2">  1       -2 0.52971211E-01 0.10721777E+04</pdfrwt>
<totfact> 0.60676019E+01</totfact>
</mgrwt>
</event>
<event>
12    5  0.5264288E-008  0.1708060E+04  0.7818608E-02  0.8756781E-01
         -2   -1    0    0    0  501 -0.00000000000E+00  0.00000000000E+00  0.11074609110E+04  0.11074609110E+04  0.00000000000E+00 0.  1.
          1   -1    0    0  501    0  0.00000000000E+00 -0.00000000000E+00 -0.65859439093E+03  0.65859439093E+03  0.00000000000E+00 0. -1.
        -24    2    1    2    0    0  0.90084687987E+02  0.14125216446E+03  0.76924078338E+03  0.79139107703E+03  0.80628958888E+02 0.  0.
        254    2    1    2    0    0 -0.90084687987E+02 -0.14125216446E+03 -0.32037426328E+03  0.97466422492E+03  0.90513162457E+03 0.  0.
         23    2    4    4    0    0 -0.22926799700E+03  0.25801980486E+03  0.10063620263E+03  0.37101539581E+03  0.91579170692E+02 0.  0.
         23    2    4    4    0    0  0.13918330901E+03 -0.39927196932E+03 -0.42101046592E+03  0.60364882911E+03  0.91389263490E+02 0.  0.
          3    1    3    3  502    0  0.41502487907E+02  0.11354292468E+03  0.39780892576E+03  0.41577204531E+03  0.00000000000E+00 0. -1.
         -4    1    3    3    0  502  0.48582200080E+02  0.27709239780E+02  0.37143185762E+03  0.37561903171E+03  0.00000000000E+00 0.  1.
         13    1    5    5    0    0 -0.28876316792E+02  0.19979516953E+02  0.41368459645E+02  0.54262069833E+02  0.00000000000E+00 0. -1.
        -13    1    5    5    0    0 -0.20039168020E+03  0.23804028790E+03  0.59267742989E+02  0.31675332598E+03  0.00000000000E+00 0.  1.
          3    1    6    6  503    0 -0.91992144792E+01 -0.36014258460E+01 -0.12065198031E+02  0.15593742934E+02  0.00000000000E+00 0. -1.
         -3    1    6    6    0  503  0.14838252349E+03 -0.39567054347E+03 -0.40894526788E+03  0.58805508617E+03  0.00000000000E+00 0.  1.
<mgrwt>
<rscale>  0 0.17080604E+04</rscale>
<asrwt>0</asrwt>
<pdfrwt beam="1">  1        1 0.10132221E+00 0.17080604E+04</pdfrwt>
<pdfrwt beam="2">  1       -2 0.17037860E+00 0.17080604E+04</pdfrwt>
<totfact> 0.52632486E+00</totfact>
</mgrwt>
</event>
<event>
12    5  0.5264288E-008  0.2287804E+04  0.7818608E-02  0.8482745E-01
         -2   -1    0    0    0  501 -0.00000000000E+00  0.00000000000E+00  0.17863093323E+04  0.17863093323E+04  0.00000000000E+00 0.  1.
          1   -1    0    0  501    0  0.00000000000E+00 -0.00000000000E+00 -0.73252249426E+03  0.73252249426E+03  0.00000000000E+00 0. -1.
        -24    2    1    2    0    0 -0.91344098827E+03 -0.23917410854E+03  0.21683362051E+03  0.97277428091E+03  0.87717098578E+02 0.  0.
        254    2    1    2    0    0  0.91344098827E+03  0.23917410854E+03  0.83695321754E+03  0.15460575456E+04  0.89343413459E+03 0.  0.
         23    2    4    4    0    0  0.10188078107E+03  0.43111887333E+03  0.38617669050E+03  0.59450615643E+03  0.89788402641E+02 0.  0.
         23    2    4    4    0    0  0.81156020720E+03 -0.19194476480E+03  0.45077652704E+03  0.95155138922E+03  0.82327433788E+02 0.  0.
          3    1    3    3  502    0 -0.87316335045E+03 -0.22623372545E+03  0.18745448830E+03  0.92126821300E+03  0.00000000000E+00 0. -1.
         -4    1    3    3    0  502 -0.40277637818E+02 -0.12940383091E+02  0.29379132210E+02  0.51506067916E+02  0.00000000000E+00 0.  1.
         13    1    5    5    0    0 -0.16481034685E+02  0.60178712538E+02  0.46794791827E+02  0.77992656636E+02  0.00000000000E+00 0.  1.
        -13    1    5    5    0    0  0.11836181575E+03  0.37094016080E+03  0.33938189867E+03  0.51651349979E+03  0.00000000000E+00 0. -1.
          4    1    6    6  503    0  0.70312512838E+02 -0.40185759432E+02  0.35120478950E+02  0.88273397830E+02  0.00000000000E+00 0. -1.
         -4    1    6    6    0  503  0.74124769436E+03 -0.15175900536E+03  0.41565604809E+03  0.86327799139E+03  0.00000000000E+00 0.  1.
<mgrwt>
<rscale>  0 0.22878040E+04</rscale>
<asrwt>0</asrwt>
<pdfrwt beam="1">  1        1 0.11269577E+00 0.22878040E+04</pdfrwt>
<pdfrwt beam="2">  1       -2 0.27481682E+00 0.22878040E+04</pdfrwt>
<totfact> 0.91266459E-01</totfact>
</mgrwt>
</event>
<event>
12    5  0.5264288E-008  0.2116866E+04  0.7818608E-02  0.8553850E-01
         -2   -1    0    0    0  501 -0.00000000000E+00  0.00000000000E+00  0.62855964166E+03  0.62855964166E+03  0.00000000000E+00 0.  1.
          1   -1    0    0  501    0  0.00000000000E+00 -0.00000000000E+00 -0.17822985493E+04  0.17822985493E+04  0.00000000000E+00 0. -1.
        -24    2    1    2    0    0 -0.16479436522E+03 -0.64397782039E+03  0.15850441552E+03  0.68770510847E+03  0.77136570574E+02 0.  0.
        254    2    1    2    0    0  0.16479436522E+03  0.64397782039E+03 -0.13122433231E+04  0.17231530825E+04  0.89744603766E+03 0.  0.
         23    2    4    4    0    0 -0.15928524482E+03 -0.13204160602E+03 -0.51524598305E+03  0.56117786012E+03  0.81457919811E+02 0.  0.
         23    2    4    4    0    0  0.32407961005E+03  0.77601942641E+03 -0.79699734008E+03  0.11619752223E+04  0.88022232497E+02 0.  0.
          1    1    3    3  502    0 -0.42212150416E+02 -0.21897764116E+03  0.18607366743E+02  0.22378406348E+03  0.00000000000E+00 0. -1.
         -2    1    3    3    0  502 -0.12258221481E+03 -0.42500017923E+03  0.13989704878E+03  0.46392104500E+03  0.00000000000E+00 0.  1.
         13    1    5    5    0    0 -0.34998371380E+02 -0.35531985800E+02 -0.52519354848E+02  0.72427140270E+02  0.00000000000E+00 0. -1.
        -13    1    5    5    0    0 -0.12428687345E+03 -0.96509620224E+02 -0.46272662820E+03  0.48875071985E+03  0.00000000000E+00 0.  1.
          2    1    6    6  503    0 -0.54801957419E+01  0.20682008647E+02 -0.17912805888E+02  0.27904240571E+02  0.00000000000E+00 0. -1.
         -2    1    6    6    0  503  0.32955980579E+03  0.75533741776E+03 -0.77908453419E+03  0.11340709818E+04  0.00000000000E+00 0.  1.
<mgrwt>
<rscale>  0 0.21168665E+04</rscale>
<asrwt>0</asrwt>
<pdfrwt beam="1">  1        1 0.27419977E+00 0.21168665E+04</pdfrwt>
<pdfrwt beam="2">  1       -2 0.96701485E-01 0.21168665E+04</pdfrwt>
<totfact> 0.30197644E+00</totfact>
</mgrwt>
</event>
<event>
12    5  0.5264288E-008  0.1421800E+04  0.7818608E-02  0.8938188E-01
         -2   -1    0    0    0  501 -0.00000000000E+00  0.00000000000E+00  0.53876092658E+03  0.53876092658E+03  0.00000000000E+00 0.  1.
          1   -1    0    0  501    0  0.00000000000E+00 -0.00000000000E+00 -0.93803941621E+03  0.93803941621E+03  0.00000000000E+00 0. -1.
        -24    2    1    2    0    0  0.34522925633E+03 -0.17245237046E+03 -0.23267302239E+02  0.39462246505E+03  0.79135725616E+02 0.  0.
        254    2    1    2    0    0 -0.34522925633E+03  0.17245237046E+03 -0.37601118738E+03  0.10821778777E+04  0.93851024849E+03 0.  0.
         23    2    4    4    0    0 -0.30769437383E+02  0.30288056900E+03 -0.58975316802E+03  0.66988248438E+03  0.90831417156E+02 0.  0.
         23    2    4    4    0    0 -0.31445981895E+03 -0.13042819854E+03  0.21374198063E+03  0.41229539336E+03  0.91680774380E+02 0.  0.
          3    1    3    3  502    0  0.25342048446E+03 -0.16201504565E+03 -0.74337396326E+01  0.30087551819E+03  0.00000000000E+00 0. -1.
         -2    1    3    3    0  502  0.91808771867E+02 -0.10437324806E+02 -0.15833562606E+02  0.93746946860E+02  0.00000000000E+00 0.  1.
         13    1    5    5    0    0 -0.28490679472E+01  0.28391253374E+03 -0.52475295781E+03  0.59664068813E+03  0.00000000000E+00 0.  1.
        -13    1    5    5    0    0 -0.27920369436E+02  0.18968035252E+02 -0.65000210208E+02  0.73241796249E+02  0.00000000000E+00 0. -1.
          2    1    6    6  503    0 -0.90129392618E+02 -0.62932286979E+01  0.24438194486E+02  0.93595606151E+02  0.00000000000E+00 0. -1.
         -2    1    6    6    0  503 -0.22433042633E+03 -0.12413496984E+03  0.18930378615E+03  0.31869978720E+03  0.00000000000E+00 0.  1.
<mgrwt>
<rscale>  0 0.14218002E+04</rscale>
<asrwt>0</asrwt>
<pdfrwt beam="1">  1        1 0.14431376E+00 0.14218002E+04</pdfrwt>
<pdfrwt beam="2">  1       -2 0.82886296E-01 0.14218002E+04</pdfrwt>
<totfact> 0.18447866E+01</totfact>
</mgrwt>
</event>
<event>
12    5  0.5264288E-008  0.1307211E+04  0.7818608E-02  0.9023866E-01
         -4   -1    0    0    0  501 -0.00000000000E+00  0.00000000000E+00  0.55864642553E+03  0.55864642553E+03  0.00000000000E+00 0.  1.
          3   -1    0    0  501    0  0.00000000000E+00 -0.00000000000E+00 -0.76470582998E+03  0.76470582998E+03  0.00000000000E+00 0. -1.
        -24    2    1    2    0    0 -0.38920319872E+02 -0.31191749807E+02 -0.39000954508E+03  0.40099819320E+03  0.78767944882E+02 0.  0.
        254    2    1    2    0    0  0.38920319872E+02  0.31191749807E+02  0.18395014062E+03  0.92235406231E+03  0.90244758600E+03 0.  0.
         23    2    4    4    0    0  0.29764551460E+03 -0.23559379040E+03 -0.14478883569E+03  0.41658870907E+03  0.92114380788E+02 0.  0.
         23    2    4    4    0    0 -0.25872519472E+03  0.26678554021E+03  0.32873897631E+03  0.50576535325E+03  0.98061343834E+02 0.  0.
          3    1    3    3  502    0 -0.36764633061E+02 -0.52445458295E+02 -0.34825980751E+03  0.35410034999E+03  0.00000000000E+00 0. -1.
         -4    1    3    3    0  502 -0.21556868111E+01  0.21253708487E+02 -0.41749737573E+02  0.46897843207E+02  0.00000000000E+00 0.  1.
         13    1    5    5    0    0  0.12468580157E+03 -0.15603706477E+03 -0.84693860373E+02  0.21694968237E+03  0.00000000000E+00 0.  1.
        -13    1    5    5    0    0  0.17295971302E+03 -0.79556725630E+02 -0.60094975313E+02  0.19963902670E+03  0.00000000000E+00 0. -1.
          3    1    6    6  503    0  0.82131146392E+01  0.39834700480E+01  0.38431470927E+01  0.99041943274E+01  0.00000000000E+00 0. -1.
         -3    1    6    6    0  503 -0.26693830936E+03  0.26280207016E+03  0.32489582922E+03  0.49586115892E+03  0.00000000000E+00 0.  1.
<mgrwt>
<rscale>  0 0.13072110E+04</rscale>
<asrwt>0</asrwt>
<pdfrwt beam="1">  1        3 0.11764705E+00 0.13072110E+04</pdfrwt>
<pdfrwt beam="2">  1       -4 0.85945604E-01 0.13072110E+04</pdfrwt>
<totfact> 0.15698496E+00</totfact>
</mgrwt>
</event>
<event>
12    5  0.5264288E-008  0.1300289E+04  0.7818608E-02  0.9029336E-01
          1   -1    0    0  501    0  0.00000000000E+00  0.00000000000E+00  0.60774794498E+03  0.60774794498E+03  0.00000000000E+00 0. -1.
         -2   -1    0    0    0  501 -0.00000000000E+00 -0.00000000000E+00 -0.69549841323E+03  0.69549841323E+03  0.00000000000E+00 0.  1.
        -24    2    1    2    0    0  0.22354792467E+03 -0.19779538318E+03 -0.16199191003E+03  0.34883296337E+03  0.79664102247E+02 0.  0.
        254    2    1    2    0    0 -0.22354792467E+03  0.19779538318E+03  0.74241441781E+02  0.95441339483E+03  0.90349125526E+03 0.  0.
         23    2    4    4    0    0  0.27743254400E+03  0.19591981624E+03  0.23387547358E+03  0.42199024974E+03  0.89580370980E+02 0.  0.
         23    2    4    4    0    0 -0.50098046868E+03  0.18755669378E+01 -0.15963403180E+03  0.53242314509E+03  0.83704441762E+02 0.  0.
          1    1    3    3  502    0  0.20851231579E+03 -0.14575597535E+03 -0.12697614952E+03  0.28433278519E+03  0.00000000000E+00 0. -1.
         -2    1    3    3    0  502  0.15035608888E+02 -0.52039407832E+02 -0.35015760513E+02  0.64500178190E+02  0.00000000000E+00 0.  1.
         13    1    5    5    0    0  0.16082434079E+03  0.12522757470E+03  0.87139670432E+02  0.22167484345E+03  0.00000000000E+00 0. -1.
        -13    1    5    5    0    0  0.11660820321E+03  0.70692241543E+02  0.14673580315E+03  0.20031540629E+03  0.00000000000E+00 0.  1.
          3    1    6    6  503    0 -0.42316469891E+03 -0.28658237764E+01 -0.10150682589E+03  0.43517836694E+03  0.00000000000E+00 0. -1.
         -3    1    6    6    0  503 -0.77815769764E+02  0.47413907142E+01 -0.58127205912E+02  0.97244778148E+02  0.00000000000E+00 0.  1.
<mgrwt>
<rscale>  0 0.13002888E+04</rscale>
<asrwt>0</asrwt>
<pdfrwt beam="1">  1        1 0.93499684E-01 0.13002888E+04</pdfrwt>
<pdfrwt beam="2">  1       -2 0.10699976E+00 0.13002888E+04</pdfrwt>
<totfact> 0.20304279E+01</totfact>
</mgrwt>
</event>
<event>
12    5  0.5264288E-008  0.1510815E+04  0.7818608E-02  0.8877293E-01
          1   -1    0    0  501    0  0.00000000000E+00  0.00000000000E+00  0.61769523393E+03  0.61769523393E+03  0.00000000000E+00 0. -1.
         -2   -1    0    0    0  501 -0.00000000000E+00 -0.00000000000E+00 -0.92382206545E+03  0.92382206545E+03  0.00000000000E+00 0.  1.
        -24    2    1    2    0    0 -0.15985954779E+02  0.49008165542E+02 -0.59240872969E+03  0.60010509905E+03  0.80750701879E+02 0.  0.
        254    2    1    2    0    0  0.15985954779E+02 -0.49008165542E+02  0.28628189817E+03  0.94141220033E+03  0.89534476861E+03 0.  0.
         23    2    4    4    0    0 -0.20464547848E+03 -0.26023544647E+03 -0.17153489399E+03  0.38357318907E+03  0.90010621929E+02 0.  0.
         23    2    4    4    0    0  0.22063143326E+03  0.21122728092E+03  0.45781679216E+03  0.55783901126E+03  0.91065656270E+02 0.  0.
          3    1    3    3  502    0  0.11615029107E+02  0.17365368599E+02 -0.32574028491E+02  0.38697961960E+02  0.00000000000E+00 0. -1.
         -4    1    3    3    0  502 -0.27600983887E+02  0.31642796944E+02 -0.55983470120E+03  0.56140713709E+03  0.00000000000E+00 0.  1.
         13    1    5    5    0    0 -0.13395004244E+03 -0.98621353132E+02 -0.74709148122E+02  0.18234648880E+03  0.00000000000E+00 0.  1.
        -13    1    5    5    0    0 -0.70695436038E+02 -0.16161409333E+03 -0.96825745865E+02  0.20122670027E+03  0.00000000000E+00 0. -1.
          4    1    6    6  503    0  0.58826097169E+02  0.95830162551E+02  0.22647165617E+03  0.25285043170E+03  0.00000000000E+00 0. -1.
         -4    1    6    6    0  503  0.16180533609E+03  0.11539711837E+03  0.23134513599E+03  0.30498857956E+03  0.00000000000E+00 0.  1.
<mgrwt>
<rscale>  0 0.15108150E+04</rscale>
<asrwt>0</asrwt>
<pdfrwt beam="1">  1        1 0.95030036E-01 0.15108150E+04</pdfrwt>
<pdfrwt beam="2">  1       -2 0.14212647E+00 0.15108150E+04</pdfrwt>
<totfact> 0.95845049E+00</totfact>
</mgrwt>
</event>
<event>
12    5  0.5264288E-008  0.1506275E+04  0.7818608E-02  0.8880291E-01
         -2   -1    0    0    0  501 -0.00000000000E+00  0.00000000000E+00  0.33615024572E+03  0.33615024572E+03  0.00000000000E+00 0.  1.
          1   -1    0    0  501    0  0.00000000000E+00 -0.00000000000E+00 -0.16873876772E+04  0.16873876772E+04  0.00000000000E+00 0. -1.
        -24    2    1    2    0    0 -0.16837214427E+02 -0.42495463225E+03 -0.13756923312E+03  0.45241527342E+03  0.69888156817E+02 0.  0.
        254    2    1    2    0    0  0.16837214427E+02  0.42495463225E+03 -0.12136681984E+04  0.15711226495E+04  0.90253307571E+03 0.  0.
         23    2    4    4    0    0  0.37607973547E+03  0.70786167108E+02 -0.86701334464E+03  0.95223127831E+03  0.92658613906E+02 0.  0.
         23    2    4    4    0    0 -0.35924252104E+03  0.35416846515E+03 -0.34665485374E+03  0.61889137119E+03  0.91468306444E+02 0.  0.
          3    1    3    3  502    0 -0.17595566360E+02 -0.23194768123E+02 -0.11987662496E+02  0.31485000809E+02  0.00000000000E+00 0. -1.
         -4    1    3    3    0  502  0.75835193344E+00 -0.40175986413E+03 -0.12558157062E+03  0.42093027262E+03  0.00000000000E+00 0.  1.
         13    1    5    5    0    0  0.32107953294E+03  0.39161616546E+02 -0.78115519243E+03  0.84547568465E+03  0.00000000000E+00 0.  1.
        -13    1    5    5    0    0  0.55000202525E+02  0.31624550562E+02 -0.85858152209E+02  0.10675559366E+03  0.00000000000E+00 0. -1.
          1    1    6    6  503    0 -0.42392880726E+02  0.89011936973E+02 -0.81995429849E+02  0.12823233514E+03  0.00000000000E+00 0. -1.
         -1    1    6    6    0  503 -0.31684964032E+03  0.26515652817E+03 -0.26465942389E+03  0.49065903605E+03  0.00000000000E+00 0.  1.
<mgrwt>
<rscale>  0 0.15062746E+04</rscale>
<asrwt>0</asrwt>
<pdfrwt beam="1">  1        1 0.25959810E+00 0.15062746E+04</pdfrwt>
<pdfrwt beam="2">  1       -2 0.51715423E-01 0.15062746E+04</pdfrwt>
<totfact> 0.14569484E+01</totfact>
</mgrwt>
</event>
<event>
12    5  0.5264288E-008  0.2224058E+04  0.7818608E-02  0.8508481E-01
          1   -1    0    0  501    0  0.00000000000E+00  0.00000000000E+00  0.16468852108E+04  0.16468852108E+04  0.00000000000E+00 0. -1.
         -2   -1    0    0    0  501 -0.00000000000E+00 -0.00000000000E+00 -0.75087723395E+03  0.75087723395E+03  0.00000000000E+00 0.  1.
        -24    2    1    2    0    0  0.32754772275E+03 -0.19033305226E+03 -0.53695346239E+03  0.66197593840E+03  0.79868271448E+02 0.  0.
        254    2    1    2    0    0 -0.32754772275E+03  0.19033305226E+03  0.14329614393E+04  0.17357865064E+04  0.90336157093E+03 0.  0.
         23    2    4    4    0    0 -0.22251134149E+03 -0.25215994659E+03  0.16384394433E+03  0.38455565275E+03  0.89119449109E+02 0.  0.
         23    2    4    4    0    0 -0.10503638126E+03  0.44249299885E+03  0.12691174949E+04  0.13512308536E+04  0.91284765645E+02 0.  0.
          1    1    3    3  502    0  0.76115084768E+02 -0.12274746917E+02 -0.82371179056E+02  0.11282369733E+03  0.00000000000E+00 0. -1.
         -2    1    3    3    0  502  0.25143263798E+03 -0.17805830535E+03 -0.45458228333E+03  0.54915224106E+03  0.00000000000E+00 0.  1.
         13    1    5    5    0    0 -0.18352539788E+03 -0.18426548107E+03  0.16169188740E+03  0.30623455983E+03  0.00000000000E+00 0. -1.
        -13    1    5    5    0    0 -0.38985943611E+02 -0.67894465515E+02  0.21520569312E+01  0.78321092918E+02  0.00000000000E+00 0.  1.
          1    1    6    6  503    0  0.83838663553E+01  0.82559166175E+02  0.17089073306E+03  0.18997354495E+03  0.00000000000E+00 0. -1.
         -1    1    6    6    0  503 -0.11342024762E+03  0.35993383268E+03  0.10982267619E+04  0.11612573087E+04  0.00000000000E+00 0.  1.
<mgrwt>
<rscale>  0 0.22240581E+04</rscale>
<asrwt>0</asrwt>
<pdfrwt beam="1">  1        1 0.25336695E+00 0.22240581E+04</pdfrwt>
<pdfrwt beam="2">  1       -2 0.11551958E+00 0.22240581E+04</pdfrwt>
<totfact> 0.24142954E+00</totfact>
</mgrwt>
</event>
<event>
12    5  0.5264288E-008  0.1152001E+04  0.7818608E-02  0.9155940E-01
         -2   -1    0    0    0  501 -0.00000000000E+00  0.00000000000E+00  0.82250337055E+03  0.82250337055E+03  0.00000000000E+00 0.  1.
          1   -1    0    0  501    0  0.00000000000E+00 -0.00000000000E+00 -0.40337409736E+03  0.40337409736E+03  0.00000000000E+00 0. -1.
        -24    2    1    2    0    0 -0.21497575404E+03 -0.29029603683E+02  0.10490653018E+02  0.23101972087E+03  0.78757634019E+02 0.  0.
        254    2    1    2    0    0  0.21497575404E+03  0.29029603683E+02  0.40863862017E+03  0.99485774704E+03  0.88073782832E+03 0.  0.
         23    2    4    4    0    0 -0.55166622353E+02  0.31035228931E+03 -0.10407284836E+03  0.34398981371E+03  0.90199414998E+02 0.  0.
         23    2    4    4    0    0  0.27014237639E+03 -0.28132268563E+03  0.51271146853E+03  0.65086793334E+03  0.92933630670E+02 0.  0.
          1    1    3    3  502    0 -0.18599686035E+03 -0.51869932385E+02  0.15810468659E+02  0.19374027167E+03  0.00000000000E+00 0. -1.
         -2    1    3    3    0  502 -0.28978893686E+02  0.22840328702E+02 -0.53198156409E+01  0.37279449204E+02  0.00000000000E+00 0.  1.
         13    1    5    5    0    0 -0.47288416455E+00  0.22652959141E+03 -0.85873291042E+02  0.24226040023E+03  0.00000000000E+00 0. -1.
        -13    1    5    5    0    0 -0.54693738188E+02  0.83822697898E+02 -0.18199557321E+02  0.10172941348E+03  0.00000000000E+00 0.  1.
          1    1    6    6  503    0  0.60754201176E+02 -0.11445078133E+03  0.20975765297E+03  0.24655288943E+03  0.00000000000E+00 0. -1.
         -1    1    6    6    0  503  0.20938817522E+03 -0.16687190430E+03  0.30295381556E+03  0.40431504391E+03  0.00000000000E+00 0.  1.
<mgrwt>
<rscale>  0 0.11520010E+04</rscale>
<asrwt>0</asrwt>
<pdfrwt beam="1">  1        1 0.62057554E-01 0.11520010E+04</pdfrwt>
<pdfrwt beam="2">  1       -2 0.12653898E+00 0.11520010E+04</pdfrwt>
<totfact> 0.23918562E+01</totfact>
</mgrwt>
</event>
<event>
12    5  0.5264288E-008  0.3105291E+04  0.7818608E-02  0.8214287E-01
         -4   -1    0    0    0  501 -0.00000000000E+00  0.00000000000E+00  0.23941386902E+04  0.23941386902E+04  0.00000000000E+00 0.  1.
          3   -1    0    0  501    0  0.00000000000E+00 -0.00000000000E+00 -0.10069206761E+04  0.10069206761E+04  0.00000000000E+00 0. -1.
        -24    2    1    2    0    0 -0.95709753534E+03 -0.46045989099E+02  0.17807796567E+04  0.20238597061E+04  0.81706786699E+02 0.  0.
        254    2    1    2    0    0  0.95709753534E+03  0.46045989099E+02 -0.39356164258E+03  0.13771996602E+04  0.90754185160E+03 0.  0.
         23    2    4    4    0    0  0.11167409083E+04  0.12367400298E+02 -0.40202477198E+03  0.11903675757E+04  0.89932413606E+02 0.  0.
         23    2    4    4    0    0 -0.15964337299E+03  0.33678588801E+02  0.84631294085E+01  0.18683208456E+03  0.90633047943E+02 0.  0.
          3    1    3    3  502    0 -0.99236683916E+02 -0.27092084585E+02  0.16708660424E+03  0.19621374518E+03  0.00000000000E+00 0. -1.
         -4    1    3    3    0  502 -0.85786085143E+03 -0.18953904514E+02  0.16136930525E+04  0.18276459609E+04  0.00000000000E+00 0.  1.
         13    1    5    5    0    0  0.23745995152E+03  0.31866671619E+02 -0.11022110096E+03  0.26372600257E+03  0.00000000000E+00 0. -1.
        -13    1    5    5    0    0  0.87928095681E+03 -0.19499271320E+02 -0.29180367103E+03  0.92664157311E+03  0.00000000000E+00 0.  1.
          1    1    6    6  503    0 -0.74186480137E+02 -0.21260775639E+02  0.30317900626E+02  0.82914591684E+02  0.00000000000E+00 0. -1.
         -1    1    6    6    0  503 -0.85456892853E+02  0.54939364439E+02 -0.21854771217E+02  0.10391749288E+03  0.00000000000E+00 0.  1.
<mgrwt>
<rscale>  0 0.31052908E+04</rscale>
<asrwt>0</asrwt>
<pdfrwt beam="1">  1        3 0.15491087E+00 0.31052908E+04</pdfrwt>
<pdfrwt beam="2">  1       -4 0.36832903E+00 0.31052908E+04</pdfrwt>
<totfact> 0.64000427E-03</totfact>
</mgrwt>
</event>
<event>
12    5  0.5264288E-008  0.1569872E+04  0.7818608E-02  0.8839274E-01
         -2   -1    0    0    0  501 -0.00000000000E+00  0.00000000000E+00  0.10741728295E+04  0.10741728295E+04  0.00000000000E+00 0.  1.
          1   -1    0    0  501    0  0.00000000000E+00 -0.00000000000E+00 -0.57358050143E+03  0.57358050143E+03  0.00000000000E+00 0. -1.
        -24    2    1    2    0    0 -0.35230458371E+03 -0.35037404653E+02  0.56237046746E+03  0.66893323309E+03  0.76583211096E+02 0.  0.
        254    2    1    2    0    0  0.35230458371E+03  0.35037404653E+02 -0.61778139377E+02  0.97882009787E+03  0.91045379128E+03 0.  0.
         23    2    4    4    0    0  0.64887324176E+03  0.46637284459E+02 -0.10751824651E+03  0.66558330711E+03  0.90716289590E+02 0.  0.
         23    2    4    4    0    0 -0.29656865805E+03 -0.11599879805E+02  0.45740107134E+02  0.31323679075E+03  0.89093229426E+02 0.  0.
          3    1    3    3  502    0 -0.53423999632E+01  0.51443892300E+01  0.61101971697E+00  0.74417284961E+01  0.00000000000E+00 0. -1.
         -4    1    3    3    0  502 -0.34696218375E+03 -0.40181793883E+02  0.56175944775E+03  0.66149150459E+03  0.00000000000E+00 0.  1.
         13    1    5    5    0    0  0.22406029317E+02 -0.79247758422E+01  0.10128036335E+02  0.25834266816E+02  0.00000000000E+00 0. -1.
        -13    1    5    5    0    0  0.62646721245E+03  0.54562060301E+02 -0.11764628285E+03  0.63974904030E+03  0.00000000000E+00 0.  1.
          2    1    6    6  503    0 -0.14750001838E+03 -0.50349074519E+02  0.23041195279E+02  0.15755056778E+03  0.00000000000E+00 0. -1.
         -2    1    6    6    0  503 -0.14906863968E+03  0.38749194714E+02  0.22698911855E+02  0.15568622298E+03  0.00000000000E+00 0.  1.
<mgrwt>
<rscale>  0 0.15698721E+04</rscale>
<asrwt>0</asrwt>
<pdfrwt beam="1">  1        1 0.88243155E-01 0.15698721E+04</pdfrwt>
<pdfrwt beam="2">  1       -2 0.16525736E+00 0.15698721E+04</pdfrwt>
<totfact> 0.70842302E+00</totfact>
</mgrwt>
</event>
<event>
12    5  0.5264288E-008  0.1729645E+04  0.7818608E-02  0.8744635E-01
          1   -1    0    0  501    0  0.00000000000E+00  0.00000000000E+00  0.14530411176E+04  0.14530411176E+04  0.00000000000E+00 0. -1.
         -2   -1    0    0    0  501 -0.00000000000E+00 -0.00000000000E+00 -0.51472574075E+03  0.51472574075E+03  0.00000000000E+00 0.  1.
        -24    2    1    2    0    0 -0.69476821226E+02  0.51300973367E+03 -0.53001267136E+02  0.52659048007E+03  0.80513252699E+02 0.  0.
        254    2    1    2    0    0  0.69476821226E+02 -0.51300973367E+03  0.99131664396E+03  0.14411763783E+04  0.90899650667E+03 0.  0.
         23    2    4    4    0    0 -0.13147554844E+03 -0.44123891587E+03  0.50424205229E+02  0.47209732841E+03  0.91409443230E+02 0.  0.
         23    2    4    4    0    0  0.20095236966E+03 -0.71770817802E+02  0.94089243873E+03  0.96907904984E+03  0.91119253863E+02 0.  0.
          3    1    3    3  502    0 -0.46463900524E+02  0.22219642832E+03  0.13431092136E+02  0.22739951857E+03  0.00000000000E+00 0. -1.
         -4    1    3    3    0  502 -0.23012920702E+02  0.29081330535E+03 -0.66432359273E+02  0.29919096151E+03  0.00000000000E+00 0.  1.
         13    1    5    5    0    0 -0.38084687337E+02 -0.27560571489E+03  0.45240669692E+02  0.28187882447E+03  0.00000000000E+00 0. -1.
        -13    1    5    5    0    0 -0.93390861100E+02 -0.16563320097E+03  0.51835355369E+01  0.19021850394E+03  0.00000000000E+00 0.  1.
          4    1    6    6  503    0  0.11059990610E+03 -0.37929450334E+01  0.59411229301E+03  0.60433115290E+03  0.00000000000E+00 0. -1.
         -4    1    6    6    0  503  0.90352463563E+02 -0.67977872768E+02  0.34678014572E+03  0.36474789694E+03  0.00000000000E+00 0.  1.
<mgrwt>
<rscale>  0 0.17296447E+04</rscale>
<asrwt>0</asrwt>
<pdfrwt beam="1">  1        1 0.22354479E+00 0.17296447E+04</pdfrwt>
<pdfrwt beam="2">  1       -2 0.79188576E-01 0.17296447E+04</pdfrwt>
<totfact> 0.83087888E+00</totfact>
</mgrwt>
</event>
<event>
12    5  0.5264288E-008  0.1809272E+04  0.7818608E-02  0.8701384E-01
         -2   -1    0    0    0  501 -0.00000000000E+00  0.00000000000E+00  0.80189789443E+03  0.80189789443E+03  0.00000000000E+00 0.  1.
          1   -1    0    0  501    0  0.00000000000E+00 -0.00000000000E+00 -0.10205368292E+04  0.10205368292E+04  0.00000000000E+00 0. -1.
        -24    2    1    2    0    0 -0.38231182473E+03 -0.54660766097E+03 -0.13468862542E+03  0.68560250859E+03  0.83471597633E+02 0.  0.
        254    2    1    2    0    0  0.38231182473E+03  0.54660766097E+03 -0.83950309379E+02  0.11368322151E+04  0.91673200249E+03 0.  0.
         23    2    4    4    0    0  0.79418361460E+01  0.66965727403E+03 -0.21871004645E+03  0.71051108725E+03  0.92130251632E+02 0.  0.
         23    2    4    4    0    0  0.37436998858E+03 -0.12304961306E+03  0.13475973707E+03  0.42632112781E+03  0.91079205379E+02 0.  0.
          1    1    3    3  502    0 -0.38502473406E+03 -0.53810066180E+03 -0.13831680653E+03  0.67596442734E+03  0.00000000000E+00 0. -1.
         -2    1    3    3    0  502  0.27129093287E+01 -0.85069991727E+01  0.36281811162E+01  0.96380812490E+01  0.00000000000E+00 0.  1.
         13    1    5    5    0    0 -0.31618848913E+01  0.65030896808E+03 -0.22358105028E+03  0.68767742258E+03  0.00000000000E+00 0.  1.
        -13    1    5    5    0    0  0.11103721037E+02  0.19348305957E+02  0.48710038317E+01  0.22833664678E+02  0.00000000000E+00 0. -1.
          3    1    6    6  503    0  0.83354010499E+02  0.89524300031E+01  0.40832899112E+02  0.93248928783E+02  0.00000000000E+00 0. -1.
         -3    1    6    6    0  503  0.29101597808E+03 -0.13200204306E+03  0.93926837956E+02  0.33307219902E+03  0.00000000000E+00 0.  1.
<mgrwt>
<rscale>  0 0.18092720E+04</rscale>
<asrwt>0</asrwt>
<pdfrwt beam="1">  1        1 0.15700567E+00 0.18092720E+04</pdfrwt>
<pdfrwt beam="2">  1       -2 0.12336891E+00 0.18092720E+04</pdfrwt>
<totfact> 0.59733588E+00</totfact>
</mgrwt>
</event>
<event>
12    5  0.5264288E-008  0.1741671E+04  0.7818608E-02  0.8737948E-01
         -2   -1    0    0    0  501 -0.00000000000E+00  0.00000000000E+00  0.95402070195E+03  0.95402070195E+03  0.00000000000E+00 0.  1.
          1   -1    0    0  501    0  0.00000000000E+00 -0.00000000000E+00 -0.79490335687E+03  0.79490335687E+03  0.00000000000E+00 0. -1.
        -24    2    1    2    0    0  0.18645559852E+03  0.53946618841E+03  0.36258844797E+03  0.68089820992E+03  0.79765475073E+02 0.  0.
        254    2    1    2    0    0 -0.18645559852E+03 -0.53946618841E+03 -0.20347110289E+03  0.10680258489E+04  0.87948238501E+03 0.  0.
         23    2    4    4    0    0 -0.38969822738E+03 -0.61858325623E+03  0.28388466849E+02  0.73697658431E+03  0.88423003022E+02 0.  0.
         23    2    4    4    0    0  0.20324262886E+03  0.79117067819E+02 -0.23185956974E+03  0.33104926458E+03  0.90926777644E+02 0.  0.
          1    1    3    3  502    0  0.84521820788E+01  0.49745409158E+02  0.91767522951E+01  0.51286039980E+02  0.00000000000E+00 0. -1.
         -2    1    3    3    0  502  0.17800341644E+03  0.48972077925E+03  0.35341169568E+03  0.62961216994E+03  0.00000000000E+00 0.  1.
         13    1    5    5    0    0 -0.36137377552E+03 -0.54833157896E+03  0.18195359196E+01  0.65670528917E+03  0.00000000000E+00 0. -1.
        -13    1    5    5    0    0 -0.28324451862E+02 -0.70251677275E+02  0.26568930930E+02  0.80271295143E+02  0.00000000000E+00 0.  1.
          3    1    6    6  503    0  0.32447440494E+02  0.85269831511E+01 -0.95952493643E+02  0.10164854585E+03  0.00000000000E+00 0. -1.
         -3    1    6    6    0  503  0.17079518837E+03  0.70590084668E+02 -0.13590707610E+03  0.22940071873E+03  0.00000000000E+00 0.  1.
<mgrwt>
<rscale>  0 0.17416708E+04</rscale>
<asrwt>0</asrwt>
<pdfrwt beam="1">  1        1 0.12229283E+00 0.17416708E+04</pdfrwt>
<pdfrwt beam="2">  1       -2 0.14677241E+00 0.17416708E+04</pdfrwt>
<totfact> 0.58867623E+00</totfact>
</mgrwt>
</event>
<event>
12    5  0.5264288E-008  0.1246130E+04  0.7818608E-02  0.9073411E-01
          1   -1    0    0  501    0  0.00000000000E+00  0.00000000000E+00  0.19092485786E+04  0.19092485786E+04  0.00000000000E+00 0. -1.
         -4   -1    0    0    0  501 -0.00000000000E+00 -0.00000000000E+00 -0.20333124674E+03  0.20333124674E+03  0.00000000000E+00 0.  1.
        -24    2    1    2    0    0  0.24034863027E+03 -0.15676852032E+03  0.30175366011E+03  0.42395323210E+03  0.79606774740E+02 0.  0.
        254    2    1    2    0    0 -0.24034863027E+03  0.15676852032E+03  0.14041636717E+04  0.16886265932E+04  0.89299514066E+03 0.  0.
         23    2    4    4    0    0  0.28061082659E+03  0.16001266065E+03  0.24966041445E+03  0.41865297528E+03  0.92701152071E+02 0.  0.
         23    2    4    4    0    0 -0.52095945687E+03 -0.32441403321E+01  0.11545032573E+04  0.12699736179E+04  0.92444248227E+02 0.  0.
          1    1    3    3  502    0  0.17110685034E+02  0.92906709355E+01  0.17164532488E+02  0.25955987446E+02  0.00000000000E+00 0. -1.
         -2    1    3    3    0  502  0.22323794524E+03 -0.16605919126E+03  0.28458912762E+03  0.39799724466E+03  0.00000000000E+00 0.  1.
         13    1    5    5    0    0  0.27338285344E+03  0.16023694265E+03  0.25725995721E+03  0.40816264886E+03  0.00000000000E+00 0.  1.
        -13    1    5    5    0    0  0.72279731511E+01 -0.22428199433E+00 -0.75995427527E+01  0.10490326417E+02  0.00000000000E+00 0. -1.
          3    1    6    6  503    0 -0.14880613511E+03 -0.32824907002E+01  0.43777456360E+03  0.46238577954E+03  0.00000000000E+00 0. -1.
         -3    1    6    6    0  503 -0.37215332176E+03  0.38350368147E-01  0.71672869367E+03  0.80758783838E+03  0.00000000000E+00 0.  1.
<mgrwt>
<rscale>  0 0.12461298E+04</rscale>
<asrwt>0</asrwt>
<pdfrwt beam="1">  1        1 0.29373054E+00 0.12461298E+04</pdfrwt>
<pdfrwt beam="2">  1       -4 0.31281732E-01 0.12461298E+04</pdfrwt>
<totfact> 0.16679587E+01</totfact>
</mgrwt>
</event>
<event>
12    5  0.5264288E-008  0.1521740E+04  0.7818608E-02  0.8870124E-01
         -2   -1    0    0    0  501 -0.00000000000E+00  0.00000000000E+00  0.27460656640E+03  0.27460656640E+03  0.00000000000E+00 0.  1.
          1   -1    0    0  501    0  0.00000000000E+00 -0.00000000000E+00 -0.21081906487E+04  0.21081906487E+04  0.00000000000E+00 0. -1.
        -24    2    1    2    0    0  0.11269713563E+03  0.29271993072E+03 -0.11320582861E+04  0.11774011458E+04  0.79573192332E+02 0.  0.
        254    2    1    2    0    0 -0.11269713563E+03 -0.29271993072E+03 -0.70152579620E+03  0.12053960692E+04  0.92868489746E+03 0.  0.
         23    2    4    4    0    0 -0.46585494608E+03 -0.26636824487E+03 -0.63081185097E+03  0.83286961516E+03  0.88177842242E+02 0.  0.
         23    2    4    4    0    0  0.35315781045E+03 -0.26351685847E+02 -0.70713945229E+02  0.37252645408E+03  0.91436570951E+02 0.  0.
          3    1    3    3  502    0  0.33041362502E+02  0.19177626921E+03 -0.71041844898E+03  0.73658960196E+03  0.00000000000E+00 0. -1.
         -4    1    3    3    0  502  0.79655773126E+02  0.10094366151E+03 -0.42163983707E+03  0.44081154385E+03  0.00000000000E+00 0.  1.
         13    1    5    5    0    0 -0.41724633484E+03 -0.20474098856E+03 -0.55256234176E+03  0.72203775377E+03  0.00000000000E+00 0. -1.
        -13    1    5    5    0    0 -0.48608611236E+02 -0.61627256312E+02 -0.78249509214E+02  0.11083186139E+03  0.00000000000E+00 0.  1.
          3    1    6    6  503    0  0.20556628953E+03 -0.56472599573E+02 -0.22507462576E+02  0.21436706782E+03  0.00000000000E+00 0. -1.
         -3    1    6    6    0  503  0.14759152092E+03  0.30120913726E+02 -0.48206482653E+02  0.15815938625E+03  0.00000000000E+00 0.  1.
<mgrwt>
<rscale>  0 0.15217398E+04</rscale>
<asrwt>0</asrwt>
<pdfrwt beam="1">  1        1 0.32433702E+00 0.15217398E+04</pdfrwt>
<pdfrwt beam="2">  1       -2 0.42247165E-01 0.15217398E+04</pdfrwt>
<totfact> 0.11337257E+01</totfact>
</mgrwt>
</event>
<event>
12    5  0.5264288E-008  0.2071840E+04  0.7818608E-02  0.8573751E-01
          1   -1    0    0  501    0  0.00000000000E+00  0.00000000000E+00  0.15640614854E+04  0.15640614854E+04  0.00000000000E+00 0. -1.
         -2   -1    0    0    0  501 -0.00000000000E+00 -0.00000000000E+00 -0.68611739694E+03  0.68611739694E+03  0.00000000000E+00 0.  1.
        -24    2    1    2    0    0  0.43834468057E+03 -0.32587489150E+03 -0.32089943847E+03  0.63856025545E+03  0.80263605309E+02 0.  0.
        254    2    1    2    0    0 -0.43834468057E+03  0.32587489150E+03  0.11988435269E+04  0.16116186269E+04  0.92830398714E+03 0.  0.
         23    2    4    4    0    0  0.20444066969E+03  0.22093963341E+03  0.75628900283E+03  0.81912151735E+03  0.91524288369E+02 0.  0.
         23    2    4    4    0    0 -0.64278535026E+03  0.10493525810E+03  0.44255452408E+03  0.79249710951E+03  0.89513948067E+02 0.  0.
          1    1    3    3  502    0  0.17654797125E+03 -0.89198373836E+02 -0.94073458589E+02  0.21903276389E+03  0.00000000000E+00 0. -1.
         -4    1    3    3    0  502  0.26179670932E+03 -0.23667651767E+03 -0.22682597988E+03  0.41952749156E+03  0.00000000000E+00 0.  1.
         13    1    5    5    0    0  0.34481348811E+02  0.58867300078E-01  0.61290159865E+02  0.70323897628E+02  0.00000000000E+00 0. -1.
        -13    1    5    5    0    0  0.16995932088E+03  0.22088076611E+03  0.69499884296E+03  0.74879761973E+03  0.00000000000E+00 0.  1.
          4    1    6    6  503    0 -0.36277159256E+03  0.18283857539E+02  0.26731282830E+03  0.45099188018E+03  0.00000000000E+00 0. -1.
         -4    1    6    6    0  503 -0.28001375770E+03  0.86651400560E+02  0.17524169578E+03  0.34150522933E+03  0.00000000000E+00 0.  1.
<mgrwt>
<rscale>  0 0.20718396E+04</rscale>
<asrwt>0</asrwt>
<pdfrwt beam="1">  1        1 0.24062484E+00 0.20718396E+04</pdfrwt>
<pdfrwt beam="2">  1       -2 0.10555652E+00 0.20718396E+04</pdfrwt>
<totfact> 0.34699834E+00</totfact>
</mgrwt>
</event>
<event>
12    5  0.5264288E-008  0.1773209E+04  0.7818608E-02  0.8720678E-01
          1   -1    0    0  501    0  0.00000000000E+00  0.00000000000E+00  0.36714080579E+03  0.36714080579E+03  0.00000000000E+00 0. -1.
         -2   -1    0    0    0  501 -0.00000000000E+00 -0.00000000000E+00 -0.21410514465E+04  0.21410514465E+04  0.00000000000E+00 0.  1.
        -24    2    1    2    0    0  0.54779139278E+03  0.34211678204E+03 -0.85319798960E+03  0.10729925155E+04  0.79036866842E+02 0.  0.
        254    2    1    2    0    0 -0.54779139278E+03 -0.34211678204E+03 -0.92071265108E+03  0.14351997368E+04  0.89160932923E+03 0.  0.
         23    2    4    4    0    0 -0.27192673299E+03 -0.50658390726E+03 -0.15866114130E+03  0.60342029137E+03  0.91494737926E+02 0.  0.
         23    2    4    4    0    0 -0.27586465979E+03  0.16446712522E+03 -0.76205150978E+03  0.83177944540E+03  0.89352092455E+02 0.  0.
          1    1    3    3  502    0  0.90707359634E+02  0.45470059815E+02 -0.18279840263E+03  0.20907081919E+03  0.00000000000E+00 0. -1.
         -2    1    3    3    0  502  0.45708403315E+03  0.29664672222E+03 -0.67039958697E+03  0.86392169632E+03  0.00000000000E+00 0.  1.
         13    1    5    5    0    0 -0.20563506402E+03 -0.34465625174E+03 -0.14925843155E+03  0.42819597243E+03  0.00000000000E+00 0. -1.
        -13    1    5    5    0    0 -0.66291668974E+02 -0.16192765552E+03 -0.94027097555E+01  0.17522431894E+03  0.00000000000E+00 0.  1.
          1    1    6    6  503    0 -0.12157729020E+02  0.38776487582E+02 -0.77708242786E+02  0.87692630027E+02  0.00000000000E+00 0. -1.
         -1    1    6    6    0  503 -0.26370693077E+03  0.12569063763E+03 -0.68434326699E+03  0.74408681537E+03  0.00000000000E+00 0.  1.
<mgrwt>
<rscale>  0 0.17732088E+04</rscale>
<asrwt>0</asrwt>
<pdfrwt beam="1">  1        1 0.56483200E-01 0.17732088E+04</pdfrwt>
<pdfrwt beam="2">  1       -2 0.32939254E+00 0.17732088E+04</pdfrwt>
<totfact> 0.11678942E+00</totfact>
</mgrwt>
</event>
<event>
12    5  0.5264288E-008  0.1625969E+04  0.7818608E-02  0.8804751E-01
          1   -1    0    0  501    0  0.00000000000E+00  0.00000000000E+00  0.66713255783E+03  0.66713255783E+03  0.00000000000E+00 0. -1.
         -2   -1    0    0    0  501 -0.00000000000E+00 -0.00000000000E+00 -0.99072293330E+03  0.99072293330E+03  0.00000000000E+00 0.  1.
        -24    2    1    2    0    0 -0.13198005484E+03 -0.25847853973E+03  0.37883255348E+03  0.48321296273E+03  0.75833853877E+02 0.  0.
        254    2    1    2    0    0  0.13198005484E+03  0.25847853973E+03 -0.70242292896E+03  0.11746425284E+04  0.89563229509E+03 0.  0.
         23    2    4    4    0    0 -0.19622398634E+03  0.42000008673E+03 -0.13114972300E+03  0.49100055755E+03  0.94748994708E+02 0.  0.
         23    2    4    4    0    0  0.32820404117E+03 -0.16152154700E+03 -0.57127320596E+03  0.68364197085E+03  0.84889137519E+02 0.  0.
          1    1    3    3  502    0 -0.13233070863E+03 -0.24219165141E+03  0.37640427212E+03  0.46674231491E+03  0.00000000000E+00 0. -1.
         -2    1    3    3    0  502  0.35065378899E+00 -0.16286888318E+02  0.24282813665E+01  0.16470647819E+02  0.00000000000E+00 0.  1.
         13    1    5    5    0    0 -0.20385415403E+03  0.37734941325E+03 -0.12787046704E+03  0.44754882654E+03  0.00000000000E+00 0. -1.
        -13    1    5    5    0    0  0.76301676977E+01  0.42650673488E+02 -0.32792559599E+01  0.43451731009E+02  0.00000000000E+00 0.  1.
          4    1    6    6  503    0  0.24801525687E+03 -0.12039000647E+03 -0.35601972717E+03  0.45028365220E+03  0.00000000000E+00 0. -1.
         -4    1    6    6    0  503  0.80188784306E+02 -0.41131540530E+02 -0.21525347879E+03  0.23335831865E+03  0.00000000000E+00 0.  1.
<mgrwt>
<rscale>  0 0.16259687E+04</rscale>
<asrwt>0</asrwt>
<pdfrwt beam="1">  1        1 0.10263578E+00 0.16259687E+04</pdfrwt>
<pdfrwt beam="2">  1       -2 0.15241891E+00 0.16259687E+04</pdfrwt>
<totfact> 0.70472904E+00</totfact>
</mgrwt>
</event>
<event>
12    5  0.5264288E-008  0.1295378E+04  0.7818608E-02  0.9033238E-01
          3   -1    0    0  501    0  0.00000000000E+00  0.00000000000E+00  0.38039848244E+03  0.38039848244E+03  0.00000000000E+00 0. -1.
         -4   -1    0    0    0  501 -0.00000000000E+00 -0.00000000000E+00 -0.11027940009E+04  0.11027940009E+04  0.00000000000E+00 0.  1.
        -24    2    1    2    0    0  0.23095789767E+03  0.66540688645E+02 -0.44259978753E+03  0.51062379885E+03  0.84100405987E+02 0.  0.
        254    2    1    2    0    0 -0.23095789767E+03 -0.66540688645E+02 -0.27979573095E+03  0.97256868452E+03  0.89990831827E+03 0.  0.
         23    2    4    4    0    0 -0.11144783368E+02  0.26073720078E+03  0.20275035254E+03  0.34292978006E+03  0.91569834175E+02 0.  0.
         23    2    4    4    0    0 -0.21981311430E+03 -0.32727788942E+03 -0.48254608349E+03  0.62963890446E+03  0.90364844861E+02 0.  0.
          1    1    3    3  502    0  0.83151451700E+02  0.10484847307E+02 -0.83673902159E+02  0.11842895695E+03  0.00000000000E+00 0. -1.
         -2    1    3    3    0  502  0.14780644597E+03  0.56055841338E+02 -0.35892588537E+03  0.39219484189E+03  0.00000000000E+00 0.  1.
         13    1    5    5    0    0 -0.20268018371E+02  0.26545409832E+03  0.19669708509E+03  0.33100817840E+03  0.00000000000E+00 0.  1.
        -13    1    5    5    0    0  0.91232350023E+01 -0.47168975430E+01  0.60532674484E+01  0.11921601660E+02  0.00000000000E+00 0. -1.
          3    1    6    6  503    0 -0.59894582016E+02 -0.83003085769E+02 -0.19289797597E+03  0.21837239371E+03  0.00000000000E+00 0. -1.
         -3    1    6    6    0  503 -0.15991853228E+03 -0.24427480365E+03 -0.28964810752E+03  0.41126651074E+03  0.00000000000E+00 0.  1.
<mgrwt>
<rscale>  0 0.12953782E+04</rscale>
<asrwt>0</asrwt>
<pdfrwt beam="1">  1        3 0.58522844E-01 0.12953782E+04</pdfrwt>
<pdfrwt beam="2">  1       -4 0.16966061E+00 0.12953782E+04</pdfrwt>
<totfact> 0.13648198E+00</totfact>
</mgrwt>
</event>
<event>
12    5  0.5264288E-008  0.2357130E+04  0.7818608E-02  0.8455730E-01
          3   -1    0    0  501    0  0.00000000000E+00  0.00000000000E+00  0.17790536414E+04  0.17790536414E+04  0.00000000000E+00 0. -1.
         -4   -1    0    0    0  501 -0.00000000000E+00 -0.00000000000E+00 -0.78076098830E+03  0.78076098830E+03  0.00000000000E+00 0.  1.
        -24    2    1    2    0    0 -0.22576048176E+03  0.13125793296E+03 -0.62672588807E+03  0.68353053421E+03  0.78944362233E+02 0.  0.
        254    2    1    2    0    0  0.22576048176E+03 -0.13125793296E+03  0.16250185412E+04  0.18762840955E+04  0.90086642062E+03 0.  0.
         23    2    4    4    0    0  0.49939356899E+03 -0.31161520303E+03  0.97165320380E+03  0.11396201178E+04  0.90144844713E+02 0.  0.
         23    2    4    4    0    0 -0.27363308724E+03  0.18035727008E+03  0.65336533742E+03  0.73666397770E+03  0.91562768657E+02 0.  0.
          1    1    3    3  502    0 -0.65867530783E+01  0.30462290816E+02 -0.84373172381E+02  0.89945365058E+02  0.00000000000E+00 0. -1.
         -2    1    3    3    0  502 -0.21917372868E+03  0.10079564214E+03 -0.54235271569E+03  0.59358516915E+03  0.00000000000E+00 0.  1.
         13    1    5    5    0    0  0.30095946550E+03 -0.23502246293E+03  0.59281070556E+03  0.70515011918E+03  0.00000000000E+00 0.  1.
        -13    1    5    5    0    0  0.19843410349E+03 -0.76592740104E+02  0.37884249824E+03  0.43446999866E+03  0.00000000000E+00 0. -1.
          4    1    6    6  503    0 -0.22880777012E+03  0.14356826573E+03  0.59938055885E+03  0.65743585004E+03  0.00000000000E+00 0. -1.
         -4    1    6    6    0  503 -0.44825317115E+02  0.36789004350E+02  0.53984778565E+02  0.79228127658E+02  0.00000000000E+00 0.  1.
<mgrwt>
<rscale>  0 0.23571302E+04</rscale>
<asrwt>0</asrwt>
<pdfrwt beam="1">  1        3 0.27370056E+00 0.23571302E+04</pdfrwt>
<pdfrwt beam="2">  1       -4 0.12011708E+00 0.23571302E+04</pdfrwt>
<totfact> 0.59068922E-02</totfact>
</mgrwt>
</event>
<event>
12    5  0.5264288E-008  0.1616638E+04  0.7818608E-02  0.8810391E-01
         -2   -1    0    0    0  501 -0.00000000000E+00  0.00000000000E+00  0.71087953729E+03  0.71087953729E+03  0.00000000000E+00 0.  1.
          1   -1    0    0  501    0  0.00000000000E+00 -0.00000000000E+00 -0.91911465231E+03  0.91911465231E+03  0.00000000000E+00 0. -1.
        -24    2    1    2    0    0  0.20657774526E+02  0.27911523335E+03  0.40675651906E+03  0.50021067180E+03  0.80173519652E+02 0.  0.
        254    2    1    2    0    0 -0.20657774526E+02 -0.27911523335E+03 -0.61499163408E+03  0.11297835178E+04  0.90546343382E+03 0.  0.
         23    2    4    4    0    0  0.20384863810E+03  0.26878233812E+03 -0.22579812744E+03  0.41593203820E+03  0.90644655135E+02 0.  0.
         23    2    4    4    0    0 -0.22450641263E+03 -0.54789757147E+03 -0.38919350664E+03  0.71385147961E+03  0.86703351708E+02 0.  0.
          3    1    3    3  502    0 -0.13230699844E+01  0.10300739460E+02 -0.19155484425E+01  0.10560543236E+02  0.00000000000E+00 0. -1.
         -4    1    3    3    0  502  0.21980844511E+02  0.26881449389E+03  0.40867206750E+03  0.48965012856E+03  0.00000000000E+00 0.  1.
         13    1    5    5    0    0  0.19614091617E+03  0.24914714186E+03 -0.23316591120E+03  0.39358848997E+03  0.00000000000E+00 0. -1.
        -13    1    5    5    0    0  0.77077219341E+01  0.19635196261E+02  0.73677837681E+01  0.22343548225E+02  0.00000000000E+00 0.  1.
          1    1    6    6  503    0 -0.67731282818E+02 -0.26429389307E+03 -0.15250124656E+03  0.31256266378E+03  0.00000000000E+00 0. -1.
         -1    1    6    6    0  503 -0.15677512981E+03 -0.28360367839E+03 -0.23669226008E+03  0.40128881583E+03  0.00000000000E+00 0.  1.
<mgrwt>
<rscale>  0 0.16166382E+04</rscale>
<asrwt>0</asrwt>
<pdfrwt beam="1">  1        1 0.14140225E+00 0.16166382E+04</pdfrwt>
<pdfrwt beam="2">  1       -2 0.10936608E+00 0.16166382E+04</pdfrwt>
<totfact> 0.98217342E+00</totfact>
</mgrwt>
</event>
<event>
12    5  0.5264288E-008  0.2921191E+04  0.7818608E-02  0.8266600E-01
         -2   -1    0    0    0  501 -0.00000000000E+00  0.00000000000E+00  0.16060943103E+04  0.16060943103E+04  0.00000000000E+00 0.  1.
          1   -1    0    0  501    0  0.00000000000E+00 -0.00000000000E+00 -0.13282778290E+04  0.13282778290E+04  0.00000000000E+00 0. -1.
        -24    2    1    2    0    0  0.39106091698E+03 -0.38526016844E+03  0.13352388991E+04  0.14458522295E+04  0.79194151705E+02 0.  0.
        254    2    1    2    0    0 -0.39106091698E+03  0.38526016844E+03 -0.10574224178E+04  0.14885199098E+04  0.89229777197E+03 0.  0.
         23    2    4    4    0    0  0.28011791528E+03  0.10248230900E+03 -0.34464919903E+03  0.46501919203E+03  0.92147210745E+02 0.  0.
         23    2    4    4    0    0 -0.67117883226E+03  0.28277785944E+03 -0.71277321880E+03  0.10235007177E+04  0.95203545671E+02 0.  0.
          3    1    3    3  502    0  0.75761558465E+02 -0.72218062230E+02  0.34445170698E+03  0.36000311206E+03  0.00000000000E+00 0. -1.
         -4    1    3    3    0  502  0.31529935852E+03 -0.31304210621E+03  0.99078719212E+03  0.10858491174E+04  0.00000000000E+00 0.  1.
         13    1    5    5    0    0  0.12959229614E+03  0.13701737942E+02 -0.19720273739E+03  0.23637009218E+03  0.00000000000E+00 0. -1.
        -13    1    5    5    0    0  0.15052561913E+03  0.88780571063E+02 -0.14744646164E+03  0.22864909985E+03  0.00000000000E+00 0.  1.
          4    1    6    6  503    0 -0.15707036687E+03  0.83306354069E+02 -0.22906105826E+03  0.28996554483E+03  0.00000000000E+00 0. -1.
         -4    1    6    6    0  503 -0.51410846539E+03  0.19947150537E+03 -0.48371216054E+03  0.73353517291E+03  0.00000000000E+00 0.  1.
<mgrwt>
<rscale>  0 0.29211912E+04</rscale>
<asrwt>0</asrwt>
<pdfrwt beam="1">  1        1 0.20435044E+00 0.29211912E+04</pdfrwt>
<pdfrwt beam="2">  1       -2 0.24709143E+00 0.29211912E+04</pdfrwt>
<totfact> 0.43498429E-01</totfact>
</mgrwt>
</event>
<event>
12    5  0.5264288E-008  0.2074219E+04  0.7818608E-02  0.8572686E-01
         -2   -1    0    0    0  501 -0.00000000000E+00  0.00000000000E+00  0.10689043550E+04  0.10689043550E+04  0.00000000000E+00 0.  1.
          1   -1    0    0  501    0  0.00000000000E+00 -0.00000000000E+00 -0.10062606500E+04  0.10062606500E+04  0.00000000000E+00 0. -1.
        -24    2    1    2    0    0 -0.15075463413E+03 -0.49729264884E+03 -0.63556631619E+03  0.82490312751E+03  0.80583430013E+02 0.  0.
        254    2    1    2    0    0  0.15075463413E+03  0.49729264884E+03  0.69821002123E+03  0.12502618776E+04  0.89756926775E+03 0.  0.
         23    2    4    4    0    0 -0.41603067027E+02  0.61131013086E+03  0.12965482326E+03  0.63308774277E+03  0.92513920958E+02 0.  0.
         23    2    4    4    0    0  0.19235770116E+03 -0.11401748202E+03  0.56855519796E+03  0.61717413478E+03  0.87449574675E+02 0.  0.
          1    1    3    3  502    0 -0.15170022156E+03 -0.50009823877E+03 -0.62953464107E+03  0.81818400739E+03  0.00000000000E+00 0. -1.
         -2    1    3    3    0  502  0.94558742140E+00  0.28055899285E+01 -0.60316751179E+01  0.67191201170E+01  0.00000000000E+00 0.  1.
         13    1    5    5    0    0 -0.11724101758E+02  0.94449455377E+01 -0.45306305671E+01  0.15722219041E+02  0.00000000000E+00 0.  1.
        -13    1    5    5    0    0 -0.29878965269E+02  0.60186518532E+03  0.13418545383E+03  0.61736552373E+03  0.00000000000E+00 0. -1.
          4    1    6    6  503    0  0.18073636199E+03 -0.10924849516E+03  0.44055132845E+03  0.48855535944E+03  0.00000000000E+00 0. -1.
         -4    1    6    6    0  503  0.11621339171E+02 -0.47689868611E+01  0.12800386951E+03  0.12861877534E+03  0.00000000000E+00 0.  1.
<mgrwt>
<rscale>  0 0.20742193E+04</rscale>
<asrwt>0</asrwt>
<pdfrwt beam="1">  1        1 0.15480933E+00 0.20742193E+04</pdfrwt>
<pdfrwt beam="2">  1       -2 0.16444682E+00 0.20742193E+04</pdfrwt>
<totfact> 0.28247788E+00</totfact>
</mgrwt>
</event>
<event>
12    5  0.5264288E-008  0.2004046E+04  0.7818608E-02  0.8604731E-01
          1   -1    0    0  501    0  0.00000000000E+00  0.00000000000E+00  0.15738395941E+04  0.15738395941E+04  0.00000000000E+00 0. -1.
         -2   -1    0    0    0  501 -0.00000000000E+00 -0.00000000000E+00 -0.63796231264E+03  0.63796231264E+03  0.00000000000E+00 0.  1.
        -24    2    1    2    0    0  0.18672146750E+02 -0.14168642656E+03 -0.49141519336E+03  0.51776814698E+03  0.78557426287E+02 0.  0.
        254    2    1    2    0    0 -0.18672146750E+02  0.14168642656E+03  0.14272924748E+04  0.16940337598E+04  0.90120079780E+03 0.  0.
         23    2    4    4    0    0 -0.37632687680E+03 -0.57221920251E+02  0.30578734338E+03  0.49662098167E+03  0.90720635510E+02 0.  0.
         23    2    4    4    0    0  0.35765473005E+03  0.19890834681E+03  0.11215051314E+04  0.11974127781E+04  0.92423833015E+02 0.  0.
          3    1    3    3  502    0  0.30081570712E+02 -0.10039836621E+03 -0.22854846091E+03  0.25143415007E+03  0.00000000000E+00 0. -1.
         -4    1    3    3    0  502 -0.11409423962E+02 -0.41288060343E+02 -0.26286673245E+03  0.26633399692E+03  0.00000000000E+00 0.  1.
         13    1    5    5    0    0 -0.18083104772E+03 -0.47083436730E+02  0.20153528662E+03  0.27483302128E+03  0.00000000000E+00 0. -1.
        -13    1    5    5    0    0 -0.19549582908E+03 -0.10138483520E+02  0.10425205676E+03  0.22178796039E+03  0.00000000000E+00 0.  1.
          1    1    6    6  503    0  0.26693718844E+03  0.17324179199E+03  0.76264430150E+03  0.82637431692E+03  0.00000000000E+00 0. -1.
         -1    1    6    6    0  503  0.90717541612E+02  0.25666554823E+02  0.35886082994E+03  0.37103846116E+03  0.00000000000E+00 0.  1.
<mgrwt>
<rscale>  0 0.20040463E+04</rscale>
<asrwt>0</asrwt>
<pdfrwt beam="1">  1        1 0.24212917E+00 0.20040463E+04</pdfrwt>
<pdfrwt beam="2">  1       -2 0.98148049E-01 0.20040463E+04</pdfrwt>
<totfact> 0.40874729E+00</totfact>
</mgrwt>
</event>
<event>
12    5  0.5264288E-008  0.1845254E+04  0.7818608E-02  0.8682597E-01
         -2   -1    0    0    0  501 -0.00000000000E+00  0.00000000000E+00  0.48840873898E+03  0.48840873898E+03  0.00000000000E+00 0.  1.
          1   -1    0    0  501    0  0.00000000000E+00 -0.00000000000E+00 -0.17428853082E+04  0.17428853082E+04  0.00000000000E+00 0. -1.
        -24    2    1    2    0    0 -0.38244656957E+02 -0.40710079535E+03  0.21023493571E+03  0.46664380841E+03  0.79774710125E+02 0.  0.
        254    2    1    2    0    0  0.38244656957E+02  0.40710079535E+03 -0.14647115049E+04  0.17646502387E+04  0.89521894591E+03 0.  0.
         23    2    4    4    0    0  0.25046976906E+03  0.56176870693E+03 -0.63400570730E+03  0.88856285293E+03  0.96236798719E+02 0.  0.
         23    2    4    4    0    0 -0.21222511210E+03 -0.15466791158E+03 -0.83070579759E+03  0.87608738579E+03  0.92170083621E+02 0.  0.
          1    1    3    3  502    0 -0.76155221072E+01 -0.28681475450E+01 -0.28996177941E+01  0.86388790162E+01  0.00000000000E+00 0. -1.
         -2    1    3    3    0  502 -0.30629134850E+02 -0.40423264780E+03  0.21313455351E+03  0.45800492939E+03  0.00000000000E+00 0.  1.
         13    1    5    5    0    0  0.10644091733E+03  0.17391438076E+03 -0.26351199342E+03  0.33318831221E+03  0.00000000000E+00 0. -1.
        -13    1    5    5    0    0  0.14402885173E+03  0.38785432617E+03 -0.37049371388E+03  0.55537454072E+03  0.00000000000E+00 0.  1.
          2    1    6    6  503    0 -0.16003358294E+03 -0.11610888504E+03 -0.47492441440E+03  0.51443679908E+03  0.00000000000E+00 0. -1.
         -2    1    6    6    0  503 -0.52191529157E+02 -0.38559026539E+02 -0.35578138319E+03  0.36165058671E+03  0.00000000000E+00 0.  1.
<mgrwt>
<rscale>  0 0.18452538E+04</rscale>
<asrwt>0</asrwt>
<pdfrwt beam="1">  1        1 0.26813620E+00 0.18452538E+04</pdfrwt>
<pdfrwt beam="2">  1       -2 0.75139806E-01 0.18452538E+04</pdfrwt>
<totfact> 0.58464750E+00</totfact>
</mgrwt>
</event>
<event>
12    5  0.5264288E-008  0.1688311E+04  0.7818608E-02  0.8768059E-01
          3   -1    0    0  501    0  0.00000000000E+00  0.00000000000E+00  0.71629216163E+03  0.71629216163E+03  0.00000000000E+00 0. -1.
         -4   -1    0    0    0  501 -0.00000000000E+00 -0.00000000000E+00 -0.99484312059E+03  0.99484312059E+03  0.00000000000E+00 0.  1.
        -24    2    1    2    0    0  0.19989743578E+03  0.14866796060E+03  0.45784673357E+03  0.52731296994E+03  0.79838521327E+02 0.  0.
        254    2    1    2    0    0 -0.19989743578E+03 -0.14866796060E+03 -0.73639769253E+03  0.11838223123E+04  0.89280040219E+03 0.  0.
         23    2    4    4    0    0 -0.81886234056E+02  0.34918913030E+03 -0.14769471017E+03  0.39879423147E+03  0.92653697137E+02 0.  0.
         23    2    4    4    0    0 -0.11801120172E+03 -0.49785709089E+03 -0.58870298236E+03  0.78502808081E+03  0.88935704553E+02 0.  0.
          1    1    3    3  502    0  0.16893840511E+03  0.12713397572E+03  0.43381279732E+03  0.48259379982E+03  0.00000000000E+00 0. -1.
         -2    1    3    3    0  502  0.30959030670E+02  0.21533984876E+02  0.24033936244E+02  0.44719170117E+02  0.00000000000E+00 0.  1.
         13    1    5    5    0    0  0.49555884538E+01  0.17909355052E+02  0.10725141108E+02  0.21455337497E+02  0.00000000000E+00 0.  1.
        -13    1    5    5    0    0 -0.86841822510E+02  0.33127977524E+03 -0.15841985128E+03  0.37733889397E+03  0.00000000000E+00 0. -1.
          4    1    6    6  503    0  0.79785659733E+01 -0.12928014769E+03 -0.15828164145E+03  0.20452406245E+03  0.00000000000E+00 0. -1.
         -4    1    6    6    0  503 -0.12598976770E+03 -0.36857694320E+03 -0.43042134091E+03  0.58050401836E+03  0.00000000000E+00 0.  1.
<mgrwt>
<rscale>  0 0.16883108E+04</rscale>
<asrwt>0</asrwt>
<pdfrwt beam="1">  1        3 0.11019879E+00 0.16883108E+04</pdfrwt>
<pdfrwt beam="2">  1       -4 0.15305279E+00 0.16883108E+04</pdfrwt>
<totfact> 0.42770870E-01</totfact>
</mgrwt>
</event>
<event>
12    5  0.5264288E-008  0.1344615E+04  0.7818608E-02  0.8994915E-01
          1   -1    0    0  501    0  0.00000000000E+00  0.00000000000E+00  0.15469198681E+04  0.15469198681E+04  0.00000000000E+00 0. -1.
         -2   -1    0    0    0  501 -0.00000000000E+00 -0.00000000000E+00 -0.29219179622E+03  0.29219179622E+03  0.00000000000E+00 0.  1.
        -24    2    1    2    0    0 -0.33426848085E+03 -0.14503480603E+03  0.27944213829E+03  0.46594597647E+03  0.79039433753E+02 0.  0.
        254    2    1    2    0    0  0.33426848085E+03  0.14503480603E+03  0.97528593360E+03  0.13731656879E+04  0.89533839514E+03 0.  0.
         23    2    4    4    0    0 -0.23649840721E+03  0.27324711936E+03  0.41923170346E+03  0.56094118466E+03  0.91127968300E+02 0.  0.
         23    2    4    4    0    0  0.57076688806E+03 -0.12821231333E+03  0.55605423014E+03  0.81222450321E+03  0.91099390576E+02 0.  0.
          3    1    3    3  502    0 -0.11259481201E+03 -0.16540429026E+02  0.11320958251E+03  0.16052285524E+03  0.00000000000E+00 0. -1.
         -4    1    3    3    0  502 -0.22167366884E+03 -0.12849437700E+03  0.16623255578E+03  0.30542312123E+03  0.00000000000E+00 0.  1.
         13    1    5    5    0    0 -0.15727089018E+03  0.21228902664E+03  0.35342968968E+03  0.44126331059E+03  0.00000000000E+00 0.  1.
        -13    1    5    5    0    0 -0.79227517030E+02  0.60958092719E+02  0.65802013786E+02  0.11967787407E+03  0.00000000000E+00 0. -1.
          2    1    6    6  503    0  0.36638721929E+03 -0.90584136486E+02  0.29792561350E+03  0.48083755201E+03  0.00000000000E+00 0.  1.
         -2    1    6    6    0  503  0.20437966877E+03 -0.37628176848E+02  0.25812861664E+03  0.33138695120E+03  0.00000000000E+00 0. -1.
<mgrwt>
<rscale>  0 0.13446149E+04</rscale>
<asrwt>0</asrwt>
<pdfrwt beam="1">  1        1 0.23798767E+00 0.13446149E+04</pdfrwt>
<pdfrwt beam="2">  1       -2 0.44952585E-01 0.13446149E+04</pdfrwt>
<totfact> 0.24479371E+01</totfact>
</mgrwt>
</event>
<event>
12    5  0.5264288E-008  0.1719694E+04  0.7818608E-02  0.8750211E-01
          1   -1    0    0  501    0  0.00000000000E+00  0.00000000000E+00  0.95808337756E+03  0.95808337756E+03  0.00000000000E+00 0. -1.
         -2   -1    0    0    0  501 -0.00000000000E+00 -0.00000000000E+00 -0.77168288696E+03  0.77168288696E+03  0.00000000000E+00 0.  1.
        -24    2    1    2    0    0  0.56248909423E+03  0.31853636090E+03  0.93810413350E+02  0.65788106414E+03  0.78407311851E+02 0.  0.
        254    2    1    2    0    0 -0.56248909423E+03 -0.31853636090E+03  0.92590077247E+02  0.10718852004E+04  0.85000327414E+03 0.  0.
         23    2    4    4    0    0 -0.69623926734E+03 -0.20987032656E+02  0.17146002708E+03  0.72324774154E+03  0.92191007329E+02 0.  0.
         23    2    4    4    0    0  0.13375017311E+03 -0.29754932825E+03 -0.78869949831E+02  0.34863745884E+03  0.94355165046E+02 0.  0.
          1    1    3    3  502    0  0.22499488778E+03  0.12347142860E+03 -0.12337765796E+01  0.25665037583E+03  0.00000000000E+00 0. -1.
         -2    1    3    3    0  502  0.33749420645E+03  0.19506493230E+03  0.95044189929E+02  0.40123068831E+03  0.00000000000E+00 0.  1.
         13    1    5    5    0    0 -0.50427616049E+03 -0.52398413959E+02  0.10549302502E+03  0.51785018891E+03  0.00000000000E+00 0.  1.
        -13    1    5    5    0    0 -0.19196310685E+03  0.31411381303E+02  0.65967002063E+02  0.20539755263E+03  0.00000000000E+00 0. -1.
          2    1    6    6  503    0  0.26282548902E+02 -0.16037070160E+03 -0.60514005293E+02  0.17341130051E+03  0.00000000000E+00 0. -1.
         -2    1    6    6    0  503  0.10746762421E+03 -0.13717862665E+03 -0.18355944538E+02  0.17522615833E+03  0.00000000000E+00 0.  1.
<mgrwt>
<rscale>  0 0.17196936E+04</rscale>
<asrwt>0</asrwt>
<pdfrwt beam="1">  1        1 0.14739744E+00 0.17196936E+04</pdfrwt>
<pdfrwt beam="2">  1       -2 0.11872044E+00 0.17196936E+04</pdfrwt>
<totfact> 0.74152677E+00</totfact>
</mgrwt>
</event>
<event>
12    5  0.5401712E-008  0.3070619E+04  0.7818608E-02  0.8223848E-01
          1   -1    0    0  501    0  0.00000000000E+00  0.00000000000E+00  0.10880669870E+04  0.10880669870E+04  0.00000000000E+00 0. -1.
         -2   -1    0    0    0  501 -0.00000000000E+00 -0.00000000000E+00 -0.21663875770E+04  0.21663875770E+04  0.00000000000E+00 0.  1.
        -24    2    1    2    0    0 -0.79643355307E+03 -0.10917619801E+04 -0.81934484139E+02  0.13560746272E+04  0.77294948039E+02 0.  0.
        254    2    1    2    0    0  0.79643355307E+03  0.10917619801E+04 -0.99638610589E+03  0.18983799369E+04  0.88589530258E+03 0.  0.
         23    2    4    4    0    0  0.34926004327E+03  0.16543983323E+03 -0.73063872375E+03  0.83164206964E+03  0.91884009047E+02 0.  0.
         23    2    4    4    0    0  0.44717350980E+03  0.92632214690E+03 -0.26574738214E+03  0.10667378673E+04  0.96286752143E+02 0.  0.
          1    1    3    3  502    0 -0.73270494505E+03 -0.98201415804E+03 -0.92510731711E+02  0.12287255912E+04  0.00000000000E+00 0. -1.
         -2    1    3    3    0  502 -0.63728608023E+02 -0.10974782209E+03  0.10576247572E+02  0.12734903591E+03  0.00000000000E+00 0.  1.
         13    1    5    5    0    0  0.31560492472E+03  0.12043676738E+03 -0.65954729857E+03  0.74102234952E+03  0.00000000000E+00 0. -1.
        -13    1    5    5    0    0  0.33655118551E+02  0.45003065855E+02 -0.71091425182E+02  0.90619720124E+02  0.00000000000E+00 0.  1.
          3    1    6    6  503    0  0.44614233516E+03  0.92197294789E+03 -0.27134188717E+03  0.10595770475E+04  0.00000000000E+00 0. -1.
         -3    1    6    6    0  503  0.10311746408E+01  0.43491990096E+01  0.55945050273E+01  0.71608197622E+01  0.00000000000E+00 0.  1.
<mgrwt>
<rscale>  0 0.30706187E+04</rscale>
<asrwt>0</asrwt>
<pdfrwt beam="1">  1        1 0.16739492E+00 0.30706187E+04</pdfrwt>
<pdfrwt beam="2">  1       -2 0.33329039E+00 0.30706187E+04</pdfrwt>
<totfact> 0.19026553E-01</totfact>
</mgrwt>
</event>
<event>
12    5  0.5264288E-008  0.2908331E+04  0.7818608E-02  0.8270403E-01
          1   -1    0    0  501    0  0.00000000000E+00  0.00000000000E+00  0.25001221267E+04  0.25001221267E+04  0.00000000000E+00 0. -1.
         -2   -1    0    0    0  501 -0.00000000000E+00 -0.00000000000E+00 -0.84579785174E+03  0.84579785174E+03  0.00000000000E+00 0.  1.
        -24    2    1    2    0    0  0.39157810233E+03  0.48345311508E+03 -0.57982268260E+03  0.85413411786E+03  0.79312189077E+02 0.  0.
        254    2    1    2    0    0 -0.39157810233E+03 -0.48345311508E+03  0.22341469576E+04  0.24917858606E+04  0.91133079741E+03 0.  0.
         23    2    4    4    0    0 -0.58960924462E+03 -0.42072262849E+02  0.10274311720E+04  0.11889366403E+04  0.92446660098E+02 0.  0.
         23    2    4    4    0    0  0.19803114230E+03 -0.44138085223E+03  0.12067157856E+04  0.13028492203E+04  0.84968896950E+02 0.  0.
          3    1    3    3  502    0  0.26073716730E+03  0.32857042881E+03 -0.33893107665E+03  0.53927420838E+03  0.00000000000E+00 0. -1.
         -4    1    3    3    0  502  0.13084093502E+03  0.15488268628E+03 -0.24089160595E+03  0.31485990949E+03  0.00000000000E+00 0.  1.
         13    1    5    5    0    0 -0.37396204762E+03  0.10560605161E+02  0.69318027326E+03  0.78769158348E+03  0.00000000000E+00 0. -1.
        -13    1    5    5    0    0 -0.21564719700E+03 -0.52632868010E+02  0.33425089869E+03  0.40124505685E+03  0.00000000000E+00 0.  1.
          3    1    6    6  503    0  0.15790329703E+03 -0.27302739229E+03  0.71188897817E+03  0.77862913213E+03  0.00000000000E+00 0. -1.
         -3    1    6    6    0  503  0.40127845261E+02 -0.16835345995E+03  0.49482680743E+03  0.52422008813E+03  0.00000000000E+00 0.  1.
<mgrwt>
<rscale>  0 0.29083314E+04</rscale>
<asrwt>0</asrwt>
<pdfrwt beam="1">  1        1 0.38463417E+00 0.29083314E+04</pdfrwt>
<pdfrwt beam="2">  1       -2 0.13012275E+00 0.29083314E+04</pdfrwt>
<totfact> 0.44264350E-01</totfact>
</mgrwt>
</event>
<event>
12    5  0.5264288E-008  0.1540130E+04  0.7818608E-02  0.8858197E-01
          1   -1    0    0  501    0  0.00000000000E+00  0.00000000000E+00  0.76459810378E+03  0.76459810378E+03  0.00000000000E+00 0. -1.
         -2   -1    0    0    0  501 -0.00000000000E+00 -0.00000000000E+00 -0.77557114024E+03  0.77557114024E+03  0.00000000000E+00 0.  1.
        -24    2    1    2    0    0 -0.16363806915E+03 -0.15746368820E+03 -0.45472133259E+03  0.51487982137E+03  0.82204071404E+02 0.  0.
        254    2    1    2    0    0  0.16363806915E+03  0.15746368820E+03  0.44374829614E+03  0.10252894227E+04  0.89595402734E+03 0.  0.
         23    2    4    4    0    0  0.50484351254E+03  0.16936349649E+03  0.39414690269E+03  0.66889035825E+03  0.92258139791E+02 0.  0.
         23    2    4    4    0    0 -0.34120544339E+03 -0.11899808286E+02  0.49601393448E+02  0.35639906440E+03  0.89427260038E+02 0.  0.
          1    1    3    3  502    0 -0.71266591726E+02 -0.16817972135E+02 -0.14127636395E+03  0.15912505237E+03  0.00000000000E+00 0. -1.
         -2    1    3    3    0  502 -0.92371477424E+02 -0.14064571607E+03 -0.31344496865E+03  0.35575476899E+03  0.00000000000E+00 0.  1.
         13    1    5    5    0    0  0.17714518178E+03  0.56179445504E+02  0.19364558195E+03  0.26839366038E+03  0.00000000000E+00 0. -1.
        -13    1    5    5    0    0  0.32769833077E+03  0.11318405099E+03  0.20050132074E+03  0.40049669787E+03  0.00000000000E+00 0.  1.
          2    1    6    6  503    0 -0.97834945404E+02  0.36144374676E+02  0.55084756683E+01  0.10444345679E+03  0.00000000000E+00 0. -1.
         -2    1    6    6    0  503 -0.24337049799E+03 -0.48044182962E+02  0.44092917780E+02  0.25195560761E+03  0.00000000000E+00 0.  1.
<mgrwt>
<rscale>  0 0.15401302E+04</rscale>
<asrwt>0</asrwt>
<pdfrwt beam="1">  1        1 0.11763048E+00 0.15401302E+04</pdfrwt>
<pdfrwt beam="2">  1       -2 0.11931864E+00 0.15401302E+04</pdfrwt>
<totfact> 0.10806307E+01</totfact>
</mgrwt>
</event>
<event>
12    5  0.5264288E-008  0.1501154E+04  0.7818608E-02  0.8883686E-01
         -2   -1    0    0    0  501 -0.00000000000E+00  0.00000000000E+00  0.45829645966E+03  0.45829645966E+03  0.00000000000E+00 0.  1.
          1   -1    0    0  501    0  0.00000000000E+00 -0.00000000000E+00 -0.12292602585E+04  0.12292602585E+04  0.00000000000E+00 0. -1.
        -24    2    1    2    0    0  0.20961206761E+03  0.13109965891E+03  0.21084270939E+03  0.33464186338E+03  0.80038672947E+02 0.  0.
        254    2    1    2    0    0 -0.20961206761E+03 -0.13109965891E+03 -0.98180650822E+03  0.13529148548E+04  0.89739079850E+03 0.  0.
         23    2    4    4    0    0 -0.59384694354E+02 -0.27688319342E+03 -0.10686103349E+04  0.11087600908E+04  0.85029679437E+02 0.  0.
         23    2    4    4    0    0 -0.15022737326E+03  0.14578353451E+03  0.86803826718E+02  0.24415476393E+03  0.90860012133E+02 0.  0.
          3    1    3    3  502    0  0.84648264205E+02  0.76359129112E+02  0.52135023084E+02  0.12535591675E+03  0.00000000000E+00 0. -1.
         -4    1    3    3    0  502  0.12496380341E+03  0.54740529798E+02  0.15870768630E+03  0.20928594663E+03  0.00000000000E+00 0.  1.
         13    1    5    5    0    0 -0.79982201442E+02 -0.19084614394E+03 -0.72633424760E+03  0.75523562048E+03  0.00000000000E+00 0. -1.
        -13    1    5    5    0    0  0.20597507089E+02 -0.86037049482E+02 -0.34227608735E+03  0.35352447037E+03  0.00000000000E+00 0.  1.
          3    1    6    6  503    0 -0.40868233259E+02  0.42861377660E+02  0.72037264463E+02  0.93255979197E+02  0.00000000000E+00 0. -1.
         -3    1    6    6    0  503 -0.10935914000E+03  0.10292215685E+03  0.14766562255E+02  0.15089878473E+03  0.00000000000E+00 0.  1.
<mgrwt>
<rscale>  0 0.15011537E+04</rscale>
<asrwt>0</asrwt>
<pdfrwt beam="1">  1        1 0.18911696E+00 0.15011537E+04</pdfrwt>
<pdfrwt beam="2">  1       -2 0.70507148E-01 0.15011537E+04</pdfrwt>
<totfact> 0.15792443E+01</totfact>
</mgrwt>
</event>
<event>
12    5  0.5264288E-008  0.2010118E+04  0.7818608E-02  0.8601905E-01
         -2   -1    0    0    0  501 -0.00000000000E+00  0.00000000000E+00  0.64929039832E+03  0.64929039832E+03  0.00000000000E+00 0.  1.
          1   -1    0    0  501    0  0.00000000000E+00 -0.00000000000E+00 -0.15557657719E+04  0.15557657719E+04  0.00000000000E+00 0. -1.
        -24    2    1    2    0    0 -0.41193356134E+03  0.19073164291E+03 -0.10793014129E+04  0.11733963869E+04  0.76809650607E+02 0.  0.
        254    2    1    2    0    0  0.41193356134E+03 -0.19073164291E+03  0.17282603925E+03  0.10316597834E+04  0.91015671737E+03 0.  0.
         23    2    4    4    0    0  0.56819978726E+03  0.14056026082E+03  0.25729461670E+03  0.64478637009E+03  0.83311212342E+02 0.  0.
         23    2    4    4    0    0 -0.15626622593E+03 -0.33129190373E+03 -0.84468577450E+02  0.38687341326E+03  0.91447462885E+02 0.  0.
          3    1    3    3  502    0 -0.32107934974E+03  0.13149490057E+03 -0.88977908717E+03  0.95503386415E+03  0.00000000000E+00 0. -1.
         -4    1    3    3    0  502 -0.90854211600E+02  0.59236742336E+02 -0.18952232570E+03  0.21836252276E+03  0.00000000000E+00 0.  1.
         13    1    5    5    0    0  0.45942372953E+03  0.11389976984E+03  0.17053103590E+03  0.50311445520E+03  0.00000000000E+00 0. -1.
        -13    1    5    5    0    0  0.10877605774E+03  0.26660490983E+02  0.86763580803E+02  0.14167191489E+03  0.00000000000E+00 0.  1.
          1    1    6    6  503    0 -0.12288236254E+03 -0.25405630046E+03 -0.10352123905E+03  0.30060160639E+03  0.00000000000E+00 0. -1.
         -1    1    6    6    0  503 -0.33383863384E+02 -0.77235603273E+02  0.19052661602E+02  0.86271806875E+02  0.00000000000E+00 0.  1.
<mgrwt>
<rscale>  0 0.20101182E+04</rscale>
<asrwt>0</asrwt>
<pdfrwt beam="1">  1        1 0.23934858E+00 0.20101182E+04</pdfrwt>
<pdfrwt beam="2">  1       -2 0.99890832E-01 0.20101182E+04</pdfrwt>
<totfact> 0.40329482E+00</totfact>
</mgrwt>
</event>
<event>
12    5  0.5264288E-008  0.2036389E+04  0.7818608E-02  0.8589794E-01
         -2   -1    0    0    0  501 -0.00000000000E+00  0.00000000000E+00  0.61714464277E+03  0.61714464277E+03  0.00000000000E+00 0.  1.
          1   -1    0    0  501    0  0.00000000000E+00 -0.00000000000E+00 -0.16798653786E+04  0.16798653786E+04  0.00000000000E+00 0. -1.
        -24    2    1    2    0    0  0.68430913691E+03 -0.36592511729E+03 -0.69152324419E+03  0.10428221525E+04  0.84222670174E+02 0.  0.
        254    2    1    2    0    0 -0.68430913691E+03  0.36592511729E+03 -0.37119749161E+03  0.12541878688E+04  0.91269898994E+03 0.  0.
         23    2    4    4    0    0 -0.64306837065E+03  0.24087774997E+03  0.15005212937E+03  0.70888044756E+03  0.91852205413E+02 0.  0.
         23    2    4    4    0    0 -0.41240766260E+02  0.12504736732E+03 -0.52124962098E+03  0.54530742128E+03  0.91221551475E+02 0.  0.
          1    1    3    3  502    0  0.64107408749E+03 -0.31667282046E+03 -0.63371309008E+03  0.95543180887E+03  0.00000000000E+00 0. -1.
         -2    1    3    3    0  502  0.43235049426E+02 -0.49252296830E+02 -0.57810154112E+02  0.87390343633E+02  0.00000000000E+00 0.  1.
         13    1    5    5    0    0 -0.48392240720E+03  0.20650171673E+03  0.14596650136E+03  0.54601288878E+03  0.00000000000E+00 0.  1.
        -13    1    5    5    0    0 -0.15914596346E+03  0.34376033245E+02  0.40856280138E+01  0.16286755878E+03  0.00000000000E+00 0. -1.
          3    1    6    6  503    0 -0.28243659923E+02  0.13177887967E+03 -0.37790783274E+03  0.40122027304E+03  0.00000000000E+00 0. -1.
         -3    1    6    6    0  503 -0.12997106337E+02 -0.67315123442E+01 -0.14334178825E+03  0.14408714824E+03  0.00000000000E+00 0.  1.
<mgrwt>
<rscale>  0 0.20363889E+04</rscale>
<asrwt>0</asrwt>
<pdfrwt beam="1">  1        1 0.25844083E+00 0.20363889E+04</pdfrwt>
<pdfrwt beam="2">  1       -2 0.94945330E-01 0.20363889E+04</pdfrwt>
<totfact> 0.37274337E+00</totfact>
</mgrwt>
</event>
<event>
12    5  0.5264288E-008  0.1689467E+04  0.7818608E-02  0.8767395E-01
          1   -1    0    0  501    0  0.00000000000E+00  0.00000000000E+00  0.18594451574E+04  0.18594451574E+04  0.00000000000E+00 0. -1.
         -2   -1    0    0    0  501 -0.00000000000E+00 -0.00000000000E+00 -0.38375684711E+03  0.38375684711E+03  0.00000000000E+00 0.  1.
        -24    2    1    2    0    0  0.49048868288E+03  0.20229237353E+03  0.16450859506E+03  0.56184201084E+03  0.84273452979E+02 0.  0.
        254    2    1    2    0    0 -0.49048868288E+03 -0.20229237353E+03  0.13111797152E+04  0.16813599936E+04  0.90899825644E+03 0.  0.
         23    2    4    4    0    0 -0.32582869409E+03  0.30635602385E+02  0.28434603139E+01  0.33918005746E+03  0.89062607685E+02 0.  0.
         23    2    4    4    0    0 -0.16465998879E+03 -0.23292797591E+03  0.13083362549E+04  0.13421799362E+04  0.91295516583E+02 0.  0.
          1    1    3    3  502    0  0.69745642278E+02  0.13265415016E+01  0.90930365729E+01  0.70348401853E+02  0.00000000000E+00 0. -1.
         -2    1    3    3    0  502  0.42074304060E+03  0.20096583203E+03  0.15541555849E+03  0.49149360899E+03  0.00000000000E+00 0.  1.
         13    1    5    5    0    0 -0.24909038142E+03  0.56579674190E+02  0.20554595216E+02  0.25626113446E+03  0.00000000000E+00 0. -1.
        -13    1    5    5    0    0 -0.76738312666E+02 -0.25944071804E+02 -0.17711134902E+02  0.82918923004E+02  0.00000000000E+00 0.  1.
          3    1    6    6  503    0 -0.56184039154E+02 -0.94485241110E+02  0.71241641467E+03  0.72084759481E+03  0.00000000000E+00 0. -1.
         -3    1    6    6    0  503 -0.10847594964E+03 -0.13844273480E+03  0.59591984020E+03  0.62133234136E+03  0.00000000000E+00 0.  1.
<mgrwt>
<rscale>  0 0.16894671E+04</rscale>
<asrwt>0</asrwt>
<pdfrwt beam="1">  1        1 0.28606848E+00 0.16894671E+04</pdfrwt>
<pdfrwt beam="2">  1       -2 0.59039516E-01 0.16894671E+04</pdfrwt>
<totfact> 0.83187913E+00</totfact>
</mgrwt>
</event>
<event>
12    5  0.5264288E-008  0.2153695E+04  0.7818608E-02  0.8537952E-01
          1   -1    0    0  501    0  0.00000000000E+00  0.00000000000E+00  0.21772828492E+04  0.21772828492E+04  0.00000000000E+00 0. -1.
         -2   -1    0    0    0  501 -0.00000000000E+00 -0.00000000000E+00 -0.53259063085E+03  0.53259063085E+03  0.00000000000E+00 0.  1.
        -24    2    1    2    0    0  0.62486952793E+03 -0.21528463903E+03 -0.58536789990E+02  0.66863887617E+03  0.82716311625E+02 0.  0.
        254    2    1    2    0    0 -0.62486952793E+03  0.21528463903E+03  0.17032290083E+04  0.20412346038E+04  0.91040664016E+03 0.  0.
         23    2    4    4    0    0 -0.24039063387E+03 -0.33185825398E+02  0.15132158342E+04  0.15349530394E+04  0.85847052966E+02 0.  0.
         23    2    4    4    0    0 -0.38447889405E+03  0.24847046443E+03  0.19001317413E+03  0.50628156444E+03  0.10322027166E+03 0.  0.
          3    1    3    3  502    0  0.44592084216E+00 -0.57731778525E+01 -0.53104695664E+01  0.78568132808E+01  0.00000000000E+00 0. -1.
         -4    1    3    3    0  502  0.62442360708E+03 -0.20951146118E+03 -0.53226320423E+02  0.66078206289E+03  0.00000000000E+00 0.  1.
         13    1    5    5    0    0 -0.18061373038E+02 -0.15179394204E+02  0.33359324511E+03  0.33442649475E+03  0.00000000000E+00 0.  1.
        -13    1    5    5    0    0 -0.22232926083E+03 -0.18006431194E+02  0.11796225891E+04  0.12005265447E+04  0.00000000000E+00 0. -1.
          2    1    6    6  503    0 -0.34388183699E+03  0.19816288042E+03  0.12883905710E+03  0.41728017880E+03  0.00000000000E+00 0. -1.
         -2    1    6    6    0  503 -0.40597057067E+02  0.50307584008E+02  0.61174117027E+02  0.89001385637E+02  0.00000000000E+00 0.  1.
<mgrwt>
<rscale>  0 0.21536949E+04</rscale>
<asrwt>0</asrwt>
<pdfrwt beam="1">  1        1 0.33496659E+00 0.21536949E+04</pdfrwt>
<pdfrwt beam="2">  1       -2 0.81937021E-01 0.21536949E+04</pdfrwt>
<totfact> 0.23776439E+00</totfact>
</mgrwt>
</event>
<event>
12    5  0.5264288E-008  0.1614291E+04  0.7818608E-02  0.8811817E-01
          1   -1    0    0  501    0  0.00000000000E+00  0.00000000000E+00  0.57911987637E+03  0.57911987637E+03  0.00000000000E+00 0. -1.
         -2   -1    0    0    0  501 -0.00000000000E+00 -0.00000000000E+00 -0.11249544079E+04  0.11249544079E+04  0.00000000000E+00 0.  1.
        -24    2    1    2    0    0 -0.14456442429E+03  0.22162317579E+03 -0.69682916071E+03  0.74930513534E+03  0.76626378129E+02 0.  0.
        254    2    1    2    0    0  0.14456442429E+03 -0.22162317579E+03  0.15099462921E+03  0.95476914889E+03  0.90485857724E+03 0.  0.
         23    2    4    4    0    0  0.36165485075E+03  0.58876456099E+02 -0.21699827802E+03  0.43565954111E+03  0.91925594599E+02 0.  0.
         23    2    4    4    0    0 -0.21709042646E+03 -0.28049963189E+03  0.36799290723E+03  0.51910960778E+03  0.90816894690E+02 0.  0.
          3    1    3    3  502    0 -0.31080651424E+02  0.26094599548E+02 -0.51794842577E+02  0.65800005593E+02  0.00000000000E+00 0. -1.
         -4    1    3    3    0  502 -0.11348377286E+03  0.19552857624E+03 -0.64503431813E+03  0.68350512975E+03  0.00000000000E+00 0.  1.
         13    1    5    5    0    0  0.12328620844E+03  0.46916062986E+02 -0.11899715353E+03  0.17765395775E+03  0.00000000000E+00 0. -1.
        -13    1    5    5    0    0  0.23836864232E+03  0.11960393113E+02 -0.98001124490E+02  0.25800558336E+03  0.00000000000E+00 0.  1.
          1    1    6    6  503    0 -0.18400160046E+03 -0.25467904892E+03  0.27684022914E+03  0.41875830666E+03  0.00000000000E+00 0. -1.
         -1    1    6    6    0  503 -0.33088826005E+02 -0.25820582967E+02  0.91152678099E+02  0.10035130112E+03  0.00000000000E+00 0.  1.
<mgrwt>
<rscale>  0 0.16142905E+04</rscale>
<asrwt>0</asrwt>
<pdfrwt beam="1">  1        1 0.89095367E-01 0.16142905E+04</pdfrwt>
<pdfrwt beam="2">  1       -2 0.17306991E+00 0.16142905E+04</pdfrwt>
<totfact> 0.61227454E+00</totfact>
</mgrwt>
</event>
<event>
12    5  0.5264288E-008  0.1872347E+04  0.7818608E-02  0.8668745E-01
          1   -1    0    0  501    0  0.00000000000E+00  0.00000000000E+00  0.27397458079E+04  0.27397458079E+04  0.00000000000E+00 0. -1.
         -2   -1    0    0    0  501 -0.00000000000E+00 -0.00000000000E+00 -0.31989133992E+03  0.31989133992E+03  0.00000000000E+00 0.  1.
        -24    2    1    2    0    0 -0.50667507154E+03 -0.41445399020E+03  0.13878198268E+04  0.15365409543E+04  0.80140467096E+02 0.  0.
        254    2    1    2    0    0  0.50667507154E+03  0.41445399020E+03  0.10320346412E+04  0.15230961935E+04  0.90897457391E+03 0.  0.
         23    2    4    4    0    0  0.45939914958E+03 -0.18867941445E+03  0.52309953211E+03  0.72722319371E+03  0.92590241916E+02 0.  0.
         23    2    4    4    0    0  0.47275921957E+02  0.60313340465E+03  0.50893510907E+03  0.79587299982E+03  0.91618611563E+02 0.  0.
          3    1    3    3  502    0 -0.26515389666E+03 -0.23209739155E+03  0.83487090551E+03  0.90619270409E+03  0.00000000000E+00 0. -1.
         -4    1    3    3    0  502 -0.24152117488E+03 -0.18235659865E+03  0.55294892129E+03  0.63034825021E+03  0.00000000000E+00 0.  1.
         13    1    5    5    0    0  0.25057593603E+03 -0.90347762189E+02  0.21532715881E+03  0.34251540574E+03  0.00000000000E+00 0. -1.
        -13    1    5    5    0    0  0.20882321356E+03 -0.98331652263E+02  0.30777237330E+03  0.38470778797E+03  0.00000000000E+00 0.  1.
          4    1    6    6  503    0  0.71568770202E+00 -0.25407670025E+01  0.82630963638E+01  0.86744721664E+01  0.00000000000E+00 0. -1.
         -4    1    6    6    0  503  0.46560234254E+02  0.60567417166E+03  0.50067201271E+03  0.78719852765E+03  0.00000000000E+00 0.  1.
<mgrwt>
<rscale>  0 0.18723471E+04</rscale>
<asrwt>0</asrwt>
<pdfrwt beam="1">  1        1 0.42149934E+00 0.18723471E+04</pdfrwt>
<pdfrwt beam="2">  1       -2 0.49214054E-01 0.18723471E+04</pdfrwt>
<totfact> 0.29662691E+00</totfact>
</mgrwt>
</event>
<event>
12    5  0.5264288E-008  0.1878651E+04  0.7818608E-02  0.8665557E-01
          1   -1    0    0  501    0  0.00000000000E+00  0.00000000000E+00  0.22132071174E+04  0.22132071174E+04  0.00000000000E+00 0. -1.
         -2   -1    0    0    0  501 -0.00000000000E+00 -0.00000000000E+00 -0.39866692347E+03  0.39866692347E+03  0.00000000000E+00 0.  1.
        -24    2    1    2    0    0  0.52241052896E+03  0.49409828276E+03  0.58461072741E+03  0.92997313472E+03  0.77681754046E+02 0.  0.
        254    2    1    2    0    0 -0.52241052896E+03 -0.49409828276E+03  0.12299294665E+04  0.16819009061E+04  0.89387823090E+03 0.  0.
         23    2    4    4    0    0 -0.54842536116E+03  0.37698678653E+02  0.87024152898E+03  0.10333597665E+04  0.91216890996E+02 0.  0.
         23    2    4    4    0    0  0.26014832202E+02 -0.53179696141E+03  0.35968793754E+03  0.64854113961E+03  0.88008054692E+02 0.  0.
          3    1    3    3  502    0  0.50740748904E+03  0.46559356970E+03  0.54091534295E+03  0.87568780985E+03  0.00000000000E+00 0. -1.
         -4    1    3    3    0  502  0.15003039913E+02  0.28504713056E+02  0.43695384460E+02  0.54285324869E+02  0.00000000000E+00 0.  1.
         13    1    5    5    0    0 -0.21805701768E+03  0.50504216318E+02  0.30146762354E+03  0.37547605365E+03  0.00000000000E+00 0.  1.
        -13    1    5    5    0    0 -0.33036834348E+03 -0.12805537664E+02  0.56877390543E+03  0.65788371288E+03  0.00000000000E+00 0. -1.
          3    1    6    6  503    0 -0.75923613762E+01 -0.29780095074E+03  0.15483195761E+03  0.33573201413E+03  0.00000000000E+00 0. -1.
         -3    1    6    6    0  503  0.33607193578E+02 -0.23399601067E+03  0.20485597993E+03  0.31280912548E+03  0.00000000000E+00 0.  1.
<mgrwt>
<rscale>  0 0.18786511E+04</rscale>
<asrwt>0</asrwt>
<pdfrwt beam="1">  1        1 0.34049339E+00 0.18786511E+04</pdfrwt>
<pdfrwt beam="2">  1       -2 0.61333374E-01 0.18786511E+04</pdfrwt>
<totfact> 0.43431429E+00</totfact>
</mgrwt>
</event>
<event>
12    5  0.5264288E-008  0.1906076E+04  0.7818608E-02  0.8651838E-01
          1   -1    0    0  501    0  0.00000000000E+00  0.00000000000E+00  0.73990874310E+03  0.73990874310E+03  0.00000000000E+00 0. -1.
         -2   -1    0    0    0  501 -0.00000000000E+00 -0.00000000000E+00 -0.12275583655E+04  0.12275583655E+04  0.00000000000E+00 0.  1.
        -24    2    1    2    0    0 -0.88425782708E+02 -0.71770744541E+03 -0.72969089308E+02  0.73094769599E+03  0.77697812228E+02 0.  0.
        254    2    1    2    0    0  0.88425782708E+02  0.71770744541E+03 -0.41468053307E+03  0.12365194126E+04  0.91328922964E+03 0.  0.
         23    2    4    4    0    0 -0.16942238853E+03  0.83485475725E+03 -0.38024466337E+03  0.93735458341E+03  0.91439595286E+02 0.  0.
         23    2    4    4    0    0  0.25784817123E+03 -0.11714731184E+03 -0.34435869697E+02  0.29916482918E+03  0.90025517603E+02 0.  0.
          3    1    3    3  502    0 -0.64647888789E+02 -0.46293736208E+03 -0.83614016083E+02  0.47484908594E+03  0.00000000000E+00 0. -1.
         -4    1    3    3    0  502 -0.23777893919E+02 -0.25477008333E+03  0.10644926775E+02  0.25609861004E+03  0.00000000000E+00 0.  1.
         13    1    5    5    0    0 -0.49515786930E+02  0.25592467094E+03 -0.71114914399E+02  0.27019730088E+03  0.00000000000E+00 0.  1.
        -13    1    5    5    0    0 -0.11990660160E+03  0.57893008631E+03 -0.30912974897E+03  0.66715728253E+03  0.00000000000E+00 0. -1.
          3    1    6    6  503    0  0.19918905225E+03 -0.11848041185E+03 -0.52767210921E+02  0.23769363702E+03  0.00000000000E+00 0. -1.
         -3    1    6    6    0  503  0.58659118983E+02  0.13331000160E+01  0.18331341224E+02  0.61471192168E+02  0.00000000000E+00 0.  1.
<mgrwt>
<rscale>  0 0.19060757E+04</rscale>
<asrwt>0</asrwt>
<pdfrwt beam="1">  1        1 0.11383212E+00 0.19060757E+04</pdfrwt>
<pdfrwt beam="2">  1       -2 0.18885513E+00 0.19060757E+04</pdfrwt>
<totfact> 0.32309974E+00</totfact>
</mgrwt>
</event>
<event>
12    5  0.5264288E-008  0.2593237E+04  0.7818608E-02  0.8370502E-01
         -2   -1    0    0    0  501 -0.00000000000E+00  0.00000000000E+00  0.14700705144E+04  0.14700705144E+04  0.00000000000E+00 0.  1.
          1   -1    0    0  501    0  0.00000000000E+00 -0.00000000000E+00 -0.11436315354E+04  0.11436315354E+04  0.00000000000E+00 0. -1.
        -24    2    1    2    0    0  0.91300118505E+03 -0.25216753081E+00  0.82781988317E+03  0.12353451771E+04  0.84974820550E+02 0.  0.
        254    2    1    2    0    0 -0.91300118505E+03  0.25216753081E+00 -0.50138090413E+03  0.13783568727E+04  0.90272566705E+03 0.  0.
         23    2    4    4    0    0 -0.10511759636E+04 -0.13900248090E+03 -0.45443172990E+03  0.11573725072E+04  0.93329132427E+02 0.  0.
         23    2    4    4    0    0  0.13817477858E+03  0.13925464843E+03 -0.46949174225E+02  0.22098436553E+03  0.90253743979E+02 0.  0.
          3    1    3    3  502    0  0.75744686441E+03 -0.25389151463E+02  0.65772285165E+03  0.10034788045E+04  0.00000000000E+00 0. -1.
         -4    1    3    3    0  502  0.15555432064E+03  0.25136983933E+02  0.17009703152E+03  0.23186637264E+03  0.00000000000E+00 0.  1.
         13    1    5    5    0    0 -0.10290559847E+04 -0.14654185186E+03 -0.45328616277E+03  0.11339749024E+04  0.00000000000E+00 0. -1.
        -13    1    5    5    0    0 -0.22119978948E+02  0.75393709659E+01 -0.11455671350E+01  0.23397604734E+02  0.00000000000E+00 0.  1.
          1    1    6    6  503    0  0.13426965889E+03  0.11716390264E+03 -0.10911872208E+02  0.17853512353E+03  0.00000000000E+00 0. -1.
         -1    1    6    6    0  503  0.39051196938E+01  0.22090745786E+02 -0.36037302016E+02  0.42449241993E+02  0.00000000000E+00 0.  1.
<mgrwt>
<rscale>  0 0.25932366E+04</rscale>
<asrwt>0</asrwt>
<pdfrwt beam="1">  1        1 0.17594331E+00 0.25932366E+04</pdfrwt>
<pdfrwt beam="2">  1       -2 0.22616470E+00 0.25932366E+04</pdfrwt>
<totfact> 0.82166065E-01</totfact>
</mgrwt>
</event>
<event>
12    5  0.5264288E-008  0.1309258E+04  0.7818608E-02  0.9022256E-01
          1   -1    0    0  501    0  0.00000000000E+00  0.00000000000E+00  0.27541899698E+04  0.27541899698E+04  0.00000000000E+00 0. -1.
         -2   -1    0    0    0  501 -0.00000000000E+00 -0.00000000000E+00 -0.15559533148E+03  0.15559533148E+03  0.00000000000E+00 0.  1.
        -24    2    1    2    0    0 -0.37756748680E+01  0.16998039991E+03  0.38454984841E+02  0.19185839996E+03  0.80145291204E+02 0.  0.
        254    2    1    2    0    0  0.37756748680E+01 -0.16998039991E+03  0.25601396535E+04  0.27179269013E+04  0.89660693926E+03 0.  0.
         23    2    4    4    0    0 -0.18880587676E+03 -0.55353375277E+02  0.87378623150E+02  0.23337605651E+03  0.90098305829E+02 0.  0.
         23    2    4    4    0    0  0.19258155163E+03 -0.11462702463E+03  0.24727610303E+04  0.24845508448E+04  0.90657479213E+02 0.  0.
          1    1    3    3  502    0 -0.21045672025E+02  0.37894191839E+02  0.39499540812E+02  0.58643872745E+02  0.00000000000E+00 0. -1.
         -2    1    3    3    0  502  0.17269997157E+02  0.13208620807E+03 -0.10445559711E+01  0.13321452722E+03  0.00000000000E+00 0.  1.
         13    1    5    5    0    0 -0.12487964993E+03 -0.45475793253E+01  0.86021993934E+02  0.15170824264E+03  0.00000000000E+00 0.  1.
        -13    1    5    5    0    0 -0.63926226829E+02 -0.50805795952E+02  0.13566292160E+01  0.81667813867E+02  0.00000000000E+00 0. -1.
          1    1    6    6  503    0  0.15489432883E+03 -0.12781768184E+03  0.21402289276E+04  0.21496300787E+04  0.00000000000E+00 0. -1.
         -1    1    6    6    0  503  0.37687222800E+02  0.13190657204E+02  0.33253210270E+03  0.33492076604E+03  0.00000000000E+00 0.  1.
<mgrwt>
<rscale>  0 0.13092580E+04</rscale>
<asrwt>0</asrwt>
<pdfrwt beam="1">  1        1 0.42372150E+00 0.13092580E+04</pdfrwt>
<pdfrwt beam="2">  1       -2 0.23937745E-01 0.13092580E+04</pdfrwt>
<totfact> 0.12103359E+01</totfact>
</mgrwt>
</event>
<event>
12    5  0.5264288E-008  0.1423041E+04  0.7818608E-02  0.8937307E-01
          1   -1    0    0  501    0  0.00000000000E+00  0.00000000000E+00  0.10429220952E+04  0.10429220952E+04  0.00000000000E+00 0. -1.
         -2   -1    0    0    0  501 -0.00000000000E+00 -0.00000000000E+00 -0.48542616644E+03  0.48542616644E+03  0.00000000000E+00 0.  1.
        -24    2    1    2    0    0  0.14833331841E+03  0.29439773807E+03 -0.96454494461E+02  0.35265632419E+03  0.79938801330E+02 0.  0.
        254    2    1    2    0    0 -0.14833331841E+03 -0.29439773807E+03  0.65395042326E+03  0.11756919375E+04  0.91974321105E+03 0.  0.
         23    2    4    4    0    0 -0.21290601964E+03  0.10629353580E+03 -0.13134718117E+03  0.28701784024E+03  0.92194737734E+02 0.  0.
         23    2    4    4    0    0  0.64572701229E+02 -0.40069127387E+03  0.78529760443E+03  0.88867409725E+03  0.91247974803E+02 0.  0.
          1    1    3    3  502    0  0.19774850514E+02  0.65735979123E+02  0.10353745953E+02  0.69422357489E+02  0.00000000000E+00 0. -1.
         -2    1    3    3    0  502  0.12855846789E+03  0.22866175894E+03 -0.10680824041E+03  0.28323396670E+03  0.00000000000E+00 0.  1.
         13    1    5    5    0    0 -0.21040924930E+03  0.11731519183E+03 -0.13363562507E+03  0.27548754366E+03  0.00000000000E+00 0. -1.
        -13    1    5    5    0    0 -0.24967703369E+01 -0.11021656029E+02  0.22884439017E+01  0.11530296580E+02  0.00000000000E+00 0.  1.
          3    1    6    6  503    0 -0.10386865139E+02 -0.16486457502E+03  0.37077015960E+03  0.40590482420E+03  0.00000000000E+00 0. -1.
         -3    1    6    6    0  503  0.74959566368E+02 -0.23582669886E+03  0.41452744482E+03  0.48276927304E+03  0.00000000000E+00 0.  1.
<mgrwt>
<rscale>  0 0.14230414E+04</rscale>
<asrwt>0</asrwt>
<pdfrwt beam="1">  1        1 0.16044955E+00 0.14230414E+04</pdfrwt>
<pdfrwt beam="2">  1       -2 0.74680949E-01 0.14230414E+04</pdfrwt>
<totfact> 0.19278102E+01</totfact>
</mgrwt>
</event>
<event>
12    5  0.5264288E-008  0.1405035E+04  0.7818608E-02  0.8950182E-01
         -2   -1    0    0    0  501 -0.00000000000E+00  0.00000000000E+00  0.73765072170E+03  0.73765072170E+03  0.00000000000E+00 0.  1.
          1   -1    0    0  501    0  0.00000000000E+00 -0.00000000000E+00 -0.66905752727E+03  0.66905752727E+03  0.00000000000E+00 0. -1.
        -24    2    1    2    0    0  0.13054939230E+03 -0.38531975450E+03  0.63660519877E+02  0.42001837079E+03  0.82754534455E+02 0.  0.
        254    2    1    2    0    0 -0.13054939230E+03  0.38531975450E+03  0.49326745595E+01  0.98668987817E+03  0.89889828533E+03 0.  0.
         23    2    4    4    0    0 -0.17444742276E+03  0.60582732068E+03 -0.20176721355E+03  0.66820925000E+03  0.91295933840E+02 0.  0.
         23    2    4    4    0    0  0.43898030461E+02 -0.22050756618E+03  0.20669988811E+03  0.31848062817E+03  0.90301954331E+02 0.  0.
          3    1    3    3  502    0 -0.52306105158E+01 -0.32495177583E+02 -0.10929680525E+02  0.34680740604E+02  0.00000000000E+00 0. -1.
         -4    1    3    3    0  502  0.13578000282E+03 -0.35282457692E+03  0.74590200401E+02  0.38533763019E+03  0.00000000000E+00 0.  1.
         13    1    5    5    0    0  0.97843808857E+01  0.57555430487E+02 -0.13254764505E+02  0.59866939708E+02  0.00000000000E+00 0.  1.
        -13    1    5    5    0    0 -0.18423180365E+03  0.54827189019E+03 -0.18851244904E+03  0.60834231030E+03  0.00000000000E+00 0. -1.
          3    1    6    6  503    0  0.31228433462E+02 -0.12122470079E+02  0.30096216049E+02  0.45032783145E+02  0.00000000000E+00 0. -1.
         -3    1    6    6    0  503  0.12669596998E+02 -0.20838509610E+03  0.17660367206E+03  0.27344784503E+03  0.00000000000E+00 0.  1.
<mgrwt>
<rscale>  0 0.14050349E+04</rscale>
<asrwt>0</asrwt>
<pdfrwt beam="1">  1        1 0.10293193E+00 0.14050349E+04</pdfrwt>
<pdfrwt beam="2">  1       -2 0.11348473E+00 0.14050349E+04</pdfrwt>
<totfact> 0.15158194E+01</totfact>
</mgrwt>
</event>
<event>
12    5  0.5264288E-008  0.2231870E+04  0.7818608E-02  0.8505279E-01
          1   -1    0    0  501    0  0.00000000000E+00  0.00000000000E+00  0.31171842492E+04  0.31171842492E+04  0.00000000000E+00 0. -1.
         -4   -1    0    0    0  501 -0.00000000000E+00 -0.00000000000E+00 -0.39949851968E+03  0.39949851968E+03  0.00000000000E+00 0.  1.
        -24    2    1    2    0    0  0.11102991386E+03  0.76245142622E+03  0.19289268018E+04  0.20786161277E+04  0.78908684607E+02 0.  0.
        254    2    1    2    0    0 -0.11102991386E+03 -0.76245142622E+03  0.78875892772E+03  0.14380666412E+04  0.92316585686E+03 0.  0.
         23    2    4    4    0    0 -0.31541116444E+03 -0.16652763342E+03 -0.63873336907E+02  0.37368721379E+03  0.91360140307E+02 0.  0.
         23    2    4    4    0    0  0.20438125058E+03 -0.59592379280E+03  0.85263226463E+03  0.10643794274E+04  0.94999601758E+02 0.  0.
          1    1    3    3  502    0  0.85390969003E+02  0.71911716104E+03  0.18049890945E+04  0.19448410578E+04  0.00000000000E+00 0. -1.
         -2    1    3    3    0  502  0.25638944856E+02  0.43334265183E+02  0.12393770725E+03  0.13377506984E+03  0.00000000000E+00 0.  1.
         13    1    5    5    0    0 -0.65879468480E+02 -0.27064526046E+02 -0.50885005529E+02  0.87532146809E+02  0.00000000000E+00 0. -1.
        -13    1    5    5    0    0 -0.24953169596E+03 -0.13946310738E+03 -0.12988331378E+02  0.28615506698E+03  0.00000000000E+00 0.  1.
          1    1    6    6  503    0  0.12458207097E+02 -0.96883639929E+02  0.18337661290E+03  0.20777061575E+03  0.00000000000E+00 0. -1.
         -1    1    6    6    0  503  0.19192304348E+03 -0.49904015287E+03  0.66925565173E+03  0.85660881163E+03  0.00000000000E+00 0.  1.
<mgrwt>
<rscale>  0 0.22318696E+04</rscale>
<asrwt>0</asrwt>
<pdfrwt beam="1">  1        1 0.47956679E+00 0.22318696E+04</pdfrwt>
<pdfrwt beam="2">  1       -4 0.61461313E-01 0.22318696E+04</pdfrwt>
<totfact> 0.55200560E-01</totfact>
</mgrwt>
</event>
<event>
12    5  0.5264288E-008  0.1611877E+04  0.7818608E-02  0.8813284E-01
         -2   -1    0    0    0  501 -0.00000000000E+00  0.00000000000E+00  0.58716610850E+03  0.58716610850E+03  0.00000000000E+00 0.  1.
          1   -1    0    0  501    0  0.00000000000E+00 -0.00000000000E+00 -0.11062238804E+04  0.11062238804E+04  0.00000000000E+00 0. -1.
        -24    2    1    2    0    0  0.35125853359E+03 -0.20921715225E+03  0.21030218037E+03  0.46681867664E+03  0.80859727779E+02 0.  0.
        254    2    1    2    0    0 -0.35125853359E+03  0.20921715225E+03 -0.72935995230E+03  0.12265713123E+04  0.89741677601E+03 0.  0.
         23    2    4    4    0    0 -0.25905135286E+03 -0.20175274250E+03  0.41462170416E+02  0.34345203083E+03  0.91806390712E+02 0.  0.
         23    2    4    4    0    0 -0.92207180727E+02  0.41096989475E+03 -0.77082212272E+03  0.88311928145E+03  0.91293492877E+02 0.  0.
          1    1    3    3  502    0  0.10270356608E+03 -0.49792410620E+02  0.99522491210E+02  0.15143326219E+03  0.00000000000E+00 0. -1.
         -2    1    3    3    0  502  0.24855496751E+03 -0.15942474163E+03  0.11077968916E+03  0.31538541445E+03  0.00000000000E+00 0.  1.
         13    1    5    5    0    0 -0.15177249875E+03 -0.79145080273E+02 -0.13031868311E+02  0.17166439555E+03  0.00000000000E+00 0.  1.
        -13    1    5    5    0    0 -0.10727885412E+03 -0.12260766223E+03  0.54494038727E+02  0.17178763528E+03  0.00000000000E+00 0. -1.
          2    1    6    6  503    0 -0.92532979810E+02  0.31578794882E+03 -0.65654506683E+03  0.73439485684E+03  0.00000000000E+00 0. -1.
         -2    1    6    6    0  503  0.32579908331E+00  0.95181945921E+02 -0.11427705588E+03  0.14872442461E+03  0.00000000000E+00 0.  1.
<mgrwt>
<rscale>  0 0.16118774E+04</rscale>
<asrwt>0</asrwt>
<pdfrwt beam="1">  1        1 0.17018829E+00 0.16118774E+04</pdfrwt>
<pdfrwt beam="2">  1       -2 0.90333248E-01 0.16118774E+04</pdfrwt>
<totfact> 0.11047678E+01</totfact>
</mgrwt>
</event>
<event>
12    5  0.5264288E-008  0.1152863E+04  0.7818608E-02  0.9155146E-01
          1   -1    0    0  501    0  0.00000000000E+00  0.00000000000E+00  0.11036408240E+04  0.11036408240E+04  0.00000000000E+00 0. -1.
         -2   -1    0    0    0  501 -0.00000000000E+00 -0.00000000000E+00 -0.30107031516E+03  0.30107031516E+03  0.00000000000E+00 0.  1.
        -24    2    1    2    0    0  0.79404242759E+02 -0.18663812561E+03  0.21111521929E+03  0.30269946408E+03  0.76931827229E+02 0.  0.
        254    2    1    2    0    0 -0.79404242759E+02  0.18663812561E+03  0.59145528959E+03  0.11020116751E+04  0.90745333149E+03 0.  0.
         23    2    4    4    0    0 -0.16404458959E+03  0.44555412628E+03  0.45402794078E+02  0.48528514870E+03  0.89505055824E+02 0.  0.
         23    2    4    4    0    0  0.84640346832E+02 -0.25891600067E+03  0.54605249551E+03  0.61672652643E+03  0.89312915263E+02 0.  0.
          3    1    3    3  502    0  0.80289026988E+01 -0.73889131209E+02  0.11987679394E+03  0.14104790929E+03  0.00000000000E+00 0. -1.
         -4    1    3    3    0  502  0.71375340060E+02 -0.11274899440E+03  0.91238425353E+02  0.16165155480E+03  0.00000000000E+00 0.  1.
         13    1    5    5    0    0 -0.13213537572E+03  0.27131572289E+03 -0.24792496375E+01  0.30179152686E+03  0.00000000000E+00 0. -1.
        -13    1    5    5    0    0 -0.31909213868E+02  0.17423840339E+03  0.47882043715E+02  0.18349362184E+03  0.00000000000E+00 0.  1.
          2    1    6    6  503    0  0.94388624771E+02 -0.20256579496E+03  0.37695267305E+03  0.43821847461E+03  0.00000000000E+00 0. -1.
         -2    1    6    6    0  503 -0.97482779395E+01 -0.56350205710E+02  0.16909982246E+03  0.17850805181E+03  0.00000000000E+00 0.  1.
<mgrwt>
<rscale>  0 0.11528634E+04</rscale>
<asrwt>0</asrwt>
<pdfrwt beam="1">  1        1 0.16979089E+00 0.11528634E+04</pdfrwt>
<pdfrwt beam="2">  1       -2 0.46318511E-01 0.11528634E+04</pdfrwt>
<totfact> 0.48469089E+01</totfact>
</mgrwt>
</event>
<event>
12    5  0.5264288E-008  0.1601402E+04  0.7818608E-02  0.8819687E-01
          1   -1    0    0  501    0  0.00000000000E+00  0.00000000000E+00  0.84776564790E+03  0.84776564790E+03  0.00000000000E+00 0. -1.
         -2   -1    0    0    0  501 -0.00000000000E+00 -0.00000000000E+00 -0.75624935706E+03  0.75624935706E+03  0.00000000000E+00 0.  1.
        -24    2    1    2    0    0 -0.85604854559E+02 -0.51340076919E+03 -0.11860412110E+03  0.53987667708E+03  0.80568902077E+02 0.  0.
        254    2    1    2    0    0  0.85604854559E+02  0.51340076919E+03  0.21012041195E+03  0.10641383279E+04  0.90406374355E+03 0.  0.
         23    2    4    4    0    0 -0.62369621021E+02 -0.11499515225E+02 -0.29572394964E+03  0.31530089143E+03  0.89105495172E+02 0.  0.
         23    2    4    4    0    0  0.14797447558E+03  0.52490028442E+03  0.50584436160E+03  0.74883743644E+03  0.86384223431E+02 0.  0.
          1    1    3    3  502    0  0.11732747461E+02 -0.34069244650E+02  0.20804043429E+01  0.36092920030E+02  0.00000000000E+00 0. -1.
         -2    1    3    3    0  502 -0.97337602020E+02 -0.47933152454E+03 -0.12068452545E+03  0.50378375705E+03  0.00000000000E+00 0.  1.
         13    1    5    5    0    0 -0.59676380887E+02  0.24369705106E+02 -0.12295863029E+03  0.13883075209E+03  0.00000000000E+00 0.  1.
        -13    1    5    5    0    0 -0.26932401344E+01 -0.35869220330E+02 -0.17276531935E+03  0.17647013934E+03  0.00000000000E+00 0. -1.
          1    1    6    6  503    0  0.12470976486E+03  0.38452406184E+03  0.32475809820E+03  0.51853553584E+03  0.00000000000E+00 0. -1.
         -1    1    6    6    0  503  0.23264710718E+02  0.14037622258E+03  0.18108626339E+03  0.23030190060E+03  0.00000000000E+00 0.  1.
<mgrwt>
<rscale>  0 0.16014022E+04</rscale>
<asrwt>0</asrwt>
<pdfrwt beam="1">  1        1 0.13042548E+00 0.16014022E+04</pdfrwt>
<pdfrwt beam="2">  1       -2 0.11634605E+00 0.16014022E+04</pdfrwt>
<totfact> 0.96896384E+00</totfact>
</mgrwt>
</event>
<event>
12    5  0.5264288E-008  0.1776589E+04  0.7818608E-02  0.8718849E-01
          1   -1    0    0  501    0  0.00000000000E+00  0.00000000000E+00  0.12268199861E+04  0.12268199861E+04  0.00000000000E+00 0. -1.
         -2   -1    0    0    0  501 -0.00000000000E+00 -0.00000000000E+00 -0.64318089437E+03  0.64318089437E+03  0.00000000000E+00 0.  1.
        -24    2    1    2    0    0 -0.39115613793E+03 -0.38823139335E+03 -0.16283709740E+03  0.58009996968E+03  0.79204264499E+02 0.  0.
        254    2    1    2    0    0  0.39115613793E+03  0.38823139335E+03  0.74647618914E+03  0.12899009108E+04  0.89604180688E+03 0.  0.
         23    2    4    4    0    0 -0.10394719058E+03  0.12842760593E+02  0.63583913631E+03  0.65223558580E+03  0.10074669820E+03 0.  0.
         23    2    4    4    0    0  0.49510332852E+03  0.37538863275E+03  0.11063705283E+03  0.63766532498E+03  0.91282954160E+02 0.  0.
          3    1    3    3  502    0 -0.23577481436E+02 -0.12921033268E+02  0.73810887237E+01  0.27880660005E+02  0.00000000000E+00 0. -1.
         -4    1    3    3    0  502 -0.36757865650E+03 -0.37531036008E+03 -0.17021818613E+03  0.55221930968E+03  0.00000000000E+00 0.  1.
         13    1    5    5    0    0  0.12605443723E+02  0.47386210919E+01  0.21668258155E+03  0.21710065151E+03  0.00000000000E+00 0.  1.
        -13    1    5    5    0    0 -0.11655263431E+03  0.81041395008E+01  0.41915655476E+03  0.43513493429E+03  0.00000000000E+00 0. -1.
          1    1    6    6  503    0  0.20844830536E+03  0.16040257523E+03  0.12452190210E+01  0.26302325509E+03  0.00000000000E+00 0. -1.
         -1    1    6    6    0  503  0.28665502316E+03  0.21498605752E+03  0.10939183381E+03  0.37464206989E+03  0.00000000000E+00 0.  1.
<mgrwt>
<rscale>  0 0.17765891E+04</rscale>
<asrwt>0</asrwt>
<pdfrwt beam="1">  1        1 0.18874154E+00 0.17765891E+04</pdfrwt>
<pdfrwt beam="2">  1       -2 0.98950907E-01 0.17765891E+04</pdfrwt>
<totfact> 0.71746620E+00</totfact>
</mgrwt>
</event>
<event>
12    5  0.5264288E-008  0.1914560E+04  0.7818608E-02  0.8647642E-01
         -2   -1    0    0    0  501 -0.00000000000E+00  0.00000000000E+00  0.90601536787E+03  0.90601536787E+03  0.00000000000E+00 0.  1.
          1   -1    0    0  501    0  0.00000000000E+00 -0.00000000000E+00 -0.10114458227E+04  0.10114458227E+04  0.00000000000E+00 0. -1.
        -24    2    1    2    0    0 -0.16274076009E+03  0.10409425641E+03 -0.75689916368E+03  0.78615469378E+03  0.88445968597E+02 0.  0.
        254    2    1    2    0    0  0.16274076009E+03 -0.10409425641E+03  0.65146870888E+03  0.11313064968E+04  0.90450137742E+03 0.  0.
         23    2    4    4    0    0 -0.15111330874E+03 -0.41921692612E+03  0.22150630129E+03  0.50618497929E+03  0.92628983172E+02 0.  0.
         23    2    4    4    0    0  0.31385406883E+03  0.31512266971E+03  0.42996240759E+03  0.62512151747E+03  0.90014255404E+02 0.  0.
          3    1    3    3  502    0 -0.12408528067E+03  0.92982184450E+02 -0.69676281228E+03  0.71380757917E+03  0.00000000000E+00 0. -1.
         -4    1    3    3    0  502 -0.38655479425E+02  0.11112071962E+02 -0.60136351397E+02  0.72347114609E+02  0.00000000000E+00 0.  1.
         13    1    5    5    0    0  0.24561008454E+01 -0.11480577979E+01  0.15025281222E+02  0.15267925329E+02  0.00000000000E+00 0.  1.
        -13    1    5    5    0    0 -0.15356940958E+03 -0.41806886833E+03  0.20648102006E+03  0.49091705396E+03  0.00000000000E+00 0. -1.
          1    1    6    6  503    0  0.15132550472E+03  0.10264612216E+03  0.21273747715E+03  0.28052249279E+03  0.00000000000E+00 0. -1.
         -1    1    6    6    0  503  0.16252856411E+03  0.21247654755E+03  0.21722493044E+03  0.34459902469E+03  0.00000000000E+00 0.  1.
<mgrwt>
<rscale>  0 0.19145605E+04</rscale>
<asrwt>0</asrwt>
<pdfrwt beam="1">  1        1 0.15560705E+00 0.19145605E+04</pdfrwt>
<pdfrwt beam="2">  1       -2 0.13938698E+00 0.19145605E+04</pdfrwt>
<totfact> 0.44109940E+00</totfact>
</mgrwt>
</event>
<event>
12    5  0.5264288E-008  0.1330596E+04  0.7818608E-02  0.9005648E-01
         -2   -1    0    0    0  501 -0.00000000000E+00  0.00000000000E+00  0.18130709827E+03  0.18130709827E+03  0.00000000000E+00 0.  1.
          1   -1    0    0  501    0  0.00000000000E+00 -0.00000000000E+00 -0.24412807250E+04  0.24412807250E+04  0.00000000000E+00 0. -1.
        -24    2    1    2    0    0  0.34311585874E+03 -0.56597964857E+02 -0.46708765501E+03  0.58785635938E+03  0.80451225352E+02 0.  0.
        254    2    1    2    0    0 -0.34311585874E+03  0.56597964857E+02 -0.17928859718E+04  0.20347314639E+04  0.89708427722E+03 0.  0.
         23    2    4    4    0    0  0.13505397309E+03 -0.29341377863E+03 -0.42539509132E+03  0.54092973262E+03  0.85514740114E+02 0.  0.
         23    2    4    4    0    0 -0.47816983183E+03  0.35001174348E+03 -0.13674908804E+04  0.14938017313E+04  0.10128028304E+03 0.  0.
          1    1    3    3  502    0  0.27335509813E+03 -0.56795682311E+02 -0.31745285393E+03  0.42275888361E+03  0.00000000000E+00 0. -1.
         -2    1    3    3    0  502  0.69760760612E+02  0.19771745369E+00 -0.14963480108E+03  0.16509747577E+03  0.00000000000E+00 0.  1.
         13    1    5    5    0    0  0.14453122827E+03 -0.28455121037E+03 -0.41827248922E+03  0.52612787657E+03  0.00000000000E+00 0. -1.
        -13    1    5    5    0    0 -0.94772551770E+01 -0.88625682613E+01 -0.71226021033E+01  0.14801856052E+02  0.00000000000E+00 0.  1.
          3    1    6    6  503    0 -0.38222111838E+03  0.31656548901E+03 -0.11888911975E+04  0.12883202132E+04  0.00000000000E+00 0. -1.
         -3    1    6    6    0  503 -0.95948713451E+02  0.33446254479E+02 -0.17859968291E+03  0.20548151812E+03  0.00000000000E+00 0.  1.
<mgrwt>
<rscale>  0 0.13305961E+04</rscale>
<asrwt>0</asrwt>
<pdfrwt beam="1">  1        1 0.37558166E+00 0.13305961E+04</pdfrwt>
<pdfrwt beam="2">  1       -2 0.27893399E-01 0.13305961E+04</pdfrwt>
<totfact> 0.15089669E+01</totfact>
</mgrwt>
</event>
<event>
12    5  0.5264288E-008  0.1853496E+04  0.7818608E-02  0.8678357E-01
         -2   -1    0    0    0  501 -0.00000000000E+00  0.00000000000E+00  0.66906431452E+03  0.66906431452E+03  0.00000000000E+00 0.  1.
          1   -1    0    0  501    0  0.00000000000E+00 -0.00000000000E+00 -0.12836755447E+04  0.12836755447E+04  0.00000000000E+00 0. -1.
        -24    2    1    2    0    0 -0.24727358366E+03  0.25255180610E+02  0.46174223609E+03  0.53053532435E+03  0.80497133269E+02 0.  0.
        254    2    1    2    0    0  0.24727358366E+03 -0.25255180610E+02 -0.10763534662E+04  0.14222045348E+04  0.89573819016E+03 0.  0.
         23    2    4    4    0    0 -0.67734844396E+02  0.38433965126E+03 -0.54415651714E+03  0.67580571179E+03  0.91115686180E+02 0.  0.
         23    2    4    4    0    0  0.31500842806E+03 -0.40959483187E+03 -0.53219694910E+03  0.74639882305E+03  0.82941994034E+02 0.  0.
          3    1    3    3  502    0 -0.31098901892E+02 -0.23546279479E+02  0.83260171370E+02  0.91944685070E+02  0.00000000000E+00 0. -1.
         -4    1    3    3    0  502 -0.21617468177E+03  0.48801460089E+02  0.37848206472E+03  0.43859063928E+03  0.00000000000E+00 0.  1.
         13    1    5    5    0    0 -0.89726488896E+02  0.32937175286E+03 -0.45637742348E+03  0.56992714188E+03  0.00000000000E+00 0. -1.
        -13    1    5    5    0    0  0.21991644500E+02  0.54967898405E+02 -0.87779093661E+02  0.10587856991E+03  0.00000000000E+00 0.  1.
          2    1    6    6  503    0  0.23221207555E+03 -0.35355392551E+03 -0.44113745976E+03  0.61116698592E+03  0.00000000000E+00 0. -1.
         -2    1    6    6    0  503  0.82796352506E+02 -0.56040906359E+02 -0.91059489334E+02  0.13523183712E+03  0.00000000000E+00 0.  1.
<mgrwt>
<rscale>  0 0.18534956E+04</rscale>
<asrwt>0</asrwt>
<pdfrwt beam="1">  1        1 0.19748855E+00 0.18534956E+04</pdfrwt>
<pdfrwt beam="2">  1       -2 0.10293297E+00 0.18534956E+04</pdfrwt>
<totfact> 0.59041616E+00</totfact>
</mgrwt>
</event>
<event>
12    5  0.5264288E-008  0.1091467E+04  0.7818608E-02  0.9213548E-01
         -2   -1    0    0    0  501 -0.00000000000E+00  0.00000000000E+00  0.18463341150E+03  0.18463341150E+03  0.00000000000E+00 0.  1.
          1   -1    0    0  501    0  0.00000000000E+00 -0.00000000000E+00 -0.16130625320E+04  0.16130625320E+04  0.00000000000E+00 0. -1.
        -24    2    1    2    0    0  0.49834484661E+02 -0.11840460919E+02  0.22438591548E+02  0.96730527544E+02  0.78928019056E+02 0.  0.
        254    2    1    2    0    0 -0.49834484661E+02  0.11840460919E+02 -0.14508677120E+04  0.17009654159E+04  0.88636479849E+03 0.  0.
         23    2    4    4    0    0 -0.32939175609E+03 -0.20202632620E+03 -0.31150194639E+03  0.50455688149E+03  0.90722756808E+02 0.  0.
         23    2    4    4    0    0  0.27955727142E+03  0.21386678712E+03 -0.11393657656E+04  0.11964085344E+04  0.96683828661E+02 0.  0.
          1    1    3    3  502    0  0.43704466491E+02 -0.16864439893E+02 -0.21883963340E+02  0.51704908622E+02  0.00000000000E+00 0. -1.
         -2    1    3    3    0  502  0.61300181695E+01  0.50239789735E+01  0.44322554888E+02  0.45025618922E+02  0.00000000000E+00 0.  1.
         13    1    5    5    0    0 -0.14336502728E+01  0.70948956125E+01 -0.20673618867E+01  0.75277408316E+01  0.00000000000E+00 0.  1.
        -13    1    5    5    0    0 -0.32795810581E+03 -0.20912122181E+03 -0.30943458451E+03  0.49702914066E+03  0.00000000000E+00 0. -1.
          2    1    6    6  503    0  0.24481216810E+03  0.18050560492E+03 -0.84387339212E+03  0.89701592683E+03  0.00000000000E+00 0. -1.
         -2    1    6    6    0  503  0.34745103325E+02  0.33361182201E+02 -0.29549237350E+03  0.29939260759E+03  0.00000000000E+00 0.  1.
<mgrwt>
<rscale>  0 0.10914673E+04</rscale>
<asrwt>0</asrwt>
<pdfrwt beam="1">  1        1 0.24816346E+00 0.10914673E+04</pdfrwt>
<pdfrwt beam="2">  1       -2 0.28405141E-01 0.10914673E+04</pdfrwt>
<totfact> 0.54308622E+01</totfact>
</mgrwt>
</event>
<event>
12    5  0.5264288E-008  0.2113257E+04  0.7818608E-02  0.8555426E-01
         -2   -1    0    0    0  501 -0.00000000000E+00  0.00000000000E+00  0.77787894351E+03  0.77787894351E+03  0.00000000000E+00 0.  1.
          1   -1    0    0  501    0  0.00000000000E+00 -0.00000000000E+00 -0.14352669450E+04  0.14352669450E+04  0.00000000000E+00 0. -1.
        -24    2    1    2    0    0 -0.13810867756E+03 -0.70741263936E+03  0.23048925225E+03  0.76098924857E+03  0.80453041565E+02 0.  0.
        254    2    1    2    0    0  0.13810867756E+03  0.70741263936E+03 -0.88787725375E+03  0.14521566400E+04  0.89494482516E+03 0.  0.
         23    2    4    4    0    0  0.17355644307E+02  0.15319783221E+03  0.17070635897E+03  0.24763722596E+03  0.91720992716E+02 0.  0.
         23    2    4    4    0    0  0.12075303325E+03  0.55421480715E+03 -0.10585836127E+04  0.12045194140E+04  0.92371023986E+02 0.  0.
          3    1    3    3  502    0 -0.47618696388E+02 -0.33100289685E+03  0.68626840764E+02  0.34137970245E+03  0.00000000000E+00 0. -1.
         -4    1    3    3    0  502 -0.90489981170E+02 -0.37640974251E+03  0.16186241148E+03  0.41960954612E+03  0.00000000000E+00 0.  1.
         13    1    5    5    0    0  0.31799967648E+01 -0.92514540474E+01 -0.21359432327E+01  0.10013193043E+02  0.00000000000E+00 0. -1.
        -13    1    5    5    0    0  0.14175647543E+02  0.16244928626E+03  0.17284230220E+03  0.23762403291E+03  0.00000000000E+00 0.  1.
          2    1    6    6  503    0  0.54918257088E+02  0.15551672003E+03 -0.23449413621E+03  0.28668617876E+03  0.00000000000E+00 0. -1.
         -2    1    6    6    0  503  0.65834776162E+02  0.39869808712E+03 -0.82408947650E+03  0.91783323524E+03  0.00000000000E+00 0.  1.
<mgrwt>
<rscale>  0 0.21132571E+04</rscale>
<asrwt>0</asrwt>
<pdfrwt beam="1">  1        1 0.22081030E+00 0.21132571E+04</pdfrwt>
<pdfrwt beam="2">  1       -2 0.11967369E+00 0.21132571E+04</pdfrwt>
<totfact> 0.31284467E+00</totfact>
</mgrwt>
</event>
<event>
12    5  0.5264288E-008  0.2191830E+04  0.7818608E-02  0.8521836E-01
          1   -1    0    0  501    0  0.00000000000E+00  0.00000000000E+00  0.23515464039E+04  0.23515464039E+04  0.00000000000E+00 0. -1.
         -2   -1    0    0    0  501 -0.00000000000E+00 -0.00000000000E+00 -0.51074046599E+03  0.51074046599E+03  0.00000000000E+00 0.  1.
        -24    2    1    2    0    0  0.30469865435E+03 -0.29063900042E+03  0.18198406557E+04  0.18695174803E+04  0.77222397049E+02 0.  0.
        254    2    1    2    0    0 -0.30469865435E+03  0.29063900042E+03  0.20965282197E+02  0.99276938955E+03  0.89879876459E+03 0.  0.
         23    2    4    4    0    0  0.61488181471E+02  0.35085922952E+03 -0.31463273812E+03  0.48392510494E+03  0.91141384077E+02 0.  0.
         23    2    4    4    0    0 -0.36618683583E+03 -0.60220229104E+02  0.33559802032E+03  0.50884428460E+03  0.92613174045E+02 0.  0.
          1    1    3    3  502    0  0.26444382976E+03 -0.21284901772E+03  0.14969896325E+04  0.15349961574E+04  0.00000000000E+00 0. -1.
         -2    1    3    3    0  502  0.40254824593E+02 -0.77789982700E+02  0.32285102322E+03  0.33452132294E+03  0.00000000000E+00 0.  1.
         13    1    5    5    0    0  0.51908724986E+02  0.34471881470E+03 -0.27895462417E+03  0.44647649354E+03  0.00000000000E+00 0. -1.
        -13    1    5    5    0    0  0.95794564850E+01  0.61404148254E+01 -0.35678113953E+02  0.37448611403E+02  0.00000000000E+00 0.  1.
          2    1    6    6  503    0 -0.17992814017E+03  0.23051695586E+01  0.20577071870E+03  0.27335149187E+03  0.00000000000E+00 0. -1.
         -2    1    6    6    0  503 -0.18625869566E+03 -0.62525398663E+02  0.12982730162E+03  0.23549279274E+03  0.00000000000E+00 0.  1.
<mgrwt>
<rscale>  0 0.21918302E+04</rscale>
<asrwt>0</asrwt>
<pdfrwt beam="1">  1        1 0.36177636E+00 0.21918302E+04</pdfrwt>
<pdfrwt beam="2">  1       -2 0.78575457E-01 0.21918302E+04</pdfrwt>
<totfact> 0.19792985E+00</totfact>
</mgrwt>
</event>
<event>
12    5  0.5264288E-008  0.1631268E+04  0.7818608E-02  0.8801566E-01
         -2   -1    0    0    0  501 -0.00000000000E+00  0.00000000000E+00  0.10100201700E+04  0.10100201700E+04  0.00000000000E+00 0.  1.
          1   -1    0    0  501    0  0.00000000000E+00 -0.00000000000E+00 -0.65865899195E+03  0.65865899195E+03  0.00000000000E+00 0. -1.
        -24    2    1    2    0    0 -0.22146477345E+03 -0.26419615301E+03  0.48645681406E+03  0.60166118266E+03  0.80682672488E+02 0.  0.
        254    2    1    2    0    0  0.22146477345E+03  0.26419615301E+03 -0.13509563600E+03  0.10670179793E+04  0.10007148865E+04 0.  0.
         23    2    4    4    0    0  0.51739460690E+03  0.64809369565E+02  0.20229038343E+03  0.56719928581E+03  0.94319653120E+02 0.  0.
         23    2    4    4    0    0 -0.29592983345E+03  0.19938678344E+03 -0.33738601943E+03  0.49981869347E+03  0.93058285511E+02 0.  0.
          3    1    3    3  502    0 -0.19681311419E+03 -0.22270430038E+03  0.36327850683E+03  0.46936540227E+03  0.00000000000E+00 0. -1.
         -4    1    3    3    0  502 -0.24651659264E+02 -0.41491852630E+02  0.12317830723E+03  0.13229578040E+03  0.00000000000E+00 0.  1.
         13    1    5    5    0    0  0.60250654816E+02  0.17385517957E+02 -0.52233223360E+01  0.62925994125E+02  0.00000000000E+00 0.  1.
        -13    1    5    5    0    0  0.45714395208E+03  0.47423851608E+02  0.20751370576E+03  0.50427329168E+03  0.00000000000E+00 0. -1.
          1    1    6    6  503    0 -0.16218910507E+02  0.23781566348E+02 -0.67232880292E+02  0.73136011296E+02  0.00000000000E+00 0.  1.
         -1    1    6    6    0  503 -0.27971092294E+03  0.17560521709E+03 -0.27015313914E+03  0.42668268218E+03  0.00000000000E+00 0. -1.
<mgrwt>
<rscale>  0 0.16312681E+04</rscale>
<asrwt>0</asrwt>
<pdfrwt beam="1">  1        1 0.10133215E+00 0.16312681E+04</pdfrwt>
<pdfrwt beam="2">  1       -2 0.15538772E+00 0.16312681E+04</pdfrwt>
<totfact> 0.68182742E+00</totfact>
</mgrwt>
</event>
<event>
12    5  0.5264288E-008  0.1103337E+04  0.7818608E-02  0.9201946E-01
          1   -1    0    0  501    0  0.00000000000E+00  0.00000000000E+00  0.19405393974E+04  0.19405393974E+04  0.00000000000E+00 0. -1.
         -2   -1    0    0    0  501 -0.00000000000E+00 -0.00000000000E+00 -0.15683167331E+03  0.15683167331E+03  0.00000000000E+00 0.  1.
        -24    2    1    2    0    0  0.84742655678E+02  0.12998339335E+03  0.57193544597E+03  0.59638296226E+03  0.66973749195E+02 0.  0.
        254    2    1    2    0    0 -0.84742655678E+02 -0.12998339335E+03  0.12117722781E+04  0.15009881084E+04  0.87206435969E+03 0.  0.
         23    2    4    4    0    0  0.85189883982E+01  0.27820401072E+03  0.96077739659E+03  0.10043496533E+04  0.90304902694E+02 0.  0.
         23    2    4    4    0    0 -0.93261644077E+02 -0.40818740407E+03  0.25099488154E+03  0.49663845519E+03  0.91305166993E+02 0.  0.
          3    1    3    3  502    0  0.35432642449E+02  0.97631205560E+02  0.28219873559E+03  0.30070492317E+03  0.00000000000E+00 0. -1.
         -4    1    3    3    0  502  0.49310013229E+02  0.32352187791E+02  0.28973671038E+03  0.29567803909E+03  0.00000000000E+00 0.  1.
         13    1    5    5    0    0  0.35009306320E+02  0.25404523946E+03  0.82673641385E+03  0.86559674977E+03  0.00000000000E+00 0.  1.
        -13    1    5    5    0    0 -0.26490317922E+02  0.24158771259E+02  0.13404098273E+03  0.13875290348E+03  0.00000000000E+00 0. -1.
          3    1    6    6  503    0 -0.72334616903E+00 -0.18147203271E+02 -0.75049639645E+01  0.19651175546E+02  0.00000000000E+00 0. -1.
         -3    1    6    6    0  503 -0.92538297908E+02 -0.39004020080E+03  0.25849984550E+03  0.47698727965E+03  0.00000000000E+00 0.  1.
<mgrwt>
<rscale>  0 0.11033368E+04</rscale>
<asrwt>0</asrwt>
<pdfrwt beam="1">  1        1 0.29854451E+00 0.11033368E+04</pdfrwt>
<pdfrwt beam="2">  1       -2 0.24127951E-01 0.11033368E+04</pdfrwt>
<totfact> 0.43857302E+01</totfact>
</mgrwt>
</event>
<event>
12    5  0.5264288E-008  0.1211493E+04  0.7818608E-02  0.9102856E-01
          1   -1    0    0  501    0  0.00000000000E+00  0.00000000000E+00  0.16327838067E+04  0.16327838067E+04  0.00000000000E+00 0. -1.
         -2   -1    0    0    0  501 -0.00000000000E+00 -0.00000000000E+00 -0.22472588211E+03  0.22472588211E+03  0.00000000000E+00 0.  1.
        -24    2    1    2    0    0 -0.15991183314E+03  0.18864294702E+03  0.44113990762E+03  0.51193740812E+03  0.79482928333E+02 0.  0.
        254    2    1    2    0    0  0.15991183314E+03 -0.18864294702E+03  0.96691801701E+03  0.13455722807E+04  0.90248343764E+03 0.  0.
         23    2    4    4    0    0  0.69823096681E+02 -0.19102044132E+03  0.11215633875E+04  0.11435958266E+04  0.92427856471E+02 0.  0.
         23    2    4    4    0    0  0.90088736463E+02  0.23774942924E+01 -0.15464537045E+03  0.20197645415E+03  0.93582394252E+02 0.  0.
          3    1    3    3  502    0 -0.22889682534E+02  0.58657348709E+02  0.17181181178E+03  0.18298612186E+03  0.00000000000E+00 0. -1.
         -4    1    3    3    0  502 -0.13702215061E+03  0.12998559832E+03  0.26932809584E+03  0.32895128627E+03  0.00000000000E+00 0.  1.
         13    1    5    5    0    0  0.57819666307E+02 -0.69564692826E+02  0.65996310755E+03  0.66613336775E+03  0.00000000000E+00 0.  1.
        -13    1    5    5    0    0  0.12003430374E+02 -0.12145574849E+03  0.46160027991E+03  0.47746245883E+03  0.00000000000E+00 0. -1.
          3    1    6    6  503    0  0.25655471844E+02 -0.18424399623E-02  0.81164253882E+01  0.26908727210E+02  0.00000000000E+00 0. -1.
         -3    1    6    6    0  503  0.64433264618E+02  0.23793367324E+01 -0.16276179584E+03  0.17506772694E+03  0.00000000000E+00 0.  1.
<mgrwt>
<rscale>  0 0.12114929E+04</rscale>
<asrwt>0</asrwt>
<pdfrwt beam="1">  1        1 0.25119750E+00 0.12114929E+04</pdfrwt>
<pdfrwt beam="2">  1       -2 0.34573214E-01 0.12114929E+04</pdfrwt>
<totfact> 0.36069565E+01</totfact>
</mgrwt>
</event>
<event>
12    5  0.5264288E-008  0.2967486E+04  0.7818608E-02  0.8253077E-01
         -4   -1    0    0    0  501 -0.00000000000E+00  0.00000000000E+00  0.12609667593E+04  0.12609667593E+04  0.00000000000E+00 0.  1.
          1   -1    0    0  501    0  0.00000000000E+00 -0.00000000000E+00 -0.17458775952E+04  0.17458775952E+04  0.00000000000E+00 0. -1.
        -24    2    1    2    0    0 -0.65377680328E+03 -0.11452484242E+04 -0.58594546953E+03  0.14452272259E+04  0.79571223003E+02 0.  0.
        254    2    1    2    0    0  0.65377680328E+03  0.11452484242E+04  0.10103463365E+03  0.15616171286E+04  0.83031439675E+03 0.  0.
         23    2    4    4    0    0  0.40407689299E+03  0.11465218426E+04 -0.10612511894E+03  0.12237201566E+04  0.91858640425E+02 0.  0.
         23    2    4    4    0    0  0.24969991029E+03 -0.12734183998E+01  0.20715975259E+03  0.33789697197E+03  0.94379731814E+02 0.  0.
          1    1    3    3  502    0 -0.58332515220E+03 -0.10163610741E+04 -0.49256668023E+03  0.12711726872E+04  0.00000000000E+00 0. -1.
         -4    1    3    3    0  502 -0.70451651075E+02 -0.12888735013E+03 -0.93378789300E+02  0.17405453873E+03  0.00000000000E+00 0.  1.
         13    1    5    5    0    0  0.25276856013E+03  0.58021870218E+03 -0.60875224778E+02  0.63580773851E+03  0.00000000000E+00 0. -1.
        -13    1    5    5    0    0  0.15130833285E+03  0.56630314043E+03 -0.45249894161E+02  0.58791241812E+03  0.00000000000E+00 0.  1.
          3    1    6    6  503    0  0.32047289277E+02  0.17403017685E+02  0.72825229013E+02  0.81445735035E+02  0.00000000000E+00 0. -1.
         -3    1    6    6    0  503  0.21765262102E+03 -0.18676436085E+02  0.13433452358E+03  0.25645123693E+03  0.00000000000E+00 0.  1.
<mgrwt>
<rscale>  0 0.29674862E+04</rscale>
<asrwt>0</asrwt>
<pdfrwt beam="1">  1        1 0.26859655E+00 0.29674862E+04</pdfrwt>
<pdfrwt beam="2">  1       -4 0.19399489E+00 0.29674862E+04</pdfrwt>
<totfact> 0.26583311E-01</totfact>
</mgrwt>
</event>
<event>
12    5  0.5264288E-008  0.2246584E+04  0.7818608E-02  0.8499285E-01
          1   -1    0    0  501    0  0.00000000000E+00  0.00000000000E+00  0.36833871593E+04  0.36833871593E+04  0.00000000000E+00 0. -1.
         -2   -1    0    0    0  501 -0.00000000000E+00 -0.00000000000E+00 -0.34256112920E+03  0.34256112920E+03  0.00000000000E+00 0.  1.
        -24    2    1    2    0    0  0.87429959863E+03 -0.35120137687E+03  0.13901385991E+04  0.16810949335E+04  0.76502650411E+02 0.  0.
        254    2    1    2    0    0 -0.87429959863E+03  0.35120137687E+03  0.19506874310E+04  0.23448533550E+04  0.89744838714E+03 0.  0.
         23    2    4    4    0    0 -0.59529192407E+03 -0.20426082734E+03  0.70086013484E+03  0.94602998782E+03  0.87594798926E+02 0.  0.
         23    2    4    4    0    0 -0.27900767456E+03  0.55546220421E+03  0.12498272962E+04  0.13988233671E+04  0.90857027753E+02 0.  0.
          1    1    3    3  502    0  0.82576504602E+03 -0.34244292447E+03  0.13395000305E+04  0.16104084573E+04  0.00000000000E+00 0. -1.
         -2    1    3    3    0  502  0.48534552611E+02 -0.87584524048E+01  0.50638568592E+02  0.70686476179E+02  0.00000000000E+00 0.  1.
         13    1    5    5    0    0 -0.26539232484E+03 -0.47273766240E+02  0.31638512381E+03  0.41565303033E+03  0.00000000000E+00 0. -1.
        -13    1    5    5    0    0 -0.32989959923E+03 -0.15698706110E+03  0.38447501104E+03  0.53037695749E+03  0.00000000000E+00 0.  1.
          4    1    6    6  503    0 -0.61410981344E+02  0.18939921044E+03  0.46671649541E+03  0.50741270839E+03  0.00000000000E+00 0. -1.
         -4    1    6    6    0  503 -0.21759669321E+03  0.36606299377E+03  0.78311080074E+03  0.89141065875E+03  0.00000000000E+00 0.  1.
<mgrwt>
<rscale>  0 0.22465843E+04</rscale>
<asrwt>0</asrwt>
<pdfrwt beam="1">  1        1 0.56667492E+00 0.22465843E+04</pdfrwt>
<pdfrwt beam="2">  1       -2 0.52701715E-01 0.22465843E+04</pdfrwt>
<totfact> 0.48415190E-01</totfact>
</mgrwt>
</event>
<event>
12    5  0.5264288E-008  0.1880229E+04  0.7818608E-02  0.8664761E-01
         -2   -1    0    0    0  501 -0.00000000000E+00  0.00000000000E+00  0.19035081917E+04  0.19035081917E+04  0.00000000000E+00 0.  1.
          1   -1    0    0  501    0  0.00000000000E+00 -0.00000000000E+00 -0.46430849179E+03  0.46430849179E+03  0.00000000000E+00 0. -1.
        -24    2    1    2    0    0  0.68444177030E+03  0.21903484267E+03  0.48013463472E+03  0.86783317760E+03  0.78538891315E+02 0.  0.
        254    2    1    2    0    0 -0.68444177030E+03 -0.21903484267E+03  0.95906506522E+03  0.14999835059E+04  0.90205760320E+03 0.  0.
         23    2    4    4    0    0 -0.80718056837E+03  0.59763413735E+02  0.55097667804E+03  0.98344952120E+03  0.92116911748E+02 0.  0.
         23    2    4    4    0    0  0.12273879807E+03 -0.27879825640E+03  0.40808838718E+03  0.51653398472E+03  0.86475113733E+02 0.  0.
          1    1    3    3  502    0  0.27611768433E+03  0.10668188987E+03  0.15652486889E+03  0.33484628684E+03  0.00000000000E+00 0. -1.
         -2    1    3    3    0  502  0.40832408597E+03  0.11235295279E+03  0.32360976582E+03  0.53298689076E+03  0.00000000000E+00 0.  1.
         13    1    5    5    0    0 -0.23109550611E+03 -0.20966731926E+02  0.13700369664E+03  0.26947124092E+03  0.00000000000E+00 0. -1.
        -13    1    5    5    0    0 -0.57608506226E+03  0.80730145661E+02  0.41397298140E+03  0.71397828028E+03  0.00000000000E+00 0.  1.
          1    1    6    6  503    0  0.11469611471E+02 -0.73677166605E+02  0.52425452710E+02  0.91149903774E+02  0.00000000000E+00 0. -1.
         -1    1    6    6    0  503  0.11126918660E+03 -0.20512108980E+03  0.35566293447E+03  0.42538408095E+03  0.00000000000E+00 0.  1.
<mgrwt>
<rscale>  0 0.18802287E+04</rscale>
<asrwt>0</asrwt>
<pdfrwt beam="1">  1        1 0.71432076E-01 0.18802287E+04</pdfrwt>
<pdfrwt beam="2">  1       -2 0.29284741E+00 0.18802287E+04</pdfrwt>
<totfact> 0.14161740E+00</totfact>
</mgrwt>
</event>
<event>
12    5  0.5264288E-008  0.1633781E+04  0.7818608E-02  0.8800060E-01
          1   -1    0    0  501    0  0.00000000000E+00  0.00000000000E+00  0.82932443485E+03  0.82932443485E+03  0.00000000000E+00 0. -1.
         -2   -1    0    0    0  501 -0.00000000000E+00 -0.00000000000E+00 -0.80464275182E+03  0.80464275182E+03  0.00000000000E+00 0.  1.
        -24    2    1    2    0    0 -0.54692790855E+02 -0.56343869104E+03  0.13782037487E+03  0.58808157313E+03  0.79943861500E+02 0.  0.
        254    2    1    2    0    0  0.54692790855E+02  0.56343869104E+03 -0.11313869184E+03  0.10458856135E+04  0.87213639592E+03 0.  0.
         23    2    4    4    0    0  0.18705877699E+03 -0.19791882114E+02  0.26193250134E+03  0.33319683869E+03  0.83837899583E+02 0.  0.
         23    2    4    4    0    0 -0.13236598614E+03  0.58323057315E+03 -0.37507119318E+03  0.71268877485E+03  0.97817350660E+02 0.  0.
          3    1    3    3  502    0 -0.65684909994E+02 -0.50863002494E+03  0.14163310748E+03  0.53205163923E+03  0.00000000000E+00 0. -1.
         -4    1    3    3    0  502  0.10992119139E+02 -0.54808666103E+02 -0.38127326110E+01  0.56029933902E+02  0.00000000000E+00 0.  1.
         13    1    5    5    0    0  0.14470430301E+03  0.12052741131E+02  0.22787165041E+03  0.27020379890E+03  0.00000000000E+00 0.  1.
        -13    1    5    5    0    0  0.42354473984E+02 -0.31844623245E+02  0.34060850929E+02  0.62993039791E+02  0.00000000000E+00 0. -1.
          2    1    6    6  503    0 -0.42727164289E+01  0.72708061255E+01  0.59536830155E+01  0.10323132705E+02  0.00000000000E+00 0. -1.
         -2    1    6    6    0  503 -0.12809326971E+03  0.57595976703E+03 -0.38102487619E+03  0.70236564214E+03  0.00000000000E+00 0.  1.
<mgrwt>
<rscale>  0 0.16337808E+04</rscale>
<asrwt>0</asrwt>
<pdfrwt beam="1">  1        1 0.12758837E+00 0.16337808E+04</pdfrwt>
<pdfrwt beam="2">  1       -2 0.12379119E+00 0.16337808E+04</pdfrwt>
<totfact> 0.85884913E+00</totfact>
</mgrwt>
</event>
<event>
12    5  0.5264288E-008  0.1399217E+04  0.7818608E-02  0.8954385E-01
          1   -1    0    0  501    0  0.00000000000E+00  0.00000000000E+00  0.55807548647E+03  0.55807548647E+03  0.00000000000E+00 0. -1.
         -2   -1    0    0    0  501 -0.00000000000E+00 -0.00000000000E+00 -0.87703577627E+03  0.87703577627E+03  0.00000000000E+00 0.  1.
        -24    2    1    2    0    0  0.23045617431E+03 -0.92310658441E+02  0.23249353808E+03  0.34977178500E+03  0.81582782451E+02 0.  0.
        254    2    1    2    0    0 -0.23045617431E+03  0.92310658441E+02 -0.55145382788E+03  0.10853394778E+04  0.90123756676E+03 0.  0.
         23    2    4    4    0    0  0.24375114097E+03 -0.31245744085E+02 -0.52457214293E+03  0.58643781022E+03  0.91337050937E+02 0.  0.
         23    2    4    4    0    0 -0.47420731528E+03  0.12355640253E+03 -0.26881684950E+02  0.49890166753E+03  0.89674335308E+02 0.  0.
          1    1    3    3  502    0  0.18538311585E+03 -0.91817703491E+02  0.14920387117E+03  0.25506702156E+03  0.00000000000E+00 0. -1.
         -2    1    3    3    0  502  0.45073058460E+02 -0.49295494969E+00  0.83289666909E+02  0.94704763436E+02  0.00000000000E+00 0.  1.
         13    1    5    5    0    0 -0.32177887969E+01  0.11080402166E+02 -0.20573069519E+02  0.23587722789E+02  0.00000000000E+00 0.  1.
        -13    1    5    5    0    0  0.24696892977E+03 -0.42326146251E+02 -0.50399907341E+03  0.56285008743E+03  0.00000000000E+00 0. -1.
          3    1    6    6  503    0 -0.35236146483E+03  0.13095053214E+03 -0.26355424845E+02  0.37683053510E+03  0.00000000000E+00 0. -1.
         -3    1    6    6    0  503 -0.12184585045E+03 -0.73941296100E+01 -0.52626010458E+00  0.12207113243E+03  0.00000000000E+00 0.  1.
<mgrwt>
<rscale>  0 0.13992172E+04</rscale>
<asrwt>0</asrwt>
<pdfrwt beam="1">  1        1 0.85857768E-01 0.13992172E+04</pdfrwt>
<pdfrwt beam="2">  1       -2 0.13492858E+00 0.13992172E+04</pdfrwt>
<totfact> 0.12798522E+01</totfact>
</mgrwt>
</event>
<event>
12    5  0.5264288E-008  0.1640116E+04  0.7818608E-02  0.8796275E-01
          1   -1    0    0  501    0  0.00000000000E+00  0.00000000000E+00  0.83660756082E+03  0.83660756082E+03  0.00000000000E+00 0. -1.
         -2   -1    0    0    0  501 -0.00000000000E+00 -0.00000000000E+00 -0.80383626252E+03  0.80383626252E+03  0.00000000000E+00 0.  1.
        -24    2    1    2    0    0  0.41689103182E+03 -0.22750206772E+03  0.32719280901E+03  0.58211994682E+03  0.79077019305E+02 0.  0.
        254    2    1    2    0    0 -0.41689103182E+03  0.22750206772E+03 -0.29442151071E+03  0.10583238765E+04  0.89878255346E+03 0.  0.
         23    2    4    4    0    0 -0.69733149844E+02  0.44949552856E+03 -0.41203161283E+03  0.62038345959E+03  0.90535322274E+02 0.  0.
         23    2    4    4    0    0 -0.34715788198E+03 -0.22199346084E+03  0.11761010212E+03  0.43794041693E+03  0.90332613073E+02 0.  0.
          1    1    3    3  502    0  0.40570079086E+03 -0.20321563055E+03  0.31694358313E+03  0.55348257343E+03  0.00000000000E+00 0. -1.
         -2    1    3    3    0  502  0.11190240961E+02 -0.24286437170E+02  0.10249225878E+02  0.28637373383E+02  0.00000000000E+00 0.  1.
         13    1    5    5    0    0  0.57138948084E+01  0.13874765978E+03 -0.16901063162E+03  0.21874221195E+03  0.00000000000E+00 0. -1.
        -13    1    5    5    0    0 -0.75447044653E+02  0.31074786877E+03 -0.24302098121E+03  0.40164124764E+03  0.00000000000E+00 0.  1.
          3    1    6    6  503    0 -0.23851044689E+03 -0.10989656872E+03  0.47766785270E+02  0.26691975361E+03  0.00000000000E+00 0. -1.
         -3    1    6    6    0  503 -0.10864743509E+03 -0.11209689212E+03  0.69843316852E+02  0.17102066332E+03  0.00000000000E+00 0.  1.
<mgrwt>
<rscale>  0 0.16401165E+04</rscale>
<asrwt>0</asrwt>
<pdfrwt beam="1">  1        1 0.12870886E+00 0.16401165E+04</pdfrwt>
<pdfrwt beam="2">  1       -2 0.12366712E+00 0.16401165E+04</pdfrwt>
<totfact> 0.84834842E+00</totfact>
</mgrwt>
</event>
<event>
12    5  0.5264288E-008  0.1221426E+04  0.7818608E-02  0.9094306E-01
         -2   -1    0    0    0  501 -0.00000000000E+00  0.00000000000E+00  0.57355260720E+03  0.57355260720E+03  0.00000000000E+00 0.  1.
          1   -1    0    0  501    0  0.00000000000E+00 -0.00000000000E+00 -0.65028131924E+03  0.65028131924E+03  0.00000000000E+00 0. -1.
        -24    2    1    2    0    0 -0.27544309784E+03 -0.16648551843E+02 -0.43223900809E+02  0.29096110966E+03  0.81510657598E+02 0.  0.
        254    2    1    2    0    0  0.27544309784E+03  0.16648551843E+02 -0.33504811231E+02  0.93287281678E+03  0.89049595478E+03 0.  0.
         23    2    4    4    0    0 -0.20489638678E+03 -0.20504168124E+03 -0.20652984754E+03  0.36864912790E+03  0.96036353609E+02 0.  0.
         23    2    4    4    0    0  0.48033948463E+03  0.22169023309E+03  0.17302503630E+03  0.56422368888E+03  0.92401991149E+02 0.  0.
          3    1    3    3  502    0 -0.25003289108E+03 -0.14635876295E+02 -0.12129731882E+02  0.25075443344E+03  0.00000000000E+00 0. -1.
         -4    1    3    3    0  502 -0.25410206766E+02 -0.20126755480E+01 -0.31094168927E+02  0.40206676212E+02  0.00000000000E+00 0.  1.
         13    1    5    5    0    0 -0.19023347914E+03 -0.21090600695E+03 -0.20904067161E+03  0.35265864904E+03  0.00000000000E+00 0. -1.
        -13    1    5    5    0    0 -0.14662907641E+02  0.58643257097E+01  0.25108240794E+01  0.15990478857E+02  0.00000000000E+00 0.  1.
          3    1    6    6  503    0  0.28813758406E+03  0.10894990323E+03  0.14216341794E+03  0.33926948899E+03  0.00000000000E+00 0. -1.
         -3    1    6    6    0  503  0.19220190057E+03  0.11274032986E+03  0.30861618360E+02  0.22495419989E+03  0.00000000000E+00 0.  1.
<mgrwt>
<rscale>  0 0.12214263E+04</rscale>
<asrwt>0</asrwt>
<pdfrwt beam="1">  1        1 0.10004328E+00 0.12214263E+04</pdfrwt>
<pdfrwt beam="2">  1       -2 0.88238863E-01 0.12214263E+04</pdfrwt>
<totfact> 0.29131273E+01</totfact>
</mgrwt>
</event>
<event>
12    5  0.5264288E-008  0.1642537E+04  0.7818608E-02  0.8794834E-01
          1   -1    0    0  501    0  0.00000000000E+00  0.00000000000E+00  0.42928617462E+03  0.42928617462E+03  0.00000000000E+00 0. -1.
         -2   -1    0    0    0  501 -0.00000000000E+00 -0.00000000000E+00 -0.15711700831E+04  0.15711700831E+04  0.00000000000E+00 0.  1.
        -24    2    1    2    0    0 -0.31536906381E+03  0.36670266983E+03 -0.78272786161E+03  0.92381046763E+03  0.82670310809E+02 0.  0.
        254    2    1    2    0    0  0.31536906381E+03 -0.36670266983E+03 -0.35915604686E+03  0.10766457901E+04  0.89232538730E+03 0.  0.
         23    2    4    4    0    0  0.62049301527E+03 -0.26823031426E+03 -0.22431691712E+03  0.71701499813E+03  0.82664047527E+02 0.  0.
         23    2    4    4    0    0 -0.30512395146E+03 -0.98472355578E+02 -0.13483912974E+03  0.35963079194E+03  0.91407248272E+02 0.  0.
          1    1    3    3  502    0  0.13330532680E+01 -0.31138232167E+01 -0.28697724591E+01  0.44394278919E+01  0.00000000000E+00 0. -1.
         -2    1    3    3    0  502 -0.31670211708E+03  0.36981649305E+03 -0.77985808915E+03  0.91937103974E+03  0.00000000000E+00 0.  1.
         13    1    5    5    0    0  0.14389454211E+03 -0.51629780212E+02 -0.86572970159E+02  0.17568765641E+03  0.00000000000E+00 0.  1.
        -13    1    5    5    0    0  0.47659847316E+03 -0.21660053405E+03 -0.13774394696E+03  0.54132734172E+03  0.00000000000E+00 0. -1.
          1    1    6    6  503    0 -0.25312412329E+03 -0.61231299682E+02 -0.13962282095E+03  0.29549217584E+03  0.00000000000E+00 0. -1.
         -1    1    6    6    0  503 -0.51999828168E+02 -0.37241055896E+02  0.47836912121E+01  0.64138616101E+02  0.00000000000E+00 0.  1.
<mgrwt>
<rscale>  0 0.16425366E+04</rscale>
<asrwt>0</asrwt>
<pdfrwt beam="1">  1        1 0.66044028E-01 0.16425366E+04</pdfrwt>
<pdfrwt beam="2">  1       -2 0.24171847E+00 0.16425366E+04</pdfrwt>
<totfact> 0.32980339E+00</totfact>
</mgrwt>
</event>
<event>
12    5  0.5264288E-008  0.1406444E+04  0.7818608E-02  0.8949167E-01
         -2   -1    0    0    0  501 -0.00000000000E+00  0.00000000000E+00  0.13302569893E+04  0.13302569893E+04  0.00000000000E+00 0.  1.
          1   -1    0    0  501    0  0.00000000000E+00 -0.00000000000E+00 -0.37174854036E+03  0.37174854036E+03  0.00000000000E+00 0. -1.
        -24    2    1    2    0    0 -0.18544361609E+03 -0.18647144025E+03 -0.63914126814E+02  0.28218752497E+03  0.79899004132E+02 0.  0.
        254    2    1    2    0    0  0.18544361609E+03  0.18647144025E+03  0.10224225757E+04  0.14198180047E+04  0.94940734685E+03 0.  0.
         23    2    4    4    0    0 -0.28898161541E+03 -0.17932489535E+03  0.54275406755E+03  0.64695056302E+03  0.91078323471E+02 0.  0.
         23    2    4    4    0    0  0.47442523150E+03  0.36579633561E+03  0.47966850820E+03  0.77286744167E+03  0.91410859339E+02 0.  0.
          3    1    3    3  502    0 -0.13428413596E+03 -0.13708964382E+03 -0.82207468928E+02  0.20876749642E+03  0.00000000000E+00 0. -1.
         -4    1    3    3    0  502 -0.51159480136E+02 -0.49381796432E+02  0.18293342115E+02  0.73420028550E+02  0.00000000000E+00 0.  1.
         13    1    5    5    0    0 -0.10790466837E+03 -0.62901829607E+02  0.28469927349E+03  0.31089183642E+03  0.00000000000E+00 0.  1.
        -13    1    5    5    0    0 -0.18107694704E+03 -0.11642306575E+03  0.25805479406E+03  0.33605872660E+03  0.00000000000E+00 0. -1.
          1    1    6    6  503    0  0.43137900927E+03  0.32906350626E+03  0.46461875243E+03  0.71431171480E+03  0.00000000000E+00 0. -1.
         -1    1    6    6    0  503  0.43046222234E+02  0.36732829350E+02  0.15049755767E+02  0.58555726870E+02  0.00000000000E+00 0.  1.
<mgrwt>
<rscale>  0 0.14064439E+04</rscale>
<asrwt>0</asrwt>
<pdfrwt beam="1">  1        1 0.57192083E-01 0.14064439E+04</pdfrwt>
<pdfrwt beam="2">  1       -2 0.20465492E+00 0.14064439E+04</pdfrwt>
<totfact> 0.69767795E+00</totfact>
</mgrwt>
</event>
<event>
12    5  0.5264288E-008  0.1759327E+04  0.7818608E-02  0.8728233E-01
         -2   -1    0    0    0  501 -0.00000000000E+00  0.00000000000E+00  0.39805601990E+03  0.39805601990E+03  0.00000000000E+00 0.  1.
          1   -1    0    0  501    0  0.00000000000E+00 -0.00000000000E+00 -0.19439679341E+04  0.19439679341E+04  0.00000000000E+00 0. -1.
        -24    2    1    2    0    0  0.29944048192E+03  0.49230485186E+03 -0.19938996761E+03  0.61693743578E+03  0.93950897286E+02 0.  0.
        254    2    1    2    0    0 -0.29944048192E+03 -0.49230485186E+03 -0.13465219466E+04  0.17250865182E+04  0.91146775770E+03 0.  0.
         23    2    4    4    0    0 -0.16424726736E+03  0.20409214091E+03 -0.11148870837E+03  0.29787893087E+03  0.87586291987E+02 0.  0.
         23    2    4    4    0    0 -0.13519321456E+03 -0.69639699277E+03 -0.12350332382E+04  0.14272075874E+04  0.91479074677E+02 0.  0.
          1    1    3    3  502    0  0.45744659808E+02  0.25459243489E+02 -0.21937448203E+02  0.56762651574E+02  0.00000000000E+00 0. -1.
         -2    1    3    3    0  502  0.25369582211E+03  0.46684560837E+03 -0.17745251940E+03  0.56017478420E+03  0.00000000000E+00 0.  1.
         13    1    5    5    0    0 -0.51509272517E+02  0.40218497874E+02 -0.67921753028E+02  0.94255489287E+02  0.00000000000E+00 0.  1.
        -13    1    5    5    0    0 -0.11273799484E+03  0.16387364304E+03 -0.43566955346E+02  0.20362344158E+03  0.00000000000E+00 0. -1.
          1    1    6    6  503    0 -0.99483440294E+02 -0.44440237730E+03 -0.87332820166E+03  0.98493277723E+03  0.00000000000E+00 0. -1.
         -1    1    6    6    0  503 -0.35709774271E+02 -0.25199461547E+03 -0.36170503657E+03  0.44227481014E+03  0.00000000000E+00 0.  1.
<mgrwt>
<rscale>  0 0.17593273E+04</rscale>
<asrwt>0</asrwt>
<pdfrwt beam="1">  1        1 0.29907199E+00 0.17593273E+04</pdfrwt>
<pdfrwt beam="2">  1       -2 0.61239389E-01 0.17593273E+04</pdfrwt>
<totfact> 0.67070934E+00</totfact>
</mgrwt>
</event>
<event>
12    5  0.5264288E-008  0.1451950E+04  0.7818608E-02  0.8917050E-01
          1   -1    0    0  501    0  0.00000000000E+00  0.00000000000E+00  0.70693548275E+03  0.70693548275E+03  0.00000000000E+00 0. -1.
         -2   -1    0    0    0  501 -0.00000000000E+00 -0.00000000000E+00 -0.74552680300E+03  0.74552680300E+03  0.00000000000E+00 0.  1.
        -24    2    1    2    0    0 -0.10244409776E+03  0.15510325708E+02 -0.43112999111E+03  0.45037074197E+03  0.78901030534E+02 0.  0.
        254    2    1    2    0    0  0.10244409776E+03 -0.15510325708E+02  0.39253867086E+03  0.10020915438E+04  0.91616892034E+03 0.  0.
         23    2    4    4    0    0 -0.33393577172E+03  0.31165313920E+02  0.42934356968E+03  0.55223232645E+03  0.90223417845E+02 0.  0.
         23    2    4    4    0    0  0.43637986948E+03 -0.46675639628E+02 -0.36804898818E+02  0.44985921732E+03  0.91720820982E+02 0.  0.
          3    1    3    3  502    0 -0.57714442592E+02 -0.89087314771E+01 -0.10381966732E+03  0.11911694129E+03  0.00000000000E+00 0. -1.
         -2    1    3    3    0  502 -0.44729655173E+02  0.24419057185E+02 -0.32731032379E+03  0.33125380068E+03  0.00000000000E+00 0.  1.
         13    1    5    5    0    0 -0.11154588330E+03 -0.29697065377E+02  0.12115799881E+03  0.16734294263E+03  0.00000000000E+00 0. -1.
        -13    1    5    5    0    0 -0.22238988842E+03  0.60862379297E+02  0.30818557087E+03  0.38488938383E+03  0.00000000000E+00 0.  1.
          3    1    6    6  503    0  0.92331951446E+02  0.27246884971E+02 -0.26357709214E+01  0.96304357569E+02  0.00000000000E+00 0. -1.
         -3    1    6    6    0  503  0.34404791804E+03 -0.73922524599E+02 -0.34169127896E+02  0.35355485975E+03  0.00000000000E+00 0.  1.
<mgrwt>
<rscale>  0 0.14519495E+04</rscale>
<asrwt>0</asrwt>
<pdfrwt beam="1">  1        1 0.10875930E+00 0.14519495E+04</pdfrwt>
<pdfrwt beam="2">  1       -2 0.11469643E+00 0.14519495E+04</pdfrwt>
<totfact> 0.13541208E+01</totfact>
</mgrwt>
</event>
<event>
12    5  0.5264288E-008  0.1251992E+04  0.7818608E-02  0.9068527E-01
         -2   -1    0    0    0  501 -0.00000000000E+00  0.00000000000E+00  0.51291130718E+03  0.51291130718E+03  0.00000000000E+00 0.  1.
          1   -1    0    0  501    0  0.00000000000E+00 -0.00000000000E+00 -0.76401344120E+03  0.76401344120E+03  0.00000000000E+00 0. -1.
        -24    2    1    2    0    0 -0.23224908436E+03  0.10535239622E+03  0.92572694256E+02  0.28316075233E+03  0.81065056342E+02 0.  0.
        254    2    1    2    0    0  0.23224908436E+03 -0.10535239622E+03 -0.34367482828E+03  0.99376399605E+03  0.89689226091E+03 0.  0.
         23    2    4    4    0    0  0.28826916238E+01 -0.45867204641E+03 -0.31014447972E+03  0.56101865329E+03  0.90354717472E+02 0.  0.
         23    2    4    4    0    0  0.22936639274E+03  0.35331965019E+03 -0.33530348554E+02  0.43274534276E+03  0.93276632034E+02 0.  0.
          1    1    3    3  502    0 -0.49170352990E+02  0.41857294510E+02 -0.76065643730E+01  0.65020124103E+02  0.00000000000E+00 0. -1.
         -2    1    3    3    0  502 -0.18307873137E+03  0.63495101712E+02  0.10017925863E+03  0.21814062822E+03  0.00000000000E+00 0.  1.
         13    1    5    5    0    0  0.26747279329E+02 -0.39972926059E+03 -0.28907802695E+03  0.49402935579E+03  0.00000000000E+00 0. -1.
        -13    1    5    5    0    0 -0.23864587705E+02 -0.58942785821E+02 -0.21066452776E+02  0.66989297497E+02  0.00000000000E+00 0.  1.
          1    1    6    6  503    0  0.15913677184E+03  0.24518287318E+03  0.20333226789E+02  0.29300613230E+03  0.00000000000E+00 0. -1.
         -1    1    6    6    0  503  0.70229620902E+02  0.10813677700E+03 -0.53863575343E+02  0.13973921047E+03  0.00000000000E+00 0.  1.
<mgrwt>
<rscale>  0 0.12519922E+04</rscale>
<asrwt>0</asrwt>
<pdfrwt beam="1">  1        1 0.11754053E+00 0.12519922E+04</pdfrwt>
<pdfrwt beam="2">  1       -2 0.78909432E-01 0.12519922E+04</pdfrwt>
<totfact> 0.29301282E+01</totfact>
</mgrwt>
</event>
<event>
12    5  0.5264288E-008  0.1210154E+04  0.7818608E-02  0.9104015E-01
         -2   -1    0    0    0  501 -0.00000000000E+00  0.00000000000E+00  0.13953312580E+03  0.13953312580E+03  0.00000000000E+00 0.  1.
          1   -1    0    0  501    0  0.00000000000E+00 -0.00000000000E+00 -0.26238789189E+04  0.26238789189E+04  0.00000000000E+00 0. -1.
        -24    2    1    2    0    0 -0.56724389923E+01 -0.25554619936E+03 -0.42523013083E+03  0.50157946919E+03  0.73656385893E+02 0.  0.
        254    2    1    2    0    0  0.56724389923E+01  0.25554619936E+03 -0.20591156623E+04  0.22618325755E+04  0.90032952435E+03 0.  0.
         23    2    4    4    0    0 -0.29442363982E+03  0.29985462632E+03 -0.18068450220E+04  0.18571903639E+04  0.88707595383E+02 0.  0.
         23    2    4    4    0    0  0.30009607881E+03 -0.44308426961E+02 -0.25227064033E+03  0.40464221169E+03  0.89855162877E+02 0.  0.
          3    1    3    3  502    0 -0.23128706205E+02 -0.58274436747E+02 -0.63813625715E+02  0.89459632549E+02  0.00000000000E+00 0. -1.
         -4    1    3    3    0  502  0.17456267213E+02 -0.19727176261E+03 -0.36141650511E+03  0.41211983665E+03  0.00000000000E+00 0.  1.
         13    1    5    5    0    0 -0.98945473080E+02  0.55612520347E+02 -0.38765992279E+03  0.40393461699E+03  0.00000000000E+00 0.  1.
        -13    1    5    5    0    0 -0.19547816674E+03  0.24424210597E+03 -0.14191850992E+04  0.14532557469E+04  0.00000000000E+00 0. -1.
          3    1    6    6  503    0  0.26794221379E+03 -0.82615176096E+01 -0.21452002214E+03  0.34333674796E+03  0.00000000000E+00 0. -1.
         -3    1    6    6    0  503  0.32153865021E+02 -0.36046909351E+02 -0.37750618191E+02  0.61305463732E+02  0.00000000000E+00 0.  1.
<mgrwt>
<rscale>  0 0.12101538E+04</rscale>
<asrwt>0</asrwt>
<pdfrwt beam="1">  1        1 0.40367369E+00 0.12101538E+04</pdfrwt>
<pdfrwt beam="2">  1       -2 0.21466634E-01 0.12101538E+04</pdfrwt>
<totfact> 0.18321479E+01</totfact>
</mgrwt>
</event>
<event>
12    5  0.5264288E-008  0.1061675E+04  0.7818608E-02  0.9243372E-01
          1   -1    0    0  501    0  0.00000000000E+00  0.00000000000E+00  0.50591041687E+03  0.50591041687E+03  0.00000000000E+00 0. -1.
         -2   -1    0    0    0  501 -0.00000000000E+00 -0.00000000000E+00 -0.55699312996E+03  0.55699312996E+03  0.00000000000E+00 0.  1.
        -24    2    1    2    0    0 -0.10731233134E+03 -0.57495772078E+02 -0.39534026800E+02  0.15167145410E+03  0.81360865590E+02 0.  0.
        254    2    1    2    0    0  0.10731233134E+03  0.57495772078E+02 -0.11548686298E+02  0.91123209273E+03  0.90298884512E+03 0.  0.
         23    2    4    4    0    0  0.49540587598E+03 -0.23862658601E+02 -0.25308710962E+02  0.50420595142E+03  0.87101677205E+02 0.  0.
         23    2    4    4    0    0 -0.38809354464E+03  0.81358430679E+02  0.13760024663E+02  0.40702614131E+03  0.90802796190E+02 0.  0.
          3    1    3    3  502    0 -0.84617693668E+01 -0.10784737882E+02  0.22217642776E+02  0.26106239916E+02  0.00000000000E+00 0. -1.
         -4    1    3    3    0  502 -0.98850561972E+02 -0.46711034195E+02 -0.61751669576E+02  0.12556521418E+03  0.00000000000E+00 0.  1.
         13    1    5    5    0    0  0.31105550271E+02 -0.19977676190E+02  0.10726546832E+02  0.38493137188E+02  0.00000000000E+00 0.  1.
        -13    1    5    5    0    0  0.46430032571E+03 -0.38849824114E+01 -0.36035257793E+02  0.46571281424E+03  0.00000000000E+00 0. -1.
          4    1    6    6  503    0 -0.36554467079E+03  0.65978863398E+02 -0.88900335770E+01  0.37155773368E+03  0.00000000000E+00 0. -1.
         -4    1    6    6    0  503 -0.22548873851E+02  0.15379567281E+02  0.22650058240E+02  0.35468407633E+02  0.00000000000E+00 0.  1.
<mgrwt>
<rscale>  0 0.10616753E+04</rscale>
<asrwt>0</asrwt>
<pdfrwt beam="1">  1        1 0.77832372E-01 0.10616753E+04</pdfrwt>
<pdfrwt beam="2">  1       -2 0.85691251E-01 0.10616753E+04</pdfrwt>
<totfact> 0.45083194E+01</totfact>
</mgrwt>
</event>
<event>
12    5  0.5264288E-008  0.4528640E+04  0.7818608E-02  0.7905642E-01
         -2   -1    0    0    0  501 -0.00000000000E+00  0.00000000000E+00  0.10951840218E+04  0.10951840218E+04  0.00000000000E+00 0.  1.
          1   -1    0    0  501    0  0.00000000000E+00 -0.00000000000E+00 -0.46815383655E+04  0.46815383655E+04  0.00000000000E+00 0. -1.
        -24    2    1    2    0    0 -0.76576527510E+03 -0.19253365111E+03 -0.43064402368E+04  0.43789684380E+04  0.80445039687E+02 0.  0.
        254    2    1    2    0    0  0.76576527510E+03  0.19253365111E+03  0.72008589316E+03  0.13977539494E+04  0.90095879265E+03 0.  0.
         23    2    4    4    0    0  0.59169855054E+03  0.50872220161E+03  0.64679583080E+03  0.10176081790E+04  0.90973106217E+02 0.  0.
         23    2    4    4    0    0  0.17406672455E+03 -0.31618855050E+03  0.73290062355E+02  0.38014577037E+03  0.94153860398E+02 0.  0.
          1    1    3    3  502    0 -0.65970087118E+03 -0.19278334131E+03 -0.37723123782E+04  0.38344114718E+04  0.00000000000E+00 0. -1.
         -4    1    3    3    0  502 -0.10606440392E+03  0.24969020064E+00 -0.53412785858E+03  0.54455696619E+03  0.00000000000E+00 0.  1.
         13    1    5    5    0    0  0.51871579952E+03  0.47865003846E+03  0.56682100990E+03  0.90523919339E+03  0.00000000000E+00 0. -1.
        -13    1    5    5    0    0  0.72982751022E+02  0.30072163153E+02  0.79974820905E+02  0.11236898559E+03  0.00000000000E+00 0.  1.
          4    1    6    6  503    0  0.98888562726E+02 -0.21451690440E+03  0.89632642872E+02  0.25264690930E+03  0.00000000000E+00 0. -1.
         -4    1    6    6    0  503  0.75178161826E+02 -0.10167164610E+03 -0.16342580518E+02  0.12749886107E+03  0.00000000000E+00 0.  1.
<mgrwt>
<rscale>  0 0.45286404E+04</rscale>
<asrwt>0</asrwt>
<pdfrwt beam="1">  1        1 0.72023666E+00 0.45286404E+04</pdfrwt>
<pdfrwt beam="2">  1       -2 0.16848985E+00 0.45286404E+04</pdfrwt>
<totfact> 0.29569034E-03</totfact>
</mgrwt>
</event>
<event>
12    5  0.5264288E-008  0.1424679E+04  0.7818608E-02  0.8936146E-01
         -2   -1    0    0    0  501 -0.00000000000E+00  0.00000000000E+00  0.54366411861E+03  0.54366411861E+03  0.00000000000E+00 0.  1.
          1   -1    0    0  501    0  0.00000000000E+00 -0.00000000000E+00 -0.93334740698E+03  0.93334740698E+03  0.00000000000E+00 0. -1.
        -24    2    1    2    0    0  0.18653664449E+03 -0.13686427955E+03 -0.50048406530E+03  0.55736785000E+03  0.81528337705E+02 0.  0.
        254    2    1    2    0    0 -0.18653664449E+03  0.13686427955E+03  0.11080077692E+03  0.91964367559E+03  0.88314207642E+03 0.  0.
         23    2    4    4    0    0 -0.52369290857E+03  0.24603705073E+02  0.14385611173E+03  0.55123610100E+03  0.91143038000E+02 0.  0.
         23    2    4    4    0    0  0.33715626408E+03  0.11226057447E+03 -0.33055334807E+02  0.36840757459E+03  0.91404063730E+02 0.  0.
          1    1    3    3  502    0  0.16778348458E+03 -0.85273650357E+02 -0.35374511989E+03  0.40069752056E+03  0.00000000000E+00 0. -1.
         -2    1    3    3    0  502  0.18753159911E+02 -0.51590629190E+02 -0.14673894541E+03  0.15667032944E+03  0.00000000000E+00 0.  1.
         13    1    5    5    0    0 -0.39178060126E+01  0.97165029031E+01  0.95665038082E+01  0.14187234675E+02  0.00000000000E+00 0.  1.
        -13    1    5    5    0    0 -0.51977510256E+03  0.14887202170E+02  0.13428960792E+03  0.53704886633E+03  0.00000000000E+00 0. -1.
          1    1    6    6  503    0  0.28362895153E+03  0.12332795910E+03 -0.44774517988E+02  0.31250588011E+03  0.00000000000E+00 0. -1.
         -1    1    6    6    0  503  0.53527312550E+02 -0.11067384627E+02  0.11719183182E+02  0.55901694480E+02  0.00000000000E+00 0.  1.
<mgrwt>
<rscale>  0 0.14246789E+04</rscale>
<asrwt>0</asrwt>
<pdfrwt beam="1">  1        1 0.14359191E+00 0.14246789E+04</pdfrwt>
<pdfrwt beam="2">  1       -2 0.83640634E-01 0.14246789E+04</pdfrwt>
<totfact> 0.18226178E+01</totfact>
</mgrwt>
</event>
<event>
12    5  0.5264288E-008  0.1776715E+04  0.7818608E-02  0.8718781E-01
         -2   -1    0    0    0  501 -0.00000000000E+00  0.00000000000E+00  0.11836207066E+04  0.11836207066E+04  0.00000000000E+00 0.  1.
          1   -1    0    0  501    0  0.00000000000E+00 -0.00000000000E+00 -0.66675022266E+03  0.66675022266E+03  0.00000000000E+00 0. -1.
        -24    2    1    2    0    0 -0.45333272663E+03 -0.30157812142E+03 -0.18340763707E+03  0.58005985913E+03  0.79819511941E+02 0.  0.
        254    2    1    2    0    0  0.45333272663E+03  0.30157812142E+03  0.70027812098E+03  0.12703110701E+04  0.90930789272E+03 0.  0.
         23    2    4    4    0    0  0.56425214047E+03 -0.10644717238E+03  0.58171161148E+03  0.82242551216E+03  0.91015633772E+02 0.  0.
         23    2    4    4    0    0 -0.11091941384E+03  0.40802529379E+03  0.11856650950E+03  0.44788555795E+03  0.88066447071E+02 0.  0.
          3    1    3    3  502    0 -0.31303620266E+03 -0.22085817591E+03 -0.16510223176E+03  0.41716752627E+03  0.00000000000E+00 0. -1.
         -4    1    3    3    0  502 -0.14029652397E+03 -0.80719945504E+02 -0.18305405307E+02  0.16289233285E+03  0.00000000000E+00 0.  1.
         13    1    5    5    0    0  0.87703231463E+01 -0.11943869185E+02  0.38227986813E+01  0.15303214334E+02  0.00000000000E+00 0. -1.
        -13    1    5    5    0    0  0.55548181733E+03 -0.94503303194E+02  0.57788881280E+03  0.80712229783E+03  0.00000000000E+00 0.  1.
          4    1    6    6  503    0 -0.51762453616E+02  0.20660062368E+03  0.14245488636E+02  0.21346218226E+03  0.00000000000E+00 0. -1.
         -4    1    6    6    0  503 -0.59156960226E+02  0.20142467012E+03  0.10432102086E+03  0.23442337569E+03  0.00000000000E+00 0.  1.
<mgrwt>
<rscale>  0 0.17767154E+04</rscale>
<asrwt>0</asrwt>
<pdfrwt beam="1">  1        1 0.10257696E+00 0.17767154E+04</pdfrwt>
<pdfrwt beam="2">  1       -2 0.18209549E+00 0.17767154E+04</pdfrwt>
<totfact> 0.42545730E+00</totfact>
</mgrwt>
</event>
<event>
12    5  0.5264288E-008  0.3167480E+04  0.7818608E-02  0.8197459E-01
          1   -1    0    0  501    0  0.00000000000E+00  0.00000000000E+00  0.19364686950E+04  0.19364686950E+04  0.00000000000E+00 0. -1.
         -2   -1    0    0    0  501 -0.00000000000E+00 -0.00000000000E+00 -0.12952612037E+04  0.12952612037E+04  0.00000000000E+00 0.  1.
        -24    2    1    2    0    0  0.12280042730E+04  0.32580670436E+03  0.10228852893E+04  0.16329861952E+04  0.78772429429E+02 0.  0.
        254    2    1    2    0    0 -0.12280042730E+04 -0.32580670436E+03 -0.38167779792E+03  0.15987437034E+04  0.89227741462E+03 0.  0.
         23    2    4    4    0    0 -0.11640122936E+03  0.14257104268E+03  0.17210038550E+03  0.26833831302E+03  0.92255943635E+02 0.  0.
         23    2    4    4    0    0 -0.11116030437E+04 -0.46837774704E+03 -0.55377818342E+03  0.13304053904E+04  0.90935063610E+02 0.  0.
          1    1    3    3  502    0  0.52432869342E+03  0.13398511243E+03  0.38641365531E+03  0.66497225664E+03  0.00000000000E+00 0. -1.
         -2    1    3    3    0  502  0.70367557961E+03  0.19182159193E+03  0.63647163397E+03  0.96801393860E+03  0.00000000000E+00 0.  1.
         13    1    5    5    0    0 -0.26925455833E+02  0.15606865457E+02  0.84421386859E+02  0.89975135346E+02  0.00000000000E+00 0.  1.
        -13    1    5    5    0    0 -0.89475773529E+02  0.12696417722E+03  0.87678998639E+02  0.17836317767E+03  0.00000000000E+00 0. -1.
          3    1    6    6  503    0 -0.68510673212E+03 -0.32898639919E+03 -0.32230429634E+03  0.82552004500E+03  0.00000000000E+00 0. -1.
         -3    1    6    6    0  503 -0.42649631154E+03 -0.13939134786E+03 -0.23147388708E+03  0.50488534541E+03  0.00000000000E+00 0.  1.
<mgrwt>
<rscale>  0 0.31674802E+04</rscale>
<asrwt>0</asrwt>
<pdfrwt beam="1">  1        1 0.29791826E+00 0.31674802E+04</pdfrwt>
<pdfrwt beam="2">  1       -2 0.19927095E+00 0.31674802E+04</pdfrwt>
<totfact> 0.32643010E-01</totfact>
</mgrwt>
</event>
<event>
12    5  0.5264288E-008  0.1399337E+04  0.7818608E-02  0.8954298E-01
          1   -1    0    0  501    0  0.00000000000E+00  0.00000000000E+00  0.12988985049E+04  0.12988985049E+04  0.00000000000E+00 0. -1.
         -2   -1    0    0    0  501 -0.00000000000E+00 -0.00000000000E+00 -0.37688568214E+03  0.37688568214E+03  0.00000000000E+00 0.  1.
        -24    2    1    2    0    0  0.66402089082E+02  0.29865297923E+03 -0.45985673855E+02  0.31941444758E+03  0.79423344712E+02 0.  0.
        254    2    1    2    0    0 -0.66402089082E+02 -0.29865297923E+03  0.96799849657E+03  0.13563697394E+04  0.89950816630E+03 0.  0.
         23    2    4    4    0    0  0.14048970400E+03 -0.42645913216E+03  0.12569462272E+03  0.47493865340E+03  0.90348425455E+02 0.  0.
         23    2    4    4    0    0 -0.20689179309E+03  0.12780615293E+03  0.84230387385E+03  0.88143108602E+03  0.91138996777E+02 0.  0.
          1    1    3    3  502    0  0.63089492118E+02  0.17302408313E+03  0.38851518087E+01  0.18420833793E+03  0.00000000000E+00 0. -1.
         -2    1    3    3    0  502  0.33125969637E+01  0.12562889610E+03 -0.49870825664E+02  0.13520610965E+03  0.00000000000E+00 0.  1.
         13    1    5    5    0    0  0.12076470264E+03 -0.40484314988E+03  0.95986169680E+02  0.43323831107E+03  0.00000000000E+00 0.  1.
        -13    1    5    5    0    0  0.19725001363E+02 -0.21615982281E+02  0.29708453042E+02  0.41700342335E+02  0.00000000000E+00 0. -1.
          3    1    6    6  503    0 -0.11362478403E+02  0.29378177947E+02  0.20902152650E+03  0.21138160231E+03  0.00000000000E+00 0. -1.
         -3    1    6    6    0  503 -0.19552931468E+03  0.98427974985E+02  0.63328234735E+03  0.67004948371E+03  0.00000000000E+00 0.  1.
<mgrwt>
<rscale>  0 0.13993373E+04</rscale>
<asrwt>0</asrwt>
<pdfrwt beam="1">  1        1 0.19983054E+00 0.13993373E+04</pdfrwt>
<pdfrwt beam="2">  1       -2 0.57982413E-01 0.13993373E+04</pdfrwt>
<totfact> 0.21577108E+01</totfact>
</mgrwt>
</event>
<event>
12    5  0.5264288E-008  0.2322885E+04  0.7818608E-02  0.8468952E-01
          1   -1    0    0  501    0  0.00000000000E+00  0.00000000000E+00  0.33763582729E+04  0.33763582729E+04  0.00000000000E+00 0. -1.
         -4   -1    0    0    0  501 -0.00000000000E+00 -0.00000000000E+00 -0.39952773645E+03  0.39952773645E+03  0.00000000000E+00 0.  1.
        -24    2    1    2    0    0 -0.65158885393E+03 -0.19349116142E+03  0.24292412942E+04  0.25238166430E+04  0.80189262383E+02 0.  0.
        254    2    1    2    0    0  0.65158885393E+03  0.19349116142E+03  0.54758924228E+03  0.12520693664E+04  0.89767302282E+03 0.  0.
         23    2    4    4    0    0  0.65107277146E+03  0.72022005904E+02  0.74946986736E+03  0.99960927542E+03  0.91818834403E+02 0.  0.
         23    2    4    4    0    0  0.51608247229E+00  0.12146915552E+03 -0.20188062508E+03  0.25246009098E+03  0.90693377241E+02 0.  0.
          3    1    3    3  502    0 -0.55332461877E+03 -0.18081670669E+03  0.19810977865E+04  0.20648513881E+04  0.00000000000E+00 0. -1.
         -4    1    3    3    0  502 -0.98264235163E+02 -0.12674454726E+02  0.44814350765E+03  0.45896525485E+03  0.00000000000E+00 0.  1.
         13    1    5    5    0    0  0.62313240882E+03  0.52866796278E+02  0.69048905306E+03  0.93159220127E+03  0.00000000000E+00 0. -1.
        -13    1    5    5    0    0  0.27940362640E+02  0.19155209627E+02  0.58980814300E+02  0.68017074149E+02  0.00000000000E+00 0.  1.
          4    1    6    6  503    0 -0.14777608470E+02  0.11066879668E+03 -0.20504425102E+03  0.23347185087E+03  0.00000000000E+00 0. -1.
         -4    1    6    6    0  503  0.15293690942E+02  0.10800358838E+02  0.31636259438E+01  0.18988240118E+02  0.00000000000E+00 0.  1.
<mgrwt>
<rscale>  0 0.23228851E+04</rscale>
<asrwt>0</asrwt>
<pdfrwt beam="1">  1        1 0.51943972E+00 0.23228851E+04</pdfrwt>
<pdfrwt beam="2">  1       -4 0.61465808E-01 0.23228851E+04</pdfrwt>
<totfact> 0.34927827E-01</totfact>
</mgrwt>
</event>
<event>
12    5  0.5264288E-008  0.3769278E+04  0.7818608E-02  0.8052780E-01
         -2   -1    0    0    0  501 -0.00000000000E+00  0.00000000000E+00  0.19227715331E+04  0.19227715331E+04  0.00000000000E+00 0.  1.
          1   -1    0    0  501    0  0.00000000000E+00 -0.00000000000E+00 -0.18472631814E+04  0.18472631814E+04  0.00000000000E+00 0. -1.
        -24    2    1    2    0    0 -0.18594344587E+02 -0.14365563956E+04 -0.10171297664E+04  0.17620340773E+04  0.78556353644E+02 0.  0.
        254    2    1    2    0    0  0.18594344587E+02  0.14365563956E+04  0.10926381180E+04  0.20080006372E+04  0.87986844161E+03 0.  0.
         23    2    4    4    0    0  0.42671764758E+03  0.53512421067E+03  0.41932071292E+03  0.80768871372E+03  0.89918443010E+02 0.  0.
         23    2    4    4    0    0 -0.40812330299E+03  0.90143218489E+03  0.67331740512E+03  0.12003119234E+04  0.90817240071E+02 0.  0.
          1    1    3    3  502    0 -0.33360493006E+02 -0.10286919664E+04 -0.69210367253E+03  0.12402933434E+04  0.00000000000E+00 0. -1.
         -2    1    3    3    0  502  0.14766148419E+02 -0.40786442920E+03 -0.32502609390E+03  0.52174073395E+03  0.00000000000E+00 0.  1.
         13    1    5    5    0    0  0.16043065252E+01  0.25943487080E+01 -0.43503058699E+01  0.53131540357E+01  0.00000000000E+00 0. -1.
        -13    1    5    5    0    0  0.42511334105E+03  0.53252986196E+03  0.42367101879E+03  0.80237555969E+03  0.00000000000E+00 0.  1.
          2    1    6    6  503    0 -0.48940884374E+00  0.11911434157E+02  0.21576585178E+02  0.24650979952E+02  0.00000000000E+00 0. -1.
         -2    1    6    6    0  503 -0.40763389415E+03  0.88952075073E+03  0.65174081994E+03  0.11756609435E+04  0.00000000000E+00 0.  1.
<mgrwt>
<rscale>  0 0.37692785E+04</rscale>
<asrwt>0</asrwt>
<pdfrwt beam="1">  1        1 0.28419433E+00 0.37692785E+04</pdfrwt>
<pdfrwt beam="2">  1       -2 0.29581101E+00 0.37692785E+04</pdfrwt>
<totfact> 0.89427409E-02</totfact>
</mgrwt>
</event>
<event>
12    5  0.5264288E-008  0.1466688E+04  0.7818608E-02  0.8906912E-01
         -2   -1    0    0    0  501 -0.00000000000E+00  0.00000000000E+00  0.61457804690E+03  0.61457804690E+03  0.00000000000E+00 0.  1.
          1   -1    0    0  501    0  0.00000000000E+00 -0.00000000000E+00 -0.87506163969E+03  0.87506163969E+03  0.00000000000E+00 0. -1.
        -24    2    1    2    0    0  0.44469902161E+03 -0.34742239739E+02 -0.57812745046E+02  0.45650636537E+03  0.78048094735E+02 0.  0.
        254    2    1    2    0    0 -0.44469902161E+03  0.34742239739E+02 -0.20267084775E+03  0.10331333212E+04  0.90957393533E+03 0.  0.
         23    2    4    4    0    0  0.19561054180E+03 -0.22861640246E+03 -0.61044443080E+02  0.32043643639E+03  0.91783125884E+02 0.  0.
         23    2    4    4    0    0 -0.64030956341E+03  0.26335864220E+03 -0.14162640467E+03  0.71269688482E+03  0.92329300420E+02 0.  0.
          3    1    3    3  502    0  0.41260875751E+03 -0.25527913115E+02 -0.32623256776E+02  0.41468293672E+03  0.00000000000E+00 0. -1.
         -4    1    3    3    0  502  0.32090264104E+02 -0.92143266234E+01 -0.25189488270E+02  0.41823428658E+02  0.00000000000E+00 0.  1.
         13    1    5    5    0    0  0.87871295934E+02 -0.16466503228E+03 -0.56720176885E+02  0.19507207891E+03  0.00000000000E+00 0.  1.
        -13    1    5    5    0    0  0.10773924587E+03 -0.63951370185E+02 -0.43242661953E+01  0.12536435748E+03  0.00000000000E+00 0. -1.
          2    1    6    6  503    0 -0.11811797623E+03  0.19359555122E+02 -0.47024824923E+02  0.12860008881E+03  0.00000000000E+00 0. -1.
         -2    1    6    6    0  503 -0.52219158719E+03  0.24399908708E+03 -0.94601579745E+02  0.58409679601E+03  0.00000000000E+00 0.  1.
<mgrwt>
<rscale>  0 0.14666883E+04</rscale>
<asrwt>0</asrwt>
<pdfrwt beam="1">  1        1 0.13462487E+00 0.14666883E+04</pdfrwt>
<pdfrwt beam="2">  1       -2 0.94550469E-01 0.14666883E+04</pdfrwt>
<totfact> 0.15285205E+01</totfact>
</mgrwt>
</event>
<event>
12    5  0.5264288E-008  0.1218352E+04  0.7818608E-02  0.9096943E-01
         -2   -1    0    0    0  501 -0.00000000000E+00  0.00000000000E+00  0.10497234251E+04  0.10497234251E+04  0.00000000000E+00 0.  1.
          1   -1    0    0  501    0  0.00000000000E+00 -0.00000000000E+00 -0.35351729381E+03  0.35351729381E+03  0.00000000000E+00 0. -1.
        -24    2    1    2    0    0  0.11063428334E+03 -0.17274431710E+03 -0.37336834366E+02  0.22324163079E+03  0.79763668278E+02 0.  0.
        254    2    1    2    0    0 -0.11063428334E+03  0.17274431710E+03  0.73354296567E+03  0.11799990881E+04  0.90123915904E+03 0.  0.
         23    2    4    4    0    0 -0.33167869683E+03 -0.63609413873E+02  0.76621777744E+03  0.84239837630E+03  0.92132656883E+02 0.  0.
         23    2    4    4    0    0  0.22104441350E+03  0.23635373097E+03 -0.32674811767E+02  0.33760071184E+03  0.90459263935E+02 0.  0.
          1    1    3    3  502    0  0.38724651882E+02 -0.93293742358E+02 -0.54403718179E+02  0.11473049106E+03  0.00000000000E+00 0. -1.
         -2    1    3    3    0  502  0.71909631454E+02 -0.79450574739E+02  0.17066883814E+02  0.10851113973E+03  0.00000000000E+00 0.  1.
         13    1    5    5    0    0 -0.31818286276E+03 -0.75609250448E+02  0.68324743028E+03  0.75748540837E+03  0.00000000000E+00 0. -1.
        -13    1    5    5    0    0 -0.13495834068E+02  0.11999836575E+02  0.82970347154E+02  0.84912967926E+02  0.00000000000E+00 0.  1.
          1    1    6    6  503    0  0.20030826439E+03  0.19140955717E+03 -0.56354284102E+02  0.28273101120E+03  0.00000000000E+00 0. -1.
         -1    1    6    6    0  503  0.20736149106E+02  0.44944173802E+02  0.23679472335E+02  0.54869700642E+02  0.00000000000E+00 0.  1.
<mgrwt>
<rscale>  0 0.12183520E+04</rscale>
<asrwt>0</asrwt>
<pdfrwt beam="1">  1        1 0.54387276E-01 0.12183520E+04</pdfrwt>
<pdfrwt beam="2">  1       -2 0.16149591E+00 0.12183520E+04</pdfrwt>
<totfact> 0.14965186E+01</totfact>
</mgrwt>
</event>
<event>
12    5  0.5264288E-008  0.2229563E+04  0.7818608E-02  0.8506223E-01
          1   -1    0    0  501    0  0.00000000000E+00  0.00000000000E+00  0.18020130318E+04  0.18020130318E+04  0.00000000000E+00 0. -1.
         -2   -1    0    0    0  501 -0.00000000000E+00 -0.00000000000E+00 -0.68963874875E+03  0.68963874875E+03  0.00000000000E+00 0.  1.
        -24    2    1    2    0    0  0.25227065962E+03  0.44629295672E+03  0.13351950026E+04  0.14326319924E+04  0.82890540469E+02 0.  0.
        254    2    1    2    0    0 -0.25227065962E+03 -0.44629295672E+03 -0.22282071953E+03  0.10590197882E+04  0.89947537477E+03 0.  0.
         23    2    4    4    0    0  0.17789802618E+03 -0.18472773305E+03  0.24464298343E+03  0.36603322826E+03  0.91422599886E+02 0.  0.
         23    2    4    4    0    0 -0.43016868581E+03 -0.26156522368E+03 -0.46746370296E+03  0.69298655994E+03  0.90810760305E+02 0.  0.
          1    1    3    3  502    0  0.15655567249E+03  0.32492844974E+03  0.10126574024E+04  0.10749712511E+04  0.00000000000E+00 0. -1.
         -4    1    3    3    0  502  0.95714987134E+02  0.12136450698E+03  0.32253760021E+03  0.35766074130E+03  0.00000000000E+00 0.  1.
         13    1    5    5    0    0  0.73096097742E+02 -0.11202294141E+03  0.73619638175E+02  0.15268277582E+03  0.00000000000E+00 0.  1.
        -13    1    5    5    0    0  0.10480192844E+03 -0.72704791634E+02  0.17102334526E+03  0.21335045244E+03  0.00000000000E+00 0. -1.
          4    1    6    6  503    0 -0.43023778827E+01  0.40576274733E+01  0.14740075468E+01  0.60948744373E+01  0.00000000000E+00 0. -1.
         -4    1    6    6    0  503 -0.42586630793E+03 -0.26562285115E+03 -0.46893771050E+03  0.68689168550E+03  0.00000000000E+00 0.  1.
<mgrwt>
<rscale>  0 0.22295632E+04</rscale>
<asrwt>0</asrwt>
<pdfrwt beam="1">  1        1 0.27723277E+00 0.22295632E+04</pdfrwt>
<pdfrwt beam="2">  1       -2 0.10609827E+00 0.22295632E+04</pdfrwt>
<totfact> 0.23254000E+00</totfact>
</mgrwt>
</event>
<event>
12    5  0.5264288E-008  0.1439085E+04  0.7818608E-02  0.8926003E-01
         -2   -1    0    0    0  501 -0.00000000000E+00  0.00000000000E+00  0.31631314017E+03  0.31631314017E+03  0.00000000000E+00 0.  1.
          1   -1    0    0  501    0  0.00000000000E+00 -0.00000000000E+00 -0.16367993323E+04  0.16367993323E+04  0.00000000000E+00 0. -1.
        -24    2    1    2    0    0  0.28626976456E+03 -0.25775578539E+03 -0.20390753435E+03  0.44306945251E+03  0.79648190015E+02 0.  0.
        254    2    1    2    0    0 -0.28626976456E+03  0.25775578539E+03 -0.11165786578E+04  0.15100430199E+04  0.94079413269E+03 0.  0.
         23    2    4    4    0    0  0.29659375963E+03  0.39610860487E+02 -0.12840235328E+03  0.33768799190E+03  0.89493782070E+02 0.  0.
         23    2    4    4    0    0 -0.58286352419E+03  0.21814492491E+03 -0.98817630448E+03  0.11723550280E+04  0.10298935352E+03 0.  0.
          3    1    3    3  502    0  0.11702291494E+03 -0.11929934727E+03 -0.13176160855E+03  0.21280934747E+03  0.00000000000E+00 0. -1.
         -4    1    3    3    0  502  0.16924684962E+03 -0.13845643813E+03 -0.72145925802E+02  0.23026010504E+03  0.00000000000E+00 0.  1.
         13    1    5    5    0    0  0.85544992653E+02  0.22858542836E+02  0.28474928401E+01  0.88592138275E+02  0.00000000000E+00 0.  1.
        -13    1    5    5    0    0  0.21104876697E+03  0.16752317651E+02 -0.13124984612E+03  0.24909585363E+03  0.00000000000E+00 0. -1.
          2    1    6    6  503    0 -0.46893820781E+03  0.14064437008E+03 -0.71730602364E+03  0.86845369084E+03  0.00000000000E+00 0. -1.
         -2    1    6    6    0  503 -0.11392531638E+03  0.77500554826E+02 -0.27087028083E+03  0.30390133720E+03  0.00000000000E+00 0.  1.
<mgrwt>
<rscale>  0 0.14390846E+04</rscale>
<asrwt>0</asrwt>
<pdfrwt beam="1">  1        1 0.25181528E+00 0.14390846E+04</pdfrwt>
<pdfrwt beam="2">  1       -2 0.48663560E-01 0.14390846E+04</pdfrwt>
<totfact> 0.17962705E+01</totfact>
</mgrwt>
</event>
<event>
12    5  0.5264288E-008  0.1353552E+04  0.7818608E-02  0.8988144E-01
         -2   -1    0    0    0  501 -0.00000000000E+00  0.00000000000E+00  0.49858662445E+03  0.49858662445E+03  0.00000000000E+00 0.  1.
          1   -1    0    0  501    0  0.00000000000E+00 -0.00000000000E+00 -0.91864811537E+03  0.91864811537E+03  0.00000000000E+00 0. -1.
        -24    2    1    2    0    0  0.27062168017E+03 -0.50213730256E+02  0.25242289970E+02  0.28990758261E+03  0.87474114852E+02 0.  0.
        254    2    1    2    0    0 -0.27062168017E+03  0.50213730256E+02 -0.44530378089E+03  0.11273271572E+04  0.99840550360E+03 0.  0.
         23    2    4    4    0    0  0.31776806195E+03  0.21941589817E+03 -0.63990024688E+02  0.40090487361E+03  0.86660930391E+02 0.  0.
         23    2    4    4    0    0 -0.58838974212E+03 -0.16920216792E+03 -0.38131375620E+03  0.72642228360E+03  0.86355608849E+02 0.  0.
          1    1    3    3  502    0  0.89146759152E+02 -0.19387037871E+02 -0.32723741326E+02  0.96921850741E+02  0.00000000000E+00 0. -1.
         -2    1    3    3    0  502  0.18147492102E+03 -0.30826692385E+02  0.57966031296E+02  0.19298573187E+03  0.00000000000E+00 0.  1.
         13    1    5    5    0    0  0.23520242113E+03  0.18425745801E+03 -0.80999872395E+02  0.30956739018E+03  0.00000000000E+00 0. -1.
        -13    1    5    5    0    0  0.82565640828E+02  0.35158440159E+02  0.17009847707E+02  0.91337483427E+02  0.00000000000E+00 0.  1.
          2    1    6    6  503    0 -0.55815636712E+03 -0.16890130859E+03 -0.33935801916E+03  0.67470737907E+03  0.00000000000E+00 0. -1.
         -2    1    6    6    0  503 -0.30233375004E+02 -0.30085933223E+00 -0.41955737039E+02  0.51714904534E+02  0.00000000000E+00 0.  1.
<mgrwt>
<rscale>  0 0.13535519E+04</rscale>
<asrwt>0</asrwt>
<pdfrwt beam="1">  1        1 0.14133048E+00 0.13535519E+04</pdfrwt>
<pdfrwt beam="2">  1       -2 0.76705635E-01 0.13535519E+04</pdfrwt>
<totfact> 0.22889797E+01</totfact>
</mgrwt>
</event>
<event>
12    5  0.5264288E-008  0.1397860E+04  0.7818608E-02  0.8955369E-01
          1   -1    0    0  501    0  0.00000000000E+00  0.00000000000E+00  0.11397840220E+04  0.11397840220E+04  0.00000000000E+00 0. -1.
         -2   -1    0    0    0  501 -0.00000000000E+00 -0.00000000000E+00 -0.42859294794E+03  0.42859294794E+03  0.00000000000E+00 0.  1.
        -24    2    1    2    0    0 -0.30480433557E+03  0.19299332250E+03  0.39920214257E+03  0.54387591615E+03  0.79287804983E+02 0.  0.
        254    2    1    2    0    0  0.30480433557E+03 -0.19299332250E+03  0.31198893151E+03  0.10245010538E+04  0.90670458826E+03 0.  0.
         23    2    4    4    0    0  0.23044970377E+03 -0.27332597297E+03 -0.24824522918E+03  0.44454964213E+03  0.90468431180E+02 0.  0.
         23    2    4    4    0    0  0.74354631796E+02  0.80332650477E+02  0.56023416068E+03  0.57995141168E+03  0.10246647796E+03 0.  0.
          1    1    3    3  502    0 -0.26706068725E+03  0.17012070870E+03  0.30404585708E+03  0.43898331336E+03  0.00000000000E+00 0. -1.
         -2    1    3    3    0  502 -0.37743648320E+02  0.22872613801E+02  0.95156285489E+02  0.10489260278E+03  0.00000000000E+00 0.  1.
         13    1    5    5    0    0  0.12928281168E+03 -0.86353738935E+02 -0.91197864032E+02  0.18024445630E+03  0.00000000000E+00 0.  1.
        -13    1    5    5    0    0  0.10116689209E+03 -0.18697223404E+03 -0.15704736514E+03  0.26430518583E+03  0.00000000000E+00 0. -1.
          3    1    6    6  503    0  0.49165292888E+02  0.18194012031E+02  0.83972212890E+02  0.98992831236E+02  0.00000000000E+00 0. -1.
         -3    1    6    6    0  503  0.25189338908E+02  0.62138638446E+02  0.47626194779E+03  0.48095858044E+03  0.00000000000E+00 0.  1.
<mgrwt>
<rscale>  0 0.13978604E+04</rscale>
<asrwt>0</asrwt>
<pdfrwt beam="1">  1        1 0.17535139E+00 0.13978604E+04</pdfrwt>
<pdfrwt beam="2">  1       -2 0.65937377E-01 0.13978604E+04</pdfrwt>
<totfact> 0.21430183E+01</totfact>
</mgrwt>
</event>
<event>
12    5  0.5264288E-008  0.1672324E+04  0.7818608E-02  0.8777308E-01
         -2   -1    0    0    0  501 -0.00000000000E+00  0.00000000000E+00  0.31540586698E+03  0.31540586698E+03  0.00000000000E+00 0.  1.
          1   -1    0    0  501    0  0.00000000000E+00 -0.00000000000E+00 -0.22167220536E+04  0.22167220536E+04  0.00000000000E+00 0. -1.
        -24    2    1    2    0    0 -0.16739521385E+03  0.49817294657E+03 -0.27802827365E+03  0.59954097664E+03  0.77150627992E+02 0.  0.
        254    2    1    2    0    0  0.16739521385E+03 -0.49817294657E+03 -0.16232879130E+04  0.19325869439E+04  0.90754129667E+03 0.  0.
         23    2    4    4    0    0 -0.48189095560E+02 -0.71775298619E+03 -0.10562938731E+04  0.12811109184E+04  0.89425391420E+02 0.  0.
         23    2    4    4    0    0  0.21558430941E+03  0.21958003961E+03 -0.56699403985E+03  0.65147602558E+03  0.90811796673E+02 0.  0.
          3    1    3    3  502    0  0.55007402739E+01  0.22012956436E+01 -0.27367804932E+01  0.65263936089E+01  0.00000000000E+00 0. -1.
         -4    1    3    3    0  502 -0.17289595413E+03  0.49597165093E+03 -0.27529149316E+03  0.59301458303E+03  0.00000000000E+00 0.  1.
         13    1    5    5    0    0  0.26315411199E+02 -0.19990129232E+03 -0.30324443766E+03  0.36415685701E+03  0.00000000000E+00 0. -1.
        -13    1    5    5    0    0 -0.74504506759E+02 -0.51785169387E+03 -0.75304943546E+03  0.91695406134E+03  0.00000000000E+00 0.  1.
          3    1    6    6  503    0  0.62150008457E+02  0.12683219020E+03 -0.26416062131E+03  0.29954943143E+03  0.00000000000E+00 0. -1.
         -3    1    6    6    0  503  0.15343430096E+03  0.92747849419E+02 -0.30283341855E+03  0.35192659415E+03  0.00000000000E+00 0.  1.
<mgrwt>
<rscale>  0 0.16723243E+04</rscale>
<asrwt>0</asrwt>
<pdfrwt beam="1">  1        1 0.34103416E+00 0.16723243E+04</pdfrwt>
<pdfrwt beam="2">  1       -2 0.48523979E-01 0.16723243E+04</pdfrwt>
<totfact> 0.71543830E+00</totfact>
</mgrwt>
</event>
<event>
12    5  0.5264288E-008  0.1244740E+04  0.7818608E-02  0.9074572E-01
         -4   -1    0    0    0  501 -0.00000000000E+00  0.00000000000E+00  0.66862324528E+03  0.66862324528E+03  0.00000000000E+00 0.  1.
          3   -1    0    0  501    0  0.00000000000E+00 -0.00000000000E+00 -0.57931651575E+03  0.57931651575E+03  0.00000000000E+00 0. -1.
        -24    2    1    2    0    0  0.58332168978E+02 -0.26878267672E+03  0.12777744544E+03  0.30818173872E+03  0.54791781103E+02 0.  0.
        254    2    1    2    0    0 -0.58332168978E+02  0.26878267672E+03 -0.38470715911E+02  0.93975802230E+03  0.89778526122E+03 0.  0.
         23    2    4    4    0    0 -0.34736216337E+03  0.20450965025E+03 -0.31846841472E+03  0.52098865982E+03  0.86731671898E+02 0.  0.
         23    2    4    4    0    0  0.28902999439E+03  0.64273026476E+02  0.27999769881E+03  0.41876936248E+03  0.96434993781E+02 0.  0.
          3    1    3    3  502    0  0.12490009450E+02 -0.34491442084E+02 -0.14580839967E+01  0.36712203993E+02  0.00000000000E+00 0. -1.
         -4    1    3    3    0  502  0.45842159529E+02 -0.23429123464E+03  0.12923552944E+03  0.27146953473E+03  0.00000000000E+00 0.  1.
         13    1    5    5    0    0  0.91311084550E+00  0.14922526502E+02 -0.58907317154E+01  0.16069109769E+02  0.00000000000E+00 0. -1.
        -13    1    5    5    0    0 -0.34827527421E+03  0.18958712374E+03 -0.31257768300E+03  0.50491955006E+03  0.00000000000E+00 0.  1.
          3    1    6    6  503    0  0.16510738442E+02  0.22378479381E+02  0.59661366443E+02  0.65824611424E+02  0.00000000000E+00 0. -1.
         -3    1    6    6    0  503  0.27251925595E+03  0.41894547095E+02  0.22033633236E+03  0.35294475106E+03  0.00000000000E+00 0.  1.
<mgrwt>
<rscale>  0 0.12447401E+04</rscale>
<asrwt>0</asrwt>
<pdfrwt beam="1">  1        3 0.89125618E-01 0.12447401E+04</pdfrwt>
<pdfrwt beam="2">  1       -4 0.10286511E+00 0.12447401E+04</pdfrwt>
<totfact> 0.19810385E+00</totfact>
</mgrwt>
</event>
<event>
12    5  0.5264288E-008  0.2558846E+04  0.7818608E-02  0.8382316E-01
         -2   -1    0    0    0  501 -0.00000000000E+00  0.00000000000E+00  0.98342533169E+03  0.98342533169E+03  0.00000000000E+00 0.  1.
          1   -1    0    0  501    0  0.00000000000E+00 -0.00000000000E+00 -0.16645125117E+04  0.16645125117E+04  0.00000000000E+00 0. -1.
        -24    2    1    2    0    0 -0.73426393876E+03 -0.11454837584E+02  0.57068894561E+03  0.93469767447E+03  0.93269099702E+02 0.  0.
        254    2    1    2    0    0  0.73426393876E+03  0.11454837584E+02 -0.12517761256E+04  0.17132401689E+04  0.91047990788E+03 0.  0.
         23    2    4    4    0    0  0.66560941466E+03  0.11279016822E+03 -0.29293358633E+03  0.74223997188E+03  0.96708711737E+02 0.  0.
         23    2    4    4    0    0  0.68654524100E+02 -0.10133533064E+03 -0.95884253929E+03  0.97100019704E+03  0.92087320407E+02 0.  0.
          3    1    3    3  502    0 -0.54139281229E+03 -0.45992704085E+02  0.44020814075E+03  0.69928871949E+03  0.00000000000E+00 0. -1.
         -4    1    3    3    0  502 -0.19287112647E+03  0.34537866502E+02  0.13048080486E+03  0.23540895498E+03  0.00000000000E+00 0.  1.
         13    1    5    5    0    0  0.58429516648E+03  0.87708885741E+02 -0.22101904630E+03  0.63082732109E+03  0.00000000000E+00 0.  1.
        -13    1    5    5    0    0  0.81314248180E+02  0.25081282481E+02 -0.71914540028E+02  0.11141265079E+03  0.00000000000E+00 0. -1.
          1    1    6    6  503    0  0.62860845529E+02 -0.12547833502E+02 -0.41866018711E+03  0.42353900210E+03  0.00000000000E+00 0. -1.
         -1    1    6    6    0  503  0.57936785703E+01 -0.88787497136E+02 -0.54018235218E+03  0.54746119494E+03  0.00000000000E+00 0.  1.
<mgrwt>
<rscale>  0 0.25588464E+04</rscale>
<asrwt>0</asrwt>
<pdfrwt beam="1">  1        1 0.25607885E+00 0.25588464E+04</pdfrwt>
<pdfrwt beam="2">  1       -2 0.15129620E+00 0.25588464E+04</pdfrwt>
<totfact> 0.11459079E+00</totfact>
</mgrwt>
</event>
<event>
12    5  0.5264288E-008  0.2500632E+04  0.7818608E-02  0.8402761E-01
         -2   -1    0    0    0  501 -0.00000000000E+00  0.00000000000E+00  0.91313960193E+03  0.91313960193E+03  0.00000000000E+00 0.  1.
          1   -1    0    0  501    0  0.00000000000E+00 -0.00000000000E+00 -0.17119942516E+04  0.17119942516E+04  0.00000000000E+00 0. -1.
        -24    2    1    2    0    0 -0.86788998644E+03 -0.93642273687E+02 -0.10028960952E+04  0.13321318798E+04  0.82297407482E+02 0.  0.
        254    2    1    2    0    0  0.86788998644E+03  0.93642273687E+02  0.20404144556E+03  0.12930019738E+04  0.93178285487E+03 0.  0.
         23    2    4    4    0    0  0.80655022169E+03 -0.90770221013E+02 -0.19459671959E+03  0.83982062941E+03  0.93103776420E+02 0.  0.
         23    2    4    4    0    0  0.61339764755E+02  0.18441249470E+03  0.39863816515E+03  0.45318134434E+03  0.93222364275E+02 0.  0.
          1    1    3    3  502    0 -0.59328147979E+03 -0.28049834890E+02 -0.65810942030E+03  0.88649744309E+03  0.00000000000E+00 0. -1.
         -2    1    3    3    0  502 -0.27460850665E+03 -0.65592438797E+02 -0.34478667493E+03  0.44563443668E+03  0.00000000000E+00 0.  1.
         13    1    5    5    0    0  0.30671814701E+03  0.70484043568E+01 -0.91772243306E+02  0.32023092659E+03  0.00000000000E+00 0. -1.
        -13    1    5    5    0    0  0.49983207468E+03 -0.97818625370E+02 -0.10282447628E+03  0.51958970282E+03  0.00000000000E+00 0.  1.
          4    1    6    6  503    0  0.21879828497E+02  0.90626185339E+02  0.28871587965E+03  0.30339527275E+03  0.00000000000E+00 0. -1.
         -4    1    6    6    0  503  0.39459936258E+02  0.93786309361E+02  0.10992228550E+03  0.14978607159E+03  0.00000000000E+00 0.  1.
<mgrwt>
<rscale>  0 0.25006317E+04</rscale>
<asrwt>0</asrwt>
<pdfrwt beam="1">  1        1 0.26338373E+00 0.25006317E+04</pdfrwt>
<pdfrwt beam="2">  1       -2 0.14048302E+00 0.25006317E+04</pdfrwt>
<totfact> 0.12991683E+00</totfact>
</mgrwt>
</event>
<event>
12    5  0.5264288E-008  0.3839555E+04  0.7818608E-02  0.8037719E-01
          1   -1    0    0  501    0  0.00000000000E+00  0.00000000000E+00  0.19206734200E+04  0.19206734200E+04  0.00000000000E+00 0. -1.
         -2   -1    0    0    0  501 -0.00000000000E+00 -0.00000000000E+00 -0.19188818871E+04  0.19188818871E+04  0.00000000000E+00 0.  1.
        -24    2    1    2    0    0  0.24962699166E+03 -0.16841596747E+04 -0.62161627610E+03  0.18145827756E+04  0.87157387541E+02 0.  0.
        254    2    1    2    0    0 -0.24962699166E+03  0.16841596747E+04  0.62340780906E+03  0.20249725315E+04  0.90175884367E+03 0.  0.
         23    2    4    4    0    0 -0.37286298444E+03  0.11805404261E+04  0.43888028602E+02  0.12420806022E+04  0.90197342953E+02 0.  0.
         23    2    4    4    0    0  0.12323599278E+03  0.50361924860E+03  0.57951978046E+03  0.78289192925E+03  0.90868803532E+02 0.  0.
          3    1    3    3  502    0  0.16907649978E+03 -0.12687411306E+04 -0.50162617760E+03  0.13747435184E+04  0.00000000000E+00 0. -1.
         -4    1    3    3    0  502  0.80550491889E+02 -0.41541854403E+03 -0.11999009850E+03  0.43983925724E+03  0.00000000000E+00 0.  1.
         13    1    5    5    0    0 -0.30076508958E+03  0.98875027782E+03  0.68300910851E+02  0.10357373052E+04  0.00000000000E+00 0.  1.
        -13    1    5    5    0    0 -0.72097894862E+02  0.19179014824E+03 -0.24412882249E+02  0.20634329702E+03  0.00000000000E+00 0. -1.
          3    1    6    6  503    0 -0.11308240429E+01  0.56145035507E+02  0.30942066071E+02  0.64116731262E+02  0.00000000000E+00 0. -1.
         -3    1    6    6    0  503  0.12436681682E+03  0.44747421310E+03  0.54857771439E+03  0.71877519798E+03  0.00000000000E+00 0.  1.
<mgrwt>
<rscale>  0 0.38395549E+04</rscale>
<asrwt>0</asrwt>
<pdfrwt beam="1">  1        1 0.29548822E+00 0.38395549E+04</pdfrwt>
<pdfrwt beam="2">  1       -2 0.29521260E+00 0.38395549E+04</pdfrwt>
<totfact> 0.79947020E-02</totfact>
</mgrwt>
</event>
<event>
12    5  0.5264288E-008  0.2923086E+04  0.7818608E-02  0.8266042E-01
          1   -1    0    0  501    0  0.00000000000E+00  0.00000000000E+00  0.18473850594E+04  0.18473850594E+04  0.00000000000E+00 0. -1.
         -2   -1    0    0    0  501 -0.00000000000E+00 -0.00000000000E+00 -0.11562875410E+04  0.11562875410E+04  0.00000000000E+00 0.  1.
        -24    2    1    2    0    0 -0.70558021343E+03 -0.98616577251E+02 -0.82842674468E+03  0.10970626481E+04  0.98422130469E+02 0.  0.
        254    2    1    2    0    0  0.70558021343E+03  0.98616577251E+02  0.15195242631E+04  0.19066099523E+04  0.90478663627E+03 0.  0.
         23    2    4    4    0    0  0.20274590255E+03 -0.23223306474E+02  0.13294418749E+04  0.13479626067E+04  0.89119399091E+02 0.  0.
         23    2    4    4    0    0  0.50283431088E+03  0.12183988373E+03  0.19008238816E+03  0.55864734559E+03  0.90929868468E+02 0.  0.
          3    1    3    3  502    0 -0.13729883626E+03 -0.34003800970E+01 -0.10903069622E+03  0.17535742283E+03  0.00000000000E+00 0. -1.
         -4    1    3    3    0  502 -0.56828137717E+03 -0.95216197154E+02 -0.71939604846E+03  0.92170522532E+03  0.00000000000E+00 0.  1.
         13    1    5    5    0    0  0.15905646533E+03 -0.29076525353E+02  0.12079027886E+04  0.12186769671E+04  0.00000000000E+00 0. -1.
        -13    1    5    5    0    0  0.43689437219E+02  0.58532188784E+01  0.12153908630E+03  0.12928563955E+03  0.00000000000E+00 0.  1.
          3    1    6    6  503    0  0.49535849698E+03  0.13200245061E+03  0.18427268031E+03  0.54475784363E+03  0.00000000000E+00 0. -1.
         -3    1    6    6    0  503  0.74758139021E+01 -0.10162566883E+02  0.58097078485E+01  0.13889501951E+02  0.00000000000E+00 0.  1.
<mgrwt>
<rscale>  0 0.29230863E+04</rscale>
<asrwt>0</asrwt>
<pdfrwt beam="1">  1        1 0.28421309E+00 0.29230863E+04</pdfrwt>
<pdfrwt beam="2">  1       -2 0.17789039E+00 0.29230863E+04</pdfrwt>
<totfact> 0.53416552E-01</totfact>
</mgrwt>
</event>
<event>
12    5  0.5264288E-008  0.1425875E+04  0.7818608E-02  0.8935299E-01
         -2   -1    0    0    0  501 -0.00000000000E+00  0.00000000000E+00  0.13870711416E+04  0.13870711416E+04  0.00000000000E+00 0.  1.
          1   -1    0    0  501    0  0.00000000000E+00 -0.00000000000E+00 -0.36644124542E+03  0.36644124542E+03  0.00000000000E+00 0. -1.
        -24    2    1    2    0    0  0.23423820399E+03 -0.26753669952E+03  0.58735788769E+03  0.69059322687E+03  0.74069527973E+02 0.  0.
        254    2    1    2    0    0 -0.23423820399E+03  0.26753669952E+03  0.43327200854E+03  0.10629191602E+04  0.90312185551E+03 0.  0.
         23    2    4    4    0    0  0.70367249753E+02 -0.47718479461E+02  0.57904049120E+03  0.59226103186E+03  0.90866034845E+02 0.  0.
         23    2    4    4    0    0 -0.30460545375E+03  0.31525517899E+03 -0.14576848267E+03  0.47065812832E+03  0.90001738257E+02 0.  0.
          3    1    3    3  502    0  0.12225767511E+03 -0.15877780617E+03  0.26318012728E+03  0.33078861868E+03  0.00000000000E+00 0. -1.
         -2    1    3    3    0  502  0.11198052888E+03 -0.10875889335E+03  0.32417776041E+03  0.35980460819E+03  0.00000000000E+00 0.  1.
         13    1    5    5    0    0 -0.11656339327E+02 -0.22844674582E+00  0.23827864853E+03  0.23856369543E+03  0.00000000000E+00 0. -1.
        -13    1    5    5    0    0  0.82023589080E+02 -0.47490032716E+02  0.34076184268E+03  0.35369733643E+03  0.00000000000E+00 0.  1.
          3    1    6    6  503    0 -0.95449662034E+02  0.15038775660E+03 -0.31627296234E+02  0.18090716178E+03  0.00000000000E+00 0. -1.
         -3    1    6    6    0  503 -0.20915579171E+03  0.16486742239E+03 -0.11414118643E+03  0.28975096654E+03  0.00000000000E+00 0.  1.
<mgrwt>
<rscale>  0 0.14258753E+04</rscale>
<asrwt>0</asrwt>
<pdfrwt beam="1">  1        1 0.56375577E-01 0.14258753E+04</pdfrwt>
<pdfrwt beam="2">  1       -2 0.21339556E+00 0.14258753E+04</pdfrwt>
<totfact> 0.62365128E+00</totfact>
</mgrwt>
</event>
<event>
12    5  0.5264288E-008  0.4593077E+04  0.7818608E-02  0.7894541E-01
          1   -1    0    0  501    0  0.00000000000E+00  0.00000000000E+00  0.25753492077E+04  0.25753492077E+04  0.00000000000E+00 0. -1.
         -2   -1    0    0    0  501 -0.00000000000E+00 -0.00000000000E+00 -0.20479120367E+04  0.20479120367E+04  0.00000000000E+00 0.  1.
        -24    2    1    2    0    0 -0.11054048409E+04 -0.74062224538E+03  0.20272821009E+04  0.24261919038E+04  0.78059365871E+02 0.  0.
        254    2    1    2    0    0  0.11054048409E+04  0.74062224538E+03 -0.14998449299E+04  0.21970693407E+04  0.89840842685E+03 0.  0.
         23    2    4    4    0    0  0.77634655905E+03  0.51431589817E+03 -0.38934174331E+03  0.10135403491E+04  0.91881572552E+02 0.  0.
         23    2    4    4    0    0  0.32905828185E+03  0.22630634721E+03 -0.11105031866E+04  0.11835289916E+04  0.89608207283E+02 0.  0.
          1    1    3    3  502    0 -0.62442148129E+03 -0.46363971840E+03  0.11977519634E+04  0.14281014462E+04  0.00000000000E+00 0. -1.
         -2    1    3    3    0  502 -0.48098335961E+03 -0.27698252697E+03  0.82953013746E+03  0.99809045754E+03  0.00000000000E+00 0.  1.
         13    1    5    5    0    0  0.50367550803E+03  0.31524156054E+03 -0.20296116859E+03  0.62790086386E+03  0.00000000000E+00 0.  1.
        -13    1    5    5    0    0  0.27267105102E+03  0.19907433763E+03 -0.18638057472E+03  0.38563948527E+03  0.00000000000E+00 0. -1.
          1    1    6    6  503    0  0.98498364475E+02  0.86387189669E+02 -0.25761272943E+03  0.28901382788E+03  0.00000000000E+00 0. -1.
         -1    1    6    6    0  503  0.23055991737E+03  0.13991915754E+03 -0.85289045715E+03  0.89451516367E+03  0.00000000000E+00 0.  1.
<mgrwt>
<rscale>  0 0.45930768E+04</rscale>
<asrwt>0</asrwt>
<pdfrwt beam="1">  1        1 0.39620757E+00 0.45930768E+04</pdfrwt>
<pdfrwt beam="2">  1       -2 0.31506339E+00 0.45930768E+04</pdfrwt>
<totfact> 0.20225978E-02</totfact>
</mgrwt>
</event>
<event>
12    5  0.5264288E-008  0.1581371E+04  0.7818608E-02  0.8832075E-01
          1   -1    0    0  501    0  0.00000000000E+00  0.00000000000E+00  0.14736724662E+04  0.14736724662E+04  0.00000000000E+00 0. -1.
         -2   -1    0    0    0  501 -0.00000000000E+00 -0.00000000000E+00 -0.42423529454E+03  0.42423529454E+03  0.00000000000E+00 0.  1.
        -24    2    1    2    0    0 -0.21833227397E+03 -0.13712169995E+03  0.91454726948E+03  0.95343568164E+03  0.78559203525E+02 0.  0.
        254    2    1    2    0    0  0.21833227397E+03  0.13712169995E+03  0.13488990220E+03  0.94447207912E+03  0.89853262605E+03 0.  0.
         23    2    4    4    0    0  0.40238347487E+03  0.89566854683E+02  0.41635752041E+03  0.59280289809E+03  0.90149924419E+02 0.  0.
         23    2    4    4    0    0 -0.18405120090E+03  0.47554845264E+02 -0.28146761821E+03  0.35166918103E+03  0.91164054999E+02 0.  0.
          1    1    3    3  502    0 -0.12295650099E+03 -0.31141791635E+02  0.41715795494E+03  0.43601476086E+03  0.00000000000E+00 0. -1.
         -2    1    3    3    0  502 -0.95375772972E+02 -0.10597990831E+03  0.49738931454E+03  0.51742092077E+03  0.00000000000E+00 0.  1.
         13    1    5    5    0    0  0.51239899084E+02  0.28126992790E+02  0.10178166557E+03  0.11737189795E+03  0.00000000000E+00 0. -1.
        -13    1    5    5    0    0  0.35114357579E+03  0.61439861893E+02  0.31457585484E+03  0.47543100014E+03  0.00000000000E+00 0.  1.
          1    1    6    6  503    0 -0.37207436898E+02 -0.26819710452E+02 -0.53182807221E+02  0.70228920063E+02  0.00000000000E+00 0. -1.
         -1    1    6    6    0  503 -0.14684376401E+03  0.74374555717E+02 -0.22828481099E+03  0.28144026097E+03  0.00000000000E+00 0.  1.
<mgrwt>
<rscale>  0 0.15813714E+04</rscale>
<asrwt>0</asrwt>
<pdfrwt beam="1">  1        1 0.22671884E+00 0.15813714E+04</pdfrwt>
<pdfrwt beam="2">  1       -2 0.65266969E-01 0.15813714E+04</pdfrwt>
<totfact> 0.12450062E+01</totfact>
</mgrwt>
</event>
<event>
12    5  0.5264288E-008  0.1694014E+04  0.7818608E-02  0.8764786E-01
          1   -1    0    0  501    0  0.00000000000E+00  0.00000000000E+00  0.11615761096E+04  0.11615761096E+04  0.00000000000E+00 0. -1.
         -2   -1    0    0    0  501 -0.00000000000E+00 -0.00000000000E+00 -0.61762724221E+03  0.61762724221E+03  0.00000000000E+00 0.  1.
        -24    2    1    2    0    0  0.45761484745E+03  0.26818984522E+03  0.38492340558E+03  0.66201802916E+03  0.93619982291E+02 0.  0.
        254    2    1    2    0    0 -0.45761484745E+03 -0.26818984522E+03  0.15902546184E+03  0.11171853227E+04  0.97029727714E+03 0.  0.
         23    2    4    4    0    0 -0.51130569019E+01  0.15163283500E+03  0.40882394096E+03  0.44536059545E+03  0.90500747364E+02 0.  0.
         23    2    4    4    0    0 -0.45250179055E+03 -0.41982268022E+03 -0.24979847912E+03  0.67182472724E+03  0.89107972031E+02 0.  0.
          1    1    3    3  502    0  0.39969642845E+03  0.20214515256E+03  0.34578169767E+03  0.56584881379E+03  0.00000000000E+00 0. -1.
         -2    1    3    3    0  502  0.57918419000E+02  0.66044692652E+02  0.39141707907E+02  0.96169215370E+02  0.00000000000E+00 0.  1.
         13    1    5    5    0    0  0.85239808864E+01  0.16008501615E+03  0.36350433149E+03  0.39728487218E+03  0.00000000000E+00 0. -1.
        -13    1    5    5    0    0 -0.13637037788E+02 -0.84521811479E+01  0.45319609464E+02  0.48075723268E+02  0.00000000000E+00 0.  1.
          2    1    6    6  503    0 -0.18342928364E+03 -0.13234457353E+03 -0.12679591157E+03  0.25930405209E+03  0.00000000000E+00 0. -1.
         -2    1    6    6    0  503 -0.26907250691E+03 -0.28747810669E+03 -0.12300256755E+03  0.41252067515E+03  0.00000000000E+00 0.  1.
<mgrwt>
<rscale>  0 0.16940142E+04</rscale>
<asrwt>0</asrwt>
<pdfrwt beam="1">  1        1 0.17870402E+00 0.16940142E+04</pdfrwt>
<pdfrwt beam="2">  1       -2 0.95019576E-01 0.16940142E+04</pdfrwt>
<totfact> 0.88714291E+00</totfact>
</mgrwt>
</event>
<event>
12    5  0.5264288E-008  0.1780372E+04  0.7818608E-02  0.8716808E-01
         -2   -1    0    0    0  501 -0.00000000000E+00  0.00000000000E+00  0.37209475075E+03  0.37209475075E+03  0.00000000000E+00 0.  1.
          1   -1    0    0  501    0  0.00000000000E+00 -0.00000000000E+00 -0.21296476861E+04  0.21296476861E+04  0.00000000000E+00 0. -1.
        -24    2    1    2    0    0  0.55523232481E+03  0.36227681404E+03 -0.68774970985E+03  0.95852219634E+03  0.78979193221E+02 0.  0.
        254    2    1    2    0    0 -0.55523232481E+03 -0.36227681404E+03 -0.10698032255E+04  0.15432202405E+04  0.89304106566E+03 0.  0.
         23    2    4    4    0    0 -0.33495328667E+03 -0.69308229367E+02 -0.11078610460E+04  0.11631279446E+04  0.92266913815E+02 0.  0.
         23    2    4    4    0    0 -0.22027903814E+03 -0.29296858468E+03  0.38057820530E+02  0.38009229588E+03  0.93103756284E+02 0.  0.
          1    1    3    3  502    0  0.36283926867E+03  0.21144991755E+03 -0.38836791635E+03  0.57200790290E+03  0.00000000000E+00 0. -1.
         -2    1    3    3    0  502  0.19239305614E+03  0.15082689649E+03 -0.29938179350E+03  0.38651429344E+03  0.00000000000E+00 0.  1.
         13    1    5    5    0    0 -0.19683314392E+03  0.59009909408E+01 -0.60334131535E+03  0.63466436094E+03  0.00000000000E+00 0.  1.
        -13    1    5    5    0    0 -0.13812014276E+03 -0.75209220308E+02 -0.50451973067E+03  0.52846358369E+03  0.00000000000E+00 0. -1.
          3    1    6    6  503    0 -0.13992793201E+03 -0.11244193389E+03  0.38287235396E+01  0.17954852764E+03  0.00000000000E+00 0. -1.
         -3    1    6    6    0  503 -0.80351106129E+02 -0.18052665078E+03  0.34229096990E+02  0.20054376824E+03  0.00000000000E+00 0.  1.
<mgrwt>
<rscale>  0 0.17803716E+04</rscale>
<asrwt>0</asrwt>
<pdfrwt beam="1">  1        1 0.32763811E+00 0.17803716E+04</pdfrwt>
<pdfrwt beam="2">  1       -2 0.57245346E-01 0.17803716E+04</pdfrwt>
<totfact> 0.57758671E+00</totfact>
</mgrwt>
</event>
<event>
12    5  0.5264288E-008  0.3066480E+04  0.7818608E-02  0.8224998E-01
          1   -1    0    0  501    0  0.00000000000E+00  0.00000000000E+00  0.29003022611E+04  0.29003022611E+04  0.00000000000E+00 0. -1.
         -2   -1    0    0    0  501 -0.00000000000E+00 -0.00000000000E+00 -0.81054482317E+03  0.81054482317E+03  0.00000000000E+00 0.  1.
        -24    2    1    2    0    0 -0.10959168544E+04  0.50001647696E+03  0.18063539063E+04  0.21729014852E+04  0.86811293311E+02 0.  0.
        254    2    1    2    0    0  0.10959168544E+04 -0.50001647696E+03  0.28340353168E+03  0.15379455991E+04  0.91318611192E+03 0.  0.
         23    2    4    4    0    0  0.11267377788E+04 -0.28551574888E+03 -0.47552991897E+01  0.11659374352E+04  0.91270065367E+02 0.  0.
         23    2    4    4    0    0 -0.30820924410E+02 -0.21450072808E+03  0.28815883087E+03  0.37200816390E+03  0.91619159977E+02 0.  0.
          3    1    3    3  502    0 -0.90308404844E+03  0.39163959940E+03  0.15233107687E+04  0.18136752941E+04  0.00000000000E+00 0. -1.
         -2    1    3    3    0  502 -0.19283280597E+03  0.10837687756E+03  0.28304313759E+03  0.35922619112E+03  0.00000000000E+00 0.  1.
         13    1    5    5    0    0  0.75649069043E+03 -0.21629140745E+03  0.32226387124E+02  0.78746344529E+03  0.00000000000E+00 0. -1.
        -13    1    5    5    0    0  0.37024708839E+03 -0.69224341427E+02 -0.36981686314E+02  0.37847398990E+03  0.00000000000E+00 0.  1.
          4    1    6    6  503    0 -0.61793680598E+02 -0.10876447683E+03  0.15218390899E+03  0.19699774754E+03  0.00000000000E+00 0. -1.
         -4    1    6    6    0  503  0.30972756188E+02 -0.10573625125E+03  0.13597492188E+03  0.17501041636E+03  0.00000000000E+00 0.  1.
<mgrwt>
<rscale>  0 0.30664801E+04</rscale>
<asrwt>0</asrwt>
<pdfrwt beam="1">  1        1 0.44620034E+00 0.30664801E+04</pdfrwt>
<pdfrwt beam="2">  1       -2 0.12469921E+00 0.30664801E+04</pdfrwt>
<totfact> 0.25353437E-01</totfact>
</mgrwt>
</event>
<event>
12    5  0.5264288E-008  0.2277034E+04  0.7818608E-02  0.8487032E-01
          1   -1    0    0  501    0  0.00000000000E+00  0.00000000000E+00  0.64924572611E+03  0.64924572611E+03  0.00000000000E+00 0. -1.
         -2   -1    0    0    0  501 -0.00000000000E+00 -0.00000000000E+00 -0.19965029561E+04  0.19965029561E+04  0.00000000000E+00 0.  1.
        -24    2    1    2    0    0  0.18613054929E+03 -0.91711599087E+03 -0.82375858476E+03  0.12492251944E+04  0.78987709931E+02 0.  0.
        254    2    1    2    0    0 -0.18613054929E+03  0.91711599087E+03 -0.52349864523E+03  0.13965234878E+04  0.89469586917E+03 0.  0.
         23    2    4    4    0    0  0.29962848151E+03  0.31857381828E+03 -0.41800263692E+03  0.61198029727E+03  0.92342704881E+02 0.  0.
         23    2    4    4    0    0 -0.48575903081E+03  0.59854217259E+03 -0.10549600831E+03  0.78454319053E+03  0.10081687188E+03 0.  0.
          1    1    3    3  502    0  0.88009828178E+02 -0.43188287968E+03 -0.33570739634E+03  0.55404693626E+03  0.00000000000E+00 0. -1.
         -2    1    3    3    0  502  0.98120721116E+02 -0.48523311119E+03 -0.48805118842E+03  0.69517825816E+03  0.00000000000E+00 0.  1.
         13    1    5    5    0    0  0.30508436459E+03  0.30706768498E+03 -0.39660240308E+03  0.58707793248E+03  0.00000000000E+00 0. -1.
        -13    1    5    5    0    0 -0.54558830762E+01  0.11506133302E+02 -0.21400233838E+02  0.24902364788E+02  0.00000000000E+00 0.  1.
          3    1    6    6  503    0 -0.47205245200E+03  0.58061098458E+03 -0.83346598061E+02  0.75292050594E+03  0.00000000000E+00 0. -1.
         -3    1    6    6    0  503 -0.13706578808E+02  0.17931188006E+02 -0.22149410254E+02  0.31622684588E+02  0.00000000000E+00 0.  1.
<mgrwt>
<rscale>  0 0.22770340E+04</rscale>
<asrwt>0</asrwt>
<pdfrwt beam="1">  1        1 0.99883958E-01 0.22770340E+04</pdfrwt>
<pdfrwt beam="2">  1       -2 0.30715430E+00 0.22770340E+04</pdfrwt>
<totfact> 0.69593697E-01</totfact>
</mgrwt>
</event>
<event>
12    5  0.5264288E-008  0.1690083E+04  0.7818608E-02  0.8767041E-01
         -2   -1    0    0    0  501 -0.00000000000E+00  0.00000000000E+00  0.44462799122E+03  0.44462799122E+03  0.00000000000E+00 0.  1.
          1   -1    0    0  501    0  0.00000000000E+00 -0.00000000000E+00 -0.16060507503E+04  0.16060507503E+04  0.00000000000E+00 0. -1.
        -24    2    1    2    0    0  0.42168540966E+03  0.27850962971E+03 -0.21279377230E+02  0.51222937142E+03  0.80869762502E+02 0.  0.
        254    2    1    2    0    0 -0.42168540966E+03 -0.27850962971E+03 -0.11401433819E+04  0.15384493701E+04  0.90084034914E+03 0.  0.
         23    2    4    4    0    0 -0.83944256223E+01 -0.16224854361E+03  0.10743264318E+03  0.21570023567E+03  0.92680971946E+02 0.  0.
         23    2    4    4    0    0 -0.41329098403E+03 -0.11626108610E+03 -0.12475760250E+04  0.13227491345E+04  0.94304065635E+02 0.  0.
          3    1    3    3  502    0  0.12651990948E+03  0.91527695787E+02 -0.43547054821E+02  0.16211401104E+03  0.00000000000E+00 0. -1.
         -4    1    3    3    0  502  0.29516550017E+03  0.18698193392E+03  0.22267677591E+02  0.35011536038E+03  0.00000000000E+00 0.  1.
         13    1    5    5    0    0  0.39211698847E+01 -0.25439477254E+02 -0.16597929321E+02  0.30627338016E+02  0.00000000000E+00 0.  1.
        -13    1    5    5    0    0 -0.12315595507E+02 -0.13680906636E+03  0.12403057250E+03  0.18507289765E+03  0.00000000000E+00 0. -1.
          4    1    6    6  503    0 -0.38628522633E+03 -0.11077401512E+03 -0.12167900668E+04  0.12814309287E+04  0.00000000000E+00 0. -1.
         -4    1    6    6    0  503 -0.27005757704E+02 -0.54870709865E+01 -0.30785958266E+02  0.41318205716E+02  0.00000000000E+00 0.  1.
<mgrwt>
<rscale>  0 0.16900830E+04</rscale>
<asrwt>0</asrwt>
<pdfrwt beam="1">  1        1 0.24708473E+00 0.16900830E+04</pdfrwt>
<pdfrwt beam="2">  1       -2 0.68404306E-01 0.16900830E+04</pdfrwt>
<totfact> 0.90307220E+00</totfact>
</mgrwt>
</event>
<event>
12    5  0.5264288E-008  0.1400362E+04  0.7818608E-02  0.8953557E-01
          1   -1    0    0  501    0  0.00000000000E+00  0.00000000000E+00  0.66488518979E+03  0.66488518979E+03  0.00000000000E+00 0. -1.
         -2   -1    0    0    0  501 -0.00000000000E+00 -0.00000000000E+00 -0.73735014940E+03  0.73735014940E+03  0.00000000000E+00 0.  1.
        -24    2    1    2    0    0  0.12270990563E+02  0.30954401588E+03 -0.26354566708E+03  0.41453530062E+03  0.80094455767E+02 0.  0.
        254    2    1    2    0    0 -0.12270990563E+02 -0.30954401588E+03  0.19108070746E+03  0.98770003857E+03  0.91818922584E+03 0.  0.
         23    2    4    4    0    0 -0.12971966569E+03 -0.30731368481E+03 -0.31129381135E+03  0.46405061574E+03  0.84677295929E+02 0.  0.
         23    2    4    4    0    0  0.11744867513E+03 -0.22303310715E+01  0.50237451881E+03  0.52364942283E+03  0.89606892645E+02 0.  0.
          3    1    3    3  502    0  0.32443194778E+02  0.15280997373E+03 -0.17009215524E+03  0.23094326193E+03  0.00000000000E+00 0. -1.
         -4    1    3    3    0  502 -0.20172204214E+02  0.15673404216E+03 -0.93453511833E+02  0.18359203868E+03  0.00000000000E+00 0.  1.
         13    1    5    5    0    0 -0.10128751731E+03 -0.18227590517E+03 -0.14466867719E+03  0.25379655815E+03  0.00000000000E+00 0.  1.
        -13    1    5    5    0    0 -0.28432148377E+02 -0.12503777964E+03 -0.16662513416E+03  0.21025405759E+03  0.00000000000E+00 0. -1.
          3    1    6    6  503    0  0.50990029324E+02 -0.41629731251E+02  0.29740146483E+03  0.30459916103E+03  0.00000000000E+00 0. -1.
         -3    1    6    6    0  503  0.66458645803E+02  0.39399400179E+02  0.20497305398E+03  0.21905026180E+03  0.00000000000E+00 0.  1.
<mgrwt>
<rscale>  0 0.14003617E+04</rscale>
<asrwt>0</asrwt>
<pdfrwt beam="1">  1        1 0.10229003E+00 0.14003617E+04</pdfrwt>
<pdfrwt beam="2">  1       -2 0.11343848E+00 0.14003617E+04</pdfrwt>
<totfact> 0.15321366E+01</totfact>
</mgrwt>
</event>
<event>
12    5  0.5264288E-008  0.1334442E+04  0.7818608E-02  0.9002689E-01
         -2   -1    0    0    0  501 -0.00000000000E+00  0.00000000000E+00  0.11148608889E+04  0.11148608889E+04  0.00000000000E+00 0.  1.
          1   -1    0    0  501    0  0.00000000000E+00 -0.00000000000E+00 -0.39931813118E+03  0.39931813118E+03  0.00000000000E+00 0. -1.
        -24    2    1    2    0    0 -0.66678301417E+02  0.34073510222E+03  0.10493603775E+03  0.37141691692E+03  0.79953413897E+02 0.  0.
        254    2    1    2    0    0  0.66678301417E+02 -0.34073510222E+03  0.61060671997E+03  0.11427621032E+04  0.90139794329E+03 0.  0.
         23    2    4    4    0    0 -0.10495824763E+03  0.21688351948E+03  0.47008486715E+03  0.53499826609E+03  0.84786010836E+02 0.  0.
         23    2    4    4    0    0  0.17163654904E+03 -0.55761862170E+03  0.14052185282E+03  0.60776383707E+03  0.96087763502E+02 0.  0.
          3    1    3    3  502    0 -0.25113257189E+02  0.20449836239E+02  0.17535544651E+02  0.36828885607E+02  0.00000000000E+00 0. -1.
         -4    1    3    3    0  502 -0.41565044228E+02  0.32028526598E+03  0.87400493094E+02  0.33458803132E+03  0.00000000000E+00 0.  1.
         13    1    5    5    0    0 -0.70689650808E+01 -0.59718132080E+01  0.37601689593E+02  0.38723634650E+02  0.00000000000E+00 0.  1.
        -13    1    5    5    0    0 -0.97889282545E+02  0.22285533268E+03  0.43248317755E+03  0.49627463144E+03  0.00000000000E+00 0. -1.
          3    1    6    6  503    0  0.11402881671E+03 -0.42823806537E+03  0.67014710201E+02  0.44819792844E+03  0.00000000000E+00 0. -1.
         -3    1    6    6    0  503  0.57607732338E+02 -0.12938055632E+03  0.73507142622E+02  0.15956590863E+03  0.00000000000E+00 0.  1.
<mgrwt>
<rscale>  0 0.13344425E+04</rscale>
<asrwt>0</asrwt>
<pdfrwt beam="1">  1        1 0.61433559E-01 0.13344425E+04</pdfrwt>
<pdfrwt beam="2">  1       -2 0.17151706E+00 0.13344425E+04</pdfrwt>
<totfact> 0.10693689E+01</totfact>
</mgrwt>
</event>
<event>
12    5  0.5264288E-008  0.2764013E+04  0.7818608E-02  0.8314529E-01
         -2   -1    0    0    0  501 -0.00000000000E+00  0.00000000000E+00  0.72522945834E+03  0.72522945834E+03  0.00000000000E+00 0.  1.
          1   -1    0    0  501    0  0.00000000000E+00 -0.00000000000E+00 -0.26335694546E+04  0.26335694546E+04  0.00000000000E+00 0. -1.
        -24    2    1    2    0    0  0.21610342597E+03 -0.86670965618E+03  0.18386680735E+03  0.91513373492E+03  0.76002836234E+02 0.  0.
        254    2    1    2    0    0 -0.21610342597E+03  0.86670965618E+03 -0.20922068036E+04  0.24436651780E+04  0.89234739555E+03 0.  0.
         23    2    4    4    0    0 -0.18377017063E+03  0.29981784031E+03 -0.17217498519E+04  0.17596627023E+04  0.91258206644E+02 0.  0.
         23    2    4    4    0    0 -0.32333255338E+02  0.56689181586E+03 -0.37045695166E+03  0.68400247570E+03  0.90604985701E+02 0.  0.
          1    1    3    3  502    0  0.47593103463E+02 -0.11131910497E+03  0.42903949606E+02  0.12844374457E+03  0.00000000000E+00 0. -1.
         -2    1    3    3    0  502  0.16851032251E+03 -0.75539055121E+03  0.14096285774E+03  0.78668999035E+03  0.00000000000E+00 0.  1.
         13    1    5    5    0    0 -0.19139948041E+03  0.29978482269E+03 -0.16852777766E+04  0.17224011976E+04  0.00000000000E+00 0.  1.
        -13    1    5    5    0    0  0.76293097785E+01  0.33017624964E-01 -0.36472075263E+02  0.37261504691E+02  0.00000000000E+00 0. -1.
          3    1    6    6  503    0 -0.59620136555E+02  0.40199226306E+03 -0.23991580716E+03  0.47192365354E+03  0.00000000000E+00 0. -1.
         -3    1    6    6    0  503  0.27286881217E+02  0.16489955280E+03 -0.13054114450E+03  0.21207882216E+03  0.00000000000E+00 0.  1.
<mgrwt>
<rscale>  0 0.27640131E+04</rscale>
<asrwt>0</asrwt>
<pdfrwt beam="1">  1        1 0.40516454E+00 0.27640131E+04</pdfrwt>
<pdfrwt beam="2">  1       -2 0.11157376E+00 0.27640131E+04</pdfrwt>
<totfact> 0.52970752E-01</totfact>
</mgrwt>
</event>
<event>
12    5  0.5264288E-008  0.1772656E+04  0.7818608E-02  0.8720977E-01
          1   -1    0    0  501    0  0.00000000000E+00  0.00000000000E+00  0.37744078307E+04  0.37744078307E+04  0.00000000000E+00 0. -1.
         -2   -1    0    0    0  501 -0.00000000000E+00 -0.00000000000E+00 -0.20813263441E+03  0.20813263441E+03  0.00000000000E+00 0.  1.
        -24    2    1    2    0    0  0.16792873195E+03 -0.36501048891E+03  0.24904497104E+04  0.25239947023E+04  0.82321208068E+02 0.  0.
        254    2    1    2    0    0 -0.16792873195E+03  0.36501048891E+03  0.10758254859E+04  0.14585457628E+04  0.89917881983E+03 0.  0.
         23    2    4    4    0    0 -0.41266497292E+03 -0.41612169526E+02  0.79095350707E+03  0.89779190549E+03  0.91645527398E+02 0.  0.
         23    2    4    4    0    0  0.24473624098E+03  0.40662265844E+03  0.28487197886E+03  0.56075385733E+03  0.89749819867E+02 0.  0.
          1    1    3    3  502    0  0.17076915739E+03 -0.35420935329E+03  0.23124688915E+04  0.23456638176E+04  0.00000000000E+00 0. -1.
         -2    1    3    3    0  502 -0.28404254411E+01 -0.10801135616E+02  0.17798081893E+03  0.17833088474E+03  0.00000000000E+00 0.  1.
         13    1    5    5    0    0 -0.34475268388E+03 -0.18955956852E+02  0.57966309505E+03  0.67470218994E+03  0.00000000000E+00 0. -1.
        -13    1    5    5    0    0 -0.67912289047E+02 -0.22656212674E+02  0.21129041202E+03  0.22308971556E+03  0.00000000000E+00 0.  1.
          4    1    6    6  503    0  0.10994084489E+03  0.10997352363E+03  0.11412969234E+03  0.19289051803E+03  0.00000000000E+00 0. -1.
         -4    1    6    6    0  503  0.13479539609E+03  0.29664913481E+03  0.17074228652E+03  0.36786333929E+03  0.00000000000E+00 0.  1.
<mgrwt>
<rscale>  0 0.17726561E+04</rscale>
<asrwt>0</asrwt>
<pdfrwt beam="1">  1        1 0.58067808E+00 0.17726561E+04</pdfrwt>
<pdfrwt beam="2">  1       -2 0.32020408E-01 0.17726561E+04</pdfrwt>
<totfact> 0.11395011E+00</totfact>
</mgrwt>
</event>
<event>
12    5  0.5264288E-008  0.1859994E+04  0.7818608E-02  0.8675030E-01
         -2   -1    0    0    0  501 -0.00000000000E+00  0.00000000000E+00  0.63150395875E+03  0.63150395875E+03  0.00000000000E+00 0.  1.
          1   -1    0    0  501    0  0.00000000000E+00 -0.00000000000E+00 -0.13695789179E+04  0.13695789179E+04  0.00000000000E+00 0. -1.
        -24    2    1    2    0    0 -0.48670695138E+03  0.52687081760E+03 -0.26360859443E+03  0.76833441449E+03  0.79823345492E+02 0.  0.
        254    2    1    2    0    0  0.48670695138E+03 -0.52687081760E+03 -0.47446636471E+03  0.12327484621E+04  0.88321793727E+03 0.  0.
         23    2    4    4    0    0  0.35871115159E+03 -0.19885845083E+03  0.20086659188E+03  0.46573561085E+03  0.91344938189E+02 0.  0.
         23    2    4    4    0    0  0.12799579978E+03 -0.32801236677E+03 -0.67533295659E+03  0.76701285129E+03  0.90879449131E+02 0.  0.
          3    1    3    3  502    0 -0.99527055833E+02  0.13861160087E+03 -0.91574329489E+02  0.19366122110E+03  0.00000000000E+00 0. -1.
         -4    1    3    3    0  502 -0.38717989554E+03  0.38825921673E+03 -0.17203426494E+03  0.57467319339E+03  0.00000000000E+00 0.  1.
         13    1    5    5    0    0  0.19575619638E+03 -0.57012708079E+02  0.89331677629E+02  0.22260073210E+03  0.00000000000E+00 0.  1.
        -13    1    5    5    0    0  0.16295495521E+03 -0.14184574275E+03  0.11153491425E+03  0.24313487874E+03  0.00000000000E+00 0. -1.
          3    1    6    6  503    0 -0.12053761447E+02 -0.92798663590E+01 -0.22662447527E+02  0.27294607757E+02  0.00000000000E+00 0. -1.
         -3    1    6    6    0  503  0.14004956123E+03 -0.31873250041E+03 -0.65267050906E+03  0.73971824353E+03  0.00000000000E+00 0.  1.
<mgrwt>
<rscale>  0 0.18599941E+04</rscale>
<asrwt>0</asrwt>
<pdfrwt beam="1">  1        1 0.21070445E+00 0.18599941E+04</pdfrwt>
<pdfrwt beam="2">  1       -2 0.97154456E-01 0.18599941E+04</pdfrwt>
<totfact> 0.58795646E+00</totfact>
</mgrwt>
</event>
<event>
12    5  0.5264288E-008  0.1516410E+04  0.7818608E-02  0.8873613E-01
         -4   -1    0    0    0  501 -0.00000000000E+00  0.00000000000E+00  0.48815973708E+03  0.48815973708E+03  0.00000000000E+00 0.  1.
          3   -1    0    0  501    0  0.00000000000E+00 -0.00000000000E+00 -0.11776363076E+04  0.11776363076E+04  0.00000000000E+00 0. -1.
        -24    2    1    2    0    0  0.30013784511E+03 -0.11887158514E+03  0.17364998400E+03  0.37528817271E+03  0.80459404744E+02 0.  0.
        254    2    1    2    0    0 -0.30013784511E+03  0.11887158514E+03 -0.86312655447E+03  0.12905078719E+04  0.90344337878E+03 0.  0.
         23    2    4    4    0    0 -0.11744401341E+03 -0.12322738056E+03  0.14079584398E+03  0.23806462721E+03  0.88731130040E+02 0.  0.
         23    2    4    4    0    0 -0.18269383170E+03  0.24209896570E+03 -0.10039223984E+04  0.10524432447E+04  0.88247696436E+02 0.  0.
          3    1    3    3  502    0  0.15887639453E+03 -0.68940422006E+02  0.47918833695E+02  0.17969614673E+03  0.00000000000E+00 0. -1.
         -2    1    3    3    0  502  0.14126145058E+03 -0.49931163132E+02  0.12573115030E+03  0.19559202599E+03  0.00000000000E+00 0.  1.
         13    1    5    5    0    0 -0.82053763169E+02 -0.13182243979E+03  0.10892939240E+03  0.18967231799E+03  0.00000000000E+00 0. -1.
        -13    1    5    5    0    0 -0.35390250245E+02  0.85950592241E+01  0.31866451577E+02  0.48392309219E+02  0.00000000000E+00 0.  1.
          2    1    6    6  503    0 -0.10884426511E+03  0.16378731972E+03 -0.50278508568E+03  0.53987609924E+03  0.00000000000E+00 0. -1.
         -2    1    6    6    0  503 -0.73849566586E+02  0.78311645981E+02 -0.50113731277E+03  0.51256714548E+03  0.00000000000E+00 0.  1.
<mgrwt>
<rscale>  0 0.15164097E+04</rscale>
<asrwt>0</asrwt>
<pdfrwt beam="1">  1        3 0.18117481E+00 0.15164097E+04</pdfrwt>
<pdfrwt beam="2">  1       -4 0.75101499E-01 0.15164097E+04</pdfrwt>
<totfact> 0.69035010E-01</totfact>
</mgrwt>
</event>
<event>
12    5  0.5264288E-008  0.2928222E+04  0.7818608E-02  0.8264530E-01
          1   -1    0    0  501    0  0.00000000000E+00  0.00000000000E+00  0.28613183493E+04  0.28613183493E+04  0.00000000000E+00 0. -1.
         -2   -1    0    0    0  501 -0.00000000000E+00 -0.00000000000E+00 -0.74917246053E+03  0.74917246053E+03  0.00000000000E+00 0.  1.
        -24    2    1    2    0    0 -0.90237532461E+03  0.45910977165E+03  0.20210469212E+04  0.22618747072E+04  0.79896963218E+02 0.  0.
        254    2    1    2    0    0  0.90237532461E+03 -0.45910977165E+03  0.91098967597E+02  0.13486161026E+04  0.88622985811E+03 0.  0.
         23    2    4    4    0    0  0.55415295814E+03 -0.31159983825E+03  0.47707061975E+03  0.80014836194E+03  0.91984045786E+02 0.  0.
         23    2    4    4    0    0  0.34822236646E+03 -0.14750993340E+03 -0.38597165215E+03  0.54846774065E+03  0.93940136885E+02 0.  0.
          3    1    3    3  502    0 -0.67358199532E+03  0.37781792776E+03  0.15670357279E+04  0.17470146146E+04  0.00000000000E+00 0. -1.
         -4    1    3    3    0  502 -0.22879332929E+03  0.81291843890E+02  0.45401119326E+03  0.51486009266E+03  0.00000000000E+00 0.  1.
         13    1    5    5    0    0  0.13323539028E+03 -0.77075433970E+02  0.68813305063E+02  0.16860475289E+03  0.00000000000E+00 0.  1.
        -13    1    5    5    0    0  0.42091756786E+03 -0.23452440428E+03  0.40825731468E+03  0.63154360905E+03  0.00000000000E+00 0. -1.
          3    1    6    6  503    0  0.24315325876E+03 -0.11594068971E+03 -0.21201921529E+03  0.34280883656E+03  0.00000000000E+00 0. -1.
         -3    1    6    6    0  503  0.10506910770E+03 -0.31569243688E+02 -0.17395243686E+03  0.20565890409E+03  0.00000000000E+00 0.  1.
<mgrwt>
<rscale>  0 0.29282219E+04</rscale>
<asrwt>0</asrwt>
<pdfrwt beam="1">  1        1 0.44020282E+00 0.29282219E+04</pdfrwt>
<pdfrwt beam="2">  1       -2 0.11525730E+00 0.29282219E+04</pdfrwt>
<totfact> 0.33265130E-01</totfact>
</mgrwt>
</event>
<event>
12    5  0.5264288E-008  0.1352752E+04  0.7818608E-02  0.8988748E-01
          1   -1    0    0  501    0  0.00000000000E+00  0.00000000000E+00  0.26877968768E+04  0.26877968768E+04  0.00000000000E+00 0. -1.
         -2   -1    0    0    0  501 -0.00000000000E+00 -0.00000000000E+00 -0.17020793193E+03  0.17020793193E+03  0.00000000000E+00 0.  1.
        -24    2    1    2    0    0  0.23005614883E+03 -0.31438782720E+03  0.11116691344E+04  0.11805659780E+04  0.78499849759E+02 0.  0.
        254    2    1    2    0    0 -0.23005614883E+03  0.31438782720E+03  0.14059198105E+04  0.16774388308E+04  0.82790396786E+03 0.  0.
         23    2    4    4    0    0  0.13683691985E+03  0.39223974683E+03  0.11180445302E+04  0.11959472238E+04  0.87691669960E+02 0.  0.
         23    2    4    4    0    0 -0.36689306869E+03 -0.77851919636E+02  0.28787528026E+03  0.48149160696E+03  0.91052431854E+02 0.  0.
          3    1    3    3  502    0  0.19393421408E+03 -0.25295740553E+03  0.80686561979E+03  0.86754253890E+03  0.00000000000E+00 0. -1.
         -4    1    3    3    0  502  0.36121934755E+02 -0.61430421670E+02  0.30480351461E+03  0.31302343905E+03  0.00000000000E+00 0.  1.
         13    1    5    5    0    0  0.70193229163E+02  0.30839016304E+03  0.87261775623E+03  0.92816665021E+03  0.00000000000E+00 0. -1.
        -13    1    5    5    0    0  0.66643690688E+02  0.83849583793E+02  0.24542677401E+03  0.26778057362E+03  0.00000000000E+00 0.  1.
          4    1    6    6  503    0 -0.28982684687E+03 -0.22635946067E+02  0.22683172872E+03  0.36873380693E+03  0.00000000000E+00 0.  1.
         -4    1    6    6    0  503 -0.77066221815E+02 -0.55215973569E+02  0.61043551541E+02  0.11275780003E+03  0.00000000000E+00 0. -1.
<mgrwt>
<rscale>  0 0.13527518E+04</rscale>
<asrwt>0</asrwt>
<pdfrwt beam="1">  1        1 0.41350718E+00 0.13527518E+04</pdfrwt>
<pdfrwt beam="2">  1       -2 0.26185838E-01 0.13527518E+04</pdfrwt>
<totfact> 0.11404562E+01</totfact>
</mgrwt>
</event>
<event>
12    5  0.5264288E-008  0.1983296E+04  0.7818608E-02  0.8614470E-01
         -2   -1    0    0    0  501 -0.00000000000E+00  0.00000000000E+00  0.40598159735E+03  0.40598159735E+03  0.00000000000E+00 0.  1.
          1   -1    0    0  501    0  0.00000000000E+00 -0.00000000000E+00 -0.24221930107E+04  0.24221930107E+04  0.00000000000E+00 0. -1.
        -24    2    1    2    0    0  0.61933746701E+02  0.49442181064E+03  0.61654772280E+02  0.50832714429E+03  0.79413215882E+02 0.  0.
        254    2    1    2    0    0 -0.61933746701E+02 -0.49442181064E+03 -0.20778661857E+04  0.23198474638E+04  0.90325835395E+03 0.  0.
         23    2    4    4    0    0 -0.39744602035E+03 -0.39246209739E+03 -0.17192118270E+04  0.18099587889E+04  0.90948746222E+02 0.  0.
         23    2    4    4    0    0  0.33551227365E+03 -0.10195971325E+03 -0.35865435864E+03  0.50988867488E+03  0.91592810336E+02 0.  0.
          3    1    3    3  502    0  0.16140504092E+02  0.32391494182E+02 -0.12209552056E+02  0.38194213293E+02  0.00000000000E+00 0. -1.
         -4    1    3    3    0  502  0.45793242610E+02  0.46203031646E+03  0.73864324336E+02  0.47013293099E+03  0.00000000000E+00 0.  1.
         13    1    5    5    0    0 -0.20191791461E+02 -0.22594203393E+00 -0.90691603662E+02  0.92912466693E+02  0.00000000000E+00 0.  1.
        -13    1    5    5    0    0 -0.37725422889E+03 -0.39223615535E+03 -0.16285202234E+04  0.17170463222E+04  0.00000000000E+00 0. -1.
          3    1    6    6  503    0  0.29158575561E+03 -0.99875734014E+02 -0.34755419743E+03  0.46453345979E+03  0.00000000000E+00 0. -1.
         -3    1    6    6    0  503  0.43926518042E+02 -0.20839792387E+01 -0.11100161212E+02  0.45355215088E+02  0.00000000000E+00 0.  1.
<mgrwt>
<rscale>  0 0.19832960E+04</rscale>
<asrwt>0</asrwt>
<pdfrwt beam="1">  1        1 0.37264507E+00 0.19832960E+04</pdfrwt>
<pdfrwt beam="2">  1       -2 0.62458708E-01 0.19832960E+04</pdfrwt>
<totfact> 0.29773149E+00</totfact>
</mgrwt>
</event>
<event>
12    5  0.5264288E-008  0.1434838E+04  0.7818608E-02  0.8928980E-01
         -2   -1    0    0    0  501 -0.00000000000E+00  0.00000000000E+00  0.65039699557E+03  0.65039699557E+03  0.00000000000E+00 0.  1.
          1   -1    0    0  501    0  0.00000000000E+00 -0.00000000000E+00 -0.79134782505E+03  0.79134782505E+03  0.00000000000E+00 0. -1.
        -24    2    1    2    0    0 -0.16250449170E+03 -0.42225942150E+03 -0.14271429518E+03  0.48013427537E+03  0.73829692267E+02 0.  0.
        254    2    1    2    0    0  0.16250449170E+03  0.42225942150E+03  0.17634657007E+01  0.96161054525E+03  0.84851694270E+03 0.  0.
         23    2    4    4    0    0 -0.26574537570E+03 -0.13204732200E+02 -0.15496410706E+03  0.32443756318E+03  0.10222958607E+03 0.  0.
         23    2    4    4    0    0  0.42824986740E+03  0.43546415370E+03  0.15672757276E+03  0.63717298207E+03  0.91645506834E+02 0.  0.
          1    1    3    3  502    0 -0.16336211387E+03 -0.42053104766E+03 -0.14776350544E+03  0.47472897092E+03  0.00000000000E+00 0. -1.
         -2    1    3    3    0  502  0.85762216662E+00 -0.17283738446E+01  0.50492102562E+01  0.54053044446E+01  0.00000000000E+00 0.  1.
         13    1    5    5    0    0 -0.11540716189E+03  0.76882455484E+01 -0.12392187525E+03  0.16951269362E+03  0.00000000000E+00 0. -1.
        -13    1    5    5    0    0 -0.15033821381E+03 -0.20892977748E+02 -0.31042231810E+02  0.15492486956E+03  0.00000000000E+00 0.  1.
          3    1    6    6  503    0  0.16261064528E+03  0.14717651362E+03  0.10011440819E+03  0.24109343177E+03  0.00000000000E+00 0. -1.
         -3    1    6    6    0  503  0.26563922213E+03  0.28828764009E+03  0.56613164574E+02  0.39607955030E+03  0.00000000000E+00 0.  1.
<mgrwt>
<rscale>  0 0.14348383E+04</rscale>
<asrwt>0</asrwt>
<pdfrwt beam="1">  1        1 0.12174582E+00 0.14348383E+04</pdfrwt>
<pdfrwt beam="2">  1       -2 0.10006108E+00 0.14348383E+04</pdfrwt>
<totfact> 0.15808242E+01</totfact>
</mgrwt>
</event>
<event>
12    5  0.5264288E-008  0.1541601E+04  0.7818608E-02  0.8857250E-01
          1   -1    0    0  501    0  0.00000000000E+00  0.00000000000E+00  0.17854122571E+04  0.17854122571E+04  0.00000000000E+00 0. -1.
         -2   -1    0    0    0  501 -0.00000000000E+00 -0.00000000000E+00 -0.33277109019E+03  0.33277109019E+03  0.00000000000E+00 0.  1.
        -24    2    1    2    0    0 -0.38257326761E+03 -0.24276859640E+03  0.14521085665E+03  0.48234820344E+03  0.79213003858E+02 0.  0.
        254    2    1    2    0    0  0.38257326761E+03  0.24276859640E+03  0.13074303102E+04  0.16358351438E+04  0.87251573349E+03 0.  0.
         23    2    4    4    0    0  0.35512337698E+03  0.42031753349E+03  0.13217506327E+04  0.14346837914E+04  0.92268111568E+02 0.  0.
         23    2    4    4    0    0  0.27449890634E+02 -0.17754893709E+03 -0.14320322440E+02  0.20115135246E+03  0.89329017708E+02 0.  0.
          3    1    3    3  502    0 -0.16089313228E+03 -0.80841084459E+02  0.21847916440E+02  0.18138140038E+03  0.00000000000E+00 0. -1.
         -4    1    3    3    0  502 -0.22168013533E+03 -0.16192751194E+03  0.12336294021E+03  0.30096680305E+03  0.00000000000E+00 0.  1.
         13    1    5    5    0    0  0.32809751862E+03  0.39167662844E+03  0.12749530973E+04  0.13735224655E+04  0.00000000000E+00 0. -1.
        -13    1    5    5    0    0  0.27025858360E+02  0.28640905050E+02  0.46797535382E+02  0.61161325852E+02  0.00000000000E+00 0.  1.
          4    1    6    6  503    0  0.27500854203E+02 -0.12891764452E+03 -0.49844084957E+02  0.14092724668E+03  0.00000000000E+00 0. -1.
         -4    1    6    6    0  503 -0.50963568688E-01 -0.48631292565E+02  0.35523762516E+02  0.60224105781E+02  0.00000000000E+00 0.  1.
<mgrwt>
<rscale>  0 0.15416012E+04</rscale>
<asrwt>0</asrwt>
<pdfrwt beam="1">  1        1 0.27467880E+00 0.15416012E+04</pdfrwt>
<pdfrwt beam="2">  1       -2 0.51195553E-01 0.15416012E+04</pdfrwt>
<totfact> 0.12719736E+01</totfact>
</mgrwt>
</event>
<event>
12    5  0.5384645E-008  0.1624407E+04  0.7818608E-02  0.8805693E-01
          1   -1    0    0  501    0  0.00000000000E+00  0.00000000000E+00  0.13255497178E+04  0.13255497178E+04  0.00000000000E+00 0. -1.
         -2   -1    0    0    0  501 -0.00000000000E+00 -0.00000000000E+00 -0.49766108382E+03  0.49766108382E+03  0.00000000000E+00 0.  1.
        -24    2    1    2    0    0  0.54489482766E+03  0.42312910213E+02  0.13941826681E+03  0.56943660662E+03  0.78229407923E+02 0.  0.
        254    2    1    2    0    0 -0.54489482766E+03 -0.42312910213E+02  0.68847036721E+03  0.12537741950E+04  0.89401204131E+03 0.  0.
         23    2    4    4    0    0 -0.61666637750E+03 -0.28800517478E+02  0.74620516481E+02  0.62869781305E+03  0.92659741530E+02 0.  0.
         23    2    4    4    0    0  0.71771549845E+02 -0.13512392735E+02  0.61384985073E+03  0.62507638198E+03  0.92601857111E+02 0.  0.
          3    1    3    3  502    0  0.14580093566E+02 -0.83792332246E+01 -0.48756749119E+01  0.17508937251E+02  0.00000000000E+00 0. -1.
         -4    1    3    3    0  502  0.53031473409E+03  0.50692143437E+02  0.14429394172E+03  0.55192766937E+03  0.00000000000E+00 0.  1.
         13    1    5    5    0    0 -0.39181513342E+03 -0.34213499632E+02  0.89252692401E+02  0.40330596999E+03  0.00000000000E+00 0. -1.
        -13    1    5    5    0    0 -0.22485124409E+03  0.54129821541E+01 -0.14632175920E+02  0.22539184305E+03  0.00000000000E+00 0.  1.
          4    1    6    6  503    0  0.10645474061E+02  0.62371424811E+01  0.57834499752E+01  0.13626311237E+02  0.00000000000E+00 0. -1.
         -4    1    6    6    0  503  0.61126075784E+02 -0.19749535216E+02  0.60806640075E+03  0.61145007074E+03  0.00000000000E+00 0.  1.
<mgrwt>
<rscale>  0 0.16244070E+04</rscale>
<asrwt>0</asrwt>
<pdfrwt beam="1">  1        1 0.20393072E+00 0.16244070E+04</pdfrwt>
<pdfrwt beam="2">  1       -2 0.76563244E-01 0.16244070E+04</pdfrwt>
<totfact> 0.11113278E+01</totfact>
</mgrwt>
</event>
<event>
12    5  0.5264288E-008  0.1522001E+04  0.7818608E-02  0.8869953E-01
         -2   -1    0    0    0  501 -0.00000000000E+00  0.00000000000E+00  0.21334342289E+03  0.21334342289E+03  0.00000000000E+00 0.  1.
          1   -1    0    0  501    0  0.00000000000E+00 -0.00000000000E+00 -0.27145037925E+04  0.27145037925E+04  0.00000000000E+00 0. -1.
        -24    2    1    2    0    0  0.14617174828E+03  0.32966378221E+03 -0.14580846792E+04  0.15041373972E+04  0.79837263132E+02 0.  0.
        254    2    1    2    0    0 -0.14617174828E+03 -0.32966378221E+03 -0.10430756904E+04  0.14237098182E+04  0.89938777022E+03 0.  0.
         23    2    4    4    0    0 -0.21203200403E+02 -0.47865876358E+03 -0.10985064545E+04  0.12017785089E+04  0.89394442373E+02 0.  0.
         23    2    4    4    0    0 -0.12496854788E+03  0.14899498136E+03  0.55430764110E+02  0.22193130925E+03  0.91456514177E+02 0.  0.
          3    1    3    3  502    0  0.12798313094E+03  0.23592844009E+03 -0.95149269167E+03  0.98862543612E+03  0.00000000000E+00 0. -1.
         -4    1    3    3    0  502  0.18188617333E+02  0.93735342122E+02 -0.50659198756E+03  0.51551196108E+03  0.00000000000E+00 0.  1.
         13    1    5    5    0    0 -0.24630874446E+02 -0.42937698518E+03 -0.10386232298E+04  0.11241483393E+04  0.00000000000E+00 0. -1.
        -13    1    5    5    0    0  0.34276740430E+01 -0.49281778397E+02 -0.59883224704E+02  0.77630169601E+02  0.00000000000E+00 0.  1.
          3    1    6    6  503    0 -0.13021443001E+03  0.14640069515E+03  0.68541386914E+02  0.20757380144E+03  0.00000000000E+00 0. -1.
         -3    1    6    6    0  503  0.52458821329E+01  0.25942862157E+01 -0.13110622803E+02  0.14357507814E+02  0.00000000000E+00 0.  1.
<mgrwt>
<rscale>  0 0.15220007E+04</rscale>
<asrwt>0</asrwt>
<pdfrwt beam="1">  1        1 0.41761597E+00 0.15220007E+04</pdfrwt>
<pdfrwt beam="2">  1       -2 0.32822065E-01 0.15220007E+04</pdfrwt>
<totfact> 0.70635499E+00</totfact>
</mgrwt>
</event>
<event>
12    5  0.5264288E-008  0.2592455E+04  0.7818608E-02  0.8370769E-01
          1   -1    0    0  501    0  0.00000000000E+00  0.00000000000E+00  0.30122204560E+04  0.30122204560E+04  0.00000000000E+00 0. -1.
         -2   -1    0    0    0  501 -0.00000000000E+00 -0.00000000000E+00 -0.55779632708E+03  0.55779632708E+03  0.00000000000E+00 0.  1.
        -24    2    1    2    0    0  0.10394490390E+04 -0.22564264554E+03  0.16599372331E+04  0.19730571258E+04  0.78701307432E+02 0.  0.
        254    2    1    2    0    0 -0.10394490390E+04  0.22564264554E+03  0.79448689584E+03  0.15969596573E+04  0.88752566781E+03 0.  0.
         23    2    4    4    0    0 -0.77121928580E+03  0.54936538085E+03  0.60037536834E+03  0.11250313144E+04  0.93077210046E+02 0.  0.
         23    2    4    4    0    0 -0.26822975323E+03 -0.32372273532E+03  0.19411152750E+03  0.47192834285E+03  0.91068467602E+02 0.  0.
          1    1    3    3  502    0  0.10133961424E+04 -0.20711748309E+03  0.16171476106E+04  0.19196447035E+04  0.00000000000E+00 0. -1.
         -2    1    3    3    0  502  0.26052896678E+02 -0.18525162450E+02  0.42789622503E+02  0.53412422367E+02  0.00000000000E+00 0.  1.
         13    1    5    5    0    0 -0.57333080019E+03  0.45296201907E+03  0.44362777706E+03  0.85480313626E+03  0.00000000000E+00 0. -1.
        -13    1    5    5    0    0 -0.19788848561E+03  0.96403361780E+02  0.15674759128E+03  0.27022817815E+03  0.00000000000E+00 0.  1.
          3    1    6    6  503    0 -0.19252602809E+03 -0.17529242855E+03  0.14594176107E+03  0.29848401067E+03  0.00000000000E+00 0. -1.
         -3    1    6    6    0  503 -0.75703725145E+02 -0.14843030676E+03  0.48169766433E+02  0.17344433218E+03  0.00000000000E+00 0.  1.
<mgrwt>
<rscale>  0 0.25924548E+04</rscale>
<asrwt>0</asrwt>
<pdfrwt beam="1">  1        1 0.46341852E+00 0.25924548E+04</pdfrwt>
<pdfrwt beam="2">  1       -2 0.85814821E-01 0.25924548E+04</pdfrwt>
<totfact> 0.53498882E-01</totfact>
</mgrwt>
</event>
<event>
12    5  0.5264288E-008  0.1561470E+04  0.7818608E-02  0.8844574E-01
         -2   -1    0    0    0  501 -0.00000000000E+00  0.00000000000E+00  0.56766597950E+03  0.56766597950E+03  0.00000000000E+00 0.  1.
          1   -1    0    0  501    0  0.00000000000E+00 -0.00000000000E+00 -0.10737777609E+04  0.10737777609E+04  0.00000000000E+00 0. -1.
        -24    2    1    2    0    0 -0.36879960259E+03 -0.35970686160E+03 -0.12225468167E+03  0.53524821483E+03  0.78372642762E+02 0.  0.
        254    2    1    2    0    0  0.36879960259E+03  0.35970686160E+03 -0.38385709972E+03  0.11061955256E+04  0.90051101861E+03 0.  0.
         23    2    4    4    0    0  0.45661784451E+03  0.58459575476E+03 -0.39906390754E+03  0.84854664513E+03  0.10260289590E+03 0.  0.
         23    2    4    4    0    0 -0.87818241923E+02 -0.22488889316E+03  0.15206807828E+02  0.25764888044E+03  0.88682809518E+02 0.  0.
          3    1    3    3  502    0 -0.92947201683E+02 -0.14161551043E+03 -0.43388976484E+02  0.17486205528E+03  0.00000000000E+00 0. -1.
         -4    1    3    3    0  502 -0.27585240091E+03 -0.21809135116E+03 -0.78865705190E+02  0.36038615955E+03  0.00000000000E+00 0.  1.
         13    1    5    5    0    0  0.22805666970E+03  0.36319182154E+03 -0.20001449184E+03  0.47320602360E+03  0.00000000000E+00 0. -1.
        -13    1    5    5    0    0  0.22856117481E+03  0.22140393323E+03 -0.19904941570E+03  0.37534062153E+03  0.00000000000E+00 0.  1.
          2    1    6    6  503    0  0.13789422016E+02 -0.47447704080E+01  0.29469069740E+01  0.14877676784E+02  0.00000000000E+00 0. -1.
         -2    1    6    6    0  503 -0.10160766394E+03 -0.22014412276E+03  0.12259900854E+02  0.24277120366E+03  0.00000000000E+00 0.  1.
<mgrwt>
<rscale>  0 0.15614700E+04</rscale>
<asrwt>0</asrwt>
<pdfrwt beam="1">  1        1 0.16519658E+00 0.15614700E+04</pdfrwt>
<pdfrwt beam="2">  1       -2 0.87333229E-01 0.15614700E+04</pdfrwt>
<totfact> 0.12686870E+01</totfact>
</mgrwt>
</event>
<event>
12    5  0.5264288E-008  0.3101028E+04  0.7818608E-02  0.8215456E-01
         -2   -1    0    0    0  501 -0.00000000000E+00  0.00000000000E+00  0.10806454374E+04  0.10806454374E+04  0.00000000000E+00 0.  1.
          1   -1    0    0  501    0  0.00000000000E+00 -0.00000000000E+00 -0.22246835182E+04  0.22246835182E+04  0.00000000000E+00 0. -1.
        -24    2    1    2    0    0  0.12148435475E+04 -0.72486288731E+03 -0.43853382156E+03  0.14831255476E+04  0.77964268607E+02 0.  0.
        254    2    1    2    0    0 -0.12148435475E+04  0.72486288731E+03 -0.70550425921E+03  0.18222034079E+04  0.90632110746E+03 0.  0.
         23    2    4    4    0    0 -0.10046791046E+04  0.80418635824E+03 -0.26159137748E+03  0.13165516469E+04  0.93714396419E+02 0.  0.
         23    2    4    4    0    0 -0.21016444286E+03 -0.79323470934E+02 -0.44391288174E+03  0.50565176104E+03  0.90353476914E+02 0.  0.
          3    1    3    3  502    0  0.14473962251E+02 -0.33495595672E+01  0.19065008579E+01  0.14978313592E+02  0.00000000000E+00 0. -1.
         -2    1    3    3    0  502  0.12003695852E+04 -0.72151332774E+03 -0.44044032241E+03  0.14681472340E+04  0.00000000000E+00 0.  1.
         13    1    5    5    0    0 -0.68967568869E+03  0.60633987960E+03 -0.18797854773E+03  0.93735614341E+03  0.00000000000E+00 0. -1.
        -13    1    5    5    0    0 -0.31500341591E+03  0.19784647864E+03 -0.73612829740E+02  0.37919550347E+03  0.00000000000E+00 0.  1.
          3    1    6    6  503    0 -0.15176016910E+03 -0.94305497338E+02 -0.29356655130E+03  0.34366552896E+03  0.00000000000E+00 0. -1.
         -3    1    6    6    0  503 -0.58404273766E+02  0.14982026404E+02 -0.15034633044E+03  0.16198623209E+03  0.00000000000E+00 0.  1.
<mgrwt>
<rscale>  0 0.31010283E+04</rscale>
<asrwt>0</asrwt>
<pdfrwt beam="1">  1        1 0.34225900E+00 0.31010283E+04</pdfrwt>
<pdfrwt beam="2">  1       -2 0.16625315E+00 0.31010283E+04</pdfrwt>
<totfact> 0.35256767E-01</totfact>
</mgrwt>
</event>
<event>
12    5  0.5264288E-008  0.1865119E+04  0.7818608E-02  0.8672416E-01
          1   -1    0    0  501    0  0.00000000000E+00  0.00000000000E+00  0.32352729196E+03  0.32352729196E+03  0.00000000000E+00 0. -1.
         -2   -1    0    0    0  501 -0.00000000000E+00 -0.00000000000E+00 -0.26880793851E+04  0.26880793851E+04  0.00000000000E+00 0.  1.
        -24    2    1    2    0    0  0.53983396902E+03  0.61437807539E+02 -0.16638675456E+03  0.57365404403E+03  0.78734311663E+02 0.  0.
        254    2    1    2    0    0 -0.53983396902E+03 -0.61437807539E+02 -0.21981653386E+04  0.24379526330E+04  0.90359662839E+03 0.  0.
         23    2    4    4    0    0  0.10569279650E+03  0.27666610509E+03 -0.51632288337E+03  0.60262495323E+03  0.94087264965E+02 0.  0.
         23    2    4    4    0    0 -0.64552676552E+03 -0.33810391263E+03 -0.16818424552E+04  0.18353276798E+04  0.93886033710E+02 0.  0.
          3    1    3    3  502    0  0.53487218577E+03  0.63765691557E+02 -0.15420742618E+03  0.56029835697E+03  0.00000000000E+00 0. -1.
         -4    1    3    3    0  502  0.49617832525E+01 -0.23278840184E+01 -0.12179328386E+02  0.13355687065E+02  0.00000000000E+00 0.  1.
         13    1    5    5    0    0  0.11605424727E+03  0.22386374994E+03 -0.37985204418E+03  0.45592887857E+03  0.00000000000E+00 0.  1.
        -13    1    5    5    0    0 -0.10361450776E+02  0.52802355154E+02 -0.13647083919E+03  0.14669607467E+03  0.00000000000E+00 0. -1.
          3    1    6    6  503    0 -0.40257770298E+03 -0.26097498330E+03 -0.11101586961E+04  0.12093920288E+04  0.00000000000E+00 0. -1.
         -3    1    6    6    0  503 -0.24294906255E+03 -0.77128929334E+02 -0.57168375910E+03  0.62593565097E+03  0.00000000000E+00 0.  1.
<mgrwt>
<rscale>  0 0.18651188E+04</rscale>
<asrwt>0</asrwt>
<pdfrwt beam="1">  1        1 0.49773430E-01 0.18651188E+04</pdfrwt>
<pdfrwt beam="2">  1       -2 0.41355067E+00 0.18651188E+04</pdfrwt>
<totfact> 0.39562060E-01</totfact>
</mgrwt>
</event>
<event>
12    5  0.5264288E-008  0.2129559E+04  0.7818608E-02  0.8548333E-01
         -2   -1    0    0    0  501 -0.00000000000E+00  0.00000000000E+00  0.17726792055E+04  0.17726792055E+04  0.00000000000E+00 0.  1.
          1   -1    0    0  501    0  0.00000000000E+00 -0.00000000000E+00 -0.63957172608E+03  0.63957172608E+03  0.00000000000E+00 0. -1.
        -24    2    1    2    0    0 -0.37664298809E+03 -0.34061255189E+03  0.12800398565E+04  0.13795182177E+04  0.81802370717E+02 0.  0.
        254    2    1    2    0    0  0.37664298809E+03  0.34061255189E+03 -0.14693237713E+03  0.10327327138E+04  0.88717015488E+03 0.  0.
         23    2    4    4    0    0  0.17474032376E+03  0.41700215667E+03 -0.45171245777E+03  0.64540025044E+03  0.89846309595E+02 0.  0.
         23    2    4    4    0    0  0.20190266433E+03 -0.76389604772E+02  0.30478008065E+03  0.38733246336E+03  0.10264249623E+03 0.  0.
          3    1    3    3  502    0 -0.44003927282E+02 -0.69668902282E+02  0.15678651148E+03  0.17712174272E+03  0.00000000000E+00 0. -1.
         -4    1    3    3    0  502 -0.33263906081E+03 -0.27094364961E+03  0.11232533450E+04  0.12023964750E+04  0.00000000000E+00 0.  1.
         13    1    5    5    0    0  0.22552123774E+02  0.83718857510E+02 -0.13840970647E+03  0.16332388752E+03  0.00000000000E+00 0.  1.
        -13    1    5    5    0    0  0.15218819999E+03  0.33328329916E+03 -0.31330275130E+03  0.48207636292E+03  0.00000000000E+00 0. -1.
          2    1    6    6  503    0  0.63678390072E+02 -0.52433550627E+02  0.18616928071E+03  0.20362518428E+03  0.00000000000E+00 0. -1.
         -2    1    6    6    0  503  0.13822427426E+03 -0.23956054146E+02  0.11861079994E+03  0.18370727908E+03  0.00000000000E+00 0.  1.
<mgrwt>
<rscale>  0 0.21295591E+04</rscale>
<asrwt>0</asrwt>
<pdfrwt beam="1">  1        1 0.98395651E-01 0.21295591E+04</pdfrwt>
<pdfrwt beam="2">  1       -2 0.27271988E+00 0.21295591E+04</pdfrwt>
<totfact> 0.11694967E+00</totfact>
</mgrwt>
</event>
<event>
12    5  0.5264288E-008  0.2090890E+04  0.7818608E-02  0.8565267E-01
         -2   -1    0    0    0  501 -0.00000000000E+00  0.00000000000E+00  0.59568204525E+03  0.59568204525E+03  0.00000000000E+00 0.  1.
          1   -1    0    0  501    0  0.00000000000E+00 -0.00000000000E+00 -0.18347968150E+04  0.18347968150E+04  0.00000000000E+00 0. -1.
        -24    2    1    2    0    0  0.43357629703E+03  0.72550293108E+03 -0.41601632901E+03  0.94538887236E+03  0.79671987709E+02 0.  0.
        254    2    1    2    0    0 -0.43357629703E+03 -0.72550293108E+03 -0.82309844071E+03  0.14850899879E+04  0.90203011068E+03 0.  0.
         23    2    4    4    0    0  0.67954599195E+02  0.13238298168E+03 -0.32731370989E+03  0.37098091447E+03  0.91375559269E+02 0.  0.
         23    2    4    4    0    0 -0.50153089622E+03 -0.85788591276E+03 -0.49578473082E+03  0.11141090734E+04  0.89078891432E+02 0.  0.
          1    1    3    3  502    0  0.34176317862E+03  0.57936581368E+03 -0.36559467667E+03  0.76558884784E+03  0.00000000000E+00 0. -1.
         -2    1    3    3    0  502  0.91813118404E+02  0.14613711740E+03 -0.50421652344E+02  0.17980002452E+03  0.00000000000E+00 0.  1.
         13    1    5    5    0    0 -0.40899300250E+01  0.37320973364E+02 -0.16696247278E+03  0.17113167415E+03  0.00000000000E+00 0.  1.
        -13    1    5    5    0    0  0.72044529220E+02  0.95062008313E+02 -0.16035123711E+03  0.19984924032E+03  0.00000000000E+00 0. -1.
          4    1    6    6  503    0 -0.22601935853E+03 -0.41589035051E+03 -0.28299299196E+03  0.55148396856E+03  0.00000000000E+00 0. -1.
         -4    1    6    6    0  503 -0.27551153769E+03 -0.44199556225E+03 -0.21279173885E+03  0.56262510482E+03  0.00000000000E+00 0.  1.
<mgrwt>
<rscale>  0 0.20908903E+04</rscale>
<asrwt>0</asrwt>
<pdfrwt beam="1">  1        1 0.28227643E+00 0.20908903E+04</pdfrwt>
<pdfrwt beam="2">  1       -2 0.91643392E-01 0.20908903E+04</pdfrwt>
<totfact> 0.31602613E+00</totfact>
</mgrwt>
</event>
<event>
12    5  0.5264288E-008  0.2317216E+04  0.7818608E-02  0.8471164E-01
         -4   -1    0    0    0  501 -0.00000000000E+00  0.00000000000E+00  0.92290048057E+03  0.92290048057E+03  0.00000000000E+00 0.  1.
          3   -1    0    0  501    0  0.00000000000E+00 -0.00000000000E+00 -0.14545148576E+04  0.14545148576E+04  0.00000000000E+00 0. -1.
        -24    2    1    2    0    0  0.82224542774E+03  0.86612621789E+02 -0.76642590961E+03  0.11302318560E+04  0.80162858018E+02 0.  0.
        254    2    1    2    0    0 -0.82224542774E+03 -0.86612621789E+02  0.23481153262E+03  0.12471834821E+04  0.90373718107E+03 0.  0.
         23    2    4    4    0    0 -0.62768135763E+03 -0.13001052497E+03  0.55931544646E+03  0.85554606488E+03  0.90767159070E+02 0.  0.
         23    2    4    4    0    0 -0.19456407011E+03  0.43397903182E+02 -0.32450391385E+03  0.39163741720E+03  0.91315502906E+02 0.  0.
          1    1    3    3  502    0  0.11053555231E+03  0.99429380219E+01 -0.14278605266E+03  0.18084475987E+03  0.00000000000E+00 0. -1.
         -2    1    3    3    0  502  0.71170987543E+03  0.76669683767E+02 -0.62363985695E+03  0.94938709617E+03  0.00000000000E+00 0.  1.
         13    1    5    5    0    0 -0.49876333931E+03 -0.88748775293E+02  0.48401431094E+03  0.70065045989E+03  0.00000000000E+00 0. -1.
        -13    1    5    5    0    0 -0.12891801832E+03 -0.41261749679E+02  0.75301135528E+02  0.15489560499E+03  0.00000000000E+00 0.  1.
          3    1    6    6  503    0 -0.19398903126E+03  0.34855075007E+02 -0.32777663813E+03  0.38247110349E+03  0.00000000000E+00 0. -1.
         -3    1    6    6    0  503 -0.57503885401E+00  0.85428281751E+01  0.32727242777E+01  0.91663137144E+01  0.00000000000E+00 0.  1.
<mgrwt>
<rscale>  0 0.23172160E+04</rscale>
<asrwt>0</asrwt>
<pdfrwt beam="1">  1        3 0.22377151E+00 0.23172160E+04</pdfrwt>
<pdfrwt beam="2">  1       -4 0.14198469E+00 0.23172160E+04</pdfrwt>
<totfact> 0.75038025E-02</totfact>
</mgrwt>
</event>
<event>
12    5  0.5264288E-008  0.2072350E+04  0.7818608E-02  0.8573522E-01
          1   -1    0    0  501    0  0.00000000000E+00  0.00000000000E+00  0.16718996050E+04  0.16718996050E+04  0.00000000000E+00 0. -1.
         -2   -1    0    0    0  501 -0.00000000000E+00 -0.00000000000E+00 -0.64217865793E+03  0.64217865793E+03  0.00000000000E+00 0.  1.
        -24    2    1    2    0    0  0.13539651664E+03 -0.52621167912E+03  0.11323105955E+04  0.12584794757E+04  0.80077201624E+02 0.  0.
        254    2    1    2    0    0 -0.13539651664E+03  0.52621167912E+03 -0.10258964844E+03  0.10555987872E+04  0.89918475051E+03 0.  0.
         23    2    4    4    0    0 -0.11201153787E+03  0.94198343229E+02  0.36999818285E+03  0.40914039453E+03  0.95274837421E+02 0.  0.
         23    2    4    4    0    0 -0.23384978773E+02  0.43201333589E+03 -0.47258783129E+03  0.64645839264E+03  0.85946585204E+02 0.  0.
          1    1    3    3  502    0  0.79217752462E+02 -0.42468963465E+03  0.85751449445E+03  0.96019156748E+03  0.00000000000E+00 0. -1.
         -2    1    3    3    0  502  0.56178764178E+02 -0.10152204447E+03  0.27479610104E+03  0.29828790824E+03  0.00000000000E+00 0.  1.
         13    1    5    5    0    0 -0.65919898596E+02  0.41253971478E+02  0.83230949623E+02  0.11390660283E+03  0.00000000000E+00 0.  1.
        -13    1    5    5    0    0 -0.46091639272E+02  0.52944371750E+02  0.28676723322E+03  0.29523379170E+03  0.00000000000E+00 0. -1.
          4    1    6    6  503    0 -0.32889208105E+02  0.33795393124E+03 -0.31772760236E+03  0.46502192309E+03  0.00000000000E+00 0. -1.
         -4    1    6    6    0  503  0.95042293319E+01  0.94059404648E+02 -0.15486022893E+03  0.18143646955E+03  0.00000000000E+00 0.  1.
<mgrwt>
<rscale>  0 0.20723496E+04</rscale>
<asrwt>0</asrwt>
<pdfrwt beam="1">  1        1 0.25721532E+00 0.20723496E+04</pdfrwt>
<pdfrwt beam="2">  1       -2 0.98796717E-01 0.20723496E+04</pdfrwt>
<totfact> 0.34272142E+00</totfact>
</mgrwt>
</event>
<event>
12    5  0.5264288E-008  0.1386567E+04  0.7818608E-02  0.8963600E-01
          1   -1    0    0  501    0  0.00000000000E+00  0.00000000000E+00  0.11053143061E+04  0.11053143061E+04  0.00000000000E+00 0. -1.
         -2   -1    0    0    0  501 -0.00000000000E+00 -0.00000000000E+00 -0.43484640382E+03  0.43484640382E+03  0.00000000000E+00 0.  1.
        -24    2    1    2    0    0  0.35581567581E+03  0.13968913506E+03  0.31990890929E+03  0.50521239518E+03  0.82340782063E+02 0.  0.
        254    2    1    2    0    0 -0.35581567581E+03 -0.13968913506E+03  0.35055899295E+03  0.10349483147E+04  0.89560513451E+03 0.  0.
         23    2    4    4    0    0  0.14341010045E+03  0.17918554048E+03 -0.11781911265E+03  0.27414518616E+03  0.92737937014E+02 0.  0.
         23    2    4    4    0    0 -0.49922577626E+03 -0.31887467554E+03  0.46837810561E+03  0.76080312854E+03  0.92390022244E+02 0.  0.
          1    1    3    3  502    0  0.23757642658E+03  0.98466663695E+02  0.16306251284E+03  0.30451211047E+03  0.00000000000E+00 0. -1.
         -2    1    3    3    0  502  0.11823924923E+03  0.41222471370E+02  0.15684639645E+03  0.20070028471E+03  0.00000000000E+00 0.  1.
         13    1    5    5    0    0  0.34952603226E+02  0.64359810359E+02 -0.86111938372E+02  0.11304483886E+03  0.00000000000E+00 0. -1.
        -13    1    5    5    0    0  0.10845749722E+03  0.11482573012E+03 -0.31707174282E+02  0.16110034730E+03  0.00000000000E+00 0.  1.
          3    1    6    6  503    0 -0.35637918821E+03 -0.17644820414E+03  0.31872302876E+03  0.50963169407E+03  0.00000000000E+00 0. -1.
         -3    1    6    6    0  503 -0.14284658805E+03 -0.14242647140E+03  0.14965507685E+03  0.25117143448E+03  0.00000000000E+00 0.  1.
<mgrwt>
<rscale>  0 0.13865669E+04</rscale>
<asrwt>0</asrwt>
<pdfrwt beam="1">  1        1 0.17004835E+00 0.13865669E+04</pdfrwt>
<pdfrwt beam="2">  1       -2 0.66899447E-01 0.13865669E+04</pdfrwt>
<totfact> 0.22059055E+01</totfact>
</mgrwt>
</event>
<event>
12    5  0.5264288E-008  0.1439860E+04  0.7818608E-02  0.8925461E-01
         -2   -1    0    0    0  501 -0.00000000000E+00  0.00000000000E+00  0.35364647327E+03  0.35364647327E+03  0.00000000000E+00 0.  1.
          1   -1    0    0  501    0  0.00000000000E+00 -0.00000000000E+00 -0.14655849998E+04  0.14655849998E+04  0.00000000000E+00 0. -1.
        -24    2    1    2    0    0 -0.34800791892E+03 -0.10335472229E+03 -0.59157682634E+03  0.69840493214E+03  0.77553836242E+02 0.  0.
        254    2    1    2    0    0  0.34800791892E+03  0.10335472229E+03 -0.52036170020E+03  0.11208265409E+04  0.92395028307E+03 0.  0.
         23    2    4    4    0    0 -0.17017731236E+03 -0.27365285749E+03 -0.10027373810E+03  0.34915962535E+03  0.89506521366E+02 0.  0.
         23    2    4    4    0    0  0.51818523128E+03  0.37700757978E+03 -0.42008796210E+03  0.77166691559E+03  0.91352523715E+02 0.  0.
          1    1    3    3  502    0 -0.33458846101E+03 -0.91686483743E+02 -0.58356838785E+03  0.67890199060E+03  0.00000000000E+00 0. -1.
         -2    1    3    3    0  502 -0.13419457917E+02 -0.11668238549E+02 -0.80084384912E+01  0.19502941539E+02  0.00000000000E+00 0.  1.
         13    1    5    5    0    0 -0.13768696174E+03 -0.21747703270E+03 -0.39803353038E+02  0.26045780100E+03  0.00000000000E+00 0.  1.
        -13    1    5    5    0    0 -0.32490350621E+02 -0.56175824783E+02 -0.60470385064E+02  0.88701824351E+02  0.00000000000E+00 0. -1.
          4    1    6    6  503    0  0.31649478424E+03  0.26532712542E+03 -0.22909061588E+03  0.47228163443E+03  0.00000000000E+00 0.  1.
         -4    1    6    6    0  503  0.20169044704E+03  0.11168045436E+03 -0.19099734623E+03  0.29938528117E+03  0.00000000000E+00 0. -1.
<mgrwt>
<rscale>  0 0.14398597E+04</rscale>
<asrwt>0</asrwt>
<pdfrwt beam="1">  1        1 0.22547461E+00 0.14398597E+04</pdfrwt>
<pdfrwt beam="2">  1       -2 0.54407150E-01 0.14398597E+04</pdfrwt>
<totfact> 0.18745169E+01</totfact>
</mgrwt>
</event>
<event>
12    5  0.5264288E-008  0.1798527E+04  0.7818608E-02  0.8707083E-01
          1   -1    0    0  501    0  0.00000000000E+00  0.00000000000E+00  0.97956979222E+03  0.97956979222E+03  0.00000000000E+00 0. -1.
         -2   -1    0    0    0  501 -0.00000000000E+00 -0.00000000000E+00 -0.82554092185E+03  0.82554092185E+03  0.00000000000E+00 0.  1.
        -24    2    1    2    0    0  0.20785880645E+03 -0.10551684694E+03  0.68971201386E+03  0.73238464673E+03  0.79658774129E+02 0.  0.
        254    2    1    2    0    0 -0.20785880645E+03  0.10551684694E+03 -0.53568314349E+03  0.10727260673E+04  0.89969200115E+03 0.  0.
         23    2    4    4    0    0  0.34408619207E+03  0.95226610130E+02 -0.17409209125E+03  0.40656360194E+03  0.86732296994E+02 0.  0.
         23    2    4    4    0    0 -0.55194499852E+03  0.10290236808E+02 -0.36159105225E+03  0.66616246540E+03  0.90967966254E+02 0.  0.
          3    1    3    3  502    0  0.20519172216E+03 -0.79902661474E+02  0.60399194400E+03  0.64287972948E+03  0.00000000000E+00 0. -1.
         -4    1    3    3    0  502  0.26670842852E+01 -0.25614185464E+02  0.85720069860E+02  0.89504917252E+02  0.00000000000E+00 0.  1.
         13    1    5    5    0    0  0.26882254408E+03  0.84108360725E+02 -0.96115300390E+02  0.29762044203E+03  0.00000000000E+00 0. -1.
        -13    1    5    5    0    0  0.75263647992E+02  0.11118249405E+02 -0.77976790855E+02  0.10894315991E+03  0.00000000000E+00 0.  1.
          1    1    6    6  503    0 -0.12492526095E+03  0.36798212646E+02 -0.10489162199E+03  0.16722045820E+03  0.00000000000E+00 0. -1.
         -1    1    6    6    0  503 -0.42701973757E+03 -0.26507975838E+02 -0.25669943025E+03  0.49894200720E+03  0.00000000000E+00 0.  1.
<mgrwt>
<rscale>  0 0.17985271E+04</rscale>
<asrwt>0</asrwt>
<pdfrwt beam="1">  1        1 0.15070305E+00 0.17985271E+04</pdfrwt>
<pdfrwt beam="2">  1       -2 0.12700630E+00 0.17985271E+04</pdfrwt>
<totfact> 0.59828584E+00</totfact>
</mgrwt>
</event>
<event>
12    5  0.5264288E-008  0.1557567E+04  0.7818608E-02  0.8847049E-01
          1   -1    0    0  501    0  0.00000000000E+00  0.00000000000E+00  0.18799596814E+04  0.18799596814E+04  0.00000000000E+00 0. -1.
         -2   -1    0    0    0  501 -0.00000000000E+00 -0.00000000000E+00 -0.32261512126E+03  0.32261512126E+03  0.00000000000E+00 0.  1.
        -24    2    1    2    0    0  0.29261850714E+03 -0.41270544884E+03  0.37225518807E+03  0.63328670189E+03  0.80788263536E+02 0.  0.
        254    2    1    2    0    0 -0.29261850714E+03  0.41270544884E+03  0.11850893721E+04  0.15692881008E+04  0.89569913767E+03 0.  0.
         23    2    4    4    0    0 -0.88621742409E+02  0.26288427719E+03  0.12574397633E+04  0.12910489427E+04  0.93223697040E+02 0.  0.
         23    2    4    4    0    0 -0.20399676473E+03  0.14982117165E+03 -0.72350391177E+02  0.27823915812E+03  0.90118735628E+02 0.  0.
          3    1    3    3  502    0  0.68877750615E+02 -0.66378510829E+02  0.39674447297E+02  0.10355825896E+03  0.00000000000E+00 0. -1.
         -4    1    3    3    0  502  0.22374075653E+03 -0.34632693801E+03  0.33258074077E+03  0.52972844293E+03  0.00000000000E+00 0.  1.
         13    1    5    5    0    0 -0.28969715570E+01  0.47731449620E+02  0.10235962178E+03  0.11297865240E+03  0.00000000000E+00 0.  1.
        -13    1    5    5    0    0 -0.85724770852E+02  0.21515282757E+03  0.11550801415E+04  0.11780702903E+04  0.00000000000E+00 0. -1.
          2    1    6    6  503    0 -0.54066279649E+02  0.89192986531E+02 -0.47534430422E+02  0.11462143568E+03  0.00000000000E+00 0. -1.
         -2    1    6    6    0  503 -0.14993048509E+03  0.60628185117E+02 -0.24815960755E+02  0.16361772244E+03  0.00000000000E+00 0.  1.
<mgrwt>
<rscale>  0 0.15575666E+04</rscale>
<asrwt>0</asrwt>
<pdfrwt beam="1">  1        1 0.28922456E+00 0.15575666E+04</pdfrwt>
<pdfrwt beam="2">  1       -2 0.49633097E-01 0.15575666E+04</pdfrwt>
<totfact> 0.11676256E+01</totfact>
</mgrwt>
</event>
<event>
12    5  0.5264288E-008  0.1384968E+04  0.7818608E-02  0.8964772E-01
          1   -1    0    0  501    0  0.00000000000E+00  0.00000000000E+00  0.55541407582E+03  0.55541407582E+03  0.00000000000E+00 0. -1.
         -2   -1    0    0    0  501 -0.00000000000E+00 -0.00000000000E+00 -0.86338158310E+03  0.86338158310E+03  0.00000000000E+00 0.  1.
        -24    2    1    2    0    0 -0.13425196248E+03 -0.27578403299E+03  0.81826949696E+02  0.32721731831E+03  0.79341675213E+02 0.  0.
        254    2    1    2    0    0  0.13425196248E+03  0.27578403299E+03 -0.38979445697E+03  0.10915783406E+04  0.97238013797E+03 0.  0.
         23    2    4    4    0    0  0.49363901812E+03  0.38288760820E+03 -0.20748695098E+03  0.66474974620E+03  0.92514807046E+02 0.  0.
         23    2    4    4    0    0 -0.35938705564E+03 -0.10710357521E+03 -0.18230750599E+03  0.42682859441E+03  0.91194246973E+02 0.  0.
          3    1    3    3  502    0 -0.11327520629E+03 -0.27154595424E+03  0.83230276781E+02  0.30577075825E+03  0.00000000000E+00 0. -1.
         -4    1    3    3    0  502 -0.20976756188E+02 -0.42380787427E+01 -0.14033270846E+01  0.21446560062E+02  0.00000000000E+00 0.  1.
         13    1    5    5    0    0  0.35141992620E+03  0.28455052111E+03 -0.19166444877E+03  0.49112139489E+03  0.00000000000E+00 0.  1.
        -13    1    5    5    0    0  0.14221909192E+03  0.98337087088E+02 -0.15822502218E+02  0.17362835132E+03  0.00000000000E+00 0. -1.
          3    1    6    6  503    0 -0.77434689386E+01  0.11304517572E+02 -0.13338790888E+02  0.19122676881E+02  0.00000000000E+00 0. -1.
         -3    1    6    6    0  503 -0.35164358670E+03 -0.11840809278E+03 -0.16896871510E+03  0.40770591753E+03  0.00000000000E+00 0.  1.
<mgrwt>
<rscale>  0 0.13849683E+04</rscale>
<asrwt>0</asrwt>
<pdfrwt beam="1">  1        1 0.85448320E-01 0.13849683E+04</pdfrwt>
<pdfrwt beam="2">  1       -2 0.13282794E+00 0.13849683E+04</pdfrwt>
<totfact> 0.13427230E+01</totfact>
</mgrwt>
</event>
<event>
12    5  0.5264288E-008  0.1533425E+04  0.7818608E-02  0.8862525E-01
          1   -1    0    0  501    0  0.00000000000E+00  0.00000000000E+00  0.12485528403E+04  0.12485528403E+04  0.00000000000E+00 0. -1.
         -2   -1    0    0    0  501 -0.00000000000E+00 -0.00000000000E+00 -0.47082341352E+03  0.47082341352E+03  0.00000000000E+00 0.  1.
        -24    2    1    2    0    0 -0.13299830673E+03  0.31736931639E+03  0.64034254191E+03  0.73138864282E+03  0.80491883359E+02 0.  0.
        254    2    1    2    0    0  0.13299830673E+03 -0.31736931639E+03  0.13738688485E+03  0.98798761099E+03  0.91587801085E+03 0.  0.
         23    2    4    4    0    0  0.35682504408E+01  0.21100677394E+03  0.33052454970E+03  0.40320902267E+03  0.93778712657E+02 0.  0.
         23    2    4    4    0    0  0.12943005629E+03 -0.52837609034E+03 -0.19313766484E+03  0.58477858832E+03  0.93436649481E+02 0.  0.
          1    1    3    3  502    0 -0.10499797080E+03  0.18295582748E+03  0.44679094369E+03  0.49408456366E+03  0.00000000000E+00 0. -1.
         -2    1    3    3    0  502 -0.28000335932E+02  0.13441348892E+03  0.19355159822E+03  0.23730407917E+03  0.00000000000E+00 0.  1.
         13    1    5    5    0    0  0.28822667849E+02  0.26725350251E+02  0.96995258815E+02  0.10465691932E+03  0.00000000000E+00 0. -1.
        -13    1    5    5    0    0 -0.25254417408E+02  0.18428142369E+03  0.23352929088E+03  0.29855210335E+03  0.00000000000E+00 0.  1.
          3    1    6    6  503    0  0.29188329305E+02 -0.25488654699E+03 -0.12616751023E+03  0.28589744847E+03  0.00000000000E+00 0. -1.
         -3    1    6    6    0  503  0.10024172699E+03 -0.27348954335E+03 -0.66970154612E+02  0.29888113985E+03  0.00000000000E+00 0.  1.
<mgrwt>
<rscale>  0 0.15334248E+04</rscale>
<asrwt>0</asrwt>
<pdfrwt beam="1">  1        1 0.19208505E+00 0.15334248E+04</pdfrwt>
<pdfrwt beam="2">  1       -2 0.72434372E-01 0.15334248E+04</pdfrwt>
<totfact> 0.14375254E+01</totfact>
</mgrwt>
</event>
<event>
12    5  0.5264288E-008  0.1182461E+04  0.7818608E-02  0.9128349E-01
          1   -1    0    0  501    0  0.00000000000E+00  0.00000000000E+00  0.45953420660E+03  0.45953420660E+03  0.00000000000E+00 0. -1.
         -2   -1    0    0    0  501 -0.00000000000E+00 -0.00000000000E+00 -0.76066877517E+03  0.76066877517E+03  0.00000000000E+00 0.  1.
        -24    2    1    2    0    0 -0.33453860351E+03  0.57660321734E+02 -0.36801484272E+02  0.35063927619E+03  0.79704220853E+02 0.  0.
        254    2    1    2    0    0  0.33453860351E+03 -0.57660321734E+02 -0.26433308430E+03  0.86956370558E+03  0.75566412423E+03 0.  0.
         23    2    4    4    0    0  0.36875265227E+03  0.13263905119E+03 -0.43765984764E+03  0.59459986114E+03  0.91821654188E+02 0.  0.
         23    2    4    4    0    0 -0.34214048754E+02 -0.19029937293E+03  0.17332676333E+03  0.27496384444E+03  0.90435039611E+02 0.  0.
          1    1    3    3  502    0 -0.32337080701E+03  0.61627534358E+02 -0.49926359852E+02  0.33295536221E+03  0.00000000000E+00 0. -1.
         -2    1    3    3    0  502 -0.11167796504E+02 -0.39672126231E+01  0.13124875580E+02  0.17683913983E+02  0.00000000000E+00 0.  1.
         13    1    5    5    0    0  0.18890541693E+03  0.11615760033E+03 -0.24883531765E+03  0.33331195594E+03  0.00000000000E+00 0. -1.
        -13    1    5    5    0    0  0.17984723534E+03  0.16481450866E+02 -0.18882452999E+03  0.26128790520E+03  0.00000000000E+00 0.  1.
          2    1    6    6  503    0  0.28231970148E+02 -0.75698354072E+02  0.85622938976E+02  0.11772243893E+03  0.00000000000E+00 0. -1.
         -2    1    6    6    0  503 -0.62446018901E+02 -0.11460101886E+03  0.87703824358E+02  0.15724140551E+03  0.00000000000E+00 0.  1.
<mgrwt>
<rscale>  0 0.11824607E+04</rscale>
<asrwt>0</asrwt>
<pdfrwt beam="1">  1        1 0.70697570E-01 0.11824607E+04</pdfrwt>
<pdfrwt beam="2">  1       -2 0.11702597E+00 0.11824607E+04</pdfrwt>
<totfact> 0.24348500E+01</totfact>
</mgrwt>
</event>
<event>
12    5  0.5264288E-008  0.1394215E+04  0.7818608E-02  0.8958017E-01
          1   -1    0    0  501    0  0.00000000000E+00  0.00000000000E+00  0.45022233654E+03  0.45022233654E+03  0.00000000000E+00 0. -1.
         -2   -1    0    0    0  501 -0.00000000000E+00 -0.00000000000E+00 -0.10793749213E+04  0.10793749213E+04  0.00000000000E+00 0.  1.
        -24    2    1    2    0    0 -0.17826350588E+03 -0.21995679906E+03 -0.49865747970E+03  0.57908584885E+03  0.80760555328E+02 0.  0.
        254    2    1    2    0    0  0.17826350588E+03  0.21995679906E+03 -0.13049510504E+03  0.95051140897E+03  0.89793323536E+03 0.  0.
         23    2    4    4    0    0 -0.43842571032E+02 -0.28708223844E+03 -0.22927941044E+03  0.38094424253E+03  0.90615038492E+02 0.  0.
         23    2    4    4    0    0  0.22210607691E+03  0.50703903750E+03  0.98784305404E+02  0.56956716645E+03  0.90712309797E+02 0.  0.
          1    1    3    3  502    0 -0.68691091706E+02 -0.14777296469E+03 -0.26441439851E+03  0.31059666661E+03  0.00000000000E+00 0. -1.
         -2    1    3    3    0  502 -0.10957241418E+03 -0.72183834376E+02 -0.23424308119E+03  0.26848918224E+03  0.00000000000E+00 0.  1.
         13    1    5    5    0    0 -0.12370091553E+02 -0.58327897567E+02 -0.63162041476E+01  0.59958796139E+02  0.00000000000E+00 0. -1.
        -13    1    5    5    0    0 -0.31472479479E+02 -0.22875434087E+03 -0.22296320630E+03  0.32098544639E+03  0.00000000000E+00 0.  1.
          1    1    6    6  503    0  0.74584422686E+02  0.12457245949E+03  0.62368351319E+02  0.15802197638E+03  0.00000000000E+00 0. -1.
         -1    1    6    6    0  503  0.14752165423E+03  0.38246657800E+03  0.36415954085E+02  0.41154519007E+03  0.00000000000E+00 0.  1.
<mgrwt>
<rscale>  0 0.13942148E+04</rscale>
<asrwt>0</asrwt>
<pdfrwt beam="1">  1        1 0.69264975E-01 0.13942148E+04</pdfrwt>
<pdfrwt beam="2">  1       -2 0.16605768E+00 0.13942148E+04</pdfrwt>
<totfact> 0.99156236E+00</totfact>
</mgrwt>
</event>
<event>
12    5  0.5264288E-008  0.2099559E+04  0.7818608E-02  0.8561438E-01
         -2   -1    0    0    0  501 -0.00000000000E+00  0.00000000000E+00  0.74592028083E+03  0.74592028083E+03  0.00000000000E+00 0.  1.
          1   -1    0    0  501    0  0.00000000000E+00 -0.00000000000E+00 -0.14774196361E+04  0.14774196361E+04  0.00000000000E+00 0. -1.
        -24    2    1    2    0    0  0.58453188393E+03  0.47151136278E+03  0.13642708326E+03  0.76725968733E+03  0.77939657403E+02 0.  0.
        254    2    1    2    0    0 -0.58453188393E+03 -0.47151136278E+03 -0.86792643851E+03  0.14560802296E+04  0.89603172029E+03 0.  0.
         23    2    4    4    0    0 -0.27344027188E+03  0.24645360782E+03 -0.32599450904E+03  0.49990510593E+03  0.90131747549E+02 0.  0.
         23    2    4    4    0    0 -0.31109161205E+03 -0.71796497059E+03 -0.54193192947E+03  0.95617512365E+03  0.91263140612E+02 0.  0.
          3    1    3    3  502    0  0.33726207776E+03  0.31887877599E+03  0.73268496908E+02  0.46989111027E+03  0.00000000000E+00 0. -1.
         -4    1    3    3    0  502  0.24726980617E+03  0.15263258679E+03  0.63158586355E+02  0.29736857706E+03  0.00000000000E+00 0.  1.
         13    1    5    5    0    0 -0.54344771373E+02  0.97195909596E+02 -0.12365143236E+03  0.16640335256E+03  0.00000000000E+00 0. -1.
        -13    1    5    5    0    0 -0.21909550050E+03  0.14925769822E+03 -0.20234307668E+03  0.33350175337E+03  0.00000000000E+00 0.  1.
          4    1    6    6  503    0 -0.11730898958E+03 -0.21830732383E+03 -0.21727768324E+03  0.32958925696E+03  0.00000000000E+00 0. -1.
         -4    1    6    6    0  503 -0.19378262247E+03 -0.49965764676E+03 -0.32465424623E+03  0.62658586669E+03  0.00000000000E+00 0.  1.
<mgrwt>
<rscale>  0 0.20995593E+04</rscale>
<asrwt>0</asrwt>
<pdfrwt beam="1">  1        1 0.22729533E+00 0.20995593E+04</pdfrwt>
<pdfrwt beam="2">  1       -2 0.11475697E+00 0.20995593E+04</pdfrwt>
<totfact> 0.32453518E+00</totfact>
</mgrwt>
</event>
<event>
12    5  0.5264288E-008  0.1996660E+04  0.7818608E-02  0.8608184E-01
          1   -1    0    0  501    0  0.00000000000E+00  0.00000000000E+00  0.18926861086E+04  0.18926861086E+04  0.00000000000E+00 0. -1.
         -2   -1    0    0    0  501 -0.00000000000E+00 -0.00000000000E+00 -0.52658651938E+03  0.52658651938E+03  0.00000000000E+00 0.  1.
        -24    2    1    2    0    0 -0.19702926135E+03 -0.45716615349E+03 -0.20081258800E+03  0.54278386003E+03  0.80418912469E+02 0.  0.
        254    2    1    2    0    0  0.19702926135E+03  0.45716615349E+03  0.15669121772E+04  0.18764887680E+04  0.90453021143E+03 0.  0.
         23    2    4    4    0    0 -0.15057642947E+02 -0.15086871128E+03  0.99349463044E+03  0.10092081618E+04  0.92094692854E+02 0.  0.
         23    2    4    4    0    0  0.21208690430E+03  0.60803486478E+03  0.57341754680E+03  0.86728060618E+03  0.93170355323E+02 0.  0.
          1    1    3    3  502    0 -0.13244411675E+03 -0.30608797430E+03 -0.92899032278E+02  0.34621022843E+03  0.00000000000E+00 0. -1.
         -2    1    3    3    0  502 -0.64585144596E+02 -0.15107817919E+03 -0.10791355572E+03  0.19657363160E+03  0.00000000000E+00 0.  1.
         13    1    5    5    0    0 -0.24319368132E+02 -0.17536612679E+02  0.38708694688E+03  0.38824640229E+03  0.00000000000E+00 0. -1.
        -13    1    5    5    0    0  0.92617251856E+01 -0.13333209861E+03  0.60640768356E+03  0.62096175950E+03  0.00000000000E+00 0.  1.
          4    1    6    6  503    0 -0.45694206853E+01  0.10084482357E+02  0.17485884563E+00  0.11072802962E+02  0.00000000000E+00 0. -1.
         -4    1    6    6    0  503  0.21665632498E+03  0.59795038242E+03  0.57324268795E+03  0.85620780321E+03  0.00000000000E+00 0.  1.
<mgrwt>
<rscale>  0 0.19966602E+04</rscale>
<asrwt>0</asrwt>
<pdfrwt beam="1">  1        1 0.29118248E+00 0.19966602E+04</pdfrwt>
<pdfrwt beam="2">  1       -2 0.81013311E-01 0.19966602E+04</pdfrwt>
<totfact> 0.38582507E+00</totfact>
</mgrwt>
</event>
<event>
12    5  0.5264288E-008  0.2704531E+04  0.7818608E-02  0.8333536E-01
         -2   -1    0    0    0  501 -0.00000000000E+00  0.00000000000E+00  0.10730668872E+04  0.10730668872E+04  0.00000000000E+00 0.  1.
          1   -1    0    0  501    0  0.00000000000E+00 -0.00000000000E+00 -0.17041080824E+04  0.17041080824E+04  0.00000000000E+00 0. -1.
        -24    2    1    2    0    0 -0.68350132842E+03 -0.12508890228E+03  0.72570099213E+03  0.10071468481E+04  0.69868048308E+02 0.  0.
        254    2    1    2    0    0  0.68350132842E+03  0.12508890228E+03 -0.13567421873E+04  0.17700281216E+04  0.89968266011E+03 0.  0.
         23    2    4    4    0    0  0.77701603482E+03  0.35341561218E+03 -0.90440872546E+03  0.12467547849E+04  0.88237394254E+02 0.  0.
         23    2    4    4    0    0 -0.93514706393E+02 -0.22832670991E+03 -0.45233346183E+03  0.52327333663E+03  0.91276159950E+02 0.  0.
          3    1    3    3  502    0 -0.33202067926E+03 -0.95936576793E+02  0.36611996109E+03  0.50347332018E+03  0.00000000000E+00 0. -1.
         -4    1    3    3    0  502 -0.35148064916E+03 -0.29152325483E+02  0.35958103105E+03  0.50367352790E+03  0.00000000000E+00 0.  1.
         13    1    5    5    0    0  0.70419058274E+03  0.29115807069E+03 -0.79199804460E+03  0.10990533661E+04  0.00000000000E+00 0. -1.
        -13    1    5    5    0    0  0.72825452081E+02  0.62257541494E+02 -0.11241068086E+03  0.14770141880E+03  0.00000000000E+00 0.  1.
          1    1    6    6  503    0 -0.94077559285E+02 -0.21914329621E+03 -0.36851007304E+03  0.43894651766E+03  0.00000000000E+00 0. -1.
         -1    1    6    6    0  503  0.56285289275E+00 -0.91834136987E+01 -0.83823388786E+02  0.84326818973E+02  0.00000000000E+00 0.  1.
<mgrwt>
<rscale>  0 0.27045310E+04</rscale>
<asrwt>0</asrwt>
<pdfrwt beam="1">  1        1 0.26217047E+00 0.27045310E+04</pdfrwt>
<pdfrwt beam="2">  1       -2 0.16508721E+00 0.27045310E+04</pdfrwt>
<totfact> 0.83947485E-01</totfact>
</mgrwt>
</event>
<event>
12    5  0.5264288E-008  0.1754809E+04  0.7818608E-02  0.8730708E-01
          1   -1    0    0  501    0  0.00000000000E+00  0.00000000000E+00  0.33444468793E+04  0.33444468793E+04  0.00000000000E+00 0. -1.
         -2   -1    0    0    0  501 -0.00000000000E+00 -0.00000000000E+00 -0.23018414148E+03  0.23018414148E+03  0.00000000000E+00 0.  1.
        -24    2    1    2    0    0  0.26059783023E+03  0.45716551147E+03  0.40521219014E+03  0.66891185963E+03  0.79590344385E+02 0.  0.
        254    2    1    2    0    0 -0.26059783023E+03 -0.45716551147E+03  0.27090505477E+04  0.29057191611E+04  0.90958091428E+03 0.  0.
         23    2    4    4    0    0  0.20080098163E+02 -0.60703006985E+03  0.10747119609E+04  0.12380986735E+04  0.94835701399E+02 0.  0.
         23    2    4    4    0    0 -0.28067792840E+03  0.14986455839E+03  0.16343385868E+04  0.16676204877E+04  0.93037569912E+02 0.  0.
          3    1    3    3  502    0 -0.54326903633E+01  0.13854478056E+02  0.77261085246E+01  0.16767630713E+02  0.00000000000E+00 0. -1.
         -4    1    3    3    0  502  0.26603052060E+03  0.44331103341E+03  0.39748608161E+03  0.65214422891E+03  0.00000000000E+00 0.  1.
         13    1    5    5    0    0  0.95403455457E+01 -0.42549047369E+03  0.66071204439E+03  0.78592211255E+03  0.00000000000E+00 0. -1.
        -13    1    5    5    0    0  0.10539752618E+02 -0.18153959616E+03  0.41399991651E+03  0.45217656091E+03  0.00000000000E+00 0.  1.
          1    1    6    6  503    0 -0.16576823659E+03  0.76914817879E+02  0.11536219232E+04  0.11680062240E+04  0.00000000000E+00 0. -1.
         -1    1    6    6    0  503 -0.11490969180E+03  0.72949740509E+02  0.48071666353E+03  0.49961426372E+03  0.00000000000E+00 0.  1.
<mgrwt>
<rscale>  0 0.17548090E+04</rscale>
<asrwt>0</asrwt>
<pdfrwt beam="1">  1        1 0.51453026E+00 0.17548090E+04</pdfrwt>
<pdfrwt beam="2">  1       -2 0.35412947E-01 0.17548090E+04</pdfrwt>
<totfact> 0.20701449E+00</totfact>
</mgrwt>
</event>
<event>
12    5  0.5264288E-008  0.1391489E+04  0.7818608E-02  0.8960002E-01
         -2   -1    0    0    0  501 -0.00000000000E+00  0.00000000000E+00  0.63812948809E+03  0.63812948809E+03  0.00000000000E+00 0.  1.
          1   -1    0    0  501    0  0.00000000000E+00 -0.00000000000E+00 -0.75856183377E+03  0.75856183377E+03  0.00000000000E+00 0. -1.
        -24    2    1    2    0    0 -0.29403379998E+03  0.21479620058E+02 -0.30267960078E+03  0.42993817813E+03  0.79464751146E+02 0.  0.
        254    2    1    2    0    0  0.29403379998E+03 -0.21479620058E+02  0.18224725510E+03  0.96675314374E+03  0.90248563940E+03 0.  0.
         23    2    4    4    0    0 -0.11686848729E+03 -0.14263907231E+03  0.42076627638E+03  0.46838837182E+03  0.91319544721E+02 0.  0.
         23    2    4    4    0    0  0.41090228727E+03  0.12115945225E+03 -0.23851902128E+03  0.49836477192E+03  0.89195402476E+02 0.  0.
          3    1    3    3  502    0 -0.16883998062E+03  0.31368419393E+01 -0.22551844627E+03  0.28173631012E+03  0.00000000000E+00 0. -1.
         -4    1    3    3    0  502 -0.12519381936E+03  0.18342778119E+02 -0.77161154512E+02  0.14820186801E+03  0.00000000000E+00 0.  1.
         13    1    5    5    0    0 -0.43458913503E+02 -0.70863139862E+02  0.29255448440E+03  0.30413547655E+03  0.00000000000E+00 0. -1.
        -13    1    5    5    0    0 -0.73409573789E+02 -0.71775932445E+02  0.12821179198E+03  0.16425289527E+03  0.00000000000E+00 0.  1.
          3    1    6    6  503    0  0.30740968860E+03  0.53224816208E+02 -0.19071539827E+03  0.36565825691E+03  0.00000000000E+00 0. -1.
         -3    1    6    6    0  503  0.10349259867E+03  0.67934636041E+02 -0.47803623002E+02  0.13270651501E+03  0.00000000000E+00 0.  1.
<mgrwt>
<rscale>  0 0.13914894E+04</rscale>
<asrwt>0</asrwt>
<pdfrwt beam="1">  1        1 0.11670182E+00 0.13914894E+04</pdfrwt>
<pdfrwt beam="2">  1       -2 0.98173767E-01 0.13914894E+04</pdfrwt>
<totfact> 0.17742080E+01</totfact>
</mgrwt>
</event>
<event>
12    5  0.5264288E-008  0.2901645E+04  0.7818608E-02  0.8272388E-01
          1   -1    0    0  501    0  0.00000000000E+00  0.00000000000E+00  0.79851838020E+03  0.79851838020E+03  0.00000000000E+00 0. -1.
         -2   -1    0    0    0  501 -0.00000000000E+00 -0.00000000000E+00 -0.26359884433E+04  0.26359884433E+04  0.00000000000E+00 0.  1.
        -24    2    1    2    0    0 -0.11811049694E+04 -0.11966184742E+03 -0.14882916259E+04  0.19053293096E+04  0.77070796286E+02 0.  0.
        254    2    1    2    0    0  0.11811049694E+04  0.11966184742E+03 -0.34917843713E+03  0.15291775139E+04  0.89840435299E+03 0.  0.
         23    2    4    4    0    0  0.36729162873E+03 -0.29572456202E+03 -0.37706241380E+03  0.61055869279E+03  0.90827838904E+02 0.  0.
         23    2    4    4    0    0  0.81381334068E+03  0.41538640944E+03  0.27883976664E+02  0.91861882109E+03  0.90801980622E+02 0.  0.
          1    1    3    3  502    0 -0.15590268589E+03  0.94803212454E+01 -0.18516299875E+03  0.24224132609E+03  0.00000000000E+00 0. -1.
         -2    1    3    3    0  502 -0.10252022835E+04 -0.12914216867E+03 -0.13031286272E+04  0.16630879835E+04  0.00000000000E+00 0.  1.
         13    1    5    5    0    0  0.32300082361E+03 -0.29249074497E+03 -0.34478444454E+03  0.55565878121E+03  0.00000000000E+00 0. -1.
        -13    1    5    5    0    0  0.44290805122E+02 -0.32338170494E+01 -0.32277969261E+02  0.54899911572E+02  0.00000000000E+00 0.  1.
          4    1    6    6  503    0  0.62296421203E+03  0.28420168814E+03 -0.47285740823E+01  0.68474620731E+03  0.00000000000E+00 0.  1.
         -4    1    6    6    0  503  0.19084912865E+03  0.13118472130E+03  0.32612550747E+02  0.23387261378E+03  0.00000000000E+00 0. -1.
<mgrwt>
<rscale>  0 0.29016445E+04</rscale>
<asrwt>0</asrwt>
<pdfrwt beam="1">  1        1 0.12284898E+00 0.29016445E+04</pdfrwt>
<pdfrwt beam="2">  1       -2 0.40553668E+00 0.29016445E+04</pdfrwt>
<totfact> 0.11389966E-01</totfact>
</mgrwt>
</event>
<event>
12    5  0.5264288E-008  0.2596328E+04  0.7818608E-02  0.8369450E-01
         -2   -1    0    0    0  501 -0.00000000000E+00  0.00000000000E+00  0.15360305309E+04  0.15360305309E+04  0.00000000000E+00 0.  1.
          1   -1    0    0  501    0  0.00000000000E+00 -0.00000000000E+00 -0.10971327540E+04  0.10971327540E+04  0.00000000000E+00 0. -1.
        -24    2    1    2    0    0  0.62289238444E+03 -0.48702579765E+03 -0.66620711917E+03  0.10370220248E+04  0.79960641537E+02 0.  0.
        254    2    1    2    0    0 -0.62289238444E+03  0.48702579765E+03  0.11051048961E+04  0.15961412601E+04  0.83738942000E+03 0.  0.
         23    2    4    4    0    0 -0.62161518386E+03  0.14519828287E+03  0.10587178340E+04  0.12393711219E+04  0.87574811513E+02 0.  0.
         23    2    4    4    0    0 -0.12772005810E+01  0.34182751478E+03  0.46387062120E+02  0.35677013825E+03  0.91024671976E+02 0.  0.
          3    1    3    3  502    0  0.58011146530E+03 -0.46912632189E+03 -0.60689873573E+03  0.96173535523E+03  0.00000000000E+00 0. -1.
         -4    1    3    3    0  502  0.42780919144E+02 -0.17899475763E+02 -0.59308383439E+02  0.75286669614E+02  0.00000000000E+00 0.  1.
         13    1    5    5    0    0 -0.16093850959E+02  0.10328776980E+01  0.77147157351E+01  0.17877240109E+02  0.00000000000E+00 0. -1.
        -13    1    5    5    0    0 -0.60552133290E+03  0.14416540517E+03  0.10510031182E+04  0.12214938818E+04  0.00000000000E+00 0.  1.
          3    1    6    6  503    0 -0.44238673971E+02  0.22398811690E+03  0.30101661423E+02  0.23029078750E+03  0.00000000000E+00 0. -1.
         -3    1    6    6    0  503  0.42961473390E+02  0.11783939788E+03  0.16285400697E+02  0.12647935074E+03  0.00000000000E+00 0.  1.
<mgrwt>
<rscale>  0 0.25963277E+04</rscale>
<asrwt>0</asrwt>
<pdfrwt beam="1">  1        1 0.16878965E+00 0.25963277E+04</pdfrwt>
<pdfrwt beam="2">  1       -2 0.23631239E+00 0.25963277E+04</pdfrwt>
<totfact> 0.76899704E-01</totfact>
</mgrwt>
</event>
<event>
12    5  0.5264288E-008  0.2091409E+04  0.7818608E-02  0.8565037E-01
          1   -1    0    0  501    0  0.00000000000E+00  0.00000000000E+00  0.30026200794E+04  0.30026200794E+04  0.00000000000E+00 0. -1.
         -2   -1    0    0    0  501 -0.00000000000E+00 -0.00000000000E+00 -0.36418111782E+03  0.36418111782E+03  0.00000000000E+00 0.  1.
        -24    2    1    2    0    0 -0.53519793875E+03 -0.15797764661E+03  0.21168743212E+04  0.21906738176E+04  0.80629479021E+02 0.  0.
        254    2    1    2    0    0  0.53519793875E+03  0.15797764661E+03  0.52156464040E+03  0.11761273796E+04  0.89434454689E+03 0.  0.
         23    2    4    4    0    0 -0.51449159139E+02 -0.20092013105E+03  0.41679913165E+03  0.47436153516E+03  0.91002389288E+02 0.  0.
         23    2    4    4    0    0  0.58664709789E+03  0.35889777766E+03  0.10476550875E+03  0.70176584448E+03  0.92396192512E+02 0.  0.
          1    1    3    3  502    0 -0.25624484637E+03 -0.71993948849E+02  0.85472817620E+03  0.89521215650E+03  0.00000000000E+00 0. -1.
         -2    1    3    3    0  502 -0.27895309237E+03 -0.85983697765E+02  0.12621461450E+04  0.12954616611E+04  0.00000000000E+00 0.  1.
         13    1    5    5    0    0 -0.28047310875E+00 -0.15909861482E+03  0.31667216941E+03  0.35439202979E+03  0.00000000000E+00 0. -1.
        -13    1    5    5    0    0 -0.51168686030E+02 -0.41821516226E+02  0.10012696224E+03  0.11996950537E+03  0.00000000000E+00 0.  1.
          2    1    6    6  503    0  0.39778215573E+03  0.21531544909E+03  0.31274925171E+02  0.45339773597E+03  0.00000000000E+00 0. -1.
         -2    1    6    6    0  503  0.18886494215E+03  0.14358232857E+03  0.73490583576E+02  0.24836810851E+03  0.00000000000E+00 0.  1.
<mgrwt>
<rscale>  0 0.20914087E+04</rscale>
<asrwt>0</asrwt>
<pdfrwt beam="1">  1        1 0.46194153E+00 0.20914087E+04</pdfrwt>
<pdfrwt beam="2">  1       -2 0.56027866E-01 0.20914087E+04</pdfrwt>
<totfact> 0.14416593E+00</totfact>
</mgrwt>
</event>
<event>
12    5  0.5264288E-008  0.2430519E+04  0.7818608E-02  0.8428165E-01
         -2   -1    0    0    0  501 -0.00000000000E+00  0.00000000000E+00  0.40860482243E+03  0.40860482243E+03  0.00000000000E+00 0.  1.
          1   -1    0    0  501    0  0.00000000000E+00 -0.00000000000E+00 -0.36143863479E+04  0.36143863479E+04  0.00000000000E+00 0. -1.
        -24    2    1    2    0    0  0.27963115005E+03 -0.35546743996E+02  0.28296372861E+03  0.40744615913E+03  0.80540361230E+02 0.  0.
        254    2    1    2    0    0 -0.27963115005E+03  0.35546743996E+02 -0.34887452541E+04  0.36155450112E+04  0.90629196677E+03 0.  0.
         23    2    4    4    0    0 -0.45722645095E+03 -0.15060651444E+03 -0.31067151266E+04  0.31451139520E+04  0.91238937554E+02 0.  0.
         23    2    4    4    0    0  0.17759530089E+03  0.18615325844E+03 -0.38203012754E+03  0.47043105923E+03  0.95735242278E+02 0.  0.
          3    1    3    3  502    0  0.72996922093E+02 -0.35847127510E+01  0.29362571153E+02  0.78762690312E+02  0.00000000000E+00 0. -1.
         -4    1    3    3    0  502  0.20663422796E+03 -0.31962031245E+02  0.25360115746E+03  0.32868346881E+03  0.00000000000E+00 0.  1.
         13    1    5    5    0    0 -0.30232345027E+01 -0.13876870734E+02 -0.13994609636E+03  0.14066491167E+03  0.00000000000E+00 0. -1.
        -13    1    5    5    0    0 -0.45420321644E+03 -0.13672964371E+03 -0.29667690302E+04  0.30044490403E+04  0.00000000000E+00 0.  1.
          1    1    6    6  503    0  0.10265821286E+02  0.69980478276E+02 -0.93502650573E+02  0.11724077828E+03  0.00000000000E+00 0. -1.
         -1    1    6    6    0  503  0.16732947961E+03  0.11617278016E+03 -0.28852747696E+03  0.35319028095E+03  0.00000000000E+00 0.  1.
<mgrwt>
<rscale>  0 0.24305190E+04</rscale>
<asrwt>0</asrwt>
<pdfrwt beam="1">  1        1 0.55605943E+00 0.24305190E+04</pdfrwt>
<pdfrwt beam="2">  1       -2 0.62862282E-01 0.24305190E+04</pdfrwt>
<totfact> 0.37392777E-01</totfact>
</mgrwt>
</event>
<event>
12    5  0.5264288E-008  0.2338260E+04  0.7818608E-02  0.8462987E-01
         -2   -1    0    0    0  501 -0.00000000000E+00  0.00000000000E+00  0.12679662709E+04  0.12679662709E+04  0.00000000000E+00 0.  1.
          1   -1    0    0  501    0  0.00000000000E+00 -0.00000000000E+00 -0.10779974421E+04  0.10779974421E+04  0.00000000000E+00 0. -1.
        -24    2    1    2    0    0  0.20897962376E+03 -0.64187261225E+03  0.81322355728E+03  0.10595180531E+04  0.74652643473E+02 0.  0.
        254    2    1    2    0    0 -0.20897962376E+03  0.64187261225E+03 -0.62325472848E+03  0.12864456599E+04  0.90045713160E+03 0.  0.
         23    2    4    4    0    0 -0.10331154070E+03  0.85151965490E+03 -0.40792120846E+03  0.95456980255E+03  0.95104145601E+02 0.  0.
         23    2    4    4    0    0 -0.10566808306E+03 -0.20964704266E+03 -0.21533352002E+03  0.33187585736E+03  0.93034582749E+02 0.  0.
          1    1    3    3  502    0  0.51552993100E+02 -0.14407871556E+03  0.13856742247E+03  0.20643962301E+03  0.00000000000E+00 0. -1.
         -2    1    3    3    0  502  0.15742663066E+03 -0.49779389668E+03  0.67465613481E+03  0.85307843007E+03  0.00000000000E+00 0.  1.
         13    1    5    5    0    0 -0.68788775313E+02  0.30862808216E+03 -0.11304684196E+03  0.33580169324E+03  0.00000000000E+00 0. -1.
        -13    1    5    5    0    0 -0.34522765390E+02  0.54289157275E+03 -0.29487436650E+03  0.61876810932E+03  0.00000000000E+00 0.  1.
          2    1    6    6  503    0 -0.19926835090E+02 -0.12031778974E+03 -0.14502161970E+03  0.18948540700E+03  0.00000000000E+00 0. -1.
         -2    1    6    6    0  503 -0.85741247965E+02 -0.89329252916E+02 -0.70311900313E+02  0.14239045036E+03  0.00000000000E+00 0.  1.
<mgrwt>
<rscale>  0 0.23382595E+04</rscale>
<asrwt>0</asrwt>
<pdfrwt beam="1">  1        1 0.16584576E+00 0.23382595E+04</pdfrwt>
<pdfrwt beam="2">  1       -2 0.19507173E+00 0.23382595E+04</pdfrwt>
<totfact> 0.14922312E+00</totfact>
</mgrwt>
</event>
<event>
12    5  0.5264288E-008  0.1044796E+04  0.7818608E-02  0.9260733E-01
         -2   -1    0    0    0  501 -0.00000000000E+00  0.00000000000E+00  0.46952983494E+03  0.46952983494E+03  0.00000000000E+00 0.  1.
          1   -1    0    0  501    0  0.00000000000E+00 -0.00000000000E+00 -0.58121889694E+03  0.58121889694E+03  0.00000000000E+00 0. -1.
        -24    2    1    2    0    0 -0.34050827760E+02  0.76490546093E+02 -0.87549667083E+02  0.14452572768E+03  0.78819282171E+02 0.  0.
        254    2    1    2    0    0  0.34050827760E+02 -0.76490546093E+02 -0.24139394926E+02  0.90622300420E+03  0.90202392454E+03 0.  0.
         23    2    4    4    0    0 -0.17502889236E+03  0.31414479996E+03  0.17938622731E+03  0.41153975060E+03  0.88676261064E+02 0.  0.
         23    2    4    4    0    0  0.20907972012E+03 -0.39063534605E+03 -0.20352562223E+03  0.49468325360E+03  0.83537653420E+02 0.  0.
          3    1    3    3  502    0 -0.27205857166E+02  0.21996765882E+02 -0.82209918482E+02  0.89344765208E+02  0.00000000000E+00 0. -1.
         -4    1    3    3    0  502 -0.68449705946E+01  0.54493780210E+02 -0.53397486018E+01  0.55180962470E+02  0.00000000000E+00 0.  1.
         13    1    5    5    0    0 -0.44795257464E+02  0.17016703948E+03  0.77287558375E+02  0.19218949788E+03  0.00000000000E+00 0. -1.
        -13    1    5    5    0    0 -0.13023363490E+03  0.14397776048E+03  0.10209866893E+03  0.21935025272E+03  0.00000000000E+00 0.  1.
          1    1    6    6  503    0  0.12530683384E+02 -0.91118184166E+02 -0.52476265200E+02  0.10589287002E+03  0.00000000000E+00 0. -1.
         -1    1    6    6    0  503  0.19654903673E+03 -0.29951716188E+03 -0.15104935703E+03  0.38879038358E+03  0.00000000000E+00 0.  1.
<mgrwt>
<rscale>  0 0.10447959E+04</rscale>
<asrwt>0</asrwt>
<pdfrwt beam="1">  1        1 0.89418292E-01 0.10447959E+04</pdfrwt>
<pdfrwt beam="2">  1       -2 0.72235359E-01 0.10447959E+04</pdfrwt>
<totfact> 0.54470744E+01</totfact>
</mgrwt>
</event>
<event>
12    5  0.5264288E-008  0.2804771E+04  0.7818608E-02  0.8301789E-01
         -2   -1    0    0    0  501 -0.00000000000E+00  0.00000000000E+00  0.10421916254E+04  0.10421916254E+04  0.00000000000E+00 0.  1.
          1   -1    0    0  501    0  0.00000000000E+00 -0.00000000000E+00 -0.18870670247E+04  0.18870670247E+04  0.00000000000E+00 0. -1.
        -24    2    1    2    0    0 -0.21430840451E+03 -0.95120431822E+03  0.44136654981E+03  0.10733259125E+04  0.80661861412E+02 0.  0.
        254    2    1    2    0    0  0.21430840451E+03  0.95120431822E+03 -0.12862419491E+04  0.18559327376E+04  0.91616059043E+03 0.  0.
         23    2    4    4    0    0 -0.10357759152E+03 -0.12808178712E+03 -0.80652527090E+02  0.20436842458E+03  0.90157424437E+02 0.  0.
         23    2    4    4    0    0  0.31788599604E+03  0.10792861053E+04 -0.12055894221E+04  0.16515643130E+04  0.91152738755E+02 0.  0.
          1    1    3    3  502    0 -0.39592708707E+02 -0.29309698212E+03  0.16315760762E+03  0.33777777967E+03  0.00000000000E+00 0. -1.
         -2    1    3    3    0  502 -0.17471569581E+03 -0.65810733610E+03  0.27820894219E+03  0.73554813282E+03  0.00000000000E+00 0.  1.
         13    1    5    5    0    0 -0.44600901299E+02  0.20112770364E+01 -0.14372863238E+02  0.46902716656E+02  0.00000000000E+00 0.  1.
        -13    1    5    5    0    0 -0.58976690224E+02 -0.13009306416E+03 -0.66279663852E+02  0.15746570792E+03  0.00000000000E+00 0. -1.
          3    1    6    6  503    0  0.31735709820E+03  0.10498049841E+04 -0.11531403427E+04  0.15913951999E+04  0.00000000000E+00 0. -1.
         -3    1    6    6    0  503  0.52889783420E+00  0.29481121237E+02 -0.52449079372E+02  0.60169113084E+02  0.00000000000E+00 0.  1.
<mgrwt>
<rscale>  0 0.28047713E+04</rscale>
<asrwt>0</asrwt>
<pdfrwt beam="1">  1        1 0.29031800E+00 0.28047713E+04</pdfrwt>
<pdfrwt beam="2">  1       -2 0.16033718E+00 0.28047713E+04</pdfrwt>
<totfact> 0.67722295E-01</totfact>
</mgrwt>
</event>
<event>
12    5  0.5264288E-008  0.2456283E+04  0.7818608E-02  0.8418728E-01
          1   -1    0    0  501    0  0.00000000000E+00  0.00000000000E+00  0.87647752160E+03  0.87647752160E+03  0.00000000000E+00 0. -1.
         -2   -1    0    0    0  501 -0.00000000000E+00 -0.00000000000E+00 -0.17209014181E+04  0.17209014181E+04  0.00000000000E+00 0.  1.
        -24    2    1    2    0    0  0.76788761747E+03 -0.45097537486E+03 -0.98473726294E+03  0.13301489668E+04  0.80985276720E+02 0.  0.
        254    2    1    2    0    0 -0.76788761747E+03  0.45097537486E+03  0.14031336642E+03  0.12672299729E+04  0.89059181541E+03 0.  0.
         23    2    4    4    0    0 -0.91093931277E+03  0.29570633312E+03  0.27630308415E+03  0.10011452712E+04  0.93251234216E+02 0.  0.
         23    2    4    4    0    0  0.14305169530E+03  0.15526904174E+03 -0.13598971773E+03  0.26608470175E+03  0.87952272983E+02 0.  0.
          3    1    3    3  502    0  0.14430003434E+03 -0.53231076763E+02 -0.14941439119E+03  0.21443112586E+03  0.00000000000E+00 0. -1.
         -4    1    3    3    0  502  0.62358758313E+03 -0.39774429810E+03 -0.83532287175E+03  0.11157178409E+04  0.00000000000E+00 0.  1.
         13    1    5    5    0    0 -0.56905600131E+03  0.22497276734E+03  0.20012615722E+03  0.64380739160E+03  0.00000000000E+00 0. -1.
        -13    1    5    5    0    0 -0.34188331146E+03  0.70733565774E+02  0.76176926937E+02  0.35733787957E+03  0.00000000000E+00 0.  1.
          3    1    6    6  503    0  0.12411503181E+03  0.77596665940E+02 -0.10587956462E+03  0.18065510203E+03  0.00000000000E+00 0. -1.
         -3    1    6    6    0  503  0.18936663490E+02  0.77672375803E+02 -0.30110153112E+02  0.85429599715E+02  0.00000000000E+00 0.  1.
<mgrwt>
<rscale>  0 0.24562829E+04</rscale>
<asrwt>0</asrwt>
<pdfrwt beam="1">  1        1 0.13484270E+00 0.24562829E+04</pdfrwt>
<pdfrwt beam="2">  1       -2 0.26475406E+00 0.24562829E+04</pdfrwt>
<totfact> 0.77641625E-01</totfact>
</mgrwt>
</event>
<event>
12    5  0.5264288E-008  0.1894724E+04  0.7818608E-02  0.8657487E-01
          1   -1    0    0  501    0  0.00000000000E+00  0.00000000000E+00  0.18131749301E+04  0.18131749301E+04  0.00000000000E+00 0. -1.
         -2   -1    0    0    0  501 -0.00000000000E+00 -0.00000000000E+00 -0.49498537072E+03  0.49498537072E+03  0.00000000000E+00 0.  1.
        -24    2    1    2    0    0 -0.30658612375E+03  0.30989867129E+03  0.12299151190E+04  0.13073169877E+04  0.79713667727E+02 0.  0.
        254    2    1    2    0    0  0.30658612375E+03 -0.30989867129E+03  0.88274440394E+02  0.10008433131E+04  0.89658391839E+03 0.  0.
         23    2    4    4    0    0  0.21686614625E+03 -0.12546983676E+03  0.48005670771E+03  0.54920905952E+03  0.91665386686E+02 0.  0.
         23    2    4    4    0    0  0.89719977501E+02 -0.18442883453E+03 -0.39178226732E+03  0.45163425353E+03  0.91741400766E+02 0.  0.
          1    1    3    3  502    0 -0.41589493319E+02  0.58113180040E+02  0.29374539483E+03  0.30231305733E+03  0.00000000000E+00 0. -1.
         -2    1    3    3    0  502 -0.26499663043E+03  0.25178549125E+03  0.93616972414E+03  0.10050039304E+04  0.00000000000E+00 0.  1.
         13    1    5    5    0    0  0.22356266082E+03 -0.11982965292E+03  0.47640410752E+03  0.53972241263E+03  0.00000000000E+00 0.  1.
        -13    1    5    5    0    0 -0.66965145697E+01 -0.56401838401E+01  0.36526001927E+01  0.94866468945E+01  0.00000000000E+00 0. -1.
          4    1    6    6  503    0  0.73197494617E+02 -0.59029347668E+02 -0.12531877352E+03  0.15667524406E+03  0.00000000000E+00 0. -1.
         -4    1    6    6    0  503  0.16522482884E+02 -0.12539948686E+03 -0.26646349379E+03  0.29495900947E+03  0.00000000000E+00 0.  1.
<mgrwt>
<rscale>  0 0.18947243E+04</rscale>
<asrwt>0</asrwt>
<pdfrwt beam="1">  1        1 0.27894999E+00 0.18947243E+04</pdfrwt>
<pdfrwt beam="2">  1       -2 0.76151596E-01 0.18947243E+04</pdfrwt>
<totfact> 0.50625706E+00</totfact>
</mgrwt>
</event>
<event>
12    5  0.5264288E-008  0.1127457E+04  0.7818608E-02  0.9178836E-01
         -2   -1    0    0    0  501 -0.00000000000E+00  0.00000000000E+00  0.24023289500E+03  0.24023289500E+03  0.00000000000E+00 0.  1.
          1   -1    0    0  501    0  0.00000000000E+00 -0.00000000000E+00 -0.13228417487E+04  0.13228417487E+04  0.00000000000E+00 0. -1.
        -24    2    1    2    0    0  0.85298037907E+02 -0.65645780228E+02 -0.22624644947E+03  0.26323207215E+03  0.80737501707E+02 0.  0.
        254    2    1    2    0    0 -0.85298037907E+02  0.65645780228E+02 -0.85636240428E+03  0.12998425716E+04  0.97193056321E+03 0.  0.
         23    2    4    4    0    0 -0.14504211267E+03 -0.10386748615E+03  0.16269549020E+03  0.26109548336E+03  0.99374844766E+02 0.  0.
         23    2    4    4    0    0  0.59744074766E+02  0.16951326638E+03 -0.10190578945E+04  0.10387470882E+04  0.90622398101E+02 0.  0.
          1    1    3    3  502    0  0.83457555497E+02 -0.24455198975E+02 -0.18734116125E+03  0.20654280676E+03  0.00000000000E+00 0. -1.
         -2    1    3    3    0  502  0.18404824098E+01 -0.41190581253E+02 -0.38905288214E+02  0.56689265391E+02  0.00000000000E+00 0.  1.
         13    1    5    5    0    0 -0.49171606041E+02 -0.83777596843E+01  0.51868039523E+00  0.49882890127E+02  0.00000000000E+00 0.  1.
        -13    1    5    5    0    0 -0.95870506632E+02 -0.95489726465E+02  0.16217680981E+03  0.21121259323E+03  0.00000000000E+00 0. -1.
          3    1    6    6  503    0  0.54491180396E+02  0.87007280487E+02 -0.35448674256E+03  0.36905339214E+03  0.00000000000E+00 0. -1.
         -3    1    6    6    0  503  0.52528943707E+01  0.82505985890E+02 -0.66457115193E+03  0.66969369609E+03  0.00000000000E+00 0.  1.
<mgrwt>
<rscale>  0 0.11274575E+04</rscale>
<asrwt>0</asrwt>
<pdfrwt beam="1">  1        1 0.20351411E+00 0.11274575E+04</pdfrwt>
<pdfrwt beam="2">  1       -2 0.36958908E-01 0.11274575E+04</pdfrwt>
<totfact> 0.52423670E+01</totfact>
</mgrwt>
</event>
<event>
12    5  0.5264288E-008  0.2673668E+04  0.7818608E-02  0.8343600E-01
         -2   -1    0    0    0  501 -0.00000000000E+00  0.00000000000E+00  0.26244663448E+04  0.26244663448E+04  0.00000000000E+00 0.  1.
          1   -1    0    0  501    0  0.00000000000E+00 -0.00000000000E+00 -0.68094824452E+03  0.68094824452E+03  0.00000000000E+00 0. -1.
        -24    2    1    2    0    0 -0.99831901536E+03 -0.49614879866E+03  0.13548324829E+04  0.17562666667E+04  0.78083680028E+02 0.  0.
        254    2    1    2    0    0  0.99831901536E+03  0.49614879866E+03  0.58868561744E+03  0.15491479227E+04  0.90027998047E+03 0.  0.
         23    2    4    4    0    0  0.24192815194E+03  0.52604466442E+03  0.51984047431E+03  0.78368413634E+03  0.93136926892E+02 0.  0.
         23    2    4    4    0    0  0.75639086343E+03 -0.29895865765E+02  0.68845143136E+02  0.76546378632E+03  0.90411577621E+02 0.  0.
          1    1    3    3  502    0 -0.34555257767E+03 -0.18869141542E+03  0.42551876927E+03  0.57972170667E+03  0.00000000000E+00 0. -1.
         -2    1    3    3    0  502 -0.65276643770E+03 -0.30745738324E+03  0.92931371359E+03  0.11765449600E+04  0.00000000000E+00 0.  1.
         13    1    5    5    0    0  0.22793513997E+03  0.52364922247E+03  0.51394751128E+03  0.76831307459E+03  0.00000000000E+00 0.  1.
        -13    1    5    5    0    0  0.13993011969E+02  0.23954419477E+01  0.58929630286E+01  0.15371061750E+02  0.00000000000E+00 0. -1.
          2    1    6    6  503    0  0.49866155843E+02  0.90563439436E+01 -0.15151242690E+02  0.52898119241E+02  0.00000000000E+00 0. -1.
         -2    1    6    6    0  503  0.70652470758E+03 -0.38952209709E+02  0.83996385826E+02  0.71256566708E+03  0.00000000000E+00 0.  1.
<mgrwt>
<rscale>  0 0.26736685E+04</rscale>
<asrwt>0</asrwt>
<pdfrwt beam="1">  1        1 0.10476127E+00 0.26736685E+04</pdfrwt>
<pdfrwt beam="2">  1       -2 0.40376405E+00 0.26736685E+04</pdfrwt>
<totfact> 0.15281834E-01</totfact>
</mgrwt>
</event>
<event>
12    5  0.5264288E-008  0.2329928E+04  0.7818608E-02  0.8466213E-01
          1   -1    0    0  501    0  0.00000000000E+00  0.00000000000E+00  0.69247710670E+03  0.69247710670E+03  0.00000000000E+00 0. -1.
         -2   -1    0    0    0  501 -0.00000000000E+00 -0.00000000000E+00 -0.19598360025E+04  0.19598360025E+04  0.00000000000E+00 0.  1.
        -24    2    1    2    0    0 -0.84157705178E+03 -0.32945838497E+03 -0.99429064843E+03  0.13460138287E+04  0.79652821251E+02 0.  0.
        254    2    1    2    0    0  0.84157705178E+03  0.32945838497E+03 -0.27306824741E+03  0.13062992806E+04  0.90280495190E+03 0.  0.
         23    2    4    4    0    0 -0.79762342775E+01  0.39459419211E+03 -0.18996464643E+03  0.44514326165E+03  0.79358425773E+02 0.  0.
         23    2    4    4    0    0  0.84955328605E+03 -0.65135807144E+02 -0.83103600981E+02  0.86115601891E+03  0.93273904174E+02 0.  0.
          3    1    3    3  502    0 -0.33325067173E+03 -0.94234546083E+02 -0.35196839111E+03  0.49377920999E+03  0.00000000000E+00 0. -1.
         -4    1    3    3    0  502 -0.50832638005E+03 -0.23522383889E+03 -0.64232225732E+03  0.85223461868E+03  0.00000000000E+00 0.  1.
         13    1    5    5    0    0  0.21457839993E+02  0.40036967938E+02 -0.10311564748E+02  0.46580318445E+02  0.00000000000E+00 0. -1.
        -13    1    5    5    0    0 -0.29434074271E+02  0.35455722417E+03 -0.17965308168E+03  0.39856294321E+03  0.00000000000E+00 0.  1.
          1    1    6    6  503    0  0.45455328419E+03 -0.34325464729E+02  0.23128854452E+01  0.45585334828E+03  0.00000000000E+00 0. -1.
         -1    1    6    6    0  503  0.39500000186E+03 -0.30810342415E+02 -0.85416486427E+02  0.40530267064E+03  0.00000000000E+00 0.  1.
<mgrwt>
<rscale>  0 0.23299284E+04</rscale>
<asrwt>0</asrwt>
<pdfrwt beam="1">  1        1 0.10653494E+00 0.23299284E+04</pdfrwt>
<pdfrwt beam="2">  1       -2 0.30151323E+00 0.23299284E+04</pdfrwt>
<totfact> 0.68106873E-01</totfact>
</mgrwt>
</event>
<event>
12    5  0.5264288E-008  0.2198841E+04  0.7818608E-02  0.8518910E-01
         -2   -1    0    0    0  501 -0.00000000000E+00  0.00000000000E+00  0.47175532507E+03  0.47175532507E+03  0.00000000000E+00 0.  1.
          1   -1    0    0  501    0  0.00000000000E+00 -0.00000000000E+00 -0.25621881455E+04  0.25621881455E+04  0.00000000000E+00 0. -1.
        -24    2    1    2    0    0  0.25161694272E+03  0.50989178420E+03  0.11517952265E+03  0.58657834000E+03  0.86643574851E+02 0.  0.
        254    2    1    2    0    0 -0.25161694272E+03 -0.50989178420E+03 -0.22056123430E+04  0.24473651305E+04  0.89530417003E+03 0.  0.
         23    2    4    4    0    0  0.53945968459E+02 -0.67969502437E+03 -0.16071234631E+04  0.17481838054E+04  0.91680412730E+02 0.  0.
         23    2    4    4    0    0 -0.30556291118E+03  0.16980324017E+03 -0.59848887994E+03  0.69918132514E+03  0.91998657364E+02 0.  0.
          1    1    3    3  502    0  0.43261365049E+02  0.33809077425E+02  0.18816405731E+02  0.58040128763E+02  0.00000000000E+00 0. -1.
         -2    1    3    3    0  502  0.20835557768E+03  0.47608270677E+03  0.96363116921E+02  0.52853821124E+03  0.00000000000E+00 0.  1.
         13    1    5    5    0    0  0.14074226812E+01 -0.39265961253E+02 -0.49342807652E+02  0.63075424840E+02  0.00000000000E+00 0.  1.
        -13    1    5    5    0    0  0.52538545778E+02 -0.64042906311E+03 -0.15577806555E+04  0.16851083805E+04  0.00000000000E+00 0. -1.
          3    1    6    6  503    0 -0.21206237494E+03  0.73453070748E+02 -0.33129894695E+03  0.40015596549E+03  0.00000000000E+00 0. -1.
         -3    1    6    6    0  503 -0.93500536243E+02  0.96350169421E+02 -0.26718993298E+03  0.29902535965E+03  0.00000000000E+00 0.  1.
<mgrwt>
<rscale>  0 0.21988414E+04</rscale>
<asrwt>0</asrwt>
<pdfrwt beam="1">  1        1 0.39418279E+00 0.21988414E+04</pdfrwt>
<pdfrwt beam="2">  1       -2 0.72577743E-01 0.21988414E+04</pdfrwt>
<totfact> 0.16872685E+00</totfact>
</mgrwt>
</event>
<event>
12    5  0.5264288E-008  0.1360357E+04  0.7818608E-02  0.8983024E-01
          1   -1    0    0  501    0  0.00000000000E+00  0.00000000000E+00  0.12354350189E+04  0.12354350189E+04  0.00000000000E+00 0. -1.
         -2   -1    0    0    0  501 -0.00000000000E+00 -0.00000000000E+00 -0.37447791235E+03  0.37447791235E+03  0.00000000000E+00 0.  1.
        -24    2    1    2    0    0 -0.32190514386E+03  0.83486675086E+02  0.34054455434E+02  0.34379442873E+03  0.80261801201E+02 0.  0.
        254    2    1    2    0    0  0.32190514386E+03 -0.83486675086E+02  0.82690265110E+03  0.12661185025E+04  0.89927477526E+03 0.  0.
         23    2    4    4    0    0  0.20324768244E+03  0.22122918685E+02 -0.15176240787E+03  0.27042189161E+03  0.91088567189E+02 0.  0.
         23    2    4    4    0    0  0.11865746142E+03 -0.10560959377E+03  0.97866505896E+03  0.99569661089E+03  0.91615849364E+02 0.  0.
          1    1    3    3  502    0 -0.15593788040E+03  0.65119743106E+02  0.49531599055E+02  0.17609821916E+03  0.00000000000E+00 0. -1.
         -2    1    3    3    0  502 -0.16596726346E+03  0.18366931979E+02 -0.15477143621E+02  0.16769620957E+03  0.00000000000E+00 0.  1.
         13    1    5    5    0    0  0.13550121376E+03  0.57688717846E+02 -0.97546092737E+02  0.17664599431E+03  0.00000000000E+00 0.  1.
        -13    1    5    5    0    0  0.67746468678E+02 -0.35565799161E+02 -0.54216315130E+02  0.93775897301E+02  0.00000000000E+00 0. -1.
          1    1    6    6  503    0  0.72123667853E+02 -0.36126868788E+02  0.70336863828E+03  0.70797910664E+03  0.00000000000E+00 0. -1.
         -1    1    6    6    0  503  0.46533793564E+02 -0.69482724982E+02  0.27529642068E+03  0.28771750425E+03  0.00000000000E+00 0.  1.
<mgrwt>
<rscale>  0 0.13603575E+04</rscale>
<asrwt>0</asrwt>
<pdfrwt beam="1">  1        1 0.19006692E+00 0.13603575E+04</pdfrwt>
<pdfrwt beam="2">  1       -2 0.57611987E-01 0.13603575E+04</pdfrwt>
<totfact> 0.24369325E+01</totfact>
</mgrwt>
</event>
<event>
12    5  0.5264288E-008  0.1205397E+04  0.7818608E-02  0.9108145E-01
         -2   -1    0    0    0  501 -0.00000000000E+00  0.00000000000E+00  0.40867009913E+03  0.40867009913E+03  0.00000000000E+00 0.  1.
          1   -1    0    0  501    0  0.00000000000E+00 -0.00000000000E+00 -0.88884827372E+03  0.88884827372E+03  0.00000000000E+00 0. -1.
        -24    2    1    2    0    0  0.18335691473E+03  0.12725076899E+03 -0.24979383221E+03  0.34449389496E+03  0.80414977841E+02 0.  0.
        254    2    1    2    0    0 -0.18335691473E+03 -0.12725076899E+03 -0.23038434238E+03  0.95302447788E+03  0.89742197090E+03 0.  0.
         23    2    4    4    0    0 -0.56081276782E+02  0.37596394965E+03 -0.15759946950E+03  0.42110713076E+03  0.89440604567E+02 0.  0.
         23    2    4    4    0    0 -0.12727563795E+03 -0.50321471864E+03 -0.72784872874E+02  0.53191734713E+03  0.90632694898E+02 0.  0.
          1    1    3    3  502    0  0.15133018185E+03  0.11829018391E+03 -0.24433196717E+03  0.31079173369E+03  0.00000000000E+00 0. -1.
         -2    1    3    3    0  502  0.32026732884E+02  0.89605850737E+01 -0.54618650409E+01  0.33702161263E+02  0.00000000000E+00 0.  1.
         13    1    5    5    0    0 -0.14935263912E+02  0.31144509616E+03 -0.14373941252E+03  0.34333966963E+03  0.00000000000E+00 0. -1.
        -13    1    5    5    0    0 -0.41146012870E+02  0.64518853489E+02 -0.13860056987E+02  0.77767461128E+02  0.00000000000E+00 0.  1.
          4    1    6    6  503    0 -0.12593208106E+03 -0.35202847891E+03 -0.31558039770E+02  0.37520507576E+03  0.00000000000E+00 0. -1.
         -4    1    6    6    0  503 -0.13435568924E+01 -0.15118623973E+03 -0.41226833104E+02  0.15671227137E+03  0.00000000000E+00 0.  1.
<mgrwt>
<rscale>  0 0.12053974E+04</rscale>
<asrwt>0</asrwt>
<pdfrwt beam="1">  1        1 0.13674589E+00 0.12053974E+04</pdfrwt>
<pdfrwt beam="2">  1       -2 0.62872323E-01 0.12053974E+04</pdfrwt>
<totfact> 0.37789792E+01</totfact>
</mgrwt>
</event>
<event>
12    5  0.5264288E-008  0.1270661E+04  0.7818608E-02  0.9053161E-01
         -4   -1    0    0    0  501 -0.00000000000E+00  0.00000000000E+00  0.37672435308E+03  0.37672435308E+03  0.00000000000E+00 0.  1.
          3   -1    0    0  501    0  0.00000000000E+00 -0.00000000000E+00 -0.10714587540E+04  0.10714587540E+04  0.00000000000E+00 0. -1.
        -24    2    1    2    0    0  0.30320906412E+03 -0.38054624608E+02 -0.22251722194E+03  0.38527952505E+03  0.74448017757E+02 0.  0.
        254    2    1    2    0    0 -0.30320906412E+03  0.38054624608E+02 -0.47221717901E+03  0.10629035821E+04  0.90188195990E+03 0.  0.
         23    2    4    4    0    0 -0.48453795719E+03 -0.21897207603E+02 -0.62801248155E+03  0.79865562543E+03  0.90524092813E+02 0.  0.
         23    2    4    4    0    0  0.18132889307E+03  0.59951832211E+02  0.15579530255E+03  0.26424795663E+03  0.95291220162E+02 0.  0.
          3    1    3    3  502    0  0.16826962984E+03  0.45086511861E+01 -0.15367615172E+03  0.22792840075E+03  0.00000000000E+00 0. -1.
         -4    1    3    3    0  502  0.13493943428E+03 -0.42563275794E+02 -0.68841070217E+02  0.15735112430E+03  0.00000000000E+00 0.  1.
         13    1    5    5    0    0 -0.48101961728E+03 -0.10437181961E+02 -0.60818090355E+03  0.77548231341E+03  0.00000000000E+00 0.  1.
        -13    1    5    5    0    0 -0.35183399084E+01 -0.11460025642E+02 -0.19831578008E+02  0.23173312015E+02  0.00000000000E+00 0. -1.
          1    1    6    6  503    0  0.64599378938E+02  0.71123825713E+02  0.74012814272E+02  0.12128303682E+03  0.00000000000E+00 0. -1.
         -1    1    6    6    0  503  0.11672951414E+03 -0.11171993502E+02  0.81782488274E+02  0.14296491981E+03  0.00000000000E+00 0.  1.
<mgrwt>
<rscale>  0 0.12706606E+04</rscale>
<asrwt>0</asrwt>
<pdfrwt beam="1">  1        3 0.16483981E+00 0.12706606E+04</pdfrwt>
<pdfrwt beam="2">  1       -4 0.57957593E-01 0.12706606E+04</pdfrwt>
<totfact> 0.16032334E+00</totfact>
</mgrwt>
</event>
<event>
12    5  0.5264288E-008  0.1434200E+04  0.7818608E-02  0.8929428E-01
         -2   -1    0    0    0  501 -0.00000000000E+00  0.00000000000E+00  0.41603865169E+03  0.41603865169E+03  0.00000000000E+00 0.  1.
          1   -1    0    0  501    0  0.00000000000E+00 -0.00000000000E+00 -0.12360209634E+04  0.12360209634E+04  0.00000000000E+00 0. -1.
        -24    2    1    2    0    0 -0.34412407981E+03  0.63840316914E+02 -0.54841221126E+03  0.65560727599E+03  0.81043065681E+02 0.  0.
        254    2    1    2    0    0  0.34412407981E+03 -0.63840316914E+02 -0.27157010041E+03  0.99645233906E+03  0.89256370989E+03 0.  0.
         23    2    4    4    0    0  0.10674495767E+03 -0.39497160321E+03  0.10987091646E+03  0.43117061789E+03  0.80246059827E+02 0.  0.
         23    2    4    4    0    0  0.23737912214E+03  0.33113128629E+03 -0.38144101688E+03  0.56528172118E+03  0.89718440416E+02 0.  0.
          3    1    3    3  502    0 -0.31833344188E+03  0.38338838349E+02 -0.46693984973E+03  0.56642640299E+03  0.00000000000E+00 0. -1.
         -4    1    3    3    0  502 -0.25790637937E+02  0.25501478565E+02 -0.81472361536E+02  0.89180872997E+02  0.00000000000E+00 0.  1.
         13    1    5    5    0    0  0.19201793095E+02 -0.87354042502E+02 -0.91594978124E+01  0.89907363434E+02  0.00000000000E+00 0. -1.
        -13    1    5    5    0    0  0.87543164578E+02 -0.30761756070E+03  0.11903041428E+03  0.34126325445E+03  0.00000000000E+00 0.  1.
          1    1    6    6  503    0  0.15939122115E+03  0.28421460731E+03 -0.30711560723E+03  0.44777617242E+03  0.00000000000E+00 0.  1.
         -1    1    6    6    0  503  0.77987900994E+02  0.46916678978E+02 -0.74325409649E+02  0.11750554875E+03  0.00000000000E+00 0. -1.
<mgrwt>
<rscale>  0 0.14342001E+04</rscale>
<asrwt>0</asrwt>
<pdfrwt beam="1">  1        1 0.19015707E+00 0.14342001E+04</pdfrwt>
<pdfrwt beam="2">  1       -2 0.64005948E-01 0.14342001E+04</pdfrwt>
<totfact> 0.19360826E+01</totfact>
</mgrwt>
</event>
<event>
12    5  0.5264288E-008  0.1530021E+04  0.7818608E-02  0.8864731E-01
         -2   -1    0    0    0  501 -0.00000000000E+00  0.00000000000E+00  0.61860024995E+03  0.61860024995E+03  0.00000000000E+00 0.  1.
          1   -1    0    0  501    0  0.00000000000E+00 -0.00000000000E+00 -0.94607298633E+03  0.94607298633E+03  0.00000000000E+00 0. -1.
        -24    2    1    2    0    0 -0.16466576400E+03  0.34681246771E+03 -0.40247992178E+03  0.56206546894E+03  0.80831938884E+02 0.  0.
        254    2    1    2    0    0  0.16466576400E+03 -0.34681246771E+03  0.75007185405E+02  0.10026077673E+04  0.92314817645E+03 0.  0.
         23    2    4    4    0    0  0.44199518775E+03 -0.49520832852E+03  0.70381752820E+01  0.66993809521E+03  0.90423895453E+02 0.  0.
         23    2    4    4    0    0 -0.27732942375E+03  0.14839586081E+03  0.67969010123E+02  0.33266967213E+03  0.84358660698E+02 0.  0.
          1    1    3    3  502    0 -0.99179600039E+02  0.24409887442E+03 -0.32203742401E+03  0.41608767829E+03  0.00000000000E+00 0. -1.
         -2    1    3    3    0  502 -0.65486163958E+02  0.10271359328E+03 -0.80442497769E+02  0.14597779065E+03  0.00000000000E+00 0.  1.
         13    1    5    5    0    0  0.11552233718E+03 -0.74971251980E+02  0.41576253433E+01  0.13778020489E+03  0.00000000000E+00 0. -1.
        -13    1    5    5    0    0  0.32647285056E+03 -0.42023707654E+03  0.28805499387E+01  0.53215789031E+03  0.00000000000E+00 0.  1.
          1    1    6    6  503    0  0.53656959650E+00 -0.67699051319E+00 -0.82215397435E+01  0.82667973751E+01  0.00000000000E+00 0. -1.
         -1    1    6    6    0  503 -0.27786599335E+03  0.14907285133E+03  0.76190549867E+02  0.32440287476E+03  0.00000000000E+00 0.  1.
<mgrwt>
<rscale>  0 0.15300209E+04</rscale>
<asrwt>0</asrwt>
<pdfrwt beam="1">  1        1 0.14554969E+00 0.15300209E+04</pdfrwt>
<pdfrwt beam="2">  1       -2 0.95169269E-01 0.15300209E+04</pdfrwt>
<totfact> 0.13107129E+01</totfact>
</mgrwt>
</event>
<event>
12    5  0.5264288E-008  0.1768835E+04  0.7818608E-02  0.8723050E-01
         -2   -1    0    0    0  501 -0.00000000000E+00  0.00000000000E+00  0.11272936225E+04  0.11272936225E+04  0.00000000000E+00 0.  1.
          1   -1    0    0  501    0  0.00000000000E+00 -0.00000000000E+00 -0.69386940690E+03  0.69386940690E+03  0.00000000000E+00 0. -1.
        -24    2    1    2    0    0  0.43260026247E+03  0.50042534593E+03  0.78362634108E+02  0.67069652150E+03  0.78259872207E+02 0.  0.
        254    2    1    2    0    0 -0.43260026247E+03 -0.50042534593E+03  0.35506158151E+03  0.11504665079E+04  0.87174304999E+03 0.  0.
         23    2    4    4    0    0  0.11560418521E+02 -0.61792386679E+03  0.17947806802E+03  0.65012629344E+03  0.92131819122E+02 0.  0.
         23    2    4    4    0    0 -0.44416068099E+03  0.11749852086E+03  0.17558351348E+03  0.50034021447E+03  0.91794046986E+02 0.  0.
          3    1    3    3  502    0  0.40832372700E+03  0.47953734899E+03  0.57441590639E+02  0.63244278116E+03  0.00000000000E+00 0. -1.
         -4    1    3    3    0  502  0.24276535474E+02  0.20887996940E+02  0.20921043468E+02  0.38253740348E+02  0.00000000000E+00 0.  1.
         13    1    5    5    0    0  0.54658859223E+01  0.12554791046E+01  0.89528909188E+00  0.56792322770E+01  0.00000000000E+00 0. -1.
        -13    1    5    5    0    0  0.60945325987E+01 -0.61917934589E+03  0.17858277893E+03  0.64444706116E+03  0.00000000000E+00 0.  1.
          4    1    6    6  503    0 -0.10640255119E+03  0.32958640037E+02  0.22729930373E+01  0.11141338048E+03  0.00000000000E+00 0. -1.
         -4    1    6    6    0  503 -0.33775812980E+03  0.84539880822E+02  0.17331052045E+03  0.38892683398E+03  0.00000000000E+00 0.  1.
<mgrwt>
<rscale>  0 0.17688353E+04</rscale>
<asrwt>0</asrwt>
<pdfrwt beam="1">  1        1 0.10674914E+00 0.17688353E+04</pdfrwt>
<pdfrwt beam="2">  1       -2 0.17342979E+00 0.17688353E+04</pdfrwt>
<totfact> 0.46073758E+00</totfact>
</mgrwt>
</event>
<event>
12    5  0.5264288E-008  0.1036392E+04  0.7818608E-02  0.9269507E-01
          1   -1    0    0  501    0  0.00000000000E+00  0.00000000000E+00  0.12180629051E+04  0.12180629051E+04  0.00000000000E+00 0. -1.
         -2   -1    0    0    0  501 -0.00000000000E+00 -0.00000000000E+00 -0.22045416674E+03  0.22045416674E+03  0.00000000000E+00 0.  1.
        -24    2    1    2    0    0 -0.66554839885E+01 -0.20286345927E+02 -0.96134673477E+01  0.84279468945E+02  0.80961588627E+02 0.  0.
        254    2    1    2    0    0  0.66554839885E+01  0.20286345927E+02  0.10072222057E+04  0.13542376029E+04  0.90499010055E+03 0.  0.
         23    2    4    4    0    0 -0.23118109165E+03  0.33990689570E+00  0.10635736633E+04  0.10922145724E+04  0.91098421461E+02 0.  0.
         23    2    4    4    0    0  0.23783657564E+03  0.19946439031E+02 -0.56351457584E+02  0.26202303042E+03  0.92284801328E+02 0.  0.
          1    1    3    3  502    0 -0.88314274363E+01 -0.52535980895E+01  0.35353359375E+02  0.36816496609E+02  0.00000000000E+00 0. -1.
         -2    1    3    3    0  502  0.21759434478E+01 -0.15032747837E+02 -0.44966826723E+02  0.47462972336E+02  0.00000000000E+00 0.  1.
         13    1    5    5    0    0 -0.22157787929E+03  0.15930356873E+02  0.87522865695E+03  0.90298158055E+03  0.00000000000E+00 0.  1.
        -13    1    5    5    0    0 -0.96032123600E+01 -0.15590449978E+02  0.18834500631E+03  0.18923299189E+03  0.00000000000E+00 0. -1.
          3    1    6    6  503    0  0.37097572410E+00  0.14553268808E+02  0.70570439963E+01  0.16178291812E+02  0.00000000000E+00 0. -1.
         -3    1    6    6    0  503  0.23746559991E+03  0.53931702235E+01 -0.63408501581E+02  0.24584473861E+03  0.00000000000E+00 0.  1.
<mgrwt>
<rscale>  0 0.10363919E+04</rscale>
<asrwt>0</asrwt>
<pdfrwt beam="1">  1        1 0.18739429E+00 0.10363919E+04</pdfrwt>
<pdfrwt beam="2">  1       -2 0.33916026E-01 0.10363919E+04</pdfrwt>
<totfact> 0.73955478E+01</totfact>
</mgrwt>
</event>
<event>
12    5  0.5264288E-008  0.1738812E+04  0.7818608E-02  0.8739533E-01
          1   -1    0    0  501    0  0.00000000000E+00  0.00000000000E+00  0.12553716636E+04  0.12553716636E+04  0.00000000000E+00 0. -1.
         -2   -1    0    0    0  501 -0.00000000000E+00 -0.00000000000E+00 -0.60210583471E+03  0.60210583471E+03  0.00000000000E+00 0.  1.
        -24    2    1    2    0    0 -0.17001606815E+03  0.37399954532E+03 -0.27306402940E+03  0.49859650588E+03  0.72480260670E+02 0.  0.
        254    2    1    2    0    0  0.17001606815E+03 -0.37399954532E+03  0.92632985827E+03  0.13588809924E+04  0.90536700951E+03 0.  0.
         23    2    4    4    0    0 -0.32807061519E+03 -0.16629192576E+03  0.63339932390E+03  0.73810558702E+03  0.91224015183E+02 0.  0.
         23    2    4    4    0    0  0.49808668335E+03 -0.20770761956E+03  0.29293053437E+03  0.62077540540E+03  0.91219551823E+02 0.  0.
          1    1    3    3  502    0  0.47548646172E+01  0.28288107290E+02 -0.28741108379E+02  0.40606367265E+02  0.00000000000E+00 0. -1.
         -2    1    3    3    0  502 -0.17477093277E+03  0.34571143803E+03 -0.24432292102E+03  0.45799013861E+03  0.00000000000E+00 0.  1.
         13    1    5    5    0    0 -0.25037470302E+03 -0.11313280098E+03  0.53790211285E+03  0.60400762046E+03  0.00000000000E+00 0. -1.
        -13    1    5    5    0    0 -0.77695912173E+02 -0.53159124783E+02  0.95497211050E+02  0.13409796656E+03  0.00000000000E+00 0.  1.
          2    1    6    6  503    0  0.15945743600E+03 -0.89707890035E+02  0.57435027037E+02  0.19176277470E+03  0.00000000000E+00 0. -1.
         -2    1    6    6    0  503  0.33862924734E+03 -0.11799972953E+03  0.23549550734E+03  0.42901263070E+03  0.00000000000E+00 0.  1.
<mgrwt>
<rscale>  0 0.17388118E+04</rscale>
<asrwt>0</asrwt>
<pdfrwt beam="1">  1        1 0.19313410E+00 0.17388118E+04</pdfrwt>
<pdfrwt beam="2">  1       -2 0.92631667E-01 0.17388118E+04</pdfrwt>
<totfact> 0.80107515E+00</totfact>
</mgrwt>
</event>
<event>
12    5  0.5264288E-008  0.1614130E+04  0.7818608E-02  0.8811914E-01
          1   -1    0    0  501    0  0.00000000000E+00  0.00000000000E+00  0.16781759956E+04  0.16781759956E+04  0.00000000000E+00 0. -1.
         -2   -1    0    0    0  501 -0.00000000000E+00 -0.00000000000E+00 -0.38813199796E+03  0.38813199796E+03  0.00000000000E+00 0.  1.
        -24    2    1    2    0    0  0.30756358079E+03  0.51202652977E+03  0.55586461364E+03  0.81957683582E+03  0.77163447944E+02 0.  0.
        254    2    1    2    0    0 -0.30756358079E+03 -0.51202652977E+03  0.73417938399E+03  0.12467311577E+04  0.81151259285E+03 0.  0.
         23    2    4    4    0    0 -0.15185143389E+02  0.20350178570E+03  0.12287510279E+03  0.25697003880E+03  0.96393695821E+02 0.  0.
         23    2    4    4    0    0 -0.29237843741E+03 -0.71552831546E+03  0.61130428120E+03  0.98976111893E+03  0.92022972352E+02 0.  0.
          3    1    3    3  502    0 -0.45607023223E+01  0.11053402166E+02  0.12635409382E+02  0.17396300623E+02  0.00000000000E+00 0. -1.
         -4    1    3    3    0  502  0.31212428312E+03  0.50097312760E+03  0.54322920425E+03  0.80218053519E+03  0.00000000000E+00 0.  1.
         13    1    5    5    0    0 -0.83200195027E+00  0.17014260953E+03  0.52978118206E+02  0.17820179801E+03  0.00000000000E+00 0. -1.
        -13    1    5    5    0    0 -0.14353141439E+02  0.33359176169E+02  0.69896984584E+02  0.78768240794E+02  0.00000000000E+00 0.  1.
          2    1    6    6  503    0 -0.26309837240E+03 -0.55724889484E+03  0.46170496107E+03  0.77001204889E+03  0.00000000000E+00 0. -1.
         -2    1    6    6    0  503 -0.29280065009E+02 -0.15827942063E+03  0.14959932013E+03  0.21974907004E+03  0.00000000000E+00 0.  1.
<mgrwt>
<rscale>  0 0.16141299E+04</rscale>
<asrwt>0</asrwt>
<pdfrwt beam="1">  1        1 0.25818092E+00 0.16141299E+04</pdfrwt>
<pdfrwt beam="2">  1       -2 0.59712616E-01 0.16141299E+04</pdfrwt>
<totfact> 0.10856105E+01</totfact>
</mgrwt>
</event>
<event>
12    5  0.5264288E-008  0.1441651E+04  0.7818608E-02  0.8924210E-01
          1   -1    0    0  501    0  0.00000000000E+00  0.00000000000E+00  0.74906597461E+03  0.74906597461E+03  0.00000000000E+00 0. -1.
         -2   -1    0    0    0  501 -0.00000000000E+00 -0.00000000000E+00 -0.69364925907E+03  0.69364925907E+03  0.00000000000E+00 0.  1.
        -24    2    1    2    0    0 -0.11527498377E+03 -0.15830442993E+03  0.40629190193E+03  0.45792584701E+03  0.79210841202E+02 0.  0.
        254    2    1    2    0    0  0.11527498377E+03  0.15830442993E+03 -0.35087518640E+03  0.98478938667E+03  0.89908182344E+03 0.  0.
         23    2    4    4    0    0  0.47458993728E+03 -0.66069822160E+02 -0.18295547110E+03  0.52195709042E+03  0.96776391084E+02 0.  0.
         23    2    4    4    0    0 -0.35931495350E+03  0.22437425209E+03 -0.16791971530E+03  0.46283229625E+03  0.81028777922E+02 0.  0.
          1    1    3    3  502    0 -0.45015819463E+02 -0.12201863526E+03  0.22037296709E+03  0.25588906967E+03  0.00000000000E+00 0. -1.
         -2    1    3    3    0  502 -0.70259164312E+02 -0.36285794671E+02  0.18591893485E+03  0.20203677734E+03  0.00000000000E+00 0.  1.
         13    1    5    5    0    0  0.31904017933E+03 -0.15103766865E+01 -0.10092165525E+03  0.33462530951E+03  0.00000000000E+00 0. -1.
        -13    1    5    5    0    0  0.15554975794E+03 -0.64559445473E+02 -0.82033815854E+02  0.18733178091E+03  0.00000000000E+00 0.  1.
          3    1    6    6  503    0 -0.21678479231E+03  0.91718902021E+02 -0.10900702303E+03  0.25940419086E+03  0.00000000000E+00 0. -1.
         -3    1    6    6    0  503 -0.14253016119E+03  0.13265535007E+03 -0.58912692271E+02  0.20342810539E+03  0.00000000000E+00 0.  1.
<mgrwt>
<rscale>  0 0.14416505E+04</rscale>
<asrwt>0</asrwt>
<pdfrwt beam="1">  1        1 0.11524092E+00 0.14416505E+04</pdfrwt>
<pdfrwt beam="2">  1       -2 0.10671527E+00 0.14416505E+04</pdfrwt>
<totfact> 0.14767293E+01</totfact>
</mgrwt>
</event>
<event>
12    5  0.5264288E-008  0.2530655E+04  0.7818608E-02  0.8392145E-01
          1   -1    0    0  501    0  0.00000000000E+00  0.00000000000E+00  0.90868904006E+03  0.90868904006E+03  0.00000000000E+00 0. -1.
         -2   -1    0    0    0  501 -0.00000000000E+00 -0.00000000000E+00 -0.17619383216E+04  0.17619383216E+04  0.00000000000E+00 0.  1.
        -24    2    1    2    0    0 -0.97071359459E+03 -0.28532698990E+03 -0.84294059499E+03  0.13193459620E+04  0.80178219841E+02 0.  0.
        254    2    1    2    0    0  0.97071359459E+03  0.28532698990E+03 -0.10308686532E+02  0.13512813996E+04  0.89563317159E+03 0.  0.
         23    2    4    4    0    0  0.64122149137E+03  0.41445460615E+02 -0.41321752732E+03  0.76941567897E+03  0.91482429738E+02 0.  0.
         23    2    4    4    0    0  0.32949210322E+03  0.24388152929E+03  0.40290884079E+03  0.58186572065E+03  0.90492742667E+02 0.  0.
          3    1    3    3  502    0 -0.50417115521E+03 -0.17444531915E+03 -0.40338664782E+03  0.66883518953E+03  0.00000000000E+00 0. -1.
         -4    1    3    3    0  502 -0.46654243938E+03 -0.11088167075E+03 -0.43955394718E+03  0.65051077249E+03  0.00000000000E+00 0.  1.
         13    1    5    5    0    0  0.63861305089E+03  0.47327136063E+02 -0.40085992255E+03  0.75548339762E+03  0.00000000000E+00 0.  1.
        -13    1    5    5    0    0  0.26084404833E+01 -0.58816754474E+01 -0.12357604771E+02  0.13932281346E+02  0.00000000000E+00 0. -1.
          4    1    6    6  503    0  0.28275298549E+03  0.17853113375E+03  0.35774280032E+03  0.48969636276E+03  0.00000000000E+00 0. -1.
         -4    1    6    6    0  503  0.46739117725E+02  0.65350395533E+02  0.45166040473E+02  0.92169357891E+02  0.00000000000E+00 0.  1.
<mgrwt>
<rscale>  0 0.25306553E+04</rscale>
<asrwt>0</asrwt>
<pdfrwt beam="1">  1        1 0.13979831E+00 0.25306553E+04</pdfrwt>
<pdfrwt beam="2">  1       -2 0.27106743E+00 0.25306553E+04</pdfrwt>
<totfact> 0.66409125E-01</totfact>
</mgrwt>
</event>
<event>
12    5  0.5264288E-008  0.2559954E+04  0.7818608E-02  0.8381932E-01
         -2   -1    0    0    0  501 -0.00000000000E+00  0.00000000000E+00  0.15920515855E+04  0.15920515855E+04  0.00000000000E+00 0.  1.
          1   -1    0    0  501    0  0.00000000000E+00 -0.00000000000E+00 -0.10290757957E+04  0.10290757957E+04  0.00000000000E+00 0. -1.
        -24    2    1    2    0    0  0.15693530659E+03 -0.49635254456E+03  0.12640271878E+04  0.13693736143E+04  0.80155005775E+02 0.  0.
        254    2    1    2    0    0 -0.15693530659E+03  0.49635254456E+03 -0.70105139806E+03  0.12517537670E+04  0.89689458216E+03 0.  0.
         23    2    4    4    0    0  0.89806678953E+02  0.59338598380E+03 -0.75195002134E+03  0.96624571085E+03  0.89609005080E+02 0.  0.
         23    2    4    4    0    0 -0.24674198554E+03 -0.97033439236E+02  0.50898623279E+02  0.28550805614E+03  0.92882100054E+02 0.  0.
          3    1    3    3  502    0 -0.20392478206E+01  0.23331141008E+01  0.50065427859E+01  0.58879048691E+01  0.00000000000E+00 0. -1.
         -4    1    3    3    0  502  0.15897455441E+03 -0.49868565866E+03  0.12590206451E+04  0.13634857094E+04  0.00000000000E+00 0.  1.
         13    1    5    5    0    0  0.28960976873E+02  0.11644275751E+03 -0.10014179083E+03  0.15628829844E+03  0.00000000000E+00 0.  1.
        -13    1    5    5    0    0  0.60845702080E+02  0.47694322629E+03 -0.65180823051E+03  0.80995741241E+03  0.00000000000E+00 0. -1.
          1    1    6    6  503    0 -0.21802981031E+03 -0.48797900888E+02  0.51867749866E+02  0.22936542196E+03  0.00000000000E+00 0. -1.
         -1    1    6    6    0  503 -0.28712175230E+02 -0.48235538348E+02 -0.96912658746E+00  0.56142634179E+02  0.00000000000E+00 0.  1.
<mgrwt>
<rscale>  0 0.25599545E+04</rscale>
<asrwt>0</asrwt>
<pdfrwt beam="1">  1        1 0.15831935E+00 0.25599545E+04</pdfrwt>
<pdfrwt beam="2">  1       -2 0.24493101E+00 0.25599545E+04</pdfrwt>
<totfact> 0.76884739E-01</totfact>
</mgrwt>
</event>
<event>
12    5  0.5264288E-008  0.1300463E+04  0.7818608E-02  0.9029198E-01
          1   -1    0    0  501    0  0.00000000000E+00  0.00000000000E+00  0.23344024393E+04  0.23344024393E+04  0.00000000000E+00 0. -1.
         -2   -1    0    0    0  501 -0.00000000000E+00 -0.00000000000E+00 -0.18111744477E+03  0.18111744477E+03  0.00000000000E+00 0.  1.
        -24    2    1    2    0    0 -0.31997270138E+03 -0.82118282467E+02  0.63493435116E+03  0.72011512496E+03  0.79361331628E+02 0.  0.
        254    2    1    2    0    0  0.31997270138E+03  0.82118282467E+02  0.15183506433E+04  0.17954047591E+04  0.89942405507E+03 0.  0.
         23    2    4    4    0    0 -0.17474128743E+03  0.32031597770E+03  0.41300162823E+03  0.55778318104E+03  0.86109749897E+02 0.  0.
         23    2    4    4    0    0  0.49471398881E+03 -0.23819769523E+03  0.11053490151E+04  0.12376215780E+04  0.91818584599E+02 0.  0.
          3    1    3    3  502    0 -0.16921812872E+03 -0.11320970123E+02  0.26805122769E+03  0.31719773032E+03  0.00000000000E+00 0. -1.
         -4    1    3    3    0  502 -0.15075457267E+03 -0.70797312344E+02  0.36688312347E+03  0.40291739464E+03  0.00000000000E+00 0.  1.
         13    1    5    5    0    0 -0.79464381767E+02  0.11522198141E+03  0.10171196135E+03  0.17302027642E+03  0.00000000000E+00 0.  1.
        -13    1    5    5    0    0 -0.95276905665E+02  0.20509399629E+03  0.31128966688E+03  0.38476290462E+03  0.00000000000E+00 0. -1.
          3    1    6    6  503    0  0.49362633825E+03 -0.23905955461E+03  0.11070262493E+04  0.12354446766E+04  0.00000000000E+00 0.  1.
         -3    1    6    6    0  503  0.10876505667E+01  0.86185937328E+00 -0.16772341522E+01  0.21769014071E+01  0.00000000000E+00 0. -1.
<mgrwt>
<rscale>  0 0.13004630E+04</rscale>
<asrwt>0</asrwt>
<pdfrwt beam="1">  1        1 0.35913882E+00 0.13004630E+04</pdfrwt>
<pdfrwt beam="2">  1       -2 0.27864224E-01 0.13004630E+04</pdfrwt>
<totfact> 0.17943722E+01</totfact>
</mgrwt>
</event>
<event>
12    5  0.5264288E-008  0.1523266E+04  0.7818608E-02  0.8869127E-01
         -2   -1    0    0    0  501 -0.00000000000E+00  0.00000000000E+00  0.59920248110E+03  0.59920248110E+03  0.00000000000E+00 0.  1.
          1   -1    0    0  501    0  0.00000000000E+00 -0.00000000000E+00 -0.96809509886E+03  0.96809509886E+03  0.00000000000E+00 0. -1.
        -24    2    1    2    0    0 -0.42184414322E+03  0.35509105188E+02 -0.38670202624E+03  0.57888871625E+03  0.79751557862E+02 0.  0.
        254    2    1    2    0    0  0.42184414322E+03 -0.35509105188E+02  0.17809408477E+02  0.98840886372E+03  0.89298461864E+03 0.  0.
         23    2    4    4    0    0  0.24329451980E+03  0.18774649874E+03  0.39358649502E+03  0.50728369543E+03  0.89361330761E+02 0.  0.
         23    2    4    4    0    0  0.17854962342E+03 -0.22325560393E+03 -0.37577708654E+03  0.48112516828E+03  0.92466080674E+02 0.  0.
          3    1    3    3  502    0 -0.37079418272E+03  0.23253650716E+02 -0.36861409943E+03  0.52335973528E+03  0.00000000000E+00 0. -1.
         -4    1    3    3    0  502 -0.51049960500E+02  0.12255454473E+02 -0.18087926808E+02  0.55528980971E+02  0.00000000000E+00 0.  1.
         13    1    5    5    0    0  0.25041354973E+03  0.17709902340E+03  0.37147989040E+03  0.48173469768E+03  0.00000000000E+00 0.  1.
        -13    1    5    5    0    0 -0.71190299307E+01  0.10647475339E+02  0.22106604622E+02  0.25548997752E+02  0.00000000000E+00 0. -1.
          4    1    6    6  503    0  0.16636908838E+02 -0.37268461184E+02 -0.13695626391E+02  0.43049914250E+02  0.00000000000E+00 0. -1.
         -4    1    6    6    0  503  0.16191271458E+03 -0.18598714275E+03 -0.36208146015E+03  0.43807525403E+03  0.00000000000E+00 0.  1.
<mgrwt>
<rscale>  0 0.15232662E+04</rscale>
<asrwt>0</asrwt>
<pdfrwt beam="1">  1        1 0.14893771E+00 0.15232662E+04</pdfrwt>
<pdfrwt beam="2">  1       -2 0.92184998E-01 0.15232662E+04</pdfrwt>
<totfact> 0.13566282E+01</totfact>
</mgrwt>
</event>
<event>
12    5  0.5264288E-008  0.1817859E+04  0.7818608E-02  0.8696859E-01
          1   -1    0    0  501    0  0.00000000000E+00  0.00000000000E+00  0.14812895239E+04  0.14812895239E+04  0.00000000000E+00 0. -1.
         -2   -1    0    0    0  501 -0.00000000000E+00 -0.00000000000E+00 -0.55772554883E+03  0.55772554883E+03  0.00000000000E+00 0.  1.
        -24    2    1    2    0    0  0.22672808088E+02  0.30575137485E+02 -0.42559126603E+03  0.43434395359E+03  0.77960560798E+02 0.  0.
        254    2    1    2    0    0 -0.22672808088E+02 -0.30575137485E+02  0.13491552411E+04  0.16046711192E+04  0.86792893765E+03 0.  0.
         23    2    4    4    0    0  0.40521715788E+03  0.30910422792E+02  0.79053717379E+03  0.89247612990E+03  0.80051358574E+02 0.  0.
         23    2    4    4    0    0 -0.42788996597E+03 -0.61485560277E+02  0.55861806735E+03  0.71219498930E+03  0.91089299622E+02 0.  0.
          1    1    3    3  502    0  0.23701213842E+02  0.27816270457E+02 -0.72027210669E+02  0.80767639042E+02  0.00000000000E+00 0. -1.
         -2    1    3    3    0  502 -0.10284057533E+01  0.27588670283E+01 -0.35356405536E+03  0.35357631455E+03  0.00000000000E+00 0.  1.
         13    1    5    5    0    0  0.29963786793E+03 -0.12850891834E+02  0.57152915078E+03  0.64544059952E+03  0.00000000000E+00 0. -1.
        -13    1    5    5    0    0  0.10557928995E+03  0.43761314626E+02  0.21900802301E+03  0.24703553038E+03  0.00000000000E+00 0.  1.
          4    1    6    6  503    0 -0.19466323088E+03  0.17626031342E+02  0.25188924954E+03  0.31883011852E+03  0.00000000000E+00 0. -1.
         -4    1    6    6    0  503 -0.23322673509E+03 -0.79111591619E+02  0.30672881781E+03  0.39336487078E+03  0.00000000000E+00 0.  1.
<mgrwt>
<rscale>  0 0.18178592E+04</rscale>
<asrwt>0</asrwt>
<pdfrwt beam="1">  1        1 0.22789069E+00 0.18178592E+04</pdfrwt>
<pdfrwt beam="2">  1       -2 0.85803931E-01 0.18178592E+04</pdfrwt>
<totfact> 0.65723566E+00</totfact>
</mgrwt>
</event>
<event>
12    5  0.5264288E-008  0.1362956E+04  0.7818608E-02  0.8981078E-01
         -2   -1    0    0    0  501 -0.00000000000E+00  0.00000000000E+00  0.48022767317E+03  0.48022767317E+03  0.00000000000E+00 0.  1.
          1   -1    0    0  501    0  0.00000000000E+00 -0.00000000000E+00 -0.96706742516E+03  0.96706742516E+03  0.00000000000E+00 0. -1.
        -24    2    1    2    0    0 -0.24434367243E+03  0.17790861040E+02 -0.43540573303E+03  0.50568796166E+03  0.78242042520E+02 0.  0.
        254    2    1    2    0    0  0.24434367243E+03 -0.17790861040E+02 -0.51434018966E+02  0.94160713667E+03  0.90772143113E+03 0.  0.
         23    2    4    4    0    0  0.39006479113E+03  0.17120944397E+03 -0.34138057819E+03  0.55481007526E+03  0.99046986097E+02 0.  0.
         23    2    4    4    0    0 -0.14572111870E+03 -0.18900030501E+03  0.28994655923E+03  0.38679706141E+03  0.92667145108E+02 0.  0.
          1    1    3    3  502    0 -0.18170399403E+03  0.23528656511E+02 -0.37999675799E+03  0.42186191486E+03  0.00000000000E+00 0. -1.
         -2    1    3    3    0  502 -0.62639678405E+02 -0.57377954714E+01 -0.55408975033E+02  0.83826046798E+02  0.00000000000E+00 0.  1.
         13    1    5    5    0    0  0.37784757196E+03  0.16708422279E+03 -0.29759371496E+03  0.50916396605E+03  0.00000000000E+00 0. -1.
        -13    1    5    5    0    0  0.12217219173E+02  0.41252211810E+01 -0.43786863230E+02  0.45646109206E+02  0.00000000000E+00 0.  1.
          4    1    6    6  503    0 -0.12469110093E+03 -0.14297698356E+03  0.27490076667E+03  0.33400706578E+03  0.00000000000E+00 0. -1.
         -4    1    6    6    0  503 -0.21030017769E+02 -0.46023321452E+02  0.15045792556E+02  0.52789995629E+02  0.00000000000E+00 0.  1.
<mgrwt>
<rscale>  0 0.13629564E+04</rscale>
<asrwt>0</asrwt>
<pdfrwt beam="1">  1        1 0.14877960E+00 0.13629564E+04</pdfrwt>
<pdfrwt beam="2">  1       -2 0.73881180E-01 0.13629564E+04</pdfrwt>
<totfact> 0.22733336E+01</totfact>
</mgrwt>
</event>
<event>
12    5  0.5264288E-008  0.1522467E+04  0.7818608E-02  0.8869649E-01
          1   -1    0    0  501    0  0.00000000000E+00  0.00000000000E+00  0.25592833042E+04  0.25592833042E+04  0.00000000000E+00 0. -1.
         -2   -1    0    0    0  501 -0.00000000000E+00 -0.00000000000E+00 -0.22642123973E+03  0.22642123973E+03  0.00000000000E+00 0.  1.
        -24    2    1    2    0    0 -0.19688584589E+03 -0.37016448425E+03  0.12258567597E+04  0.12979088883E+04  0.77826123015E+02 0.  0.
        254    2    1    2    0    0  0.19688584589E+03  0.37016448425E+03  0.11070053047E+04  0.14877956556E+04  0.90127098382E+03 0.  0.
         23    2    4    4    0    0 -0.11934247605E+03  0.46020572587E+03  0.20951761056E+03  0.52728448563E+03  0.89996460707E+02 0.  0.
         23    2    4    4    0    0  0.31622832194E+03 -0.90041241619E+02  0.89748769418E+03  0.96051116994E+03  0.94814395398E+02 0.  0.
          1    1    3    3  502    0 -0.17947291618E+03 -0.28323450414E+03  0.10222325054E+04  0.10758213639E+04  0.00000000000E+00 0. -1.
         -2    1    3    3    0  502 -0.17412929703E+02 -0.86929980106E+02  0.20362425428E+03  0.22208752440E+03  0.00000000000E+00 0.  1.
         13    1    5    5    0    0 -0.29939854047E+02  0.18076096396E+03  0.12553591340E+03  0.22210399930E+03  0.00000000000E+00 0.  1.
        -13    1    5    5    0    0 -0.89402622006E+02  0.27944476191E+03  0.83981697167E+02  0.30518048634E+03  0.00000000000E+00 0. -1.
          2    1    6    6  503    0  0.13362738624E+03 -0.19911425384E+02  0.49351498354E+03  0.51167351133E+03  0.00000000000E+00 0. -1.
         -2    1    6    6    0  503  0.18260093570E+03 -0.70129816235E+02  0.40397271064E+03  0.44883765861E+03  0.00000000000E+00 0.  1.
<mgrwt>
<rscale>  0 0.15224665E+04</rscale>
<asrwt>0</asrwt>
<pdfrwt beam="1">  1        1 0.39373587E+00 0.15224665E+04</pdfrwt>
<pdfrwt beam="2">  1       -2 0.34834039E-01 0.15224665E+04</pdfrwt>
<totfact> 0.80979771E+00</totfact>
</mgrwt>
</event>
<event>
12    5  0.5264288E-008  0.1295504E+04  0.7818608E-02  0.9033139E-01
          1   -1    0    0  501    0  0.00000000000E+00  0.00000000000E+00  0.36911675668E+04  0.36911675668E+04  0.00000000000E+00 0. -1.
         -2   -1    0    0    0  501 -0.00000000000E+00 -0.00000000000E+00 -0.11367198705E+03  0.11367198705E+03  0.00000000000E+00 0.  1.
        -24    2    1    2    0    0  0.57521186781E+02 -0.19995506729E+03  0.16384366936E+04  0.16535851691E+04  0.81107316875E+02 0.  0.
        254    2    1    2    0    0 -0.57521186781E+02  0.19995506729E+03  0.19390588862E+04  0.21512543848E+04  0.90810536168E+03 0.  0.
         23    2    4    4    0    0  0.78281995650E+01  0.39932493355E+03  0.32983407568E+03  0.52621861440E+03  0.92702909323E+02 0.  0.
         23    2    4    4    0    0 -0.65349386346E+02 -0.19936986626E+03  0.16092248105E+04  0.16250357704E+04  0.84367519068E+02 0.  0.
          1    1    3    3  502    0  0.70305764648E+02 -0.13378039154E+03  0.12776372001E+04  0.12865445615E+04  0.00000000000E+00 0. -1.
         -2    1    3    3    0  502 -0.12784577866E+02 -0.66174675744E+02  0.36079949351E+03  0.36704060764E+03  0.00000000000E+00 0.  1.
         13    1    5    5    0    0  0.41724357298E+02  0.10784218208E+03  0.10960065894E+03  0.15932094234E+03  0.00000000000E+00 0. -1.
        -13    1    5    5    0    0 -0.33896157733E+02  0.29148275147E+03  0.22023341674E+03  0.36689767206E+03  0.00000000000E+00 0.  1.
          3    1    6    6  503    0 -0.94216458191E+01  0.55263186163E+01  0.15478920868E+03  0.15517411746E+03  0.00000000000E+00 0. -1.
         -3    1    6    6    0  503 -0.55927740527E+02 -0.20489618488E+03  0.14544356019E+04  0.14698616529E+04  0.00000000000E+00 0.  1.
<mgrwt>
<rscale>  0 0.12955035E+04</rscale>
<asrwt>0</asrwt>
<pdfrwt beam="1">  1        1 0.56787184E+00 0.12955035E+04</pdfrwt>
<pdfrwt beam="2">  1       -2 0.17488001E-01 0.12955035E+04</pdfrwt>
<totfact> 0.41789074E+00</totfact>
</mgrwt>
</event>
<event>
12    5  0.5264288E-008  0.1427422E+04  0.7818608E-02  0.8934205E-01
          1   -1    0    0  501    0  0.00000000000E+00  0.00000000000E+00  0.53669941845E+03  0.53669941845E+03  0.00000000000E+00 0. -1.
         -2   -1    0    0    0  501 -0.00000000000E+00 -0.00000000000E+00 -0.94910406372E+03  0.94910406372E+03  0.00000000000E+00 0.  1.
        -24    2    1    2    0    0  0.28264497613E+03  0.25652646671E+02 -0.45654967069E+03  0.54212190823E+03  0.70087950196E+02 0.  0.
        254    2    1    2    0    0 -0.28264497613E+03 -0.25652646671E+02  0.44145025417E+02  0.94368157394E+03  0.89891038981E+03 0.  0.
         23    2    4    4    0    0 -0.45762811530E+02  0.35560629176E+03  0.24422259467E+03  0.44367338199E+03  0.93012496345E+02 0.  0.
         23    2    4    4    0    0 -0.23688216460E+03 -0.38125893844E+03 -0.20007756926E+03  0.50000819195E+03  0.92225919671E+02 0.  0.
          1    1    3    3  502    0  0.13576473129E+03  0.50959653874E+01 -0.15528080298E+03  0.20632537144E+03  0.00000000000E+00 0. -1.
         -2    1    3    3    0  502  0.14688024484E+03  0.20556681284E+02 -0.30126886771E+03  0.33579653679E+03  0.00000000000E+00 0.  1.
         13    1    5    5    0    0 -0.26675269353E+02  0.17815827131E+02  0.21049338319E+02  0.38367282092E+02  0.00000000000E+00 0. -1.
        -13    1    5    5    0    0 -0.19087542177E+02  0.33779046463E+03  0.22317325635E+03  0.40530609990E+03  0.00000000000E+00 0.  1.
          3    1    6    6  503    0 -0.11611246766E+03 -0.10662247626E+03 -0.57095587713E+02  0.16766145570E+03  0.00000000000E+00 0. -1.
         -3    1    6    6    0  503 -0.12076969694E+03 -0.27463646217E+03 -0.14298198154E+03  0.33234673625E+03  0.00000000000E+00 0.  1.
<mgrwt>
<rscale>  0 0.14274223E+04</rscale>
<asrwt>0</asrwt>
<pdfrwt beam="1">  1        1 0.82569142E-01 0.14274223E+04</pdfrwt>
<pdfrwt beam="2">  1       -2 0.14601601E+00 0.14274223E+04</pdfrwt>
<totfact> 0.10986485E+01</totfact>
</mgrwt>
</event>
<event>
12    5  0.5338904E-008  0.2697721E+04  0.7818608E-02  0.8335745E-01
          1   -1    0    0  501    0  0.00000000000E+00  0.00000000000E+00  0.24951574846E+04  0.24951574846E+04  0.00000000000E+00 0. -1.
         -2   -1    0    0    0  501 -0.00000000000E+00 -0.00000000000E+00 -0.72918226256E+03  0.72918226256E+03  0.00000000000E+00 0.  1.
        -24    2    1    2    0    0  0.11677098218E+04  0.44975679298E+02  0.10836946071E+04  0.15956832340E+04  0.79005963113E+02 0.  0.
        254    2    1    2    0    0 -0.11677098218E+04 -0.44975679298E+02  0.68228061498E+03  0.16286565132E+04  0.90633667081E+03 0.  0.
         23    2    4    4    0    0  0.11083549956E+03  0.10561233373E+03  0.14466167129E+03  0.23055769789E+03  0.93762358737E+02 0.  0.
         23    2    4    4    0    0 -0.12785453213E+04 -0.15058801303E+03  0.53761894369E+03  0.13980988153E+04  0.91056468308E+02 0.  0.
          1    1    3    3  502    0  0.10855546405E+04  0.53468360632E+02  0.98312189121E+03  0.14655430379E+04  0.00000000000E+00 0. -1.
         -2    1    3    3    0  502  0.82155181263E+02 -0.84926813341E+01  0.10057271588E+03  0.13014019603E+03  0.00000000000E+00 0.  1.
         13    1    5    5    0    0  0.92992149362E+02  0.11943602275E+03  0.10273053972E+03  0.18293733125E+03  0.00000000000E+00 0. -1.
        -13    1    5    5    0    0  0.17843350201E+02 -0.13823689017E+02  0.41931131567E+02  0.47620366640E+02  0.00000000000E+00 0.  1.
          4    1    6    6  503    0 -0.12264532234E+04 -0.12703766606E+03  0.50632418674E+03  0.13329254517E+04  0.00000000000E+00 0. -1.
         -4    1    6    6    0  503 -0.52092097914E+02 -0.23550346966E+02  0.31294756952E+02  0.65173363578E+02  0.00000000000E+00 0.  1.
<mgrwt>
<rscale>  0 0.26977209E+04</rscale>
<asrwt>0</asrwt>
<pdfrwt beam="1">  1        1 0.38387038E+00 0.26977209E+04</pdfrwt>
<pdfrwt beam="2">  1       -2 0.11218189E+00 0.26977209E+04</pdfrwt>
<totfact> 0.65661214E-01</totfact>
</mgrwt>
</event>
<event>
12    5  0.5264288E-008  0.1466686E+04  0.7818608E-02  0.8906913E-01
         -2   -1    0    0    0  501 -0.00000000000E+00  0.00000000000E+00  0.17792630089E+03  0.17792630089E+03  0.00000000000E+00 0.  1.
          1   -1    0    0  501    0  0.00000000000E+00 -0.00000000000E+00 -0.30225556798E+04  0.30225556798E+04  0.00000000000E+00 0. -1.
        -24    2    1    2    0    0 -0.14613210099E+03 -0.26831328566E+03 -0.17858966010E+04  0.18136042851E+04  0.79920105766E+02 0.  0.
        254    2    1    2    0    0  0.14613210099E+03  0.26831328566E+03 -0.10587327780E+04  0.13868776956E+04  0.84212115358E+03 0.  0.
         23    2    4    4    0    0 -0.27620893508E+03 -0.66072650692E+02 -0.61412700479E+03  0.68262396342E+03  0.90368835504E+02 0.  0.
         23    2    4    4    0    0  0.42234103607E+03  0.33438593635E+03 -0.44460577318E+03  0.70425373221E+03  0.90072862813E+02 0.  0.
          3    1    3    3  502    0 -0.11174653798E+03 -0.24987407388E+03 -0.16344762071E+04  0.16572377056E+04  0.00000000000E+00 0. -1.
         -4    1    3    3    0  502 -0.34385563007E+02 -0.18439211784E+02 -0.15142039392E+03  0.15636657945E+03  0.00000000000E+00 0.  1.
         13    1    5    5    0    0 -0.94920401739E+02 -0.24590936881E+02 -0.12194010159E+03  0.15647359272E+03  0.00000000000E+00 0. -1.
        -13    1    5    5    0    0 -0.18128853334E+03 -0.41481713811E+02 -0.49218690320E+03  0.52615037070E+03  0.00000000000E+00 0.  1.
          1    1    6    6  503    0  0.30612952599E+03  0.26687781670E+03 -0.37555966170E+03  0.55315830937E+03  0.00000000000E+00 0. -1.
         -1    1    6    6    0  503  0.11621151008E+03  0.67508119657E+02 -0.69046111478E+02  0.15109542285E+03  0.00000000000E+00 0.  1.
<mgrwt>
<rscale>  0 0.14666863E+04</rscale>
<asrwt>0</asrwt>
<pdfrwt beam="1">  1        1 0.46500847E+00 0.14666863E+04</pdfrwt>
<pdfrwt beam="2">  1       -2 0.27373283E-01 0.14666863E+04</pdfrwt>
<totfact> 0.59990113E+00</totfact>
</mgrwt>
</event>
<event>
12    5  0.5264288E-008  0.1409635E+04  0.7818608E-02  0.8946874E-01
         -2   -1    0    0    0  501 -0.00000000000E+00  0.00000000000E+00  0.42891259051E+03  0.42891259051E+03  0.00000000000E+00 0.  1.
          1   -1    0    0  501    0  0.00000000000E+00 -0.00000000000E+00 -0.11582026079E+04  0.11582026079E+04  0.00000000000E+00 0. -1.
        -24    2    1    2    0    0  0.18965011158E+03  0.17232985316E+01  0.19027092076E+03  0.28037977953E+03  0.80247510233E+02 0.  0.
        254    2    1    2    0    0 -0.18965011158E+03 -0.17232985316E+01 -0.91956093815E+03  0.13067354189E+04  0.90884267142E+03 0.  0.
         23    2    4    4    0    0  0.59994917891E+02 -0.35141257042E+03 -0.10840105822E+03  0.38432287834E+03  0.94144041613E+02 0.  0.
         23    2    4    4    0    0 -0.24964502948E+03  0.34968927188E+03 -0.81115987993E+03  0.92241254054E+03  0.90880781946E+02 0.  0.
          3    1    3    3  502    0  0.81292960240E+02 -0.33767110054E+01  0.29727863066E+02  0.86623861634E+02  0.00000000000E+00 0. -1.
         -4    1    3    3    0  502  0.10835715134E+03  0.51000095370E+01  0.16054305769E+03  0.19375591789E+03  0.00000000000E+00 0.  1.
         13    1    5    5    0    0  0.32718288512E+02 -0.10072375019E+03  0.87597254801E+01  0.10626614252E+03  0.00000000000E+00 0.  1.
        -13    1    5    5    0    0  0.27276629379E+02 -0.25068882023E+03 -0.11716078370E+03  0.27805673582E+03  0.00000000000E+00 0. -1.
          2    1    6    6  503    0 -0.89766960273E+02  0.18082135492E+03 -0.31014410509E+03  0.37005923238E+03  0.00000000000E+00 0. -1.
         -2    1    6    6    0  503 -0.15987806920E+03  0.16886791696E+03 -0.50101577484E+03  0.55235330816E+03  0.00000000000E+00 0.  1.
<mgrwt>
<rscale>  0 0.14096350E+04</rscale>
<asrwt>0</asrwt>
<pdfrwt beam="1">  1        1 0.17818502E+00 0.14096350E+04</pdfrwt>
<pdfrwt beam="2">  1       -2 0.65986553E-01 0.14096350E+04</pdfrwt>
<totfact> 0.20713881E+01</totfact>
</mgrwt>
</event>
<event>
12    5  0.5264288E-008  0.1377507E+04  0.7818608E-02  0.8970263E-01
          1   -1    0    0  501    0  0.00000000000E+00  0.00000000000E+00  0.13476185318E+04  0.13476185318E+04  0.00000000000E+00 0. -1.
         -2   -1    0    0    0  501 -0.00000000000E+00 -0.00000000000E+00 -0.35201471571E+03  0.35201471571E+03  0.00000000000E+00 0.  1.
        -24    2    1    2    0    0 -0.31466931665E+03  0.91835464900E+02  0.54467759590E+03  0.64091924196E+03  0.81567516758E+02 0.  0.
        254    2    1    2    0    0  0.31466931665E+03 -0.91835464900E+02  0.45092622018E+03  0.10587140055E+04  0.90005019749E+03 0.  0.
         23    2    4    4    0    0  0.12500266547E+03 -0.29837842404E+03 -0.16647330285E+03  0.37464583545E+03  0.89391225212E+02 0.  0.
         23    2    4    4    0    0  0.18966665117E+03  0.20654295914E+03  0.61739952304E+03  0.68406817009E+03  0.90186793596E+02 0.  0.
          1    1    3    3  502    0 -0.26094782672E+03  0.50137964801E+02  0.47002076084E+03  0.53993249523E+03  0.00000000000E+00 0. -1.
         -2    1    3    3    0  502 -0.53721489926E+02  0.41697500098E+02  0.74656835056E+02  0.10098674673E+03  0.00000000000E+00 0.  1.
         13    1    5    5    0    0  0.10216196599E+02 -0.11030410944E+03 -0.27483170866E+02  0.11413453427E+03  0.00000000000E+00 0. -1.
        -13    1    5    5    0    0  0.11478646887E+03 -0.18807431460E+03 -0.13899013199E+03  0.26051130117E+03  0.00000000000E+00 0.  1.
          2    1    6    6  503    0  0.43819971883E+02  0.99815417377E+02  0.17497128900E+03  0.20615105980E+03  0.00000000000E+00 0. -1.
         -2    1    6    6    0  503  0.14584667929E+03  0.10672754176E+03  0.44242823404E+03  0.47791711029E+03  0.00000000000E+00 0.  1.
<mgrwt>
<rscale>  0 0.13775072E+04</rscale>
<asrwt>0</asrwt>
<pdfrwt beam="1">  1        1 0.20732593E+00 0.13775072E+04</pdfrwt>
<pdfrwt beam="2">  1       -2 0.54156111E-01 0.13775072E+04</pdfrwt>
<totfact> 0.23013485E+01</totfact>
</mgrwt>
</event>
<event>
12    5  0.5264288E-008  0.1308151E+04  0.7818608E-02  0.9023126E-01
          1   -1    0    0  501    0  0.00000000000E+00  0.00000000000E+00  0.70704143716E+03  0.70704143716E+03  0.00000000000E+00 0. -1.
         -2   -1    0    0    0  501 -0.00000000000E+00 -0.00000000000E+00 -0.60507749367E+03  0.60507749367E+03  0.00000000000E+00 0.  1.
        -24    2    1    2    0    0  0.24094135934E+03  0.21314774021E+03  0.13816827207E+03  0.35913736689E+03  0.80027989404E+02 0.  0.
        254    2    1    2    0    0 -0.24094135934E+03 -0.21314774021E+03 -0.36204328591E+02  0.95298156395E+03  0.89631378993E+03 0.  0.
         23    2    4    4    0    0 -0.32736647810E+03 -0.48316559866E+03 -0.18391270477E+03  0.61825316338E+03  0.88290907468E+02 0.  0.
         23    2    4    4    0    0  0.86425118757E+02  0.27001785845E+03  0.14770837617E+03  0.33472840057E+03  0.99228991328E+02 0.  0.
          1    1    3    3  502    0  0.10589874546E+03  0.86864188723E+02  0.10192384434E+03  0.17072902981E+03  0.00000000000E+00 0. -1.
         -2    1    3    3    0  502  0.13504261387E+03  0.12628355149E+03  0.36244427730E+02  0.18840833708E+03  0.00000000000E+00 0.  1.
         13    1    5    5    0    0 -0.16610892283E+03 -0.25004636680E+03 -0.14066501330E+03  0.33151471424E+03  0.00000000000E+00 0. -1.
        -13    1    5    5    0    0 -0.16125755526E+03 -0.23311923187E+03 -0.43247691464E+02  0.28673844914E+03  0.00000000000E+00 0.  1.
          2    1    6    6  503    0  0.51286365539E+02  0.24632737261E+03  0.14883549045E+03  0.29233451559E+03  0.00000000000E+00 0. -1.
         -2    1    6    6    0  503  0.35138753218E+02  0.23690485843E+02 -0.11271142741E+01  0.42393884981E+02  0.00000000000E+00 0.  1.
<mgrwt>
<rscale>  0 0.13081512E+04</rscale>
<asrwt>0</asrwt>
<pdfrwt beam="1">  1        1 0.10877561E+00 0.13081512E+04</pdfrwt>
<pdfrwt beam="2">  1       -2 0.93088845E-01 0.13081512E+04</pdfrwt>
<totfact> 0.22550088E+01</totfact>
</mgrwt>
</event>
<event>
12    5  0.5264288E-008  0.2605116E+04  0.7818608E-02  0.8366466E-01
         -2   -1    0    0    0  501 -0.00000000000E+00  0.00000000000E+00  0.75397703527E+03  0.75397703527E+03  0.00000000000E+00 0.  1.
          1   -1    0    0  501    0  0.00000000000E+00 -0.00000000000E+00 -0.22502767363E+04  0.22502767363E+04  0.00000000000E+00 0. -1.
        -24    2    1    2    0    0  0.26421486374E+03  0.37419349267E+03 -0.17655248694E+04  0.18256452256E+04  0.77924072316E+02 0.  0.
        254    2    1    2    0    0 -0.26421486374E+03 -0.37419349267E+03  0.26922516835E+03  0.11786085460E+04  0.10520483113E+04 0.  0.
         23    2    4    4    0    0  0.31410457272E+03 -0.45047194953E+03  0.15011869072E+03  0.57608179759E+03  0.88022476124E+02 0.  0.
         23    2    4    4    0    0 -0.57831943646E+03  0.76278456858E+02  0.11910647763E+03  0.60252674841E+03  0.92630210890E+02 0.  0.
          1    1    3    3  502    0  0.24885213615E+03  0.37389795526E+03 -0.16983682889E+04  0.17567532300E+04  0.00000000000E+00 0. -1.
         -2    1    3    3    0  502  0.15362727592E+02  0.29553740602E+00 -0.67156580547E+02  0.68891995559E+02  0.00000000000E+00 0.  1.
         13    1    5    5    0    0  0.12407347792E+03 -0.15508506394E+03  0.96384613226E+02  0.22076140661E+03  0.00000000000E+00 0.  1.
        -13    1    5    5    0    0  0.19003109480E+03 -0.29538688559E+03  0.53734077491E+02  0.35532039099E+03  0.00000000000E+00 0. -1.
          2    1    6    6  503    0 -0.91152783379E+02  0.87450311919E+01  0.54273240752E+02  0.10644665401E+03  0.00000000000E+00 0. -1.
         -2    1    6    6    0  503 -0.48716665308E+03  0.67533425666E+02  0.64833236876E+02  0.49608009440E+03  0.00000000000E+00 0.  1.
<mgrwt>
<rscale>  0 0.26051157E+04</rscale>
<asrwt>0</asrwt>
<pdfrwt beam="1">  1        1 0.34619642E+00 0.26051157E+04</pdfrwt>
<pdfrwt beam="2">  1       -2 0.11599647E+00 0.26051157E+04</pdfrwt>
<totfact> 0.89924564E-01</totfact>
</mgrwt>
</event>
<event>
12    5  0.5264288E-008  0.1443564E+04  0.7818608E-02  0.8922875E-01
         -2   -1    0    0    0  501 -0.00000000000E+00  0.00000000000E+00  0.20756886865E+04  0.20756886865E+04  0.00000000000E+00 0.  1.
          1   -1    0    0  501    0  0.00000000000E+00 -0.00000000000E+00 -0.25098622726E+03  0.25098622726E+03  0.00000000000E+00 0. -1.
        -24    2    1    2    0    0 -0.12019992455E+03  0.27899866895E+03  0.47068338182E+02  0.31767531494E+03  0.80086816177E+02 0.  0.
        254    2    1    2    0    0  0.12019992455E+03 -0.27899866895E+03  0.17776341211E+04  0.20089995988E+04  0.88532934016E+03 0.  0.
         23    2    4    4    0    0  0.18987855717E+03  0.59752163042E+02  0.25780298256E+02  0.22100015035E+03  0.92478404046E+02 0.  0.
         23    2    4    4    0    0 -0.69678632621E+02 -0.33875083199E+03  0.17518538228E+04  0.17879994485E+04  0.91339877450E+02 0.  0.
          3    1    3    3  502    0 -0.95834488882E+02  0.22941780125E+03  0.69328639664E+02  0.25811477499E+03  0.00000000000E+00 0. -1.
         -4    1    3    3    0  502 -0.24365435670E+02  0.49580867695E+02 -0.22260301483E+02  0.59560539948E+02  0.00000000000E+00 0.  1.
         13    1    5    5    0    0  0.36000998467E+02  0.48664117372E+02  0.28028341754E+02  0.66707242123E+02  0.00000000000E+00 0.  1.
        -13    1    5    5    0    0  0.15387755871E+03  0.11088045671E+02 -0.22480434984E+01  0.15429290823E+03  0.00000000000E+00 0. -1.
          2    1    6    6  503    0 -0.85737239068E+02 -0.25640886796E+03  0.12225300043E+04  0.12520686854E+04  0.00000000000E+00 0. -1.
         -2    1    6    6    0  503  0.16058606447E+02 -0.82341964030E+02  0.52932381854E+03  0.53593076303E+03  0.00000000000E+00 0.  1.
<mgrwt>
<rscale>  0 0.14435640E+04</rscale>
<asrwt>0</asrwt>
<pdfrwt beam="1">  1        1 0.38613267E-01 0.14435640E+04</pdfrwt>
<pdfrwt beam="2">  1       -2 0.31933671E+00 0.14435640E+04</pdfrwt>
<totfact> 0.22812362E+00</totfact>
</mgrwt>
</event>
<event>
12    5  0.5264288E-008  0.1999316E+04  0.7818608E-02  0.8606941E-01
          1   -1    0    0  501    0  0.00000000000E+00  0.00000000000E+00  0.15347160932E+04  0.15347160932E+04  0.00000000000E+00 0. -1.
         -2   -1    0    0    0  501 -0.00000000000E+00 -0.00000000000E+00 -0.65114038734E+03  0.65114038734E+03  0.00000000000E+00 0.  1.
        -24    2    1    2    0    0  0.65447085054E+03  0.41324451119E+03  0.55021908561E+03  0.95297129764E+03  0.79436337587E+02 0.  0.
        254    2    1    2    0    0 -0.65447085054E+03 -0.41324451119E+03  0.33335662028E+03  0.12328851829E+04  0.89987561236E+03 0.  0.
         23    2    4    4    0    0 -0.44323353199E+03  0.47341897220E+02 -0.19510966475E+03  0.49496792840E+03  0.90709700441E+02 0.  0.
         23    2    4    4    0    0 -0.21123731856E+03 -0.46058640841E+03  0.52846628503E+03  0.73791725452E+03  0.92109802633E+02 0.  0.
          3    1    3    3  502    0  0.36894958604E+03  0.27906010590E+03  0.32846304383E+03  0.56735025417E+03  0.00000000000E+00 0. -1.
         -4    1    3    3    0  502  0.28552126450E+03  0.13418440529E+03  0.22175604178E+03  0.38562104347E+03  0.00000000000E+00 0.  1.
         13    1    5    5    0    0 -0.62162546229E+01  0.15259797105E+02 -0.10043199478E+02  0.19296867232E+02  0.00000000000E+00 0.  1.
        -13    1    5    5    0    0 -0.43701727736E+03  0.32082100115E+02 -0.18506646527E+03  0.47567106116E+03  0.00000000000E+00 0. -1.
          3    1    6    6  503    0 -0.15644046418E+03 -0.38640639366E+03  0.38557158095E+03  0.56784589804E+03  0.00000000000E+00 0. -1.
         -3    1    6    6    0  503 -0.54796854375E+02 -0.74180014755E+02  0.14289470408E+03  0.17007135648E+03  0.00000000000E+00 0.  1.
<mgrwt>
<rscale>  0 0.19993155E+04</rscale>
<asrwt>0</asrwt>
<pdfrwt beam="1">  1        1 0.23611017E+00 0.19993155E+04</pdfrwt>
<pdfrwt beam="2">  1       -2 0.10017544E+00 0.19993155E+04</pdfrwt>
<totfact> 0.41458560E+00</totfact>
</mgrwt>
</event>
<event>
12    5  0.5264288E-008  0.2128846E+04  0.7818608E-02  0.8548642E-01
          1   -1    0    0  501    0  0.00000000000E+00  0.00000000000E+00  0.24161141088E+04  0.24161141088E+04  0.00000000000E+00 0. -1.
         -2   -1    0    0    0  501 -0.00000000000E+00 -0.00000000000E+00 -0.46893337917E+03  0.46893337917E+03  0.00000000000E+00 0.  1.
        -24    2    1    2    0    0 -0.57219531300E+03  0.25846019411E+03 -0.17863937245E+02  0.63368854430E+03  0.83862403820E+02 0.  0.
        254    2    1    2    0    0  0.57219531300E+03 -0.25846019411E+03  0.19650446669E+04  0.22513589437E+04  0.90166923109E+03 0.  0.
         23    2    4    4    0    0 -0.23271333579E+03 -0.11776854624E+03  0.52762902099E+03  0.59538598306E+03  0.89817358516E+02 0.  0.
         23    2    4    4    0    0  0.80490864879E+03 -0.14069164787E+03  0.14374156459E+04  0.16559729606E+04  0.91709511983E+02 0.  0.
          3    1    3    3  502    0 -0.79923049443E+02  0.61364973109E+02  0.17397652154E+02  0.10225474100E+03  0.00000000000E+00 0. -1.
         -2    1    3    3    0  502 -0.49227226355E+03  0.19709522100E+03 -0.35261589399E+02  0.53143380330E+03  0.00000000000E+00 0.  1.
         13    1    5    5    0    0 -0.98213179424E+02 -0.21208002263E+02  0.28018836284E+03  0.29765941383E+03  0.00000000000E+00 0. -1.
        -13    1    5    5    0    0 -0.13450015637E+03 -0.96560543975E+02  0.24744065815E+03  0.29772656922E+03  0.00000000000E+00 0.  1.
          3    1    6    6  503    0  0.59651719960E+03 -0.14462799051E+03  0.10687955501E+04  0.12325071817E+04  0.00000000000E+00 0. -1.
         -3    1    6    6    0  503  0.20839144919E+03  0.39363426377E+01  0.36862009584E+03  0.42346577895E+03  0.00000000000E+00 0.  1.
<mgrwt>
<rscale>  0 0.21288462E+04</rscale>
<asrwt>0</asrwt>
<pdfrwt beam="1">  1        1 0.37170986E+00 0.21288462E+04</pdfrwt>
<pdfrwt beam="2">  1       -2 0.72143598E-01 0.21288462E+04</pdfrwt>
<totfact> 0.21718907E+00</totfact>
</mgrwt>
</event>
<event>
12    5  0.5264288E-008  0.1249762E+04  0.7818608E-02  0.9070381E-01
          3   -1    0    0  501    0  0.00000000000E+00  0.00000000000E+00  0.22408973314E+04  0.22408973314E+04  0.00000000000E+00 0. -1.
         -4   -1    0    0    0  501 -0.00000000000E+00 -0.00000000000E+00 -0.17424997313E+03  0.17424997313E+03  0.00000000000E+00 0.  1.
        -24    2    1    2    0    0  0.45165096686E+02  0.27260858510E+03  0.32203444605E+03  0.43209604476E+03  0.81519818594E+02 0.  0.
        254    2    1    2    0    0 -0.45165096686E+02 -0.27260858510E+03  0.17446129123E+04  0.19830512598E+04  0.90136716094E+03 0.  0.
         23    2    4    4    0    0  0.27067563488E+03  0.21276614733E+03  0.70559704149E+03  0.79009287712E+03  0.88571082991E+02 0.  0.
         23    2    4    4    0    0 -0.31584073156E+03 -0.48537473243E+03  0.10390158708E+04  0.11929583827E+04  0.90839003518E+02 0.  0.
          3    1    3    3  502    0  0.14798482270E+02  0.13450079486E+01  0.21147560811E+02  0.25846149657E+02  0.00000000000E+00 0. -1.
         -4    1    3    3    0  502  0.30366614417E+02  0.27126357715E+03  0.30088688524E+03  0.40624989510E+03  0.00000000000E+00 0.  1.
         13    1    5    5    0    0  0.10234157828E+03  0.12625227043E+03  0.26975444056E+03  0.31492998053E+03  0.00000000000E+00 0.  1.
        -13    1    5    5    0    0  0.16833405659E+03  0.86513876895E+02  0.43584260093E+03  0.47516289658E+03  0.00000000000E+00 0. -1.
          2    1    6    6  503    0 -0.39313886174E+02 -0.89128669064E+02  0.11913173158E+03  0.15388915090E+03  0.00000000000E+00 0. -1.
         -2    1    6    6    0  503 -0.27652684539E+03 -0.39624606336E+03  0.91988413919E+03  0.10390692318E+04  0.00000000000E+00 0.  1.
<mgrwt>
<rscale>  0 0.12497621E+04</rscale>
<asrwt>0</asrwt>
<pdfrwt beam="1">  1        3 0.34475342E+00 0.12497621E+04</pdfrwt>
<pdfrwt beam="2">  1       -4 0.26807690E-01 0.12497621E+04</pdfrwt>
<totfact> 0.67165842E-01</totfact>
</mgrwt>
</event>
<event>
12    5  0.5264288E-008  0.1982280E+04  0.7818608E-02  0.8614950E-01
          1   -1    0    0  501    0  0.00000000000E+00  0.00000000000E+00  0.22625634012E+04  0.22625634012E+04  0.00000000000E+00 0. -1.
         -2   -1    0    0    0  501 -0.00000000000E+00 -0.00000000000E+00 -0.43417940315E+03  0.43417940315E+03  0.00000000000E+00 0.  1.
        -24    2    1    2    0    0  0.74307842089E+03 -0.10353237346E+03  0.42299729336E+03  0.86461934683E+03  0.75864436891E+02 0.  0.
        254    2    1    2    0    0 -0.74307842089E+03  0.10353237346E+03  0.14053867047E+04  0.18321234575E+04  0.90480941747E+03 0.  0.
         23    2    4    4    0    0  0.54018113014E+02 -0.19439036415E+03  0.47278459800E+02  0.22676533749E+03  0.92096119988E+02 0.  0.
         23    2    4    4    0    0 -0.79709653390E+03  0.29792273761E+03  0.13581082449E+04  0.16053581201E+04  0.92713789585E+02 0.  0.
          1    1    3    3  502    0  0.34758484342E+03 -0.49401852338E+02  0.24146545619E+03  0.42610014424E+03  0.00000000000E+00 0. -1.
         -2    1    3    3    0  502  0.39549357746E+03 -0.54130521125E+02  0.18153183717E+03  0.43851920259E+03  0.00000000000E+00 0.  1.
         13    1    5    5    0    0 -0.77837092688E+01 -0.31197638610E+02  0.41059671015E+02  0.52151465643E+02  0.00000000000E+00 0. -1.
        -13    1    5    5    0    0  0.61801822283E+02 -0.16319272554E+03  0.62187887846E+01  0.17461387184E+03  0.00000000000E+00 0.  1.
          1    1    6    6  503    0 -0.70731409809E+02  0.10348641480E+02  0.78913375754E+02  0.10647698149E+03  0.00000000000E+00 0. -1.
         -1    1    6    6    0  503 -0.72636512409E+03  0.28757409613E+03  0.12791948692E+04  0.14988811386E+04  0.00000000000E+00 0.  1.
<mgrwt>
<rscale>  0 0.19822799E+04</rscale>
<asrwt>0</asrwt>
<pdfrwt beam="1">  1        1 0.34808667E+00 0.19822799E+04</pdfrwt>
<pdfrwt beam="2">  1       -2 0.66796832E-01 0.19822799E+04</pdfrwt>
<totfact> 0.33169326E+00</totfact>
</mgrwt>
</event>
<event>
12    5  0.5264288E-008  0.2140175E+04  0.7818608E-02  0.8543750E-01
          1   -1    0    0  501    0  0.00000000000E+00  0.00000000000E+00  0.11539125905E+04  0.11539125905E+04  0.00000000000E+00 0. -1.
         -2   -1    0    0    0  501 -0.00000000000E+00 -0.00000000000E+00 -0.99235154769E+03  0.99235154769E+03  0.00000000000E+00 0.  1.
        -24    2    1    2    0    0  0.50642305251E+03 -0.71713357342E+03  0.12294906067E+03  0.88992137195E+03  0.78094215494E+02 0.  0.
        254    2    1    2    0    0 -0.50642305251E+03  0.71713357342E+03  0.38611982098E+02  0.12563427662E+04  0.89786490675E+03 0.  0.
         23    2    4    4    0    0 -0.43963859261E+03  0.31787210450E+03 -0.37943537407E+03  0.66754325708E+03  0.85545485277E+02 0.  0.
         23    2    4    4    0    0 -0.66784459899E+02  0.39926146892E+03  0.41804735616E+03  0.58879950912E+03  0.89729511831E+02 0.  0.
          3    1    3    3  502    0  0.23758519403E+03 -0.34633754210E+03  0.97798352100E+02  0.43123188097E+03  0.00000000000E+00 0. -1.
         -2    1    3    3    0  502  0.26883785847E+03 -0.37079603133E+03  0.25150708565E+02  0.45868949098E+03  0.00000000000E+00 0.  1.
         13    1    5    5    0    0 -0.42114792971E+03  0.28511512535E+03 -0.33352065077E+03  0.60818766667E+03  0.00000000000E+00 0.  1.
        -13    1    5    5    0    0 -0.18490662902E+02  0.32756979150E+02 -0.45914723299E+02  0.59355590412E+02  0.00000000000E+00 0. -1.
          3    1    6    6  503    0  0.53409597769E+01  0.21872618522E+02  0.58117517462E+02  0.62326423997E+02  0.00000000000E+00 0. -1.
         -3    1    6    6    0  503 -0.72125419675E+02  0.37738885040E+03  0.35992983870E+03  0.52647308512E+03  0.00000000000E+00 0.  1.
<mgrwt>
<rscale>  0 0.21401747E+04</rscale>
<asrwt>0</asrwt>
<pdfrwt beam="1">  1        1 0.17752501E+00 0.21401747E+04</pdfrwt>
<pdfrwt beam="2">  1       -2 0.15266947E+00 0.21401747E+04</pdfrwt>
<totfact> 0.26553867E+00</totfact>
</mgrwt>
</event>
<event>
12    5  0.5264288E-008  0.1542763E+04  0.7818608E-02  0.8856503E-01
          1   -1    0    0  501    0  0.00000000000E+00  0.00000000000E+00  0.67557751317E+03  0.67557751317E+03  0.00000000000E+00 0. -1.
         -2   -1    0    0    0  501 -0.00000000000E+00 -0.00000000000E+00 -0.88077179262E+03  0.88077179262E+03  0.00000000000E+00 0.  1.
        -24    2    1    2    0    0 -0.22378517449E+03 -0.40352968971E+03 -0.27365266731E+03  0.54207882723E+03  0.77766688305E+02 0.  0.
        254    2    1    2    0    0  0.22378517449E+03  0.40352968971E+03  0.68458387860E+02  0.10142704786E+04  0.90063424208E+03 0.  0.
         23    2    4    4    0    0  0.54530871580E+02 -0.58113607151E+02 -0.34488630809E+03  0.36540606881E+03  0.90687498147E+02 0.  0.
         23    2    4    4    0    0  0.16925430291E+03  0.46164329686E+03  0.41334469595E+03  0.64886440975E+03  0.91704045583E+02 0.  0.
          1    1    3    3  502    0 -0.13274846312E+03 -0.19689602094E+03 -0.17839041188E+03  0.29700730054E+03  0.00000000000E+00 0. -1.
         -2    1    3    3    0  502 -0.91036711368E+02 -0.20663366877E+03 -0.95262255430E+02  0.24507152669E+03  0.00000000000E+00 0.  1.
         13    1    5    5    0    0 -0.20818430333E+02 -0.34436134871E+02 -0.14503496419E+03  0.15051377102E+03  0.00000000000E+00 0.  1.
        -13    1    5    5    0    0  0.75349301913E+02 -0.23677472280E+02 -0.19985134390E+03  0.21489229779E+03  0.00000000000E+00 0. -1.
          3    1    6    6  503    0  0.26639601978E+02  0.81770653769E+02  0.12232173604E+03  0.14952830942E+03  0.00000000000E+00 0. -1.
         -3    1    6    6    0  503  0.14261470093E+03  0.37987264309E+03  0.29102295991E+03  0.49933610032E+03  0.00000000000E+00 0.  1.
<mgrwt>
<rscale>  0 0.15427633E+04</rscale>
<asrwt>0</asrwt>
<pdfrwt beam="1">  1        1 0.10393500E+00 0.15427633E+04</pdfrwt>
<pdfrwt beam="2">  1       -2 0.13550335E+00 0.15427633E+04</pdfrwt>
<totfact> 0.94775667E+00</totfact>
</mgrwt>
</event>
<event>
12    5  0.5264288E-008  0.1596718E+04  0.7818608E-02  0.8822567E-01
         -2   -1    0    0    0  501 -0.00000000000E+00  0.00000000000E+00  0.31801750517E+03  0.31801750517E+03  0.00000000000E+00 0.  1.
          1   -1    0    0  501    0  0.00000000000E+00 -0.00000000000E+00 -0.20042213179E+04  0.20042213179E+04  0.00000000000E+00 0. -1.
        -24    2    1    2    0    0  0.10969756484E+03  0.94794405779E+02  0.17811891852E+03  0.24418745714E+03  0.82955590487E+02 0.  0.
        254    2    1    2    0    0 -0.10969756484E+03 -0.94794405779E+02 -0.18643227313E+04  0.20780513659E+04  0.90640978486E+03 0.  0.
         23    2    4    4    0    0  0.59679601296E+02 -0.18648792970E+03 -0.15779096513E+02  0.21722959733E+03  0.92737885098E+02 0.  0.
         23    2    4    4    0    0 -0.16937716613E+03  0.91693523921E+02 -0.18485436348E+04  0.18608217686E+04  0.91911687242E+02 0.  0.
          3    1    3    3  502    0  0.15277269201E+02 -0.14487430769E+02  0.12673284404E+02  0.24574229227E+02  0.00000000000E+00 0. -1.
         -2    1    3    3    0  502  0.94420295637E+02  0.10928183655E+03  0.16544563412E+03  0.21961322792E+03  0.00000000000E+00 0.  1.
         13    1    5    5    0    0 -0.16278452258E+02 -0.93840115012E+01  0.12345676892E+02  0.22482513598E+02  0.00000000000E+00 0.  1.
        -13    1    5    5    0    0  0.75958053553E+02 -0.17710391820E+03 -0.28124773405E+02  0.19474708373E+03  0.00000000000E+00 0. -1.
          3    1    6    6  503    0 -0.13553534703E+03  0.38153488747E+02 -0.14979179729E+04  0.15045211107E+04  0.00000000000E+00 0. -1.
         -3    1    6    6    0  503 -0.33841819108E+02  0.53540035174E+02 -0.35062566184E+03  0.35630065791E+03  0.00000000000E+00 0.  1.
<mgrwt>
<rscale>  0 0.15967185E+04</rscale>
<asrwt>0</asrwt>
<pdfrwt beam="1">  1        1 0.30834174E+00 0.15967185E+04</pdfrwt>
<pdfrwt beam="2">  1       -2 0.48925770E-01 0.15967185E+04</pdfrwt>
<totfact> 0.98717513E+00</totfact>
</mgrwt>
</event>
<event>
12    5  0.5264288E-008  0.1772200E+04  0.7818608E-02  0.8721225E-01
         -2   -1    0    0    0  501 -0.00000000000E+00  0.00000000000E+00  0.10438915407E+04  0.10438915407E+04  0.00000000000E+00 0.  1.
          1   -1    0    0  501    0  0.00000000000E+00 -0.00000000000E+00 -0.75215943873E+03  0.75215943873E+03  0.00000000000E+00 0. -1.
        -24    2    1    2    0    0 -0.31733857113E+03 -0.56201910329E+03  0.13914750639E+03  0.66479967540E+03  0.77635936782E+02 0.  0.
        254    2    1    2    0    0  0.31733857113E+03  0.56201910329E+03  0.15258459554E+03  0.11312513040E+04  0.91644869620E+03 0.  0.
         23    2    4    4    0    0 -0.20785358780E+03  0.31490339223E+03  0.33826213307E+03  0.51491371761E+03  0.91365231455E+02 0.  0.
         23    2    4    4    0    0  0.52519215893E+03  0.24711571107E+03 -0.18567753753E+03  0.61633758637E+03  0.92211138029E+02 0.  0.
          1    1    3    3  502    0 -0.26308218479E+03 -0.42091218916E+03  0.81548653032E+02  0.50302036713E+03  0.00000000000E+00 0. -1.
         -2    1    3    3    0  502 -0.54256386340E+02 -0.14110691414E+03  0.57598853357E+02  0.16177930827E+03  0.00000000000E+00 0.  1.
         13    1    5    5    0    0 -0.23022448965E+02  0.59728208803E+02  0.10464896026E+03  0.12267394575E+03  0.00000000000E+00 0.  1.
        -13    1    5    5    0    0 -0.18483113883E+03  0.25517518342E+03  0.23361317281E+03  0.39223977186E+03  0.00000000000E+00 0. -1.
          3    1    6    6  503    0  0.38604200214E+03  0.13529971285E+03 -0.13519571772E+03  0.43082748497E+03  0.00000000000E+00 0. -1.
         -3    1    6    6    0  503  0.13915015679E+03  0.11181599822E+03 -0.50481819810E+02  0.18551010141E+03  0.00000000000E+00 0.  1.
<mgrwt>
<rscale>  0 0.17721996E+04</rscale>
<asrwt>0</asrwt>
<pdfrwt beam="1">  1        1 0.11571684E+00 0.17721996E+04</pdfrwt>
<pdfrwt beam="2">  1       -2 0.16059870E+00 0.17721996E+04</pdfrwt>
<totfact> 0.50339032E+00</totfact>
</mgrwt>
</event>
<event>
12    5  0.5264288E-008  0.1750183E+04  0.7818608E-02  0.8733250E-01
         -2   -1    0    0    0  501 -0.00000000000E+00  0.00000000000E+00  0.39730642974E+03  0.39730642974E+03  0.00000000000E+00 0.  1.
          1   -1    0    0  501    0  0.00000000000E+00 -0.00000000000E+00 -0.19274411363E+04  0.19274411363E+04  0.00000000000E+00 0. -1.
        -24    2    1    2    0    0 -0.10203472002E+03  0.61250392984E+03 -0.78074619333E+03  0.10007294365E+04  0.79515020206E+02 0.  0.
        254    2    1    2    0    0  0.10203472002E+03 -0.61250392984E+03 -0.74938851318E+03  0.13240181295E+04  0.89770190791E+03 0.  0.
         23    2    4    4    0    0 -0.29544626862E+03 -0.60932611621E+03 -0.45083764495E+03  0.81864191581E+03  0.91395791346E+02 0.  0.
         23    2    4    4    0    0  0.39748098864E+03 -0.31778136282E+01 -0.29855086823E+03  0.50537621372E+03  0.90946476791E+02 0.  0.
          1    1    3    3  502    0 -0.10806578805E+03  0.60881380930E+03 -0.77595394798E+03  0.99218798538E+03  0.00000000000E+00 0. -1.
         -2    1    3    3    0  502  0.60310680237E+01  0.36901205375E+01 -0.47922453514E+01  0.85414510825E+01  0.00000000000E+00 0.  1.
         13    1    5    5    0    0 -0.12458798918E+03 -0.26979892345E+03 -0.25223388394E+03  0.38978912036E+03  0.00000000000E+00 0. -1.
        -13    1    5    5    0    0 -0.17085827943E+03 -0.33952719276E+03 -0.19860376101E+03  0.42885279545E+03  0.00000000000E+00 0.  1.
          3    1    6    6  503    0  0.21946109662E+03  0.84762630673E+01 -0.10938962064E+03  0.24535914303E+03  0.00000000000E+00 0. -1.
         -3    1    6    6    0  503  0.17801989202E+03 -0.11654076696E+02 -0.18916124759E+03  0.26001707069E+03  0.00000000000E+00 0.  1.
<mgrwt>
<rscale>  0 0.17501826E+04</rscale>
<asrwt>0</asrwt>
<pdfrwt beam="1">  1        1 0.29652941E+00 0.17501826E+04</pdfrwt>
<pdfrwt beam="2">  1       -2 0.61124066E-01 0.17501826E+04</pdfrwt>
<totfact> 0.69153746E+00</totfact>
</mgrwt>
</event>
<event>
12    5  0.5264288E-008  0.1524352E+04  0.7818608E-02  0.8868419E-01
         -2   -1    0    0    0  501 -0.00000000000E+00  0.00000000000E+00  0.15468819075E+03  0.15468819075E+03  0.00000000000E+00 0.  1.
          1   -1    0    0  501    0  0.00000000000E+00 -0.00000000000E+00 -0.37553750907E+04  0.37553750907E+04  0.00000000000E+00 0. -1.
        -24    2    1    2    0    0  0.33855358584E+03 -0.13312278303E+03 -0.20325962609E+04  0.20664438552E+04  0.80015252990E+02 0.  0.
        254    2    1    2    0    0 -0.33855358584E+03  0.13312278303E+03 -0.15680906390E+04  0.18436194263E+04  0.89871248518E+03 0.  0.
         23    2    4    4    0    0 -0.25855427600E+02 -0.27517210960E+03 -0.13876070918E+03  0.32205287411E+03  0.89862819180E+02 0.  0.
         23    2    4    4    0    0 -0.31269815824E+03  0.40829489263E+03 -0.14293299298E+04  0.15215665522E+04  0.87726090212E+02 0.  0.
          3    1    3    3  502    0  0.33197604724E+03 -0.11202624864E+03 -0.19163495627E+04  0.19481154028E+04  0.00000000000E+00 0. -1.
         -4    1    3    3    0  502  0.65775386008E+01 -0.21096534398E+02 -0.11624669826E+03  0.11832845234E+03  0.00000000000E+00 0.  1.
         13    1    5    5    0    0  0.85794705540E+01 -0.21004007379E+03 -0.70793143089E+02  0.22181548418E+03  0.00000000000E+00 0.  1.
        -13    1    5    5    0    0 -0.34434898154E+02 -0.65132035806E+02 -0.67967566087E+02  0.10023738993E+03  0.00000000000E+00 0. -1.
          2    1    6    6  503    0 -0.23771881963E+02  0.29429520132E+02 -0.19154064047E+03  0.19524091779E+03  0.00000000000E+00 0. -1.
         -2    1    6    6    0  503 -0.28892627628E+03  0.37886537250E+03 -0.12377892894E+04  0.13263256344E+04  0.00000000000E+00 0.  1.
<mgrwt>
<rscale>  0 0.15243519E+04</rscale>
<asrwt>0</asrwt>
<pdfrwt beam="1">  1        1 0.57774997E+00 0.15243519E+04</pdfrwt>
<pdfrwt beam="2">  1       -2 0.23798185E-01 0.15243519E+04</pdfrwt>
<totfact> 0.20954536E+00</totfact>
</mgrwt>
</event>
<event>
12    5  0.5264288E-008  0.1961729E+04  0.7818608E-02  0.8624726E-01
          1   -1    0    0  501    0  0.00000000000E+00  0.00000000000E+00  0.61663586937E+03  0.61663586937E+03  0.00000000000E+00 0. -1.
         -2   -1    0    0    0  501 -0.00000000000E+00 -0.00000000000E+00 -0.15602318479E+04  0.15602318479E+04  0.00000000000E+00 0.  1.
        -24    2    1    2    0    0 -0.41967435693E+03  0.10041433489E+02  0.34695326558E+03  0.55020224539E+03  0.78221135774E+02 0.  0.
        254    2    1    2    0    0  0.41967435693E+03 -0.10041433489E+02 -0.12905492441E+04  0.16266654719E+04  0.89682540648E+03 0.  0.
         23    2    4    4    0    0 -0.24209512379E+03 -0.16070212927E+03 -0.43884296025E+03  0.53415746847E+03  0.91136348621E+02 0.  0.
         23    2    4    4    0    0  0.66176948072E+03  0.15066069578E+03 -0.85170628387E+03  0.10925080034E+04  0.86790856108E+02 0.  0.
          3    1    3    3  502    0 -0.29974330957E+03 -0.27672805048E+02  0.25373719851E+03  0.39369328376E+03  0.00000000000E+00 0. -1.
         -4    1    3    3    0  502 -0.11993104736E+03  0.37714238537E+02  0.93216067071E+02  0.15650896163E+03  0.00000000000E+00 0.  1.
         13    1    5    5    0    0 -0.19818980779E+03 -0.15414740896E+03 -0.41140764682E+03  0.48197186169E+03  0.00000000000E+00 0. -1.
        -13    1    5    5    0    0 -0.43905315998E+02 -0.65547203163E+01 -0.27435313432E+02  0.52185606774E+02  0.00000000000E+00 0.  1.
          4    1    6    6  503    0  0.29700456685E+03  0.10511818158E+03 -0.35630083008E+03  0.47561731081E+03  0.00000000000E+00 0. -1.
         -4    1    6    6    0  503  0.36476491387E+03  0.45542514202E+02 -0.49540545379E+03  0.61689069262E+03  0.00000000000E+00 0.  1.
<mgrwt>
<rscale>  0 0.19617287E+04</rscale>
<asrwt>0</asrwt>
<pdfrwt beam="1">  1        1 0.94867059E-01 0.19617287E+04</pdfrwt>
<pdfrwt beam="2">  1       -2 0.24003566E+00 0.19617287E+04</pdfrwt>
<totfact> 0.19853290E+00</totfact>
</mgrwt>
</event>
<event>
12    5  0.5264288E-008  0.2244049E+04  0.7818608E-02  0.8500314E-01
         -2   -1    0    0    0  501 -0.00000000000E+00  0.00000000000E+00  0.52611679900E+03  0.52611679900E+03  0.00000000000E+00 0.  1.
          1   -1    0    0  501    0  0.00000000000E+00 -0.00000000000E+00 -0.23928894816E+04  0.23928894816E+04  0.00000000000E+00 0. -1.
        -24    2    1    2    0    0  0.46380492922E+03  0.21263403125E+03  0.24717398006E+03  0.57235611376E+03  0.78538531435E+02 0.  0.
        254    2    1    2    0    0 -0.46380492922E+03 -0.21263403125E+03 -0.21139466626E+04  0.23466501668E+04  0.88185501605E+03 0.  0.
         23    2    4    4    0    0 -0.21214197623E+03 -0.15979136730E+03 -0.78845457140E+02  0.29326169649E+03  0.96168172342E+02 0.  0.
         23    2    4    4    0    0 -0.25166295299E+03 -0.52842663948E+02 -0.20351012055E+04  0.20533884703E+04  0.92955389382E+02 0.  0.
          1    1    3    3  502    0  0.15432928887E+03  0.45607185965E+02  0.46746180471E+02  0.16757908641E+03  0.00000000000E+00 0. -1.
         -2    1    3    3    0  502  0.30947564036E+03  0.16702684529E+03  0.20042779959E+03  0.40477702735E+03  0.00000000000E+00 0.  1.
         13    1    5    5    0    0 -0.56934918799E+02 -0.59110816938E+02 -0.70297625703E+02  0.10806215729E+03  0.00000000000E+00 0. -1.
        -13    1    5    5    0    0 -0.15520705743E+03 -0.10068055036E+03 -0.85478314371E+01  0.18519953920E+03  0.00000000000E+00 0.  1.
          4    1    6    6  503    0 -0.82297605525E+02  0.14375333867E+02 -0.43538071344E+03  0.44332370987E+03  0.00000000000E+00 0. -1.
         -4    1    6    6    0  503 -0.16936534747E+03 -0.67217997815E+02 -0.15997204921E+04  0.16100647605E+04  0.00000000000E+00 0.  1.
<mgrwt>
<rscale>  0 0.22440493E+04</rscale>
<asrwt>0</asrwt>
<pdfrwt beam="1">  1        1 0.36813684E+00 0.22440493E+04</pdfrwt>
<pdfrwt beam="2">  1       -2 0.80941046E-01 0.22440493E+04</pdfrwt>
<totfact> 0.17263879E+00</totfact>
</mgrwt>
</event>
<event>
12    5  0.5264288E-008  0.1337910E+04  0.7818608E-02  0.9000031E-01
         -2   -1    0    0    0  501 -0.00000000000E+00  0.00000000000E+00  0.34823827881E+03  0.34823827881E+03  0.00000000000E+00 0.  1.
          1   -1    0    0  501    0  0.00000000000E+00 -0.00000000000E+00 -0.12850426571E+04  0.12850426571E+04  0.00000000000E+00 0. -1.
        -24    2    1    2    0    0  0.20439947547E+02 -0.30076526048E+03 -0.51045528786E+03  0.59813536268E+03  0.79522184400E+02 0.  0.
        254    2    1    2    0    0 -0.20439947547E+02  0.30076526048E+03 -0.42634909041E+03  0.10351455732E+04  0.89379823087E+03 0.  0.
         23    2    4    4    0    0 -0.22606407584E+03  0.15056388989E+03  0.20208907112E+03  0.35103407658E+03  0.92792666343E+02 0.  0.
         23    2    4    4    0    0  0.20562412829E+03  0.15020137059E+03 -0.62843816154E+03  0.68411149664E+03  0.90731929882E+02 0.  0.
          3    1    3    3  502    0  0.28606184490E+02 -0.29216837159E+03 -0.50687412302E+03  0.58574913378E+03  0.00000000000E+00 0. -1.
         -4    1    3    3    0  502 -0.81662369423E+01 -0.85968888981E+01 -0.35811648418E+01  0.12386228891E+02  0.00000000000E+00 0.  1.
         13    1    5    5    0    0 -0.19623968078E+03  0.14134291293E+03  0.20832778679E+03  0.31919946444E+03  0.00000000000E+00 0.  1.
        -13    1    5    5    0    0 -0.29824395064E+02  0.92209769613E+01 -0.62387156687E+01  0.31834612142E+02  0.00000000000E+00 0. -1.
          4    1    6    6  503    0  0.67583452912E+01  0.32071310499E+02 -0.13837332942E+03  0.14220204809E+03  0.00000000000E+00 0. -1.
         -4    1    6    6    0  503  0.19886578300E+03  0.11813006009E+03 -0.49006483212E+03  0.54190944855E+03  0.00000000000E+00 0.  1.
<mgrwt>
<rscale>  0 0.13379104E+04</rscale>
<asrwt>0</asrwt>
<pdfrwt beam="1">  1        1 0.19769887E+00 0.13379104E+04</pdfrwt>
<pdfrwt beam="2">  1       -2 0.53575119E-01 0.13379104E+04</pdfrwt>
<totfact> 0.26158155E+01</totfact>
</mgrwt>
</event>
<event>
12    5  0.5264288E-008  0.1316987E+04  0.7818608E-02  0.9016201E-01
          1   -1    0    0  501    0  0.00000000000E+00  0.00000000000E+00  0.94359291513E+03  0.94359291513E+03  0.00000000000E+00 0. -1.
         -2   -1    0    0    0  501 -0.00000000000E+00 -0.00000000000E+00 -0.45953495747E+03  0.45953495747E+03  0.00000000000E+00 0.  1.
        -24    2    1    2    0    0 -0.20841279467E+03  0.22329561115E+02 -0.15893888574E+03  0.27503349564E+03  0.80295404868E+02 0.  0.
        254    2    1    2    0    0  0.20841279467E+03 -0.22329561115E+02  0.64299684340E+03  0.11280943770E+04  0.90289394751E+03 0.  0.
         23    2    4    4    0    0  0.53700215692E+03  0.51593333491E+02  0.52977507016E+03  0.76225884389E+03  0.96662979139E+02 0.  0.
         23    2    4    4    0    0 -0.32858936225E+03 -0.73922894606E+02  0.11322177324E+03  0.36583553307E+03  0.87068386879E+02 0.  0.
          3    1    3    3  502    0 -0.17155488903E+02  0.91732154915E+01 -0.51989100226E+02  0.55509685860E+02  0.00000000000E+00 0. -1.
         -4    1    3    3    0  502 -0.19125730577E+03  0.13156345624E+02 -0.10694978551E+03  0.21952380978E+03  0.00000000000E+00 0.  1.
         13    1    5    5    0    0  0.43658797167E+03  0.71861273760E+01  0.39885600379E+03  0.59139395431E+03  0.00000000000E+00 0. -1.
        -13    1    5    5    0    0  0.10041418525E+03  0.44407206115E+02  0.13091906637E+03  0.17086488959E+03  0.00000000000E+00 0.  1.
          1    1    6    6  503    0 -0.31819138400E+03 -0.60843303657E+02  0.12294736751E+03  0.34650212067E+03  0.00000000000E+00 0. -1.
         -1    1    6    6    0  503 -0.10397978250E+02 -0.13079590949E+02 -0.97255942760E+01  0.19333412402E+02  0.00000000000E+00 0.  1.
<mgrwt>
<rscale>  0 0.13169874E+04</rscale>
<asrwt>0</asrwt>
<pdfrwt beam="1">  1        1 0.14516814E+00 0.13169874E+04</pdfrwt>
<pdfrwt beam="2">  1       -2 0.70697686E-01 0.13169874E+04</pdfrwt>
<totfact> 0.26243855E+01</totfact>
</mgrwt>
</event>
<event>
12    5  0.5264288E-008  0.1179404E+04  0.7818608E-02  0.9131078E-01
          1   -1    0    0  501    0  0.00000000000E+00  0.00000000000E+00  0.27087463379E+04  0.27087463379E+04  0.00000000000E+00 0. -1.
         -2   -1    0    0    0  501 -0.00000000000E+00 -0.00000000000E+00 -0.12837981237E+03  0.12837981237E+03  0.00000000000E+00 0.  1.
        -24    2    1    2    0    0  0.11612583010E+03 -0.17169445901E+03  0.81876976985E+03  0.84835898791E+03  0.79779951627E+02 0.  0.
        254    2    1    2    0    0 -0.11612583010E+03  0.17169445901E+03  0.17615967556E+04  0.19887671623E+04  0.89944844254E+03 0.  0.
         23    2    4    4    0    0  0.51268134806E+02  0.46588259222E+03  0.14267702825E+04  0.15044414633E+04  0.89418488069E+02 0.  0.
         23    2    4    4    0    0 -0.16739396490E+03 -0.29418813321E+03  0.33482647311E+03  0.48432569903E+03  0.88855041699E+02 0.  0.
          1    1    3    3  502    0  0.50732970387E+02 -0.14072528971E+03  0.56650489854E+03  0.58592255591E+03  0.00000000000E+00 0. -1.
         -2    1    3    3    0  502  0.65392859708E+02 -0.30969169301E+02  0.25226487130E+03  0.26243643200E+03  0.00000000000E+00 0.  1.
         13    1    5    5    0    0  0.36194921247E+01  0.28432928913E+03  0.74899127827E+03  0.80115178356E+03  0.00000000000E+00 0.  1.
        -13    1    5    5    0    0  0.47648642682E+02  0.18155330309E+03  0.67777900425E+03  0.70328967973E+03  0.00000000000E+00 0. -1.
          3    1    6    6  503    0 -0.98387993628E+01 -0.58235158884E+02  0.24756801091E+02  0.64039323103E+02  0.00000000000E+00 0. -1.
         -3    1    6    6    0  503 -0.15755516554E+03 -0.23595297432E+03  0.31006967202E+03  0.42028637593E+03  0.00000000000E+00 0.  1.
<mgrwt>
<rscale>  0 0.11794038E+04</rscale>
<asrwt>0</asrwt>
<pdfrwt beam="1">  1        1 0.41673016E+00 0.11794038E+04</pdfrwt>
<pdfrwt beam="2">  1       -2 0.19750742E-01 0.11794038E+04</pdfrwt>
<totfact> 0.18572573E+01</totfact>
</mgrwt>
</event>
<event>
12    5  0.5264288E-008  0.1363532E+04  0.7818608E-02  0.8980647E-01
          3   -1    0    0  501    0  0.00000000000E+00  0.00000000000E+00  0.11556642036E+04  0.11556642036E+04  0.00000000000E+00 0. -1.
         -4   -1    0    0    0  501 -0.00000000000E+00 -0.00000000000E+00 -0.40219705746E+03  0.40219705746E+03  0.00000000000E+00 0.  1.
        -24    2    1    2    0    0  0.10219633726E+02 -0.36555890053E+03  0.27153125601E+03  0.46248297994E+03  0.80146946719E+02 0.  0.
        254    2    1    2    0    0 -0.10219633726E+02  0.36555890053E+03  0.48193589014E+03  0.10953782811E+04  0.91315586068E+03 0.  0.
         23    2    4    4    0    0  0.11124172414E+03  0.25403898178E+03  0.72870723852E+03  0.78504860952E+03  0.91523518199E+02 0.  0.
         23    2    4    4    0    0 -0.12146135787E+03  0.11151991876E+03 -0.24677134838E+03  0.31032967161E+03  0.90657889723E+02 0.  0.
          1    1    3    3  502    0 -0.25114360219E+02 -0.22591274704E+03  0.19433804847E+03  0.29905614431E+03  0.00000000000E+00 0. -1.
         -2    1    3    3    0  502  0.35333993945E+02 -0.13964615349E+03  0.77193207535E+02  0.16342683563E+03  0.00000000000E+00 0.  1.
         13    1    5    5    0    0  0.35288045378E+02  0.15687351147E+03  0.31980122823E+03  0.35794883758E+03  0.00000000000E+00 0. -1.
        -13    1    5    5    0    0  0.75953678762E+02  0.97165470300E+02  0.40890601029E+03  0.42709977194E+03  0.00000000000E+00 0.  1.
          3    1    6    6  503    0  0.82491364498E+00 -0.12797346431E+02 -0.26047363579E+02  0.29033045097E+02  0.00000000000E+00 0. -1.
         -3    1    6    6    0  503 -0.12228627151E+03  0.12431726519E+03 -0.22072398480E+03  0.28129662652E+03  0.00000000000E+00 0.  1.
<mgrwt>
<rscale>  0 0.13635318E+04</rscale>
<asrwt>0</asrwt>
<pdfrwt beam="1">  1        3 0.17779449E+00 0.13635318E+04</pdfrwt>
<pdfrwt beam="2">  1       -4 0.61876471E-01 0.13635318E+04</pdfrwt>
<totfact> 0.11271249E+00</totfact>
</mgrwt>
</event>
<event>
12    5  0.5264288E-008  0.3560473E+04  0.7818608E-02  0.8099606E-01
         -2   -1    0    0    0  501 -0.00000000000E+00  0.00000000000E+00  0.13431793223E+04  0.13431793223E+04  0.00000000000E+00 0.  1.
          1   -1    0    0  501    0  0.00000000000E+00 -0.00000000000E+00 -0.23595073788E+04  0.23595073788E+04  0.00000000000E+00 0. -1.
        -24    2    1    2    0    0  0.54116328577E+03  0.13337072611E+04 -0.13382291412E+04  0.19673886893E+04  0.90156865212E+02 0.  0.
        254    2    1    2    0    0 -0.54116328577E+03 -0.13337072611E+04  0.32190108471E+03  0.17352980119E+04  0.91433370356E+03 0.  0.
         23    2    4    4    0    0  0.22844510752E+03 -0.14153758407E+03  0.69217163958E+02  0.29102316380E+03  0.87655069602E+02 0.  0.
         23    2    4    4    0    0 -0.76960839329E+03 -0.11921696770E+04  0.25268392075E+03  0.14442748481E+04  0.92277056211E+02 0.  0.
          1    1    3    3  502    0  0.41695947503E+03  0.11032364609E+04 -0.11218160416E+04  0.16277153080E+04  0.00000000000E+00 0. -1.
         -2    1    3    3    0  502  0.12420381073E+03  0.23047080016E+03 -0.21641309952E+03  0.33967338131E+03  0.00000000000E+00 0.  1.
         13    1    5    5    0    0  0.22081784505E+03 -0.13397716918E+03  0.41886152324E+02  0.26165789174E+03  0.00000000000E+00 0. -1.
        -13    1    5    5    0    0  0.76272624709E+01 -0.75604148880E+01  0.27331011634E+02  0.29365272057E+02  0.00000000000E+00 0.  1.
          4    1    6    6  503    0 -0.68553377173E+03 -0.10075915326E+04  0.22980572481E+03  0.12401644729E+04  0.00000000000E+00 0. -1.
         -4    1    6    6    0  503 -0.84074621556E+02 -0.18457814442E+03  0.22878195944E+02  0.20411037513E+03  0.00000000000E+00 0.  1.
<mgrwt>
<rscale>  0 0.35604727E+04</rscale>
<asrwt>0</asrwt>
<pdfrwt beam="1">  1        1 0.36300113E+00 0.35604727E+04</pdfrwt>
<pdfrwt beam="2">  1       -2 0.20664297E+00 0.35604727E+04</pdfrwt>
<totfact> 0.14561228E-01</totfact>
</mgrwt>
</event>
<event>
12    5  0.5264288E-008  0.2476723E+04  0.7818608E-02  0.8411325E-01
          1   -1    0    0  501    0  0.00000000000E+00  0.00000000000E+00  0.10212638644E+04  0.10212638644E+04  0.00000000000E+00 0. -1.
         -2   -1    0    0    0  501 -0.00000000000E+00 -0.00000000000E+00 -0.15016090632E+04  0.15016090632E+04  0.00000000000E+00 0.  1.
        -24    2    1    2    0    0  0.16449652199E+03  0.88214385136E+03  0.39095874301E+03  0.98211326499E+03  0.80379389662E+02 0.  0.
        254    2    1    2    0    0 -0.16449652199E+03 -0.88214385136E+03 -0.87130394180E+03  0.15407596627E+04  0.89974046195E+03 0.  0.
         23    2    4    4    0    0 -0.28562462070E+03 -0.34682427715E+03  0.53516289746E+02  0.46135038578E+03  0.90064876755E+02 0.  0.
         23    2    4    4    0    0  0.12112809870E+03 -0.53531957422E+03 -0.92482023155E+03  0.10794092769E+04  0.92697699673E+02 0.  0.
          3    1    3    3  502    0  0.15905310618E+03  0.70876430163E+03  0.33433585548E+03  0.79964066311E+03  0.00000000000E+00 0. -1.
         -4    1    3    3    0  502  0.54434158159E+01  0.17337954973E+03  0.56622887533E+02  0.18247260187E+03  0.00000000000E+00 0.  1.
         13    1    5    5    0    0 -0.65278144571E+02 -0.39611684579E+02 -0.13071983744E+02  0.77467402647E+02  0.00000000000E+00 0.  1.
        -13    1    5    5    0    0 -0.22034647612E+03 -0.30721259257E+03  0.66588273490E+02  0.38388298313E+03  0.00000000000E+00 0. -1.
          3    1    6    6  503    0  0.62674378818E+02 -0.40809116800E+03 -0.74197385872E+03  0.84911229304E+03  0.00000000000E+00 0. -1.
         -3    1    6    6    0  503  0.58453719885E+02 -0.12722840622E+03 -0.18284637282E+03  0.23029698385E+03  0.00000000000E+00 0.  1.
<mgrwt>
<rscale>  0 0.24767229E+04</rscale>
<asrwt>0</asrwt>
<pdfrwt beam="1">  1        1 0.15711752E+00 0.24767229E+04</pdfrwt>
<pdfrwt beam="2">  1       -2 0.23101678E+00 0.24767229E+04</pdfrwt>
<totfact> 0.95800450E-01</totfact>
</mgrwt>
</event>
<event>
12    5  0.5264288E-008  0.2140810E+04  0.7818608E-02  0.8543476E-01
          1   -1    0    0  501    0  0.00000000000E+00  0.00000000000E+00  0.15057299564E+04  0.15057299564E+04  0.00000000000E+00 0. -1.
         -2   -1    0    0    0  501 -0.00000000000E+00 -0.00000000000E+00 -0.76093785254E+03  0.76093785254E+03  0.00000000000E+00 0.  1.
        -24    2    1    2    0    0  0.38637307376E+03  0.60866572297E+03 -0.22092488279E+03  0.75830559261E+03  0.80383166750E+02 0.  0.
        254    2    1    2    0    0 -0.38637307376E+03 -0.60866572297E+03  0.96571698662E+03  0.15083622163E+04  0.90707726401E+03 0.  0.
         23    2    4    4    0    0  0.28792324047E+03 -0.12952171880E+03  0.30352257931E+03  0.44505538754E+03  0.79200213244E+02 0.  0.
         23    2    4    4    0    0 -0.67429631423E+03 -0.47914400417E+03  0.66219440731E+03  0.10633068288E+04  0.88687557878E+02 0.  0.
          3    1    3    3  502    0  0.98142325102E+02  0.22352379025E+03 -0.65231482696E+02  0.25268547073E+03  0.00000000000E+00 0. -1.
         -4    1    3    3    0  502  0.28823074866E+03  0.38514193272E+03 -0.15569340009E+03  0.50562012187E+03  0.00000000000E+00 0.  1.
         13    1    5    5    0    0  0.28442207186E+03 -0.12831777665E+03  0.27386234431E+03  0.41516496769E+03  0.00000000000E+00 0.  1.
        -13    1    5    5    0    0  0.35011686141E+01 -0.12039421511E+01  0.29660235001E+02  0.29890419848E+02  0.00000000000E+00 0. -1.
          3    1    6    6  503    0 -0.28560695428E+03 -0.18377966810E+03  0.22020375698E+03  0.40476659117E+03  0.00000000000E+00 0. -1.
         -3    1    6    6    0  503 -0.38868935996E+03 -0.29536433607E+03  0.44199065033E+03  0.65854023760E+03  0.00000000000E+00 0.  1.
<mgrwt>
<rscale>  0 0.21408101E+04</rscale>
<asrwt>0</asrwt>
<pdfrwt beam="1">  1        1 0.23165076E+00 0.21408101E+04</pdfrwt>
<pdfrwt beam="2">  1       -2 0.11706736E+00 0.21408101E+04</pdfrwt>
<totfact> 0.29436861E+00</totfact>
</mgrwt>
</event>
<event>
12    5  0.5264288E-008  0.1504519E+04  0.7818608E-02  0.8881454E-01
         -2   -1    0    0    0  501 -0.00000000000E+00  0.00000000000E+00  0.77622476106E+03  0.77622476106E+03  0.00000000000E+00 0.  1.
          1   -1    0    0  501    0  0.00000000000E+00 -0.00000000000E+00 -0.72903396940E+03  0.72903396940E+03  0.00000000000E+00 0. -1.
        -24    2    1    2    0    0 -0.38088090768E+03 -0.97351127477E+02  0.29079311488E+03  0.49532489656E+03  0.78984869605E+02 0.  0.
        254    2    1    2    0    0  0.38088090768E+03  0.97351127477E+02 -0.24360232322E+03  0.10099338339E+04  0.89781777055E+03 0.  0.
         23    2    4    4    0    0  0.55610552161E+03  0.24980846171E+03 -0.38358098169E+03  0.72585005216E+03  0.89812638246E+02 0.  0.
         23    2    4    4    0    0 -0.17522461393E+03 -0.15245733424E+03  0.13997865847E+03  0.28408378174E+03  0.84632535903E+02 0.  0.
          1    1    3    3  502    0 -0.65969283384E+02 -0.48563341866E+02  0.68519465639E+02  0.10679541982E+03  0.00000000000E+00 0. -1.
         -2    1    3    3    0  502 -0.31491162430E+03 -0.48787785611E+02  0.22227364924E+03  0.38852947673E+03  0.00000000000E+00 0.  1.
         13    1    5    5    0    0  0.16658478955E+03  0.38572905340E+02 -0.80434096473E+02  0.18896561859E+03  0.00000000000E+00 0. -1.
        -13    1    5    5    0    0  0.38952073207E+03  0.21123555637E+03 -0.30314688522E+03  0.53688443356E+03  0.00000000000E+00 0.  1.
          2    1    6    6  503    0 -0.16758719790E+03 -0.13365038153E+03  0.14982298219E+03  0.26152403211E+03  0.00000000000E+00 0. -1.
         -2    1    6    6    0  503 -0.76374160318E+01 -0.18806952711E+02 -0.98443237177E+01  0.22559749631E+02  0.00000000000E+00 0.  1.
<mgrwt>
<rscale>  0 0.15045188E+04</rscale>
<asrwt>0</asrwt>
<pdfrwt beam="1">  1        1 0.11215907E+00 0.15045188E+04</pdfrwt>
<pdfrwt beam="2">  1       -2 0.11941919E+00 0.15045188E+04</pdfrwt>
<totfact> 0.11647442E+01</totfact>
</mgrwt>
</event>
<event>
12    5  0.5264288E-008  0.1699222E+04  0.7818608E-02  0.8761808E-01
         -4   -1    0    0    0  501 -0.00000000000E+00  0.00000000000E+00  0.49542444330E+03  0.49542444330E+03  0.00000000000E+00 0.  1.
          3   -1    0    0  501    0  0.00000000000E+00 -0.00000000000E+00 -0.14570108465E+04  0.14570108465E+04  0.00000000000E+00 0. -1.
        -24    2    1    2    0    0 -0.28810693828E+03  0.18695402674E+03 -0.97689067289E+03  0.10384296442E+04  0.77867343784E+02 0.  0.
        254    2    1    2    0    0  0.28810693828E+03 -0.18695402674E+03  0.15304269672E+02  0.91400564559E+03  0.84688528356E+03 0.  0.
         23    2    4    4    0    0  0.55654110123E+03 -0.65356315869E+02  0.13266762126E+03  0.58301878017E+03  0.91108478834E+02 0.  0.
         23    2    4    4    0    0 -0.26843416295E+03 -0.12159771087E+03 -0.11736335159E+03  0.33098686542E+03  0.94526428355E+02 0.  0.
          1    1    3    3  502    0 -0.20274123802E+03  0.14060891985E+03 -0.79250028156E+03  0.83001902039E+03  0.00000000000E+00 0. -1.
         -2    1    3    3    0  502 -0.85365700254E+02  0.46345106888E+02 -0.18439039133E+03  0.20841062383E+03  0.00000000000E+00 0.  1.
         13    1    5    5    0    0  0.55773828578E+03 -0.61810263748E+02  0.13665228880E+03  0.57755203416E+03  0.00000000000E+00 0. -1.
        -13    1    5    5    0    0 -0.11971845544E+01 -0.35460521213E+01 -0.39846675351E+01  0.54667460037E+01  0.00000000000E+00 0.  1.
          2    1    6    6  503    0 -0.24050823208E+03 -0.11606667326E+03 -0.13318316116E+03  0.29841822458E+03  0.00000000000E+00 0. -1.
         -2    1    6    6    0  503 -0.27925930867E+02 -0.55310376101E+01  0.15819809569E+02  0.32568640848E+02  0.00000000000E+00 0.  1.
<mgrwt>
<rscale>  0 0.16992219E+04</rscale>
<asrwt>0</asrwt>
<pdfrwt beam="1">  1        3 0.22415552E+00 0.16992219E+04</pdfrwt>
<pdfrwt beam="2">  1       -4 0.76219145E-01 0.16992219E+04</pdfrwt>
<totfact> 0.35377593E-01</totfact>
</mgrwt>
</event>
<event>
12    5  0.5264288E-008  0.1541719E+04  0.7818608E-02  0.8857175E-01
          1   -1    0    0  501    0  0.00000000000E+00  0.00000000000E+00  0.39681624951E+04  0.39681624951E+04  0.00000000000E+00 0. -1.
         -2   -1    0    0    0  501 -0.00000000000E+00 -0.00000000000E+00 -0.14974794583E+03  0.14974794583E+03  0.00000000000E+00 0.  1.
        -24    2    1    2    0    0  0.45256713093E+01  0.36217152920E+03  0.21699162881E+04  0.22014117803E+04  0.80550796213E+02 0.  0.
        254    2    1    2    0    0 -0.45256713093E+01 -0.36217152920E+03  0.16484982612E+04  0.19164986607E+04  0.90787218312E+03 0.  0.
         23    2    4    4    0    0  0.93763637082E+02 -0.63985996579E+03  0.93764208956E+03  0.11426223853E+04  0.90558444457E+02 0.  0.
         23    2    4    4    0    0 -0.98289308391E+02  0.27768843659E+03  0.71085617164E+03  0.77387627534E+03  0.82439898215E+02 0.  0.
          3    1    3    3  502    0 -0.17312398020E+02  0.28581694492E+03  0.18351371656E+04  0.18573420421E+04  0.00000000000E+00 0. -1.
         -4    1    3    3    0  502  0.21838069329E+02  0.76354584288E+02  0.33477912257E+03  0.34406973817E+03  0.00000000000E+00 0.  1.
         13    1    5    5    0    0  0.82754995218E+02 -0.44444346878E+03  0.71755155832E+03  0.84809116551E+03  0.00000000000E+00 0. -1.
        -13    1    5    5    0    0  0.11008641865E+02 -0.19541649701E+03  0.22009053124E+03  0.29453121981E+03  0.00000000000E+00 0.  1.
          2    1    6    6  503    0 -0.11286599761E+03  0.24556246891E+03  0.61626744000E+03  0.67292289095E+03  0.00000000000E+00 0. -1.
         -2    1    6    6    0  503  0.14576689216E+02  0.32125967676E+02  0.94588731640E+02  0.10095338439E+03  0.00000000000E+00 0.  1.
<mgrwt>
<rscale>  0 0.15417188E+04</rscale>
<asrwt>0</asrwt>
<pdfrwt beam="1">  1        1 0.61048646E+00 0.15417188E+04</pdfrwt>
<pdfrwt beam="2">  1       -2 0.23038149E-01 0.15417188E+04</pdfrwt>
<totfact> 0.14659147E+00</totfact>
</mgrwt>
</event>
<event>
12    5  0.5264288E-008  0.2537653E+04  0.7818608E-02  0.8389693E-01
          1   -1    0    0  501    0  0.00000000000E+00  0.00000000000E+00  0.17796621379E+04  0.17796621379E+04  0.00000000000E+00 0. -1.
         -2   -1    0    0    0  501 -0.00000000000E+00 -0.00000000000E+00 -0.90462161249E+03  0.90462161249E+03  0.00000000000E+00 0.  1.
        -24    2    1    2    0    0 -0.25469950091E+03  0.58454604122E+03 -0.57066645328E+03  0.85953785100E+03  0.81112306957E+02 0.  0.
        254    2    1    2    0    0  0.25469950091E+03 -0.58454604122E+03  0.14457069787E+04  0.18247458994E+04  0.91272285992E+03 0.  0.
         23    2    4    4    0    0 -0.73846433751E+02 -0.33542245397E+03  0.13437191890E+04  0.13899002731E+04  0.90994460812E+02 0.  0.
         23    2    4    4    0    0  0.32854593466E+03 -0.24912358724E+03  0.10198778969E+03  0.43484562627E+03  0.93189143909E+02 0.  0.
          1    1    3    3  502    0 -0.51455713174E+02  0.76988378914E+02 -0.11616134189E+03  0.14855422665E+03  0.00000000000E+00 0. -1.
         -2    1    3    3    0  502 -0.20324378773E+03  0.50755766230E+03 -0.45450511139E+03  0.71098362435E+03  0.00000000000E+00 0.  1.
         13    1    5    5    0    0 -0.39682039514E+02 -0.24709773485E+03  0.11070863657E+04  0.11350207822E+04  0.00000000000E+00 0. -1.
        -13    1    5    5    0    0 -0.34164394237E+02 -0.88324719125E+02  0.23663282331E+03  0.25487949096E+03  0.00000000000E+00 0.  1.
          1    1    6    6  503    0  0.28012856733E+03 -0.18546342045E+03  0.11223624406E+03  0.35421133387E+03  0.00000000000E+00 0. -1.
         -1    1    6    6    0  503  0.48417367324E+02 -0.63660166794E+02 -0.10248454364E+02  0.80634292405E+02  0.00000000000E+00 0.  1.
<mgrwt>
<rscale>  0 0.25376531E+04</rscale>
<asrwt>0</asrwt>
<pdfrwt beam="1">  1        1 0.27379417E+00 0.25376531E+04</pdfrwt>
<pdfrwt beam="2">  1       -2 0.13917256E+00 0.25376531E+04</pdfrwt>
<totfact> 0.11934543E+00</totfact>
</mgrwt>
</event>
<event>
12    5  0.5264288E-008  0.1507680E+04  0.7818608E-02  0.8879362E-01
         -2   -1    0    0    0  501 -0.00000000000E+00  0.00000000000E+00  0.12830875367E+04  0.12830875367E+04  0.00000000000E+00 0.  1.
          1   -1    0    0  501    0  0.00000000000E+00 -0.00000000000E+00 -0.44289626508E+03  0.44289626508E+03  0.00000000000E+00 0. -1.
        -24    2    1    2    0    0 -0.20044205359E+02 -0.13053152682E+02 -0.27637967532E+03  0.28864191510E+03  0.79726252041E+02 0.  0.
        254    2    1    2    0    0  0.20044205359E+02  0.13053152682E+02  0.11165709470E+04  0.14373418867E+04  0.90479216659E+03 0.  0.
         23    2    4    4    0    0  0.25733227718E+03  0.30756309978E+03  0.23392789619E+03  0.47281786602E+03  0.89551731330E+02 0.  0.
         23    2    4    4    0    0 -0.23728807183E+03 -0.29450994710E+03  0.88264305076E+03  0.96452402068E+03  0.90587490565E+02 0.  0.
          1    1    3    3  502    0  0.56512870020E+01 -0.14584200004E+02 -0.25414970836E+03  0.25463053665E+03  0.00000000000E+00 0. -1.
         -2    1    3    3    0  502 -0.25695492361E+02  0.15310473220E+01 -0.22229966952E+02  0.34011378453E+02  0.00000000000E+00 0.  1.
         13    1    5    5    0    0  0.23477339863E+03  0.29116188665E+03  0.18685152869E+03  0.41809961339E+03  0.00000000000E+00 0.  1.
        -13    1    5    5    0    0  0.22558878553E+02  0.16401213129E+02  0.47076367504E+02  0.54718252631E+02  0.00000000000E+00 0. -1.
          4    1    6    6  503    0 -0.98651354823E+02 -0.11122408110E+03  0.24324931089E+03  0.28508439675E+03  0.00000000000E+00 0. -1.
         -4    1    6    6    0  503 -0.13863671700E+03 -0.18328586600E+03  0.63939373987E+03  0.67943962393E+03  0.00000000000E+00 0.  1.
<mgrwt>
<rscale>  0 0.15076799E+04</rscale>
<asrwt>0</asrwt>
<pdfrwt beam="1">  1        1 0.68137887E-01 0.15076799E+04</pdfrwt>
<pdfrwt beam="2">  1       -2 0.19739808E+00 0.15076799E+04</pdfrwt>
<totfact> 0.61126493E+00</totfact>
</mgrwt>
</event>
<event>
12    5  0.5264288E-008  0.1512580E+04  0.7818608E-02  0.8876130E-01
          3   -1    0    0  501    0  0.00000000000E+00  0.00000000000E+00  0.11342718851E+04  0.11342718851E+04  0.00000000000E+00 0. -1.
         -4   -1    0    0    0  501 -0.00000000000E+00 -0.00000000000E+00 -0.50426602691E+03  0.50426602691E+03  0.00000000000E+00 0.  1.
        -24    2    1    2    0    0  0.25468103044E+03  0.15059553509E+03 -0.20568755285E+03  0.36879563356E+03  0.78494633448E+02 0.  0.
        254    2    1    2    0    0 -0.25468103044E+03 -0.15059553509E+03  0.83569341104E+03  0.12697422784E+04  0.90902174559E+03 0.  0.
         23    2    4    4    0    0 -0.54660153165E+03 -0.23088270050E+03  0.70916007270E+03  0.92914612568E+03  0.91238469743E+02 0.  0.
         23    2    4    4    0    0  0.29192050121E+03  0.80287165413E+02  0.12653333834E+03  0.34059615275E+03  0.91276752800E+02 0.  0.
          3    1    3    3  502    0  0.30908532349E+02 -0.71821992376E+01 -0.14756427791E+02  0.34995335675E+02  0.00000000000E+00 0. -1.
         -4    1    3    3    0  502  0.22377249809E+03  0.15777773433E+03 -0.19093112506E+03  0.33380029788E+03  0.00000000000E+00 0.  1.
         13    1    5    5    0    0 -0.88628960388E+02 -0.48461888103E+02  0.74455297738E+02  0.12548800173E+03  0.00000000000E+00 0.  1.
        -13    1    5    5    0    0 -0.45797257126E+03 -0.18242081240E+03  0.63470477497E+03  0.80365812395E+03  0.00000000000E+00 0. -1.
          1    1    6    6  503    0  0.18112755332E+03  0.98113001986E+01  0.48162371687E+02  0.18767809204E+03  0.00000000000E+00 0. -1.
         -1    1    6    6    0  503  0.11079294789E+03  0.70475865214E+02  0.78370966648E+02  0.15291806072E+03  0.00000000000E+00 0.  1.
<mgrwt>
<rscale>  0 0.15125803E+04</rscale>
<asrwt>0</asrwt>
<pdfrwt beam="1">  1        3 0.17450337E+00 0.15125803E+04</pdfrwt>
<pdfrwt beam="2">  1       -4 0.77579389E-01 0.15125803E+04</pdfrwt>
<totfact> 0.71181092E-01</totfact>
</mgrwt>
</event>
<event>
12    5  0.5264288E-008  0.1147799E+04  0.7818608E-02  0.9159816E-01
          1   -1    0    0  501    0  0.00000000000E+00  0.00000000000E+00  0.19276917012E+03  0.19276917012E+03  0.00000000000E+00 0. -1.
         -2   -1    0    0    0  501 -0.00000000000E+00 -0.00000000000E+00 -0.17085766913E+04  0.17085766913E+04  0.00000000000E+00 0.  1.
        -24    2    1    2    0    0  0.31723840729E+02  0.45979584323E+02  0.36604067692E+02  0.10470562632E+03  0.80640474735E+02 0.  0.
        254    2    1    2    0    0 -0.31723840729E+02 -0.45979584323E+02 -0.15524115889E+04  0.17966402351E+04  0.90267040990E+03 0.  0.
         23    2    4    4    0    0 -0.61757874321E+01 -0.22299537994E+03 -0.15762588365E+04  0.15944699892E+04  0.89317113880E+02 0.  0.
         23    2    4    4    0    0 -0.25548053297E+02  0.17701579562E+03  0.23847247663E+02  0.20217024592E+03  0.91196612816E+02 0.  0.
          3    1    3    3  502    0  0.11073401532E+02 -0.37910858782E+00  0.50810607127E+02  0.52004631922E+02  0.00000000000E+00 0. -1.
         -4    1    3    3    0  502  0.20650439197E+02  0.46358692910E+02 -0.14206539434E+02  0.52700994394E+02  0.00000000000E+00 0.  1.
         13    1    5    5    0    0  0.69179584516E+01 -0.90822687670E+02 -0.37558335772E+03  0.38647053877E+03  0.00000000000E+00 0. -1.
        -13    1    5    5    0    0 -0.13093745884E+02 -0.13217269227E+03 -0.12006754788E+04  0.12079994504E+04  0.00000000000E+00 0.  1.
          1    1    6    6  503    0 -0.59923910827E+02  0.12107397905E+03  0.15229142648E+02  0.13594745411E+03  0.00000000000E+00 0. -1.
         -1    1    6    6    0  503  0.34375857530E+02  0.55941816566E+02  0.86181050149E+01  0.66222791814E+02  0.00000000000E+00 0.  1.
<mgrwt>
<rscale>  0 0.11477995E+04</rscale>
<asrwt>0</asrwt>
<pdfrwt beam="1">  1        1 0.29656795E-01 0.11477995E+04</pdfrwt>
<pdfrwt beam="2">  1       -2 0.26285795E+00 0.11477995E+04</pdfrwt>
<totfact> 0.72774508E+00</totfact>
</mgrwt>
</event>
<event>
12    5  0.5264288E-008  0.1923657E+04  0.7818608E-02  0.8643170E-01
          1   -1    0    0  501    0  0.00000000000E+00  0.00000000000E+00  0.92696026292E+03  0.92696026292E+03  0.00000000000E+00 0. -1.
         -2   -1    0    0    0  501 -0.00000000000E+00 -0.00000000000E+00 -0.99800824050E+03  0.99800824050E+03  0.00000000000E+00 0.  1.
        -24    2    1    2    0    0  0.34628867002E+03  0.19159034969E+03  0.61269454255E+03  0.73379139322E+03  0.80202875379E+02 0.  0.
        254    2    1    2    0    0 -0.34628867002E+03 -0.19159034969E+03 -0.68374252013E+03  0.11911771102E+04  0.89150231013E+03 0.  0.
         23    2    4    4    0    0 -0.40369259408E+03 -0.47015423116E+03 -0.62849372507E+03  0.88734156532E+03  0.91421985858E+02 0.  0.
         23    2    4    4    0    0  0.57403924064E+02  0.27856388147E+03 -0.55248795062E+02  0.30383554488E+03  0.91490777791E+02 0.  0.
          1    1    3    3  502    0  0.18366746827E+03  0.13622597429E+03  0.30251859888E+03  0.37922125156E+03  0.00000000000E+00 0. -1.
         -2    1    3    3    0  502  0.16262120175E+03  0.55364375398E+02  0.31017594367E+03  0.35457014166E+03  0.00000000000E+00 0.  1.
         13    1    5    5    0    0 -0.12362686444E+02 -0.94964561965E+00 -0.28225733438E+02  0.30829042655E+02  0.00000000000E+00 0. -1.
        -13    1    5    5    0    0 -0.39132990764E+03 -0.46920458554E+03 -0.60026799163E+03  0.85651252266E+03  0.00000000000E+00 0.  1.
          1    1    6    6  503    0  0.55176851546E+01  0.53928759173E+02 -0.49198002380E+02  0.73206552669E+02  0.00000000000E+00 0. -1.
         -1    1    6    6    0  503  0.51886238909E+02  0.22463512230E+03 -0.60507926814E+01  0.23062899222E+03  0.00000000000E+00 0.  1.
<mgrwt>
<rscale>  0 0.19236569E+04</rscale>
<asrwt>0</asrwt>
<pdfrwt beam="1">  1        1 0.14260927E+00 0.19236569E+04</pdfrwt>
<pdfrwt beam="2">  1       -2 0.15353973E+00 0.19236569E+04</pdfrwt>
<totfact> 0.39851824E+00</totfact>
</mgrwt>
</event>
<event>
12    5  0.5264288E-008  0.2309242E+04  0.7818608E-02  0.8474286E-01
         -2   -1    0    0    0  501 -0.00000000000E+00  0.00000000000E+00  0.10263689413E+04  0.10263689413E+04  0.00000000000E+00 0.  1.
          1   -1    0    0  501    0  0.00000000000E+00 -0.00000000000E+00 -0.12988992678E+04  0.12988992678E+04  0.00000000000E+00 0. -1.
        -24    2    1    2    0    0 -0.34105638900E+03 -0.87000296298E+03  0.59937607616E+02  0.93980209491E+03  0.80067750793E+02 0.  0.
        254    2    1    2    0    0  0.34105638900E+03  0.87000296298E+03 -0.33246793407E+03  0.13854661142E+04  0.96734523842E+03 0.  0.
         23    2    4    4    0    0 -0.24385881487E+03  0.64564773294E+02 -0.27443283842E+03  0.38365001099E+03  0.90764621944E+02 0.  0.
         23    2    4    4    0    0  0.58491520386E+03  0.80543818968E+03 -0.58035095658E+02  0.10018161032E+04  0.97010098286E+02 0.  0.
          3    1    3    3  502    0 -0.12121884032E+02 -0.14971681341E+02 -0.86525240236E+01  0.21117705525E+02  0.00000000000E+00 0. -1.
         -4    1    3    3    0  502 -0.32893450497E+03 -0.85503128164E+03  0.68590131640E+02  0.91868438938E+03  0.00000000000E+00 0.  1.
         13    1    5    5    0    0 -0.12540610762E+03  0.74375276230E+02 -0.18127274568E+03  0.23263314869E+03  0.00000000000E+00 0.  1.
        -13    1    5    5    0    0 -0.11845270725E+03 -0.98105029359E+01 -0.93160092733E+02  0.15101686230E+03  0.00000000000E+00 0. -1.
          2    1    6    6  503    0  0.62457711636E+01  0.29367597767E+01 -0.88421962112E+01  0.11216891247E+02  0.00000000000E+00 0. -1.
         -2    1    6    6    0  503  0.57866943270E+03  0.80250142991E+03 -0.49192899447E+02  0.99059921194E+03  0.00000000000E+00 0.  1.
<mgrwt>
<rscale>  0 0.23092422E+04</rscale>
<asrwt>0</asrwt>
<pdfrwt beam="1">  1        1 0.19983066E+00 0.23092422E+04</pdfrwt>
<pdfrwt beam="2">  1       -2 0.15790291E+00 0.23092422E+04</pdfrwt>
<totfact> 0.18753380E+00</totfact>
</mgrwt>
</event>
<event>
12    5  0.5264288E-008  0.1622218E+04  0.7818608E-02  0.8807013E-01
         -2   -1    0    0    0  501 -0.00000000000E+00  0.00000000000E+00  0.86000940068E+03  0.86000940068E+03  0.00000000000E+00 0.  1.
          1   -1    0    0  501    0  0.00000000000E+00 -0.00000000000E+00 -0.76498952889E+03  0.76498952889E+03  0.00000000000E+00 0. -1.
        -24    2    1    2    0    0  0.46353098234E+03 -0.14727119894E+03 -0.21792491791E+03  0.53886821107E+03  0.79610937828E+02 0.  0.
        254    2    1    2    0    0 -0.46353098234E+03  0.14727119894E+03  0.31294478971E+03  0.10861307185E+04  0.91934526628E+03 0.  0.
         23    2    4    4    0    0  0.19355501242E+03  0.28330146221E+03  0.17225366800E+03  0.39470646179E+03  0.91643895148E+02 0.  0.
         23    2    4    4    0    0 -0.65708599476E+03 -0.13603026327E+03  0.14069112171E+03  0.69142425671E+03  0.89483372761E+02 0.  0.
          3    1    3    3  502    0  0.34336609739E+03 -0.11260351047E+03 -0.19854290714E+03  0.41230948738E+03  0.00000000000E+00 0. -1.
         -4    1    3    3    0  502  0.12016488495E+03 -0.34667688466E+02 -0.19382010769E+02  0.12655872368E+03  0.00000000000E+00 0.  1.
         13    1    5    5    0    0  0.26785823892E+02  0.10005406704E+03  0.77793148292E+02  0.12953791188E+03  0.00000000000E+00 0. -1.
        -13    1    5    5    0    0  0.16676918853E+03  0.18324739516E+03  0.94460519704E+02  0.26516854991E+03  0.00000000000E+00 0.  1.
          1    1    6    6  503    0 -0.41041181005E+03 -0.61416640197E+02  0.48897348774E+02  0.41785261545E+03  0.00000000000E+00 0. -1.
         -1    1    6    6    0  503 -0.24667418471E+03 -0.74613623070E+02  0.91793772939E+02  0.27357164126E+03  0.00000000000E+00 0.  1.
<mgrwt>
<rscale>  0 0.16222185E+04</rscale>
<asrwt>0</asrwt>
<pdfrwt beam="1">  1        1 0.11769070E+00 0.16222185E+04</pdfrwt>
<pdfrwt beam="2">  1       -2 0.13230914E+00 0.16222185E+04</pdfrwt>
<totfact> 0.82696344E+00</totfact>
</mgrwt>
</event>
<event>
12    5  0.5264288E-008  0.2016813E+04  0.7818608E-02  0.8598800E-01
          1   -1    0    0  501    0  0.00000000000E+00  0.00000000000E+00  0.66537196723E+03  0.66537196723E+03  0.00000000000E+00 0. -1.
         -2   -1    0    0    0  501 -0.00000000000E+00 -0.00000000000E+00 -0.15282939650E+04  0.15282939650E+04  0.00000000000E+00 0.  1.
        -24    2    1    2    0    0  0.47394943366E+03 -0.71698639327E+02  0.35531239817E+03  0.60195474447E+03  0.79585510943E+02 0.  0.
        254    2    1    2    0    0 -0.47394943366E+03  0.71698639327E+02 -0.12182343959E+04  0.15917111877E+04  0.90536219339E+03 0.  0.
         23    2    4    4    0    0 -0.71706586927E+03 -0.12459529085E+02 -0.70110895400E+03  0.10070528680E+04  0.90901115258E+02 0.  0.
         23    2    4    4    0    0  0.24311643561E+03  0.84158168412E+02 -0.51712544193E+03  0.58465831978E+03  0.90655554840E+02 0.  0.
          3    1    3    3  502    0  0.45160980053E+03 -0.74625744426E+02  0.35526311831E+03  0.57942410797E+03  0.00000000000E+00 0. -1.
         -4    1    3    3    0  502  0.22339633132E+02  0.29271050988E+01  0.49279858369E-01  0.22530636504E+02  0.00000000000E+00 0.  1.
         13    1    5    5    0    0 -0.56433479425E+03 -0.36557081605E+02 -0.51278472654E+03  0.76338611199E+03  0.00000000000E+00 0. -1.
        -13    1    5    5    0    0 -0.15273107502E+03  0.24097552521E+02 -0.18832422746E+03  0.24366675597E+03  0.00000000000E+00 0.  1.
          3    1    6    6  503    0  0.21400620471E+03  0.10173011426E+03 -0.47217173295E+03  0.52829330603E+03  0.00000000000E+00 0. -1.
         -3    1    6    6    0  503  0.29110230906E+02 -0.17571945845E+02 -0.44953708985E+02  0.56365013756E+02  0.00000000000E+00 0.  1.
<mgrwt>
<rscale>  0 0.20168133E+04</rscale>
<asrwt>0</asrwt>
<pdfrwt beam="1">  1        1 0.10236492E+00 0.20168133E+04</pdfrwt>
<pdfrwt beam="2">  1       -2 0.23512215E+00 0.20168133E+04</pdfrwt>
<totfact> 0.18947519E+00</totfact>
</mgrwt>
</event>
<event>
12    5  0.5264288E-008  0.3265400E+04  0.7818608E-02  0.8171756E-01
         -2   -1    0    0    0  501 -0.00000000000E+00  0.00000000000E+00  0.71061021628E+03  0.71061021628E+03  0.00000000000E+00 0.  1.
          1   -1    0    0  501    0  0.00000000000E+00 -0.00000000000E+00 -0.37512961684E+04  0.37512961684E+04  0.00000000000E+00 0. -1.
        -24    2    1    2    0    0 -0.29420804548E+03 -0.11150720410E+04 -0.27410088984E+04  0.29747895319E+04  0.79365907925E+02 0.  0.
        254    2    1    2    0    0  0.29420804548E+03  0.11150720410E+04 -0.29967705370E+03  0.14871168528E+04  0.88981243344E+03 0.  0.
         23    2    4    4    0    0  0.10748910716E+03 -0.55723361898E+02 -0.25599059400E+03  0.29715472364E+03  0.90059671031E+02 0.  0.
         23    2    4    4    0    0  0.18671893832E+03  0.11707954029E+04 -0.43686459706E+02  0.11899621291E+04  0.92062612920E+02 0.  0.
          1    1    3    3  502    0 -0.29254343733E+03 -0.11053494306E+04 -0.26914338976E+04  0.29242427143E+04  0.00000000000E+00 0. -1.
         -2    1    3    3    0  502 -0.16646081526E+01 -0.97226103355E+01 -0.49575000765E+02  0.50546817634E+02  0.00000000000E+00 0.  1.
         13    1    5    5    0    0 -0.55059399345E+01 -0.21782006263E+02 -0.94638398629E+02  0.97268688006E+02  0.00000000000E+00 0.  1.
        -13    1    5    5    0    0  0.11299504710E+03 -0.33941355635E+02 -0.16135219537E+03  0.19988603563E+03  0.00000000000E+00 0. -1.
          3    1    6    6  503    0  0.17797109811E+03  0.10633424833E+04 -0.64906839991E+02  0.10800851107E+04  0.00000000000E+00 0. -1.
         -3    1    6    6    0  503  0.87478402051E+01  0.10745291962E+03  0.21220380284E+02  0.10987701845E+03  0.00000000000E+00 0.  1.
<mgrwt>
<rscale>  0 0.32654001E+04</rscale>
<asrwt>0</asrwt>
<pdfrwt beam="1">  1        1 0.57712249E+00 0.32654001E+04</pdfrwt>
<pdfrwt beam="2">  1       -2 0.10932465E+00 0.32654001E+04</pdfrwt>
<totfact> 0.76359378E-02</totfact>
</mgrwt>
</event>
<event>
12    5  0.5264288E-008  0.1173401E+04  0.7818608E-02  0.9136463E-01
         -2   -1    0    0    0  501 -0.00000000000E+00  0.00000000000E+00  0.34173193731E+03  0.34173193731E+03  0.00000000000E+00 0.  1.
          1   -1    0    0  501    0  0.00000000000E+00 -0.00000000000E+00 -0.10072730174E+04  0.10072730174E+04  0.00000000000E+00 0. -1.
        -24    2    1    2    0    0 -0.62443495562E+02  0.30926340308E+03 -0.14513097578E+03  0.35634167910E+03  0.79833260673E+02 0.  0.
        254    2    1    2    0    0  0.62443495562E+02 -0.30926340308E+03 -0.52041010433E+03  0.99266327564E+03  0.78422615328E+03 0.  0.
         23    2    4    4    0    0  0.71701684634E+02  0.23696916959E+03 -0.29211484503E+03  0.39326984667E+03  0.89635766858E+02 0.  0.
         23    2    4    4    0    0 -0.92581890725E+01 -0.54623257267E+03 -0.22829525930E+03  0.59939342896E+03  0.93263174678E+02 0.  0.
          1    1    3    3  502    0 -0.53992283352E+02  0.27598950825E+03 -0.15435029999E+03  0.32079493517E+03  0.00000000000E+00 0. -1.
         -2    1    3    3    0  502 -0.84512122100E+01  0.33273894829E+02  0.92193242080E+01  0.35546743926E+02  0.00000000000E+00 0.  1.
         13    1    5    5    0    0  0.60561948645E-01  0.11167367946E+03 -0.82814408490E+02  0.13902963931E+03  0.00000000000E+00 0.  1.
        -13    1    5    5    0    0  0.71641122686E+02  0.12529549013E+03 -0.20930043654E+03  0.25424020736E+03  0.00000000000E+00 0. -1.
          1    1    6    6  503    0 -0.10735811745E+02 -0.52110951955E+03 -0.19248951024E+03  0.55562811355E+03  0.00000000000E+00 0. -1.
         -1    1    6    6    0  503  0.14776226721E+01 -0.25123053126E+02 -0.35805749064E+02  0.43765315413E+02  0.00000000000E+00 0.  1.
<mgrwt>
<rscale>  0 0.11734008E+04</rscale>
<asrwt>0</asrwt>
<pdfrwt beam="1">  1        1 0.15496508E+00 0.11734008E+04</pdfrwt>
<pdfrwt beam="2">  1       -2 0.52574146E-01 0.11734008E+04</pdfrwt>
<totfact> 0.44314214E+01</totfact>
</mgrwt>
</event>
<event>
12    5  0.5264288E-008  0.1627382E+04  0.7818608E-02  0.8803901E-01
         -2   -1    0    0    0  501 -0.00000000000E+00  0.00000000000E+00  0.23789660079E+03  0.23789660079E+03  0.00000000000E+00 0.  1.
          1   -1    0    0  501    0  0.00000000000E+00 -0.00000000000E+00 -0.27831124996E+04  0.27831124996E+04  0.00000000000E+00 0. -1.
        -24    2    1    2    0    0  0.97142572345E+02  0.29301260568E+03 -0.17562659727E+04  0.17849614835E+04  0.79525243639E+02 0.  0.
        254    2    1    2    0    0 -0.97142572345E+02 -0.29301260568E+03 -0.78894992610E+03  0.12360476168E+04  0.90004369825E+03 0.  0.
         23    2    4    4    0    0 -0.18991611128E+03 -0.56229226393E+03 -0.32619519544E+03  0.68315700040E+03  0.89774507876E+02 0.  0.
         23    2    4    4    0    0  0.92773538933E+02  0.26927965825E+03 -0.46275473065E+03  0.55289061644E+03  0.10211576338E+03 0.  0.
          1    1    3    3  502    0  0.68806401888E+02  0.17726450909E+03 -0.12782474722E+04  0.12923132852E+04  0.00000000000E+00 0. -1.
         -2    1    3    3    0  502  0.28336170457E+02  0.11574809659E+03 -0.47801850050E+03  0.49264819826E+03  0.00000000000E+00 0.  1.
         13    1    5    5    0    0 -0.38768913245E+02 -0.50269929398E+02 -0.56743680838E+02  0.85146578034E+02  0.00000000000E+00 0. -1.
        -13    1    5    5    0    0 -0.15114719803E+03 -0.51202233453E+03 -0.26945151460E+03  0.59801042236E+03  0.00000000000E+00 0.  1.
          3    1    6    6  503    0  0.26430026476E+02  0.27256500307E+02 -0.13415689464E+03  0.13942573467E+03  0.00000000000E+00 0. -1.
         -3    1    6    6    0  503  0.66343512457E+02  0.24202315794E+03 -0.32859783602E+03  0.41346488177E+03  0.00000000000E+00 0.  1.
<mgrwt>
<rscale>  0 0.16273820E+04</rscale>
<asrwt>0</asrwt>
<pdfrwt beam="1">  1        1 0.42817116E+00 0.16273820E+04</pdfrwt>
<pdfrwt beam="2">  1       -2 0.36599477E-01 0.16273820E+04</pdfrwt>
<totfact> 0.50810512E+00</totfact>
</mgrwt>
</event>
<event>
12    5  0.5264288E-008  0.1653863E+04  0.7818608E-02  0.8788124E-01
         -2   -1    0    0    0  501 -0.00000000000E+00  0.00000000000E+00  0.43180551074E+03  0.43180551074E+03  0.00000000000E+00 0.  1.
          1   -1    0    0  501    0  0.00000000000E+00 -0.00000000000E+00 -0.15836196882E+04  0.15836196882E+04  0.00000000000E+00 0. -1.
        -24    2    1    2    0    0 -0.19844954498E+03  0.13329368391E+02 -0.10670799284E+04  0.10883917469E+04  0.79856917273E+02 0.  0.
        254    2    1    2    0    0  0.19844954498E+03 -0.13329368391E+02 -0.84734249081E+02  0.92703345202E+03  0.90147170462E+03 0.  0.
         23    2    4    4    0    0 -0.33904090348E+03 -0.10184864930E+03  0.19068631712E+02  0.36512899477E+03  0.87370982096E+02 0.  0.
         23    2    4    4    0    0  0.53749044846E+03  0.88519280906E+02 -0.10380288079E+03  0.56190445725E+03  0.90718993252E+02 0.  0.
          3    1    3    3  502    0 -0.13506621533E+03  0.35863355752E+02 -0.57516417544E+03  0.59189770359E+03  0.00000000000E+00 0. -1.
         -4    1    3    3    0  502 -0.63383329654E+02 -0.22533987361E+02 -0.49191575292E+03  0.49649404330E+03  0.00000000000E+00 0.  1.
         13    1    5    5    0    0 -0.19555343827E+02  0.17081617966E+01 -0.18763615668E+02  0.27155157187E+02  0.00000000000E+00 0. -1.
        -13    1    5    5    0    0 -0.31948555965E+03 -0.10355681109E+03  0.37832247380E+02  0.33797383759E+03  0.00000000000E+00 0.  1.
          4    1    6    6  503    0  0.34023922549E+03  0.75113659520E+02 -0.25864428842E+02  0.34939055667E+03  0.00000000000E+00 0.  1.
         -4    1    6    6    0  503  0.19725122297E+03  0.13405621387E+02 -0.77938451951E+02  0.21251390058E+03  0.00000000000E+00 0. -1.
<mgrwt>
<rscale>  0 0.16538630E+04</rscale>
<asrwt>0</asrwt>
<pdfrwt beam="1">  1        1 0.24363380E+00 0.16538630E+04</pdfrwt>
<pdfrwt beam="2">  1       -2 0.66431616E-01 0.16538630E+04</pdfrwt>
<totfact> 0.10000078E+01</totfact>
</mgrwt>
</event>
<event>
12    5  0.5264288E-008  0.1349020E+04  0.7818608E-02  0.8991570E-01
         -2   -1    0    0    0  501 -0.00000000000E+00  0.00000000000E+00  0.33993285293E+03  0.33993285293E+03  0.00000000000E+00 0.  1.
          1   -1    0    0  501    0  0.00000000000E+00 -0.00000000000E+00 -0.13383936034E+04  0.13383936034E+04  0.00000000000E+00 0. -1.
        -24    2    1    2    0    0 -0.10734830970E+03 -0.61897260431E+02  0.15411951053E+03  0.21349522878E+03  0.80451592546E+02 0.  0.
        254    2    1    2    0    0  0.10734830970E+03  0.61897260431E+02 -0.11525802611E+04  0.14648312276E+04  0.89550786525E+03 0.  0.
         23    2    4    4    0    0  0.60685867046E+02 -0.57934926455E+02 -0.12651062586E+04  0.12713618751E+04  0.93957127036E+02 0.  0.
         23    2    4    4    0    0  0.46662442650E+02  0.11983218689E+03  0.11252599758E+03  0.19346935247E+03  0.90725705552E+02 0.  0.
          3    1    3    3  502    0 -0.80035075954E+02 -0.22297181381E+01  0.66840258434E+02  0.10429863457E+03  0.00000000000E+00 0. -1.
         -4    1    3    3    0  502 -0.27313233741E+02 -0.59667542293E+02  0.87279252096E+02  0.10919659421E+03  0.00000000000E+00 0.  1.
         13    1    5    5    0    0  0.29678000055E+02 -0.81656353765E+02 -0.85759065370E+03  0.86198043662E+03  0.00000000000E+00 0. -1.
        -13    1    5    5    0    0  0.31007866991E+02  0.23721427309E+02 -0.40751560492E+03  0.40938143850E+03  0.00000000000E+00 0.  1.
          2    1    6    6  503    0  0.69011748362E+02  0.11141408604E+03  0.81554950908E+02  0.15435974215E+03  0.00000000000E+00 0. -1.
         -2    1    6    6    0  503 -0.22349305712E+02  0.84181008477E+01  0.30971046669E+02  0.39109610321E+02  0.00000000000E+00 0.  1.
<mgrwt>
<rscale>  0 0.13490203E+04</rscale>
<asrwt>0</asrwt>
<pdfrwt beam="1">  1        1 0.20590671E+00 0.13490203E+04</pdfrwt>
<pdfrwt beam="2">  1       -2 0.52297362E-01 0.13490203E+04</pdfrwt>
<totfact> 0.25167266E+01</totfact>
</mgrwt>
</event>
<event>
12    5  0.5264288E-008  0.1390056E+04  0.7818608E-02  0.8961048E-01
          1   -1    0    0  501    0  0.00000000000E+00  0.00000000000E+00  0.13738995250E+04  0.13738995250E+04  0.00000000000E+00 0. -1.
         -2   -1    0    0    0  501 -0.00000000000E+00 -0.00000000000E+00 -0.35160073714E+03  0.35160073714E+03  0.00000000000E+00 0.  1.
        -24    2    1    2    0    0 -0.71512395883E+02 -0.33872096043E+03  0.44860075454E+02  0.35745940447E+03  0.76934307559E+02 0.  0.
        254    2    1    2    0    0  0.71512395883E+02  0.33872096043E+03  0.97743871244E+03  0.13680408577E+04  0.89235835849E+03 0.  0.
         23    2    4    4    0    0 -0.10664044724E+03  0.20027255631E+03  0.10771075271E+04  0.11044859960E+04  0.90815244159E+02 0.  0.
         23    2    4    4    0    0  0.17815284312E+03  0.13844840411E+03 -0.99668814687E+02  0.26355486170E+03  0.92848782398E+02 0.  0.
          1    1    3    3  502    0 -0.19168447363E+01 -0.12759581620E+03  0.44537487183E+02  0.13515899663E+03  0.00000000000E+00 0. -1.
         -2    1    3    3    0  502 -0.69595551147E+02 -0.21112514422E+03  0.32258827118E+00  0.22230040784E+03  0.00000000000E+00 0.  1.
         13    1    5    5    0    0 -0.12282173631E+03  0.16613260266E+03  0.90695682266E+03  0.93019132373E+03  0.00000000000E+00 0.  1.
        -13    1    5    5    0    0  0.16181289067E+02  0.34139953653E+02  0.17015070447E+03  0.17429467227E+03  0.00000000000E+00 0. -1.
          4    1    6    6  503    0  0.42885567607E+02  0.83608664320E+02 -0.62767220273E+02  0.11300134778E+03  0.00000000000E+00 0. -1.
         -4    1    6    6    0  503  0.13526727551E+03  0.54839739790E+02 -0.36901594415E+02  0.15055351393E+03  0.00000000000E+00 0.  1.
<mgrwt>
<rscale>  0 0.13900562E+04</rscale>
<asrwt>0</asrwt>
<pdfrwt beam="1">  1        1 0.21136915E+00 0.13900562E+04</pdfrwt>
<pdfrwt beam="2">  1       -2 0.54092422E-01 0.13900562E+04</pdfrwt>
<totfact> 0.22082151E+01</totfact>
</mgrwt>
</event>
<event>
12    5  0.5264288E-008  0.1375580E+04  0.7818608E-02  0.8971687E-01
         -2   -1    0    0    0  501 -0.00000000000E+00  0.00000000000E+00  0.41454000492E+03  0.41454000492E+03  0.00000000000E+00 0.  1.
          1   -1    0    0  501    0  0.00000000000E+00 -0.00000000000E+00 -0.11411572207E+04  0.11411572207E+04  0.00000000000E+00 0. -1.
        -24    2    1    2    0    0  0.30247389203E+03 -0.16064666325E+03 -0.50594467401E+00  0.35163633432E+03  0.79687200100E+02 0.  0.
        254    2    1    2    0    0 -0.30247389203E+03  0.16064666325E+03 -0.72611127106E+03  0.12040608913E+04  0.89734455263E+03 0.  0.
         23    2    4    4    0    0 -0.33131390336E+03  0.40977985598E+03 -0.12834126559E+03  0.54934113609E+03  0.87268381551E+02 0.  0.
         23    2    4    4    0    0  0.28840011334E+02 -0.24913319273E+03 -0.59777000547E+03  0.65471975517E+03  0.91814401910E+02 0.  0.
          3    1    3    3  502    0  0.23656360547E+03 -0.13450646509E+03 -0.32090960694E+02  0.27401488708E+03  0.00000000000E+00 0. -1.
         -4    1    3    3    0  502  0.65910286557E+02 -0.26140198161E+02  0.31585016020E+02  0.77621447236E+02  0.00000000000E+00 0.  1.
         13    1    5    5    0    0 -0.31071209481E+03  0.39721178000E+03 -0.13877933118E+03  0.52304770986E+03  0.00000000000E+00 0. -1.
        -13    1    5    5    0    0 -0.20601808554E+02  0.12568075984E+02  0.10438065588E+02  0.26293426229E+02  0.00000000000E+00 0.  1.
          1    1    6    6  503    0  0.24231749609E+02 -0.16745996580E+03 -0.49648607322E+03  0.52452687132E+03  0.00000000000E+00 0. -1.
         -1    1    6    6    0  503  0.46082617255E+01 -0.81673226931E+02 -0.10128393224E+03  0.13019288385E+03  0.00000000000E+00 0.  1.
<mgrwt>
<rscale>  0 0.13755803E+04</rscale>
<asrwt>0</asrwt>
<pdfrwt beam="1">  1        1 0.17556265E+00 0.13755803E+04</pdfrwt>
<pdfrwt beam="2">  1       -2 0.63775387E-01 0.13755803E+04</pdfrwt>
<totfact> 0.23009187E+01</totfact>
</mgrwt>
</event>
<event>
12    5  0.5264288E-008  0.2876753E+04  0.7818608E-02  0.8279828E-01
         -2   -1    0    0    0  501 -0.00000000000E+00  0.00000000000E+00  0.13192990151E+04  0.13192990151E+04  0.00000000000E+00 0.  1.
          1   -1    0    0  501    0  0.00000000000E+00 -0.00000000000E+00 -0.15682017764E+04  0.15682017764E+04  0.00000000000E+00 0. -1.
        -24    2    1    2    0    0 -0.54224561148E+03 -0.10993086015E+04  0.30453016561E+03  0.12654488856E+04  0.78182835123E+02 0.  0.
        254    2    1    2    0    0  0.54224561148E+03  0.10993086015E+04 -0.55343292693E+03  0.16220519058E+04  0.90678259578E+03 0.  0.
         23    2    4    4    0    0 -0.19312585973E+02  0.45114234768E+03  0.17514200311E+03  0.49291387706E+03  0.91580429672E+02 0.  0.
         23    2    4    4    0    0  0.56155819745E+03  0.64816625387E+03 -0.72857493004E+03  0.11291380288E+04  0.93081456605E+02 0.  0.
          3    1    3    3  502    0 -0.10510366020E+03 -0.18102208057E+03  0.78871217002E+02  0.22368826950E+03  0.00000000000E+00 0. -1.
         -4    1    3    3    0  502 -0.43714195128E+03 -0.91828652098E+03  0.22565894861E+03  0.10417606161E+04  0.00000000000E+00 0.  1.
         13    1    5    5    0    0  0.34199672482E+02  0.12265732404E+03  0.37336698074E+02  0.13269689432E+03  0.00000000000E+00 0.  1.
        -13    1    5    5    0    0 -0.53512258454E+02  0.32848502363E+03  0.13780530504E+03  0.36021698274E+03  0.00000000000E+00 0. -1.
          4    1    6    6  503    0  0.51008025519E+03  0.54510131214E+03 -0.61317291043E+03  0.96607366454E+03  0.00000000000E+00 0. -1.
         -4    1    6    6    0  503  0.51477942257E+02  0.10306494173E+03 -0.11540201962E+03  0.16306436424E+03  0.00000000000E+00 0.  1.
<mgrwt>
<rscale>  0 0.28767531E+04</rscale>
<asrwt>0</asrwt>
<pdfrwt beam="1">  1        1 0.24126181E+00 0.28767531E+04</pdfrwt>
<pdfrwt beam="2">  1       -2 0.20296908E+00 0.28767531E+04</pdfrwt>
<totfact> 0.56384367E-01</totfact>
</mgrwt>
</event>
<event>
12    5  0.5264288E-008  0.1209588E+04  0.7818608E-02  0.9104505E-01
         -2   -1    0    0    0  501 -0.00000000000E+00  0.00000000000E+00  0.16206915180E+03  0.16206915180E+03  0.00000000000E+00 0.  1.
          1   -1    0    0  501    0  0.00000000000E+00 -0.00000000000E+00 -0.22569123817E+04  0.22569123817E+04  0.00000000000E+00 0. -1.
        -24    2    1    2    0    0  0.56863176122E+02  0.12601217550E+03 -0.16118641607E+02  0.15956710291E+03  0.78034354938E+02 0.  0.
        254    2    1    2    0    0 -0.56863176122E+02 -0.12601217550E+03 -0.20787245883E+04  0.22594144306E+04  0.87449709320E+03 0.  0.
         23    2    4    4    0    0  0.31149544718E+03  0.13122137687E+03 -0.13847451027E+04  0.14277264449E+04  0.81457586745E+02 0.  0.
         23    2    4    4    0    0 -0.36835862330E+03 -0.25723355237E+03 -0.69397948559E+03  0.83168798576E+03  0.90775566202E+02 0.  0.
          3    1    3    3  502    0  0.38970601452E+02  0.45432731099E+02 -0.41931796893E+02  0.73082942082E+02  0.00000000000E+00 0. -1.
         -4    1    3    3    0  502  0.17892574670E+02  0.80579444398E+02  0.25813155286E+02  0.86484160826E+02  0.00000000000E+00 0.  1.
         13    1    5    5    0    0  0.14157404326E+03  0.93761315105E+02 -0.79038691970E+03  0.80842184332E+03  0.00000000000E+00 0. -1.
        -13    1    5    5    0    0  0.16992140392E+03  0.37460061763E+02 -0.59435818305E+03  0.61930460154E+03  0.00000000000E+00 0.  1.
          2    1    6    6  503    0 -0.28584314816E+03 -0.23909966578E+03 -0.58814038340E+03  0.69626436511E+03  0.00000000000E+00 0. -1.
         -2    1    6    6    0  503 -0.82515475137E+02 -0.18133886587E+02 -0.10583910219E+03  0.13542362066E+03  0.00000000000E+00 0.  1.
<mgrwt>
<rscale>  0 0.12095882E+04</rscale>
<asrwt>0</asrwt>
<pdfrwt beam="1">  1        1 0.34721729E+00 0.12095882E+04</pdfrwt>
<pdfrwt beam="2">  1       -2 0.24933716E-01 0.12095882E+04</pdfrwt>
<totfact> 0.25027640E+01</totfact>
</mgrwt>
</event>
<event>
12    5  0.5264288E-008  0.1366025E+04  0.7818608E-02  0.8978785E-01
         -2   -1    0    0    0  501 -0.00000000000E+00  0.00000000000E+00  0.47980548301E+03  0.47980548301E+03  0.00000000000E+00 0.  1.
          1   -1    0    0  501    0  0.00000000000E+00 -0.00000000000E+00 -0.97228143181E+03  0.97228143181E+03  0.00000000000E+00 0. -1.
        -24    2    1    2    0    0 -0.16161285723E+03 -0.19757386352E+03  0.15792682537E+03  0.31078142982E+03  0.80560956922E+02 0.  0.
        254    2    1    2    0    0  0.16161285723E+03  0.19757386352E+03 -0.65040277418E+03  0.11413054850E+04  0.90244129686E+03 0.  0.
         23    2    4    4    0    0 -0.13977563448E+03  0.12928231171E+03 -0.76935545011E+03  0.79758748046E+03  0.89369101218E+02 0.  0.
         23    2    4    4    0    0  0.30138849171E+03  0.68291551808E+02  0.11895267593E+03  0.34371800455E+03  0.92160558576E+02 0.  0.
          3    1    3    3  502    0 -0.48215764765E+02 -0.12246486235E+03  0.75185193919E+02  0.15157577599E+03  0.00000000000E+00 0. -1.
         -4    1    3    3    0  502 -0.11339709246E+03 -0.75109001171E+02  0.82741631454E+02  0.15920565383E+03  0.00000000000E+00 0.  1.
         13    1    5    5    0    0 -0.13720959379E+03  0.75765177303E+02 -0.57698066082E+03  0.59789089112E+03  0.00000000000E+00 0. -1.
        -13    1    5    5    0    0 -0.25660406913E+01  0.53517134407E+02 -0.19237478928E+03  0.19969658933E+03  0.00000000000E+00 0.  1.
          4    1    6    6  503    0  0.60080846833E+02  0.24827960284E+02 -0.11446524831E+02  0.66008777437E+02  0.00000000000E+00 0.  1.
         -4    1    6    6    0  503  0.24130764487E+03  0.43463591524E+02  0.13039920076E+03  0.27770922711E+03  0.00000000000E+00 0. -1.
<mgrwt>
<rscale>  0 0.13660248E+04</rscale>
<asrwt>0</asrwt>
<pdfrwt beam="1">  1        1 0.14958176E+00 0.13660248E+04</pdfrwt>
<pdfrwt beam="2">  1       -2 0.73816229E-01 0.13660248E+04</pdfrwt>
<totfact> 0.22556618E+01</totfact>
</mgrwt>
</event>
<event>
12    5  0.5264288E-008  0.2035208E+04  0.7818608E-02  0.8590334E-01
         -2   -1    0    0    0  501 -0.00000000000E+00  0.00000000000E+00  0.92229769412E+03  0.92229769412E+03  0.00000000000E+00 0.  1.
          1   -1    0    0  501    0  0.00000000000E+00 -0.00000000000E+00 -0.11227591920E+04  0.11227591920E+04  0.00000000000E+00 0. -1.
        -24    2    1    2    0    0  0.61347796197E+03 -0.33476503645E+03  0.34874182230E+03  0.78513680955E+03  0.79975694048E+02 0.  0.
        254    2    1    2    0    0 -0.61347796197E+03  0.33476503645E+03 -0.54920332017E+03  0.12599200766E+04  0.89294539194E+03 0.  0.
         23    2    4    4    0    0 -0.78245163819E+03  0.51286042338E+02 -0.41870380716E+03  0.89364905290E+03  0.91841860667E+02 0.  0.
         23    2    4    4    0    0  0.16897367621E+03  0.28347899411E+03 -0.13049951301E+03  0.36627102367E+03  0.90619515179E+02 0.  0.
          1    1    3    3  502    0  0.38288386484E+03 -0.20075071296E+03  0.17253669531E+03  0.46547804883E+03  0.00000000000E+00 0. -1.
         -2    1    3    3    0  502  0.23059409713E+03 -0.13401432348E+03  0.17620512699E+03  0.31965876073E+03  0.00000000000E+00 0.  1.
         13    1    5    5    0    0 -0.74311850890E+03  0.61597163631E+02 -0.37757178964E+03  0.83581085490E+03  0.00000000000E+00 0.  1.
        -13    1    5    5    0    0 -0.39333129283E+02 -0.10311121293E+02 -0.41132017526E+02  0.57838197994E+02  0.00000000000E+00 0. -1.
          3    1    6    6  503    0  0.98339033618E+02  0.11718699757E+03 -0.10072180567E+03  0.18316178660E+03  0.00000000000E+00 0. -1.
         -3    1    6    6    0  503  0.70634642593E+02  0.16629199654E+03 -0.29777707343E+02  0.18310923707E+03  0.00000000000E+00 0.  1.
<mgrwt>
<rscale>  0 0.20352083E+04</rscale>
<asrwt>0</asrwt>
<pdfrwt beam="1">  1        1 0.17273218E+00 0.20352083E+04</pdfrwt>
<pdfrwt beam="2">  1       -2 0.14189195E+00 0.20352083E+04</pdfrwt>
<totfact> 0.34287434E+00</totfact>
</mgrwt>
</event>
<event>
12    5  0.5264288E-008  0.1449415E+04  0.7818608E-02  0.8918806E-01
         -2   -1    0    0    0  501 -0.00000000000E+00  0.00000000000E+00  0.12102147444E+04  0.12102147444E+04  0.00000000000E+00 0.  1.
          1   -1    0    0  501    0  0.00000000000E+00 -0.00000000000E+00 -0.43397339019E+03  0.43397339019E+03  0.00000000000E+00 0. -1.
        -24    2    1    2    0    0 -0.26003343631E+03 -0.37157959899E+01 -0.16031846470E+03  0.31544204895E+03  0.78552409153E+02 0.  0.
        254    2    1    2    0    0  0.26003343631E+03  0.37157959899E+01  0.93655981894E+03  0.13287460857E+04  0.90597498343E+03 0.  0.
         23    2    4    4    0    0  0.22562098894E+03  0.40825634367E+03  0.27906212645E+03  0.55087728986E+03  0.89510028915E+02 0.  0.
         23    2    4    4    0    0  0.34412447367E+02 -0.40454054768E+03  0.65749769250E+03  0.77786879581E+03  0.89103179567E+02 0.  0.
          3    1    3    3  502    0 -0.10837595053E+03  0.88493431418E+01 -0.11121426706E+03  0.15553864705E+03  0.00000000000E+00 0. -1.
         -4    1    3    3    0  502 -0.15165748577E+03 -0.12565139132E+02 -0.49104197633E+02  0.15990340190E+03  0.00000000000E+00 0.  1.
         13    1    5    5    0    0  0.16998675720E+03  0.34442167400E+03  0.26078050862E+03  0.46425021359E+03  0.00000000000E+00 0.  1.
        -13    1    5    5    0    0  0.55634231740E+02  0.63834669669E+02  0.18281617822E+02  0.86627076271E+02  0.00000000000E+00 0. -1.
          4    1    6    6  503    0 -0.29821682572E+02 -0.14399537508E+03  0.24620067596E+03  0.28677303506E+03  0.00000000000E+00 0. -1.
         -4    1    6    6    0  503  0.64234129939E+02 -0.26054517260E+03  0.41129701653E+03  0.49109576075E+03  0.00000000000E+00 0.  1.
<mgrwt>
<rscale>  0 0.14494150E+04</rscale>
<asrwt>0</asrwt>
<pdfrwt beam="1">  1        1 0.66765137E-01 0.14494150E+04</pdfrwt>
<pdfrwt beam="2">  1       -2 0.18618688E+00 0.14494150E+04</pdfrwt>
<totfact> 0.75018877E+00</totfact>
</mgrwt>
</event>
<event>
12    5  0.7238359E-008  0.2442741E+04  0.7818608E-02  0.8423673E-01
          1   -1    0    0  501    0  0.00000000000E+00  0.00000000000E+00  0.20244922503E+04  0.20244922503E+04  0.00000000000E+00 0. -1.
         -2   -1    0    0    0  501 -0.00000000000E+00 -0.00000000000E+00 -0.73684926446E+03  0.73684926446E+03  0.00000000000E+00 0.  1.
        -24    2    1    2    0    0 -0.69422003106E+03  0.38924976483E+03 -0.22165163432E+03  0.82999254994E+03  0.79381074609E+02 0.  0.
        254    2    1    2    0    0  0.69422003106E+03 -0.38924976483E+03  0.15092946201E+04  0.19313489648E+04  0.90481033513E+03 0.  0.
         23    2    4    4    0    0  0.87499050275E+03 -0.31879602639E+03  0.14167372301E+04  0.16978328568E+04  0.90844613671E+02 0.  0.
         23    2    4    4    0    0 -0.18077047169E+03 -0.70453738447E+02  0.92557389995E+02  0.23351610806E+03  0.91220664240E+02 0.  0.
          1    1    3    3  502    0 -0.99768286927E+02  0.26879543975E+02 -0.36711612549E+02  0.10965383466E+03  0.00000000000E+00 0. -1.
         -2    1    3    3    0  502 -0.59445174413E+03  0.36237022086E+03 -0.18494002177E+03  0.72033871527E+03  0.00000000000E+00 0.  1.
         13    1    5    5    0    0  0.62050389902E+03 -0.26452595846E+03  0.98776048248E+03  0.11961061166E+04  0.00000000000E+00 0. -1.
        -13    1    5    5    0    0  0.25448660374E+03 -0.54270067922E+02  0.42897674767E+03  0.50172674017E+03  0.00000000000E+00 0.  1.
          3    1    6    6  503    0 -0.15131690330E+03 -0.24057168487E+02  0.42066675177E+02  0.15888724851E+03  0.00000000000E+00 0. -1.
         -3    1    6    6    0  503 -0.29453568399E+02 -0.46396569960E+02  0.50490714817E+02  0.74628859553E+02  0.00000000000E+00 0.  1.
<mgrwt>
<rscale>  0 0.24427408E+04</rscale>
<asrwt>0</asrwt>
<pdfrwt beam="1">  1        1 0.31146034E+00 0.24427408E+04</pdfrwt>
<pdfrwt beam="2">  1       -2 0.11336143E+00 0.24427408E+04</pdfrwt>
<totfact> 0.13739700E+00</totfact>
</mgrwt>
</event>
<event>
12    5  0.5264288E-008  0.1375181E+04  0.7818608E-02  0.8971983E-01
          1   -1    0    0  501    0  0.00000000000E+00  0.00000000000E+00  0.95142851001E+03  0.95142851001E+03  0.00000000000E+00 0. -1.
         -2   -1    0    0    0  501 -0.00000000000E+00 -0.00000000000E+00 -0.49691632721E+03  0.49691632721E+03  0.00000000000E+00 0.  1.
        -24    2    1    2    0    0 -0.99859760004E+01  0.26632040251E+03 -0.16806928342E+03  0.32551632326E+03  0.81776012160E+02 0.  0.
        254    2    1    2    0    0  0.99859760004E+01 -0.26632040251E+03  0.62258146622E+03  0.11228285140E+04  0.89560589166E+03 0.  0.
         23    2    4    4    0    0  0.19480769163E+03 -0.19572328692E+03  0.79388662138E+03  0.84559738748E+03  0.92311062975E+02 0.  0.
         23    2    4    4    0    0 -0.18482171563E+03 -0.70597115593E+02 -0.17130515516E+03  0.27723112648E+03  0.91480172739E+02 0.  0.
          1    1    3    3  502    0 -0.61727536523E+01  0.45197567261E+02  0.32988455111E+01  0.45736258654E+02  0.00000000000E+00 0. -1.
         -2    1    3    3    0  502 -0.38132223481E+01  0.22112283525E+03 -0.17136812893E+03  0.27978006460E+03  0.00000000000E+00 0.  1.
         13    1    5    5    0    0 -0.27549187453E+01 -0.10732606209E+01 -0.14485816844E+01  0.32923934379E+01  0.00000000000E+00 0. -1.
        -13    1    5    5    0    0  0.19756261037E+03 -0.19465002630E+03  0.79533520307E+03  0.84230499405E+03  0.00000000000E+00 0.  1.
          1    1    6    6  503    0 -0.32019132772E+02 -0.44950453702E+02 -0.15100960711E+02  0.57217192923E+02  0.00000000000E+00 0. -1.
         -1    1    6    6    0  503 -0.15280258286E+03 -0.25646661891E+02 -0.15620419445E+03  0.22001393356E+03  0.00000000000E+00 0.  1.
<mgrwt>
<rscale>  0 0.13751805E+04</rscale>
<asrwt>0</asrwt>
<pdfrwt beam="1">  1        1 0.14637362E+00 0.13751805E+04</pdfrwt>
<pdfrwt beam="2">  1       -2 0.76448666E-01 0.13751805E+04</pdfrwt>
<totfact> 0.21665074E+01</totfact>
</mgrwt>
</event>
<event>
12    5  0.5264288E-008  0.1402737E+04  0.7818608E-02  0.8951839E-01
         -2   -1    0    0    0  501 -0.00000000000E+00  0.00000000000E+00  0.38327570123E+03  0.38327570123E+03  0.00000000000E+00 0.  1.
          1   -1    0    0  501    0  0.00000000000E+00 -0.00000000000E+00 -0.12834575434E+04  0.12834575434E+04  0.00000000000E+00 0. -1.
        -24    2    1    2    0    0  0.12851650845E+03 -0.27782648456E+03 -0.57420036070E+03  0.65554992577E+03  0.79596497927E+02 0.  0.
        254    2    1    2    0    0 -0.12851650845E+03  0.27782648456E+03 -0.32598148144E+03  0.10111833188E+04  0.90693093981E+03 0.  0.
         23    2    4    4    0    0  0.23573298424E+03  0.95211222643E+02  0.20314818917E+03  0.33735717136E+03  0.88912639897E+02 0.  0.
         23    2    4    4    0    0 -0.36424949269E+03  0.18261526192E+03 -0.52912967061E+03  0.67382614748E+03  0.89651781330E+02 0.  0.
          3    1    3    3  502    0  0.13362854069E+03 -0.22749895789E+03 -0.45330383986E+03  0.52449664818E+03  0.00000000000E+00 0. -1.
         -4    1    3    3    0  502 -0.51120322351E+01 -0.50327526672E+02 -0.12089652084E+03  0.13105327759E+03  0.00000000000E+00 0.  1.
         13    1    5    5    0    0  0.16679552618E+02  0.27898933259E+02  0.56823002896E+02  0.65463055311E+02  0.00000000000E+00 0.  1.
        -13    1    5    5    0    0  0.21905343162E+03  0.67312289384E+02  0.14632518627E+03  0.27189411605E+03  0.00000000000E+00 0. -1.
          3    1    6    6  503    0 -0.26481203555E+03  0.98959632155E+02 -0.40661815091E+03  0.49523402914E+03  0.00000000000E+00 0. -1.
         -3    1    6    6    0  503 -0.99437457135E+02  0.83655629762E+02 -0.12251151970E+03  0.17859211833E+03  0.00000000000E+00 0.  1.
<mgrwt>
<rscale>  0 0.14027375E+04</rscale>
<asrwt>0</asrwt>
<pdfrwt beam="1">  1        1 0.19745501E+00 0.14027375E+04</pdfrwt>
<pdfrwt beam="2">  1       -2 0.58965492E-01 0.14027375E+04</pdfrwt>
<totfact> 0.21358095E+01</totfact>
</mgrwt>
</event>
<event>
12    5  0.5264288E-008  0.1552894E+04  0.7818608E-02  0.8850021E-01
          1   -1    0    0  501    0  0.00000000000E+00  0.00000000000E+00  0.45046266542E+03  0.45046266542E+03  0.00000000000E+00 0. -1.
         -2   -1    0    0    0  501 -0.00000000000E+00 -0.00000000000E+00 -0.13383351325E+04  0.13383351325E+04  0.00000000000E+00 0.  1.
        -24    2    1    2    0    0 -0.10424984506E+03 -0.49595783189E+03 -0.21893427632E+03  0.55515267638E+03  0.58481411866E+02 0.  0.
        254    2    1    2    0    0  0.10424984506E+03  0.49595783189E+03 -0.66893819072E+03  0.12336451215E+04  0.90419012470E+03 0.  0.
         23    2    4    4    0    0 -0.12365499709E+03 -0.11398135360E+03 -0.52755206214E+03  0.56118638762E+03  0.91305400191E+02 0.  0.
         23    2    4    4    0    0  0.22790484215E+03  0.60993918549E+03 -0.14138612857E+03  0.67245873388E+03  0.90798041568E+02 0.  0.
          3    1    3    3  502    0 -0.58618781870E+02 -0.19488453850E+03 -0.11276827563E+03  0.23266462757E+03  0.00000000000E+00 0. -1.
         -4    1    3    3    0  502 -0.45631063189E+02 -0.30107329339E+03 -0.10616600069E+03  0.32248804880E+03  0.00000000000E+00 0.  1.
         13    1    5    5    0    0 -0.17661939342E+02 -0.44401494289E+01 -0.18933112082E+03  0.19020497454E+03  0.00000000000E+00 0. -1.
        -13    1    5    5    0    0 -0.10599305775E+03 -0.10954120417E+03 -0.33822094132E+03  0.37098141308E+03  0.00000000000E+00 0.  1.
          1    1    6    6  503    0  0.49568638010E+02  0.15469691018E+03  0.36116016705E+01  0.16248454560E+03  0.00000000000E+00 0. -1.
         -1    1    6    6    0  503  0.17833620414E+03  0.45524227531E+03 -0.14499773024E+03  0.50997418828E+03  0.00000000000E+00 0.  1.
<mgrwt>
<rscale>  0 0.15528941E+04</rscale>
<asrwt>0</asrwt>
<pdfrwt beam="1">  1        1 0.69301950E-01 0.15528941E+04</pdfrwt>
<pdfrwt beam="2">  1       -2 0.20589771E+00 0.15528941E+04</pdfrwt>
<totfact> 0.52373291E+00</totfact>
</mgrwt>
</event>
<event>
12    5  0.5264288E-008  0.3140342E+04  0.7818608E-02  0.8204753E-01
         -4   -1    0    0    0  501 -0.00000000000E+00  0.00000000000E+00  0.11865533099E+04  0.11865533099E+04  0.00000000000E+00 0.  1.
          3   -1    0    0  501    0  0.00000000000E+00 -0.00000000000E+00 -0.20778143884E+04  0.20778143884E+04  0.00000000000E+00 0. -1.
        -24    2    1    2    0    0  0.30033692924E+02  0.15385387874E+03 -0.18985630609E+04  0.19066517253E+04  0.78778592750E+02 0.  0.
        254    2    1    2    0    0 -0.30033692924E+02 -0.15385387874E+03  0.10073019824E+04  0.13577159730E+04  0.89675099155E+03 0.  0.
         23    2    4    4    0    0 -0.16738662565E+03 -0.41507112282E+03  0.21018602455E+03  0.50277622164E+03  0.91123239006E+02 0.  0.
         23    2    4    4    0    0  0.13735293272E+03  0.26121724408E+03  0.79711595783E+03  0.85493975132E+03  0.91803330198E+02 0.  0.
          1    1    3    3  502    0  0.13983452730E+01  0.11081433172E+03 -0.15837311862E+04  0.15876039310E+04  0.00000000000E+00 0. -1.
         -4    1    3    3    0  502  0.28635347651E+02  0.43039547029E+02 -0.31483187471E+03  0.31904779434E+03  0.00000000000E+00 0.  1.
         13    1    5    5    0    0 -0.16877194257E+03 -0.34720336915E+03  0.15790409177E+03  0.41709453406E+03  0.00000000000E+00 0.  1.
        -13    1    5    5    0    0  0.13853169186E+01 -0.67867753670E+02  0.52281932780E+02  0.85681687579E+02  0.00000000000E+00 0. -1.
          4    1    6    6  503    0  0.22879007191E+02  0.14137548165E+03  0.35708885768E+03  0.38473747941E+03  0.00000000000E+00 0. -1.
         -4    1    6    6    0  503  0.11447392553E+03  0.11984176243E+03  0.44002710015E+03  0.47020227191E+03  0.00000000000E+00 0.  1.
<mgrwt>
<rscale>  0 0.31403424E+04</rscale>
<asrwt>0</asrwt>
<pdfrwt beam="1">  1        3 0.31966375E+00 0.31403424E+04</pdfrwt>
<pdfrwt beam="2">  1       -4 0.18254667E+00 0.31403424E+04</pdfrwt>
<totfact> 0.10011173E-02</totfact>
</mgrwt>
</event>
<event>
12    5  0.5264288E-008  0.2642480E+04  0.7818608E-02  0.8353913E-01
         -2   -1    0    0    0  501 -0.00000000000E+00  0.00000000000E+00  0.14162830908E+04  0.14162830908E+04  0.00000000000E+00 0.  1.
          1   -1    0    0  501    0  0.00000000000E+00 -0.00000000000E+00 -0.12325746599E+04  0.12325746599E+04  0.00000000000E+00 0. -1.
        -24    2    1    2    0    0  0.23310112106E+03 -0.11360171436E+04 -0.52104836914E+02  0.11636668786E+04  0.80836916417E+02 0.  0.
        254    2    1    2    0    0 -0.23310112106E+03  0.11360171436E+04  0.23581326781E+03  0.14851908720E+04  0.89739230323E+03 0.  0.
         23    2    4    4    0    0 -0.14717199026E+03  0.82606924332E+03 -0.26364739377E+03  0.88414245798E+03  0.90265986346E+02 0.  0.
         23    2    4    4    0    0 -0.85929130800E+02  0.30994790030E+03  0.49946066158E+03  0.60104841406E+03  0.91360424480E+02 0.  0.
          1    1    3    3  502    0  0.22849408176E+03 -0.11272144911E+04 -0.58872080411E+02  0.11516457685E+04  0.00000000000E+00 0. -1.
         -2    1    3    3    0  502  0.46070392939E+01 -0.88026525600E+01  0.67672434971E+01  0.12021110086E+02  0.00000000000E+00 0.  1.
         13    1    5    5    0    0 -0.15379940532E+02  0.71954463125E+02  0.25855049211E+01  0.73625214227E+02  0.00000000000E+00 0. -1.
        -13    1    5    5    0    0 -0.13179204973E+03  0.75411478019E+03 -0.26623289869E+03  0.81051724375E+03  0.00000000000E+00 0.  1.
          3    1    6    6  503    0  0.17306448688E+02  0.86435673080E+02  0.13368117677E+03  0.16012899728E+03  0.00000000000E+00 0. -1.
         -3    1    6    6    0  503 -0.10323557949E+03  0.22351222722E+03  0.36577948481E+03  0.44091941679E+03  0.00000000000E+00 0.  1.
<mgrwt>
<rscale>  0 0.26424796E+04</rscale>
<asrwt>0</asrwt>
<pdfrwt beam="1">  1        1 0.18962687E+00 0.26424796E+04</pdfrwt>
<pdfrwt beam="2">  1       -2 0.21788971E+00 0.26424796E+04</pdfrwt>
<totfact> 0.79414723E-01</totfact>
</mgrwt>
</event>
<event>
12    5  0.5264288E-008  0.2029602E+04  0.7818608E-02  0.8592904E-01
          1   -1    0    0  501    0  0.00000000000E+00  0.00000000000E+00  0.44229703995E+04  0.44229703995E+04  0.00000000000E+00 0. -1.
         -2   -1    0    0    0  501 -0.00000000000E+00 -0.00000000000E+00 -0.23283479958E+03  0.23283479958E+03  0.00000000000E+00 0.  1.
        -24    2    1    2    0    0  0.59751555309E+03  0.50214145561E+03  0.21971330193E+04  0.23331474633E+04  0.83741885820E+02 0.  0.
        254    2    1    2    0    0 -0.59751555309E+03 -0.50214145561E+03  0.19930025806E+04  0.23226577358E+04  0.90194722327E+03 0.  0.
         23    2    4    4    0    0 -0.45053311211E+03 -0.28830166925E+03  0.19729768069E+04  0.20465756053E+04  0.98672639853E+02 0.  0.
         23    2    4    4    0    0 -0.14698244098E+03 -0.21383978636E+03  0.20025773724E+02  0.27608213052E+03  0.92135872459E+02 0.  0.
          3    1    3    3  502    0  0.56000726016E+03  0.47628353491E+03  0.20004332842E+04  0.21312408268E+04  0.00000000000E+00 0. -1.
         -4    1    3    3    0  502  0.37508292934E+02  0.25857920700E+02  0.19669973508E+03  0.20190663655E+03  0.00000000000E+00 0.  1.
         13    1    5    5    0    0 -0.76033791221E+02 -0.95529422885E+02  0.40412108817E+03  0.42216212756E+03  0.00000000000E+00 0.  1.
        -13    1    5    5    0    0 -0.37449932089E+03 -0.19277224637E+03  0.15688557187E+04  0.16244134777E+04  0.00000000000E+00 0. -1.
          3    1    6    6  503    0 -0.14846682656E+03 -0.15361286365E+03  0.37064525863E+01  0.21366573955E+03  0.00000000000E+00 0. -1.
         -3    1    6    6    0  503  0.14843855767E+01 -0.60226922710E+02  0.16319321138E+02  0.62416390972E+02  0.00000000000E+00 0.  1.
<mgrwt>
<rscale>  0 0.20296024E+04</rscale>
<asrwt>0</asrwt>
<pdfrwt beam="1">  1        1 0.68045693E+00 0.20296024E+04</pdfrwt>
<pdfrwt beam="2">  1       -2 0.35820742E-01 0.20296024E+04</pdfrwt>
<totfact> 0.23249715E-01</totfact>
</mgrwt>
</event>
<event>
12    5  0.5264288E-008  0.2732405E+04  0.7818608E-02  0.8324567E-01
         -2   -1    0    0    0  501 -0.00000000000E+00  0.00000000000E+00  0.74584153992E+03  0.74584153992E+03  0.00000000000E+00 0.  1.
          1   -1    0    0  501    0  0.00000000000E+00 -0.00000000000E+00 -0.25025539732E+04  0.25025539732E+04  0.00000000000E+00 0. -1.
        -24    2    1    2    0    0  0.67144826807E+03  0.87496645262E+03 -0.13899695841E+04  0.17760872296E+04  0.77854559362E+02 0.  0.
        254    2    1    2    0    0 -0.67144826807E+03 -0.87496645262E+03 -0.36674284922E+03  0.14723082836E+04  0.90376008682E+03 0.  0.
         23    2    4    4    0    0 -0.11788891848E+03 -0.31227572864E+03  0.28208441158E+03  0.44630809791E+03  0.90583526144E+02 0.  0.
         23    2    4    4    0    0 -0.55355934960E+03 -0.56269072399E+03 -0.64882726080E+03  0.10260001857E+04  0.93009473990E+02 0.  0.
          3    1    3    3  502    0  0.44290019174E+03  0.52817954548E+03 -0.90413635511E+03  0.11369242546E+04  0.00000000000E+00 0. -1.
         -4    1    3    3    0  502  0.22854807633E+03  0.34678690715E+03 -0.48583322898E+03  0.63916297495E+03  0.00000000000E+00 0.  1.
         13    1    5    5    0    0 -0.29069664202E+02 -0.10666066792E+02  0.32344192798E+02  0.44776748044E+02  0.00000000000E+00 0. -1.
        -13    1    5    5    0    0 -0.88819254274E+02 -0.30160966184E+03  0.24974021878E+03  0.40153134987E+03  0.00000000000E+00 0.  1.
          2    1    6    6  503    0 -0.12904963818E+03 -0.11156264255E+03 -0.18852164344E+03  0.25424484729E+03  0.00000000000E+00 0. -1.
         -2    1    6    6    0  503 -0.42450971142E+03 -0.45112808144E+03 -0.46030561736E+03  0.77175533838E+03  0.00000000000E+00 0.  1.
<mgrwt>
<rscale>  0 0.27324046E+04</rscale>
<asrwt>0</asrwt>
<pdfrwt beam="1">  1        1 0.38500830E+00 0.27324046E+04</pdfrwt>
<pdfrwt beam="2">  1       -2 0.11474485E+00 0.27324046E+04</pdfrwt>
<totfact> 0.61234197E-01</totfact>
</mgrwt>
</event>
<event>
12    5  0.5264288E-008  0.1295087E+04  0.7818608E-02  0.9033470E-01
         -2   -1    0    0    0  501 -0.00000000000E+00  0.00000000000E+00  0.27954085174E+03  0.27954085174E+03  0.00000000000E+00 0.  1.
          1   -1    0    0  501    0  0.00000000000E+00 -0.00000000000E+00 -0.15000046754E+04  0.15000046754E+04  0.00000000000E+00 0. -1.
        -24    2    1    2    0    0  0.30591022646E+03  0.48345457366E+02 -0.17611417806E+03  0.36474651804E+03  0.78137499380E+02 0.  0.
        254    2    1    2    0    0 -0.30591022646E+03 -0.48345457366E+02 -0.10443496456E+04  0.14147990091E+04  0.90281321653E+03 0.  0.
         23    2    4    4    0    0 -0.33225045593E+03  0.38084532989E+03 -0.53449961988E+03  0.74169672226E+03  0.94819056037E+02 0.  0.
         23    2    4    4    0    0  0.26340229471E+02 -0.42919078725E+03 -0.50985002568E+03  0.67310228680E+03  0.90670283234E+02 0.  0.
          1    1    3    3  502    0  0.37651665954E+01  0.11374250537E+02  0.18789226903E+01  0.12127671056E+02  0.00000000000E+00 0. -1.
         -2    1    3    3    0  502  0.30214505986E+03  0.36971206829E+02 -0.17799310075E+03  0.35261884699E+03  0.00000000000E+00 0.  1.
         13    1    5    5    0    0 -0.77653176104E+02  0.86559264821E+02 -0.18578944362E+03  0.21918083731E+03  0.00000000000E+00 0.  1.
        -13    1    5    5    0    0 -0.25459727983E+03  0.29428606507E+03 -0.34871017626E+03  0.52251588494E+03  0.00000000000E+00 0. -1.
          4    1    6    6  503    0 -0.20757734856E+02 -0.24687911695E+03 -0.33058547018E+03  0.41311854840E+03  0.00000000000E+00 0. -1.
         -4    1    6    6    0  503  0.47097964328E+02 -0.18231167030E+03 -0.17926455550E+03  0.25998373839E+03  0.00000000000E+00 0.  1.
<mgrwt>
<rscale>  0 0.12950870E+04</rscale>
<asrwt>0</asrwt>
<pdfrwt beam="1">  1        1 0.23076996E+00 0.12950870E+04</pdfrwt>
<pdfrwt beam="2">  1       -2 0.43006284E-01 0.12950870E+04</pdfrwt>
<totfact> 0.28918734E+01</totfact>
</mgrwt>
</event>
<event>
12    5  0.5264288E-008  0.1570555E+04  0.7818608E-02  0.8838844E-01
         -2   -1    0    0    0  501 -0.00000000000E+00  0.00000000000E+00  0.10303351943E+04  0.10303351943E+04  0.00000000000E+00 0.  1.
          1   -1    0    0  501    0  0.00000000000E+00 -0.00000000000E+00 -0.59850522795E+03  0.59850522795E+03  0.00000000000E+00 0. -1.
        -24    2    1    2    0    0  0.26858746398E+03 -0.14584544843E+03 -0.29200545346E+03  0.43021681219E+03  0.80057479395E+02 0.  0.
        254    2    1    2    0    0 -0.26858746398E+03  0.14584544843E+03  0.72383541985E+03  0.11986236101E+04  0.90517993958E+03 0.  0.
         23    2    4    4    0    0 -0.39183047558E+02 -0.28248151519E+03  0.62568022442E+03  0.69452086263E+03  0.97736215172E+02 0.  0.
         23    2    4    4    0    0 -0.22940441643E+03  0.42832696362E+03  0.98155195436E+02  0.50410274748E+03  0.91622942426E+02 0.  0.
          1    1    3    3  502    0  0.14138606408E+03 -0.43964098226E+02 -0.17693814911E+03  0.23071621022E+03  0.00000000000E+00 0. -1.
         -2    1    3    3    0  502  0.12720139990E+03 -0.10188135021E+03 -0.11506730435E+03  0.19950060197E+03  0.00000000000E+00 0.  1.
         13    1    5    5    0    0  0.25832035250E+02 -0.26412540882E+02  0.87959281020E+02  0.95403099942E+02  0.00000000000E+00 0.  1.
        -13    1    5    5    0    0 -0.65015082807E+02 -0.25606897431E+03  0.53772094340E+03  0.59911776268E+03  0.00000000000E+00 0. -1.
          2    1    6    6  503    0 -0.11219788704E+03  0.26910635033E+03  0.94046836929E+02  0.30635176053E+03  0.00000000000E+00 0. -1.
         -2    1    6    6    0  503 -0.11720652938E+03  0.15922061330E+03  0.41083585073E+01  0.19775098695E+03  0.00000000000E+00 0.  1.
<mgrwt>
<rscale>  0 0.15705553E+04</rscale>
<asrwt>0</asrwt>
<pdfrwt beam="1">  1        1 0.92077728E-01 0.15705553E+04</pdfrwt>
<pdfrwt beam="2">  1       -2 0.15851311E+00 0.15705553E+04</pdfrwt>
<totfact> 0.74698243E+00</totfact>
</mgrwt>
</event>
<event>
12    5  0.5264288E-008  0.2493438E+04  0.7818608E-02  0.8405327E-01
          3   -1    0    0  501    0  0.00000000000E+00  0.00000000000E+00  0.13448453165E+04  0.13448453165E+04  0.00000000000E+00 0. -1.
         -4   -1    0    0    0  501 -0.00000000000E+00 -0.00000000000E+00 -0.11557527873E+04  0.11557527873E+04  0.00000000000E+00 0.  1.
        -24    2    1    2    0    0 -0.55452970343E+03  0.92225052021E+03 -0.46011689289E+02  0.10801602519E+04  0.81116461056E+02 0.  0.
        254    2    1    2    0    0  0.55452970343E+03 -0.92225052021E+03  0.23510421848E+03  0.14204378520E+04  0.89683916266E+03 0.  0.
         23    2    4    4    0    0  0.73613678094E+03 -0.40472823826E+03  0.14163352323E+03  0.85680661321E+03  0.91406840212E+02 0.  0.
         23    2    4    4    0    0 -0.18160707751E+03 -0.51752228195E+03  0.93470695253E+02  0.56363123874E+03  0.90182922403E+02 0.  0.
          3    1    3    3  502    0 -0.44794178451E+03  0.74488523786E+03 -0.50320691706E+01  0.86921296678E+03  0.00000000000E+00 0. -1.
         -4    1    3    3    0  502 -0.10658791892E+03  0.17736528235E+03 -0.40979620119E+02  0.21094728514E+03  0.00000000000E+00 0.  1.
         13    1    5    5    0    0  0.54280530737E+03 -0.34287847062E+03  0.10884494701E+03  0.65119157689E+03  0.00000000000E+00 0.  1.
        -13    1    5    5    0    0  0.19333147357E+03 -0.61849767644E+02  0.32788576221E+02  0.20561503632E+03  0.00000000000E+00 0. -1.
          1    1    6    6  503    0 -0.49868723167E+02 -0.56100896091E+02  0.23779172881E+02  0.78737850844E+02  0.00000000000E+00 0. -1.
         -1    1    6    6    0  503 -0.13173835435E+03 -0.46142138586E+03  0.69691522372E+02  0.48489338790E+03  0.00000000000E+00 0.  1.
<mgrwt>
<rscale>  0 0.24934384E+04</rscale>
<asrwt>0</asrwt>
<pdfrwt beam="1">  1        3 0.20689928E+00 0.24934384E+04</pdfrwt>
<pdfrwt beam="2">  1       -4 0.17780812E+00 0.24934384E+04</pdfrwt>
<totfact> 0.50555388E-02</totfact>
</mgrwt>
</event>
<event>
12    5  0.5264288E-008  0.1796360E+04  0.7818608E-02  0.8708238E-01
         -2   -1    0    0    0  501 -0.00000000000E+00  0.00000000000E+00  0.83147636588E+03  0.83147636588E+03  0.00000000000E+00 0.  1.
          1   -1    0    0  501    0  0.00000000000E+00 -0.00000000000E+00 -0.97023460795E+03  0.97023460795E+03  0.00000000000E+00 0. -1.
        -24    2    1    2    0    0 -0.34530485134E+03  0.86083496952E+02  0.51849530992E+03  0.63407024687E+03  0.81005448889E+02 0.  0.
        254    2    1    2    0    0  0.34530485134E+03 -0.86083496952E+02 -0.65725355200E+03  0.11676407270E+04  0.89708239690E+03 0.  0.
         23    2    4    4    0    0 -0.21751966795E+03  0.15374897619E+03 -0.42082970942E+03  0.50561527558E+03  0.87152790809E+02 0.  0.
         23    2    4    4    0    0  0.56282451928E+03 -0.23983247314E+03 -0.23642384258E+03  0.66202545138E+03  0.89946707873E+02 0.  0.
          1    1    3    3  502    0 -0.47133301198E+02  0.42705620656E+02  0.94904893984E+02  0.11424647487E+03  0.00000000000E+00 0. -1.
         -2    1    3    3    0  502 -0.29817155014E+03  0.43377876296E+02  0.42359041594E+03  0.51982377200E+03  0.00000000000E+00 0.  1.
         13    1    5    5    0    0 -0.14491258420E+03  0.84851970038E+02 -0.33083329446E+03  0.37101237527E+03  0.00000000000E+00 0. -1.
        -13    1    5    5    0    0 -0.72607083743E+02  0.68897006151E+02 -0.89996414962E+02  0.13460290031E+03  0.00000000000E+00 0.  1.
          1    1    6    6  503    0  0.62689427615E+02 -0.70985447879E+01 -0.33660048891E+01  0.63179772568E+02  0.00000000000E+00 0. -1.
         -1    1    6    6    0  503  0.50013509167E+03 -0.23273392835E+03 -0.23305783769E+03  0.59884567881E+03  0.00000000000E+00 0.  1.
<mgrwt>
<rscale>  0 0.17963598E+04</rscale>
<asrwt>0</asrwt>
<pdfrwt beam="1">  1        1 0.14926686E+00 0.17963598E+04</pdfrwt>
<pdfrwt beam="2">  1       -2 0.12791944E+00 0.17963598E+04</pdfrwt>
<totfact> 0.59773635E+00</totfact>
</mgrwt>
</event>
<event>
12    5  0.5264288E-008  0.1567288E+04  0.7818608E-02  0.8840900E-01
         -2   -1    0    0    0  501 -0.00000000000E+00  0.00000000000E+00  0.54255149982E+03  0.54255149982E+03  0.00000000000E+00 0.  1.
          1   -1    0    0  501    0  0.00000000000E+00 -0.00000000000E+00 -0.11318696818E+04  0.11318696818E+04  0.00000000000E+00 0. -1.
        -24    2    1    2    0    0  0.10554204047E+03  0.41569195742E+03 -0.49684699944E+03  0.66110316182E+03  0.79129791734E+02 0.  0.
        254    2    1    2    0    0 -0.10554204047E+03 -0.41569195742E+03 -0.92471182581E+02  0.10133180199E+04  0.91341313981E+03 0.  0.
         23    2    4    4    0    0  0.14791059611E+03 -0.59122658816E+02 -0.42054456213E+03  0.45895362149E+03  0.91693318784E+02 0.  0.
         23    2    4    4    0    0 -0.25345263658E+03 -0.35656929860E+03  0.32807337955E+03  0.55436439836E+03  0.91147353810E+02 0.  0.
          3    1    3    3  502    0  0.11113039358E+03  0.41380321269E+03 -0.49548619045E+03  0.65504933260E+03  0.00000000000E+00 0. -1.
         -4    1    3    3    0  502 -0.55883531061E+01  0.18887447254E+01 -0.13608089915E+01  0.60538292169E+01  0.00000000000E+00 0.  1.
         13    1    5    5    0    0  0.36561732849E+02 -0.42427912940E+02 -0.23780903659E+03  0.24431542315E+03  0.00000000000E+00 0. -1.
        -13    1    5    5    0    0  0.11134886326E+03 -0.16694745876E+02 -0.18273552554E+03  0.21463819833E+03  0.00000000000E+00 0.  1.
          1    1    6    6  503    0 -0.15852564142E+03 -0.28563503974E+03  0.26144641903E+03  0.41841604288E+03  0.00000000000E+00 0. -1.
         -1    1    6    6    0  503 -0.94926995160E+02 -0.70934258863E+02  0.66626960520E+02  0.13594835548E+03  0.00000000000E+00 0.  1.
<mgrwt>
<rscale>  0 0.15672876E+04</rscale>
<asrwt>0</asrwt>
<pdfrwt beam="1">  1        1 0.17413380E+00 0.15672876E+04</pdfrwt>
<pdfrwt beam="2">  1       -2 0.83469462E-01 0.15672876E+04</pdfrwt>
<totfact> 0.12713725E+01</totfact>
</mgrwt>
</event>
<event>
12    5  0.5264288E-008  0.2102264E+04  0.7818608E-02  0.8560247E-01
          1   -1    0    0  501    0  0.00000000000E+00  0.00000000000E+00  0.17902383128E+04  0.17902383128E+04  0.00000000000E+00 0. -1.
         -2   -1    0    0    0  501 -0.00000000000E+00 -0.00000000000E+00 -0.61716848279E+03  0.61716848279E+03  0.00000000000E+00 0.  1.
        -24    2    1    2    0    0 -0.14147388684E+03 -0.75910267214E+02 -0.48659707009E+03  0.51855955675E+03  0.79687363776E+02 0.  0.
        254    2    1    2    0    0  0.14147388684E+03  0.75910267214E+02  0.16596669001E+04  0.18888472388E+04  0.88739644074E+03 0.  0.
         23    2    4    4    0    0  0.45713333903E+03  0.21477534383E+03  0.72550286013E+03  0.88887968079E+03  0.93023378161E+02 0.  0.
         23    2    4    4    0    0 -0.31565945219E+03 -0.13886507662E+03  0.93416403996E+03  0.99996755804E+03  0.91368836699E+02 0.  0.
          3    1    3    3  502    0 -0.37162658540E+02 -0.63004818807E+01 -0.41182181774E+02  0.55827693463E+02  0.00000000000E+00 0. -1.
         -4    1    3    3    0  502 -0.10431122830E+03 -0.69609785333E+02 -0.44541488832E+03  0.46273186328E+03  0.00000000000E+00 0.  1.
         13    1    5    5    0    0  0.18685511972E+03  0.11901840352E+03  0.38027396558E+03  0.44010056242E+03  0.00000000000E+00 0.  1.
        -13    1    5    5    0    0  0.27027821931E+03  0.95756940308E+02  0.34522889456E+03  0.44877911837E+03  0.00000000000E+00 0. -1.
          2    1    6    6  503    0 -0.85905278761E+02 -0.47571219237E+02  0.39172234096E+03  0.40384295243E+03  0.00000000000E+00 0. -1.
         -2    1    6    6    0  503 -0.22975417343E+03 -0.91293857380E+02  0.54244169901E+03  0.59612460562E+03  0.00000000000E+00 0.  1.
<mgrwt>
<rscale>  0 0.21022642E+04</rscale>
<asrwt>0</asrwt>
<pdfrwt beam="1">  1        1 0.27542128E+00 0.21022642E+04</pdfrwt>
<pdfrwt beam="2">  1       -2 0.94948998E-01 0.21022642E+04</pdfrwt>
<totfact> 0.31169784E+00</totfact>
</mgrwt>
</event>
<event>
12    5  0.5264288E-008  0.1225207E+04  0.7818608E-02  0.9091075E-01
         -2   -1    0    0    0  501 -0.00000000000E+00  0.00000000000E+00  0.53530579420E+03  0.53530579420E+03  0.00000000000E+00 0.  1.
          1   -1    0    0  501    0  0.00000000000E+00 -0.00000000000E+00 -0.70106242451E+03  0.70106242451E+03  0.00000000000E+00 0. -1.
        -24    2    1    2    0    0  0.73399531756E+01 -0.20389108853E+03 -0.17229493893E+03  0.27939671828E+03  0.82167690176E+02 0.  0.
        254    2    1    2    0    0 -0.73399531756E+01  0.20389108853E+03  0.65383086123E+01  0.95697150043E+03  0.93494719223E+03 0.  0.
         23    2    4    4    0    0  0.56678725438E+02  0.32253768232E+03 -0.39634816964E+03  0.52230497928E+03  0.92019483648E+02 0.  0.
         23    2    4    4    0    0 -0.64018678613E+02 -0.11864659379E+03  0.40288647825E+03  0.43466652115E+03  0.91880709751E+02 0.  0.
          3    1    3    3  502    0  0.34085636918E+02 -0.10743160218E+03 -0.12617285195E+03  0.16918323901E+03  0.00000000000E+00 0. -1.
         -4    1    3    3    0  502 -0.26745683742E+02 -0.96459486350E+02 -0.46122086976E+02  0.11021347927E+03  0.00000000000E+00 0.  1.
         13    1    5    5    0    0  0.12158779247E+01  0.24346230409E+03 -0.27771684721E+03  0.36932643975E+03  0.00000000000E+00 0. -1.
        -13    1    5    5    0    0  0.55462847513E+02  0.79075378231E+02 -0.11863132243E+03  0.15297853953E+03  0.00000000000E+00 0.  1.
          2    1    6    6  503    0 -0.37238635681E+02 -0.12847275346E+03  0.34774154358E+03  0.37258038797E+03  0.00000000000E+00 0. -1.
         -2    1    6    6    0  503 -0.26780042932E+02  0.98261596766E+01  0.55144934674E+02  0.62086133184E+02  0.00000000000E+00 0.  1.
<mgrwt>
<rscale>  0 0.12252066E+04</rscale>
<asrwt>0</asrwt>
<pdfrwt beam="1">  1        1 0.10785576E+00 0.12252066E+04</pdfrwt>
<pdfrwt beam="2">  1       -2 0.82354738E-01 0.12252066E+04</pdfrwt>
<totfact> 0.30452194E+01</totfact>
</mgrwt>
</event>
<event>
12    5  0.5264288E-008  0.1882110E+04  0.7818608E-02  0.8663813E-01
          1   -1    0    0  501    0  0.00000000000E+00  0.00000000000E+00  0.95164381790E+03  0.95164381790E+03  0.00000000000E+00 0. -1.
         -2   -1    0    0    0  501 -0.00000000000E+00 -0.00000000000E+00 -0.93058408230E+03  0.93058408230E+03  0.00000000000E+00 0.  1.
        -24    2    1    2    0    0  0.65530197766E+03  0.11455624444E+03 -0.27223074975E+03  0.72325395702E+03  0.80267615991E+02 0.  0.
        254    2    1    2    0    0 -0.65530197766E+03 -0.11455624444E+03  0.29329048534E+03  0.11589739432E+04  0.90258377844E+03 0.  0.
         23    2    4    4    0    0  0.20797781765E+03  0.38596088555E+02  0.12127781147E+01  0.23066116095E+03  0.91971026155E+02 0.  0.
         23    2    4    4    0    0 -0.86327979531E+03 -0.15315233300E+03  0.29207770723E+03  0.92831278223E+03  0.88020409492E+02 0.  0.
          1    1    3    3  502    0  0.27587735486E+03  0.76670654611E+02 -0.86494002170E+02  0.29911187976E+03  0.00000000000E+00 0. -1.
         -2    1    3    3    0  502  0.37942462280E+03  0.37885589831E+02 -0.18573674758E+03  0.42414207726E+03  0.00000000000E+00 0.  1.
         13    1    5    5    0    0  0.15648366535E+02  0.36285554348E+01 -0.28713476003E+02  0.32901390456E+02  0.00000000000E+00 0. -1.
        -13    1    5    5    0    0  0.19232945112E+03  0.34967533120E+02  0.29926254118E+02  0.19775977049E+03  0.00000000000E+00 0.  1.
          3    1    6    6  503    0 -0.20770012886E+03 -0.16241671210E+02  0.10303299843E+03  0.23241973706E+03  0.00000000000E+00 0. -1.
         -3    1    6    6    0  503 -0.65557966646E+03 -0.13691066179E+03  0.18904470880E+03  0.69589304516E+03  0.00000000000E+00 0.  1.
<mgrwt>
<rscale>  0 0.18821101E+04</rscale>
<asrwt>0</asrwt>
<pdfrwt beam="1">  1        1 0.14640674E+00 0.18821101E+04</pdfrwt>
<pdfrwt beam="2">  1       -2 0.14316678E+00 0.18821101E+04</pdfrwt>
<totfact> 0.45975026E+00</totfact>
</mgrwt>
</event>
<event>
12    5  0.5264288E-008  0.2065658E+04  0.7818608E-02  0.8576524E-01
          1   -1    0    0  501    0  0.00000000000E+00  0.00000000000E+00  0.96732951069E+03  0.96732951069E+03  0.00000000000E+00 0. -1.
         -2   -1    0    0    0  501 -0.00000000000E+00 -0.00000000000E+00 -0.11027631766E+04  0.11027631766E+04  0.00000000000E+00 0.  1.
        -24    2    1    2    0    0  0.51877981426E+03  0.30125714236E+03 -0.63949377297E+03  0.88039630368E+03  0.79101228502E+02 0.  0.
        254    2    1    2    0    0 -0.51877981426E+03 -0.30125714236E+03  0.50406010709E+03  0.11896963836E+04  0.89521647216E+03 0.  0.
         23    2    4    4    0    0 -0.45946992925E+03 -0.46067409443E+03  0.66728563676E+03  0.93651609797E+03  0.91973058892E+02 0.  0.
         23    2    4    4    0    0 -0.59309885018E+02  0.15941695206E+03 -0.16322552968E+03  0.25318028561E+03  0.92337730196E+02 0.  0.
          1    1    3    3  502    0  0.34491408321E+03  0.18125642839E+03 -0.46284083855E+03  0.60501343742E+03  0.00000000000E+00 0. -1.
         -2    1    3    3    0  502  0.17386573106E+03  0.12000071397E+03 -0.17665293441E+03  0.27538286626E+03  0.00000000000E+00 0.  1.
         13    1    5    5    0    0 -0.42248841506E+03 -0.40441656702E+03  0.55914196064E+03  0.80912851433E+03  0.00000000000E+00 0. -1.
        -13    1    5    5    0    0 -0.36981514187E+02 -0.56257527402E+02  0.10814367612E+03  0.12738758364E+03  0.00000000000E+00 0.  1.
          3    1    6    6  503    0 -0.31514859829E+02  0.13178700900E+03 -0.71009329909E+02  0.15298145988E+03  0.00000000000E+00 0. -1.
         -3    1    6    6    0  503 -0.27795025189E+02  0.27629943061E+02 -0.92216199769E+02  0.10019882573E+03  0.00000000000E+00 0.  1.
<mgrwt>
<rscale>  0 0.20656576E+04</rscale>
<asrwt>0</asrwt>
<pdfrwt beam="1">  1        1 0.14881993E+00 0.20656576E+04</pdfrwt>
<pdfrwt beam="2">  1       -2 0.16965587E+00 0.20656576E+04</pdfrwt>
<totfact> 0.27821943E+00</totfact>
</mgrwt>
</event>
<event>
12    5  0.5264288E-008  0.1544999E+04  0.7818608E-02  0.8855068E-01
          1   -1    0    0  501    0  0.00000000000E+00  0.00000000000E+00  0.17791145539E+04  0.17791145539E+04  0.00000000000E+00 0. -1.
         -2   -1    0    0    0  501 -0.00000000000E+00 -0.00000000000E+00 -0.33542271733E+03  0.33542271733E+03  0.00000000000E+00 0.  1.
        -24    2    1    2    0    0 -0.11472651936E+03  0.44414579166E+03  0.16249221497E+03  0.49365673086E+03  0.82858852887E+02 0.  0.
        254    2    1    2    0    0  0.11472651936E+03 -0.44414579166E+03  0.12811996216E+04  0.16208805404E+04  0.88054164994E+03 0.  0.
         23    2    4    4    0    0  0.34884913410E+03 -0.49993302866E+03  0.48735533604E+03  0.78614205651E+03  0.94209118122E+02 0.  0.
         23    2    4    4    0    0 -0.23412261474E+03  0.55787236999E+02  0.79384428554E+03  0.83473848385E+03  0.93134162324E+02 0.  0.
          3    1    3    3  502    0 -0.22117401175E+02  0.27484389698E+02  0.31187470466E+02  0.47087465699E+02  0.00000000000E+00 0. -1.
         -4    1    3    3    0  502 -0.92609118183E+02  0.41666140196E+03  0.13130474451E+03  0.44656926516E+03  0.00000000000E+00 0.  1.
         13    1    5    5    0    0  0.24185060686E+03 -0.37939355634E+03  0.30937011062E+03  0.54602294089E+03  0.00000000000E+00 0. -1.
        -13    1    5    5    0    0  0.10699852724E+03 -0.12053947232E+03  0.17798522542E+03  0.24011911562E+03  0.00000000000E+00 0.  1.
          4    1    6    6  503    0 -0.54621704110E+02 -0.25457530486E+02  0.15979068432E+03  0.17077669400E+03  0.00000000000E+00 0.  1.
         -4    1    6    6    0  503 -0.17950091063E+03  0.81244767485E+02  0.63405360121E+03  0.66396178984E+03  0.00000000000E+00 0. -1.
<mgrwt>
<rscale>  0 0.15449989E+04</rscale>
<asrwt>0</asrwt>
<pdfrwt beam="1">  1        1 0.27370993E+00 0.15449989E+04</pdfrwt>
<pdfrwt beam="2">  1       -2 0.51603496E-01 0.15449989E+04</pdfrwt>
<totfact> 0.12634478E+01</totfact>
</mgrwt>
</event>
<event>
12    5  0.5264288E-008  0.2758300E+04  0.7818608E-02  0.8316333E-01
          1   -1    0    0  501    0  0.00000000000E+00  0.00000000000E+00  0.24003576306E+04  0.24003576306E+04  0.00000000000E+00 0. -1.
         -2   -1    0    0    0  501 -0.00000000000E+00 -0.00000000000E+00 -0.79240445471E+03  0.79240445471E+03  0.00000000000E+00 0.  1.
        -24    2    1    2    0    0 -0.32327443916E+03 -0.69194861020E+03 -0.39902013365E+03  0.86531298598E+03  0.79058550938E+02 0.  0.
        254    2    1    2    0    0  0.32327443916E+03  0.69194861020E+03  0.20069733095E+04  0.23274490993E+04  0.89765149282E+03 0.  0.
         23    2    4    4    0    0  0.10679693854E+03  0.85458403051E+03  0.12721608719E+04  0.15390731708E+04  0.92916575293E+02 0.  0.
         23    2    4    4    0    0  0.21647750062E+03 -0.16263542031E+03  0.73481243767E+03  0.78837592849E+03  0.90964266953E+02 0.  0.
          1    1    3    3  502    0 -0.20464217475E+02 -0.10798558674E+03 -0.62275808657E+02  0.12632476988E+03  0.00000000000E+00 0. -1.
         -2    1    3    3    0  502 -0.30281022169E+03 -0.58396302346E+03 -0.33674432499E+03  0.73898821611E+03  0.00000000000E+00 0.  1.
         13    1    5    5    0    0  0.11794016801E+03  0.79256582109E+03  0.12038216590E+04  0.14461179242E+04  0.00000000000E+00 0.  1.
        -13    1    5    5    0    0 -0.11143229474E+02  0.62018209414E+02  0.68339212924E+02  0.92955246679E+02  0.00000000000E+00 0. -1.
          2    1    6    6  503    0  0.13835372300E+03 -0.57897695272E+02  0.31862206247E+03  0.35215609391E+03  0.00000000000E+00 0. -1.
         -2    1    6    6    0  503  0.78123777618E+02 -0.10473772503E+03  0.41619037520E+03  0.43621983458E+03  0.00000000000E+00 0.  1.
<mgrwt>
<rscale>  0 0.27582995E+04</rscale>
<asrwt>0</asrwt>
<pdfrwt beam="1">  1        1 0.36928579E+00 0.27582995E+04</pdfrwt>
<pdfrwt beam="2">  1       -2 0.12190838E+00 0.27582995E+04</pdfrwt>
<totfact> 0.61917759E-01</totfact>
</mgrwt>
</event>
<event>
12    5  0.5264288E-008  0.2453056E+04  0.7818608E-02  0.8419903E-01
         -2   -1    0    0    0  501 -0.00000000000E+00  0.00000000000E+00  0.13175790535E+04  0.13175790535E+04  0.00000000000E+00 0.  1.
          1   -1    0    0  501    0  0.00000000000E+00 -0.00000000000E+00 -0.11417691784E+04  0.11417691784E+04  0.00000000000E+00 0. -1.
        -24    2    1    2    0    0  0.10004608920E+04  0.37409347830E+02  0.43098596751E+03  0.10930692362E+04  0.82036548312E+02 0.  0.
        254    2    1    2    0    0 -0.10004608920E+04 -0.37409347830E+02 -0.25517609237E+03  0.13662789957E+04  0.89402572680E+03 0.  0.
         23    2    4    4    0    0  0.12587620354E+02 -0.52518939778E+02 -0.32983359554E+03  0.34627180209E+03  0.90538792547E+02 0.  0.
         23    2    4    4    0    0 -0.10130485124E+04  0.15109591949E+02  0.74657503162E+02  0.10200071936E+04  0.91352854532E+02 0.  0.
          3    1    3    3  502    0  0.79518514380E+03  0.38503349536E+01  0.36402213965E+03  0.87455494748E+03  0.00000000000E+00 0. -1.
         -4    1    3    3    0  502  0.20527574822E+03  0.33559012876E+02  0.66963827857E+02  0.21851428877E+03  0.00000000000E+00 0.  1.
         13    1    5    5    0    0  0.51886172192E+02 -0.33107279424E+02 -0.19746783464E+03  0.20683764777E+03  0.00000000000E+00 0. -1.
        -13    1    5    5    0    0 -0.39298551838E+02 -0.19411660354E+02 -0.13236576089E+03  0.13943415432E+03  0.00000000000E+00 0.  1.
          3    1    6    6  503    0 -0.90120738865E+03 -0.14446552635E+02  0.73580185762E+02  0.90432157111E+03  0.00000000000E+00 0. -1.
         -3    1    6    6    0  503 -0.11184112373E+03  0.29556144584E+02  0.10773174003E+01  0.11568562249E+03  0.00000000000E+00 0.  1.
<mgrwt>
<rscale>  0 0.24530562E+04</rscale>
<asrwt>0</asrwt>
<pdfrwt beam="1">  1        1 0.17565680E+00 0.24530562E+04</pdfrwt>
<pdfrwt beam="2">  1       -2 0.20270447E+00 0.24530562E+04</pdfrwt>
<totfact> 0.11787206E+00</totfact>
</mgrwt>
</event>
<event>
12    5  0.5264288E-008  0.1609940E+04  0.7818608E-02  0.8814464E-01
          1   -1    0    0  501    0  0.00000000000E+00  0.00000000000E+00  0.24494559582E+03  0.24494559582E+03  0.00000000000E+00 0. -1.
         -2   -1    0    0    0  501 -0.00000000000E+00 -0.00000000000E+00 -0.26453913690E+04  0.26453913690E+04  0.00000000000E+00 0.  1.
        -24    2    1    2    0    0  0.30845044390E+03 -0.44828921693E+03 -0.98326687090E+03  0.11262925317E+04  0.74941505844E+02 0.  0.
        254    2    1    2    0    0 -0.30845044390E+03  0.44828921693E+03 -0.14171789023E+04  0.17640444331E+04  0.89852758579E+03 0.  0.
         23    2    4    4    0    0  0.21078431284E+03 -0.51284928420E+02 -0.91283289026E+02  0.25230570784E+03  0.90914030443E+02 0.  0.
         23    2    4    4    0    0 -0.51923475674E+03  0.49957414536E+03 -0.13258956133E+04  0.15117387252E+04  0.90419780985E+02 0.  0.
          3    1    3    3  502    0 -0.27673535815E+01 -0.96663567901E+01 -0.31711025762E+02  0.33266888257E+02  0.00000000000E+00 0. -1.
         -4    1    3    3    0  502  0.31121779748E+03 -0.43862286014E+03 -0.95155584514E+03  0.10930256435E+04  0.00000000000E+00 0.  1.
         13    1    5    5    0    0  0.18394960895E+03 -0.56807318290E+02 -0.43731134956E+02  0.19742578911E+03  0.00000000000E+00 0. -1.
        -13    1    5    5    0    0  0.26834703897E+02  0.55223898701E+01 -0.47552154070E+02  0.54879918730E+02  0.00000000000E+00 0.  1.
          4    1    6    6  503    0 -0.13856833429E+03  0.16617287740E+03 -0.47069582391E+03  0.51804359575E+03  0.00000000000E+00 0. -1.
         -4    1    6    6    0  503 -0.38066642245E+03  0.33340126795E+03 -0.85519978934E+03  0.99369512947E+03  0.00000000000E+00 0.  1.
<mgrwt>
<rscale>  0 0.16099403E+04</rscale>
<asrwt>0</asrwt>
<pdfrwt beam="1">  1        1 0.37683937E-01 0.16099403E+04</pdfrwt>
<pdfrwt beam="2">  1       -2 0.40698329E+00 0.16099403E+04</pdfrwt>
<totfact> 0.64338543E-01</totfact>
</mgrwt>
</event>
<event>
12    5  0.5264288E-008  0.2486635E+04  0.7818608E-02  0.8407762E-01
         -2   -1    0    0    0  501 -0.00000000000E+00  0.00000000000E+00  0.82157677690E+03  0.82157677690E+03  0.00000000000E+00 0.  1.
          1   -1    0    0  501    0  0.00000000000E+00 -0.00000000000E+00 -0.18815502925E+04  0.18815502925E+04  0.00000000000E+00 0. -1.
        -24    2    1    2    0    0 -0.44412892678E+03  0.40701149526E+03  0.50804519541E+03  0.79200843234E+03  0.79111158751E+02 0.  0.
        254    2    1    2    0    0  0.44412892678E+03 -0.40701149526E+03 -0.15680187111E+04  0.19111186371E+04  0.91147293214E+03 0.  0.
         23    2    4    4    0    0  0.21221024884E+03  0.19755160965E+03 -0.12905523594E+03  0.33077007083E+03  0.93240321989E+02 0.  0.
         23    2    4    4    0    0  0.23191867795E+03 -0.60456310491E+03 -0.14389634751E+04  0.15803485663E+04  0.87194536857E+02 0.  0.
          3    1    3    3  502    0 -0.20294464175E+02  0.31641573038E+02  0.12512715910E+02  0.39618461352E+02  0.00000000000E+00 0. -1.
         -4    1    3    3    0  502 -0.42383446261E+03  0.37536992222E+03  0.49553247950E+03  0.75238997099E+03  0.00000000000E+00 0.  1.
         13    1    5    5    0    0  0.55579459141E+02  0.11425189181E+03 -0.57993982111E+02  0.13966342764E+03  0.00000000000E+00 0. -1.
        -13    1    5    5    0    0  0.15663078969E+03  0.83299717842E+02 -0.71061253833E+02  0.19110664318E+03  0.00000000000E+00 0.  1.
          1    1    6    6  503    0  0.20467469644E+02 -0.20063508357E+02 -0.10216706073E+03  0.10611112091E+03  0.00000000000E+00 0. -1.
         -1    1    6    6    0  503  0.21145120830E+03 -0.58449959655E+03 -0.13367964144E+04  0.14742374454E+04  0.00000000000E+00 0.  1.
<mgrwt>
<rscale>  0 0.24866347E+04</rscale>
<asrwt>0</asrwt>
<pdfrwt beam="1">  1        1 0.28946927E+00 0.24866347E+04</pdfrwt>
<pdfrwt beam="2">  1       -2 0.12639643E+00 0.24866347E+04</pdfrwt>
<totfact> 0.13066626E+00</totfact>
</mgrwt>
</event>
<event>
12    5  0.5264288E-008  0.1435834E+04  0.7818608E-02  0.8928281E-01
          1   -1    0    0  501    0  0.00000000000E+00  0.00000000000E+00  0.47900725467E+03  0.47900725467E+03  0.00000000000E+00 0. -1.
         -2   -1    0    0    0  501 -0.00000000000E+00 -0.00000000000E+00 -0.10759854805E+04  0.10759854805E+04  0.00000000000E+00 0.  1.
        -24    2    1    2    0    0 -0.26472933837E+03  0.12143776053E+03 -0.51632375974E+03  0.59837536044E+03  0.81449952864E+02 0.  0.
        254    2    1    2    0    0  0.26472933837E+03 -0.12143776053E+03 -0.80654466127E+02  0.95661737478E+03  0.90762487105E+03 0.  0.
         23    2    4    4    0    0  0.13802339258E+03  0.37937592815E+03 -0.11421187444E+03  0.43024539025E+03  0.95342497370E+02 0.  0.
         23    2    4    4    0    0  0.12670594580E+03 -0.50081368869E+03  0.33557408310E+02  0.52637198454E+03  0.95250296466E+02 0.  0.
          1    1    3    3  502    0 -0.13058485955E+03  0.38424044251E+02 -0.31069414217E+03  0.33920445560E+03  0.00000000000E+00 0. -1.
         -2    1    3    3    0  502 -0.13414447882E+03  0.83013716280E+02 -0.20562961758E+03  0.25917090484E+03  0.00000000000E+00 0.  1.
         13    1    5    5    0    0  0.12602268731E+03  0.23300008468E+03 -0.98176846778E+02  0.28250566441E+03  0.00000000000E+00 0.  1.
        -13    1    5    5    0    0  0.12000705265E+02  0.14637584347E+03 -0.16035027660E+02  0.14773972584E+03  0.00000000000E+00 0. -1.
          3    1    6    6  503    0  0.12620783877E+03 -0.44322236354E+03  0.23078327821E+01  0.46084683812E+03  0.00000000000E+00 0. -1.
         -3    1    6    6    0  503  0.49810702548E+00 -0.57591325141E+02  0.31249575528E+02  0.65525146416E+02  0.00000000000E+00 0.  1.
<mgrwt>
<rscale>  0 0.14358340E+04</rscale>
<asrwt>0</asrwt>
<pdfrwt beam="1">  1        1 0.73693424E-01 0.14358340E+04</pdfrwt>
<pdfrwt beam="2">  1       -2 0.16553623E+00 0.14358340E+04</pdfrwt>
<totfact> 0.91638632E+00</totfact>
</mgrwt>
</event>
<event>
12    5  0.5264288E-008  0.1378610E+04  0.7818608E-02  0.8969449E-01
         -2   -1    0    0    0  501 -0.00000000000E+00  0.00000000000E+00  0.12184158893E+04  0.12184158893E+04  0.00000000000E+00 0.  1.
          1   -1    0    0  501    0  0.00000000000E+00 -0.00000000000E+00 -0.38996668602E+03  0.38996668602E+03  0.00000000000E+00 0. -1.
        -24    2    1    2    0    0  0.15285292255E+03  0.25958269612E+03  0.56124164727E+03  0.64181263111E+03  0.78638888396E+02 0.  0.
        254    2    1    2    0    0 -0.15285292255E+03 -0.25958269612E+03  0.26720755605E+03  0.96656994424E+03  0.87869812054E+03 0.  0.
         23    2    4    4    0    0 -0.22246145999E+03 -0.51691664901E+03  0.35425828342E+03  0.67157046741E+03  0.93893759766E+02 0.  0.
         23    2    4    4    0    0  0.69608537445E+02  0.25733395289E+03 -0.87050727368E+02  0.29499947683E+03  0.91546438510E+02 0.  0.
          1    1    3    3  502    0 -0.37713547951E+01  0.47696485955E+02  0.85306545185E+02  0.97807896107E+02  0.00000000000E+00 0. -1.
         -2    1    3    3    0  502  0.15662427734E+03  0.21188621017E+03  0.47593510208E+03  0.54400473500E+03  0.00000000000E+00 0.  1.
         13    1    5    5    0    0 -0.17303960856E+03 -0.47232740669E+03  0.29998455072E+03  0.58568474106E+03  0.00000000000E+00 0.  1.
        -13    1    5    5    0    0 -0.49421851430E+02 -0.44589242317E+02  0.54273732699E+02  0.85885726347E+02  0.00000000000E+00 0. -1.
          3    1    6    6  503    0  0.12890673855E+02  0.97399480481E+01 -0.30886412209E+02  0.34856943635E+02  0.00000000000E+00 0. -1.
         -3    1    6    6    0  503  0.56717863590E+02  0.24759400484E+03 -0.56164315159E+02  0.26014253320E+03  0.00000000000E+00 0.  1.
<mgrwt>
<rscale>  0 0.13786103E+04</rscale>
<asrwt>0</asrwt>
<pdfrwt beam="1">  1        1 0.59994875E-01 0.13786103E+04</pdfrwt>
<pdfrwt beam="2">  1       -2 0.18744860E+00 0.13786103E+04</pdfrwt>
<totfact> 0.85319783E+00</totfact>
</mgrwt>
</event>
<event>
12    5  0.5264288E-008  0.1368649E+04  0.7818608E-02  0.8976830E-01
         -2   -1    0    0    0  501 -0.00000000000E+00  0.00000000000E+00  0.36559915788E+03  0.36559915788E+03  0.00000000000E+00 0.  1.
          1   -1    0    0  501    0  0.00000000000E+00 -0.00000000000E+00 -0.12809111522E+04  0.12809111522E+04  0.00000000000E+00 0. -1.
        -24    2    1    2    0    0  0.91615580747E+02  0.31240949921E+03 -0.42598466012E+03  0.54204702001E+03  0.79742908262E+02 0.  0.
        254    2    1    2    0    0 -0.91615580747E+02 -0.31240949921E+03 -0.48932733423E+03  0.11044632901E+04  0.93509614976E+03 0.  0.
         23    2    4    4    0    0 -0.28583536842E+03 -0.57686830885E+03 -0.31568670950E+03  0.72273193455E+03  0.90578402819E+02 0.  0.
         23    2    4    4    0    0  0.19421978768E+03  0.26445880965E+03 -0.17364062472E+03  0.38173135554E+03  0.88926786303E+02 0.  0.
          1    1    3    3  502    0  0.55989758651E+02  0.27867174974E+03 -0.34114965230E+03  0.44404491039E+03  0.00000000000E+00 0. -1.
         -2    1    3    3    0  502  0.35625822096E+02  0.33737749464E+02 -0.84835007822E+02  0.98002109626E+02  0.00000000000E+00 0.  1.
         13    1    5    5    0    0 -0.32525471535E+02 -0.43765517338E+02 -0.55172230492E+02  0.77571269320E+02  0.00000000000E+00 0.  1.
        -13    1    5    5    0    0 -0.25330989689E+03 -0.53310279151E+03 -0.26051447901E+03  0.64516066523E+03  0.00000000000E+00 0. -1.
          2    1    6    6  503    0  0.96730604374E+02  0.68616610035E+02 -0.38957237848E+02  0.12483074692E+03  0.00000000000E+00 0.  1.
         -2    1    6    6    0  503  0.97489183303E+02  0.19584219961E+03 -0.13468338688E+03  0.25690060862E+03  0.00000000000E+00 0. -1.
<mgrwt>
<rscale>  0 0.13686490E+04</rscale>
<asrwt>0</asrwt>
<pdfrwt beam="1">  1        1 0.19706326E+00 0.13686490E+04</pdfrwt>
<pdfrwt beam="2">  1       -2 0.56246024E-01 0.13686490E+04</pdfrwt>
<totfact> 0.23746252E+01</totfact>
</mgrwt>
</event>
<event>
12    5  0.5264288E-008  0.1318987E+04  0.7818608E-02  0.9014642E-01
          1   -1    0    0  501    0  0.00000000000E+00  0.00000000000E+00  0.91804226741E+03  0.91804226741E+03  0.00000000000E+00 0. -1.
         -2   -1    0    0    0  501 -0.00000000000E+00 -0.00000000000E+00 -0.47375984355E+03  0.47375984355E+03  0.00000000000E+00 0.  1.
        -24    2    1    2    0    0 -0.23751112657E+03  0.23860599225E+03 -0.19126030863E+02  0.34642333205E+03  0.79366020122E+02 0.  0.
        254    2    1    2    0    0  0.23751112657E+03 -0.23860599225E+03  0.46340845473E+03  0.10453787789E+04  0.87448558632E+03 0.  0.
         23    2    4    4    0    0  0.34539289758E+03 -0.36751709588E+03  0.61618230570E+03  0.80144717593E+03  0.90949835052E+02 0.  0.
         23    2    4    4    0    0 -0.10788177101E+03  0.12891110362E+03 -0.15277385097E+03  0.24393160297E+03  0.88916973832E+02 0.  0.
          3    1    3    3  502    0  0.46043755411E+01 -0.46186167666E+00  0.28919763346E+01  0.54568413438E+01  0.00000000000E+00 0. -1.
         -4    1    3    3    0  502 -0.24211550211E+03  0.23906785393E+03 -0.22018007197E+02  0.34096649071E+03  0.00000000000E+00 0.  1.
         13    1    5    5    0    0  0.17529568706E+03 -0.13164835376E+03  0.22650241952E+03  0.31521930936E+03  0.00000000000E+00 0. -1.
        -13    1    5    5    0    0  0.17009721052E+03 -0.23586874212E+03  0.38967988618E+03  0.48622786657E+03  0.00000000000E+00 0.  1.
          3    1    6    6  503    0 -0.10699168363E+03  0.71859648062E+02 -0.80930300095E+02  0.15218653968E+03  0.00000000000E+00 0. -1.
         -3    1    6    6    0  503 -0.89008738202E+00  0.57051455561E+02 -0.71843550872E+02  0.91745063296E+02  0.00000000000E+00 0.  1.
<mgrwt>
<rscale>  0 0.13189868E+04</rscale>
<asrwt>0</asrwt>
<pdfrwt beam="1">  1        1 0.14123727E+00 0.13189868E+04</pdfrwt>
<pdfrwt beam="2">  1       -2 0.72886130E-01 0.13189868E+04</pdfrwt>
<totfact> 0.25732498E+01</totfact>
</mgrwt>
</event>
<event>
12    5  0.5264288E-008  0.1448369E+04  0.7818608E-02  0.8919532E-01
          1   -1    0    0  501    0  0.00000000000E+00  0.00000000000E+00  0.98554872557E+03  0.98554872557E+03  0.00000000000E+00 0. -1.
         -2   -1    0    0    0  501 -0.00000000000E+00 -0.00000000000E+00 -0.53213331319E+03  0.53213331319E+03  0.00000000000E+00 0.  1.
        -24    2    1    2    0    0  0.13531459375E+03  0.20221461883E+03  0.51747756075E+03  0.57748883286E+03  0.80681688401E+02 0.  0.
        254    2    1    2    0    0 -0.13531459375E+03 -0.20221461883E+03 -0.64062148374E+02  0.94019320591E+03  0.90590204450E+03 0.  0.
         23    2    4    4    0    0 -0.16029748885E+03  0.83178922563E+02 -0.42460442674E+03  0.46993104884E+03  0.89063198733E+02 0.  0.
         23    2    4    4    0    0  0.24982895102E+02 -0.28539354139E+03  0.36054227837E+03  0.47026215707E+03  0.95300279971E+02 0.  0.
          1    1    3    3  502    0  0.77741531402E+02  0.12798800200E+03  0.39974202155E+03  0.42687042314E+03  0.00000000000E+00 0. -1.
         -2    1    3    3    0  502  0.57573062344E+02  0.74226616831E+02  0.11773553920E+03  0.15061840971E+03  0.00000000000E+00 0.  1.
         13    1    5    5    0    0 -0.68315133408E+02 -0.55702145247E+01 -0.20110044743E+03  0.21246028970E+03  0.00000000000E+00 0. -1.
        -13    1    5    5    0    0 -0.91982355438E+02  0.88749137088E+02 -0.22350397931E+03  0.25747075914E+03  0.00000000000E+00 0.  1.
          1    1    6    6  503    0  0.35384514426E+02 -0.31573954726E+02  0.66600951755E+02  0.81759802182E+02  0.00000000000E+00 0. -1.
         -1    1    6    6    0  503 -0.10401619325E+02 -0.25381958667E+03  0.29394132661E+03  0.38850235489E+03  0.00000000000E+00 0.  1.
<mgrwt>
<rscale>  0 0.14483692E+04</rscale>
<asrwt>0</asrwt>
<pdfrwt beam="1">  1        1 0.15162288E+00 0.14483692E+04</pdfrwt>
<pdfrwt beam="2">  1       -2 0.81866664E-01 0.14483692E+04</pdfrwt>
<totfact> 0.17355272E+01</totfact>
</mgrwt>
</event>
<event>
12    5  0.5264288E-008  0.1933398E+04  0.7818608E-02  0.8638408E-01
          1   -1    0    0  501    0  0.00000000000E+00  0.00000000000E+00  0.13436675359E+04  0.13436675359E+04  0.00000000000E+00 0. -1.
         -2   -1    0    0    0  501 -0.00000000000E+00 -0.00000000000E+00 -0.69548992728E+03  0.69548992728E+03  0.00000000000E+00 0.  1.
        -24    2    1    2    0    0 -0.66900715059E+03 -0.25042183233E+03  0.41137852570E+01  0.71866762849E+03  0.78642071174E+02 0.  0.
        254    2    1    2    0    0  0.66900715059E+03  0.25042183233E+03  0.64406382339E+03  0.13204898347E+04  0.90476158922E+03 0.  0.
         23    2    4    4    0    0  0.54015387785E+03  0.57136420317E+03  0.39491270018E+03  0.88450953485E+03  0.90431255942E+02 0.  0.
         23    2    4    4    0    0  0.12885327274E+03 -0.32094237084E+03  0.24915112321E+03  0.43598029986E+03  0.91626242829E+02 0.  0.
          1    1    3    3  502    0 -0.92344765279E+02 -0.95031862131E+01  0.12335972537E+02  0.93648504745E+02  0.00000000000E+00 0. -1.
         -2    1    3    3    0  502 -0.57666238531E+03 -0.24091864612E+03 -0.82221872803E+01  0.62501912374E+03  0.00000000000E+00 0.  1.
         13    1    5    5    0    0  0.12402262378E+03  0.16206243244E+03  0.14063209425E+03  0.24783710205E+03  0.00000000000E+00 0. -1.
        -13    1    5    5    0    0  0.41613125407E+03  0.40930177073E+03  0.25428060593E+03  0.63667243280E+03  0.00000000000E+00 0.  1.
          2    1    6    6  503    0  0.72844628939E+02 -0.93977386092E+02  0.50423729536E+02  0.12915355807E+03  0.00000000000E+00 0. -1.
         -2    1    6    6    0  503  0.56008643799E+02 -0.22696498475E+03  0.19872739367E+03  0.30682674179E+03  0.00000000000E+00 0.  1.
<mgrwt>
<rscale>  0 0.19333983E+04</rscale>
<asrwt>0</asrwt>
<pdfrwt beam="1">  1        1 0.20671808E+00 0.19333983E+04</pdfrwt>
<pdfrwt beam="2">  1       -2 0.10699845E+00 0.19333983E+04</pdfrwt>
<totfact> 0.48421402E+00</totfact>
</mgrwt>
</event>
<event>
12    5  0.5264288E-008  0.2058371E+04  0.7818608E-02  0.8579806E-01
          1   -1    0    0  501    0  0.00000000000E+00  0.00000000000E+00  0.25581557773E+04  0.25581557773E+04  0.00000000000E+00 0. -1.
         -2   -1    0    0    0  501 -0.00000000000E+00 -0.00000000000E+00 -0.41405738549E+03  0.41405738549E+03  0.00000000000E+00 0.  1.
        -24    2    1    2    0    0 -0.16771501625E+03  0.77645582917E+03  0.50453801874E+03  0.94453505663E+03  0.81091796839E+02 0.  0.
        254    2    1    2    0    0  0.16771501625E+03 -0.77645582917E+03  0.16395603730E+04  0.20276781061E+04  0.89011701697E+03 0.  0.
         23    2    4    4    0    0  0.31773790903E+02 -0.94736490816E+03  0.12402647983E+04  0.15635451541E+04  0.88920391194E+02 0.  0.
         23    2    4    4    0    0  0.13594122535E+03  0.17090907899E+03  0.39929557474E+03  0.46413295204E+03  0.91063226004E+02 0.  0.
          1    1    3    3  502    0  0.14492438741E+01  0.61502594756E+02  0.59369546869E+02  0.85495102579E+02  0.00000000000E+00 0. -1.
         -2    1    3    3    0  502 -0.16916426013E+03  0.71495323442E+03  0.44516847187E+03  0.85903995405E+03  0.00000000000E+00 0.  1.
         13    1    5    5    0    0  0.50905251662E+02 -0.31609172539E+03  0.43686867067E+03  0.54162677087E+03  0.00000000000E+00 0. -1.
        -13    1    5    5    0    0 -0.19131460758E+02 -0.63127318277E+03  0.80339612761E+03  0.10219183832E+04  0.00000000000E+00 0.  1.
          2    1    6    6  503    0  0.35591208503E+02  0.12156817904E+01  0.96028111067E+02  0.10241879769E+03  0.00000000000E+00 0. -1.
         -2    1    6    6    0  503  0.10035001685E+03  0.16969339720E+03  0.30326746367E+03  0.36171415435E+03  0.00000000000E+00 0.  1.
<mgrwt>
<rscale>  0 0.20583715E+04</rscale>
<asrwt>0</asrwt>
<pdfrwt beam="1">  1        1 0.39356242E+00 0.20583715E+04</pdfrwt>
<pdfrwt beam="2">  1       -2 0.63701138E-01 0.20583715E+04</pdfrwt>
<totfact> 0.22827865E+00</totfact>
</mgrwt>
</event>
<event>
12    5  0.5264288E-008  0.4678402E+04  0.7818608E-02  0.7880127E-01
         -2   -1    0    0    0  501 -0.00000000000E+00  0.00000000000E+00  0.21469416641E+04  0.21469416641E+04  0.00000000000E+00 0.  1.
          1   -1    0    0  501    0  0.00000000000E+00 -0.00000000000E+00 -0.25486769196E+04  0.25486769196E+04  0.00000000000E+00 0. -1.
        -24    2    1    2    0    0  0.87860399620E+03 -0.75592218205E+03 -0.21298373364E+04  0.24260703638E+04  0.79037986595E+02 0.  0.
        254    2    1    2    0    0 -0.87860399620E+03  0.75592218205E+03  0.17281020808E+04  0.22695482199E+04  0.90617271718E+03 0.  0.
         23    2    4    4    0    0 -0.97414594858E+03  0.49542950348E+03  0.99431915184E+03  0.14802284419E+04  0.89414441217E+02 0.  0.
         23    2    4    4    0    0  0.95541952378E+02  0.26049267857E+03  0.73378292899E+03  0.78931977808E+03  0.87198766836E+02 0.  0.
          3    1    3    3  502    0  0.82117742059E+03 -0.69716606829E+03 -0.20150967621E+04  0.22849481052E+04  0.00000000000E+00 0. -1.
         -4    1    3    3    0  502  0.57426575610E+02 -0.58756113757E+02 -0.11474057426E+03  0.14112225860E+03  0.00000000000E+00 0.  1.
         13    1    5    5    0    0 -0.85298768906E+03  0.43936884624E+03  0.83132495102E+03  0.12695409229E+04  0.00000000000E+00 0. -1.
        -13    1    5    5    0    0 -0.12115825951E+03  0.56060657243E+02  0.16299420082E+03  0.21068751895E+03  0.00000000000E+00 0.  1.
          4    1    6    6  503    0 -0.10137972780E+02  0.87758480612E+02  0.22375254862E+03  0.24056087052E+03  0.00000000000E+00 0.  1.
         -4    1    6    6    0  503  0.10567992516E+03  0.17273419796E+03  0.51003038037E+03  0.54875890756E+03  0.00000000000E+00 0. -1.
<mgrwt>
<rscale>  0 0.46784017E+04</rscale>
<asrwt>0</asrwt>
<pdfrwt beam="1">  1        1 0.39210414E+00 0.46784017E+04</pdfrwt>
<pdfrwt beam="2">  1       -2 0.33029872E+00 0.46784017E+04</pdfrwt>
<totfact> 0.16870870E-02</totfact>
</mgrwt>
</event>
<event>
12    5  0.5264288E-008  0.2816642E+04  0.7818608E-02  0.8298120E-01
          1   -1    0    0  501    0  0.00000000000E+00  0.00000000000E+00  0.17019798794E+04  0.17019798794E+04  0.00000000000E+00 0. -1.
         -2   -1    0    0    0  501 -0.00000000000E+00 -0.00000000000E+00 -0.11653298026E+04  0.11653298026E+04  0.00000000000E+00 0.  1.
        -24    2    1    2    0    0 -0.86524568337E+03 -0.36336119612E+03  0.10990896760E+04  0.14473924171E+04  0.79153280684E+02 0.  0.
        254    2    1    2    0    0  0.86524568337E+03  0.36336119612E+03 -0.56243959915E+03  0.14199172649E+04  0.90506645341E+03 0.  0.
         23    2    4    4    0    0  0.57926141589E+03  0.53998231382E+03 -0.47710415717E+02  0.79847909285E+03  0.90376383887E+02 0.  0.
         23    2    4    4    0    0  0.28598426748E+03 -0.17662111770E+03 -0.51472918343E+03  0.62143817207E+03  0.90869406151E+02 0.  0.
          3    1    3    3  502    0 -0.70522581320E+03 -0.28094862196E+03  0.92935144245E+03  0.11999873663E+04  0.00000000000E+00 0. -1.
         -4    1    3    3    0  502 -0.16001987017E+03 -0.82412574160E+02  0.16973823353E+03  0.24740505077E+03  0.00000000000E+00 0.  1.
         13    1    5    5    0    0  0.14478015922E+03  0.94866920364E+02 -0.33488512300E+02  0.17630231859E+03  0.00000000000E+00 0.  1.
        -13    1    5    5    0    0  0.43448125668E+03  0.44511539346E+03 -0.14221903417E+02  0.62217677426E+03  0.00000000000E+00 0. -1.
          3    1    6    6  503    0  0.27470341032E+03 -0.14715164262E+03 -0.43021613362E+03  0.53122640295E+03  0.00000000000E+00 0. -1.
         -3    1    6    6    0  503  0.11280857156E+02 -0.29469475074E+02 -0.84513049813E+02  0.90211769122E+02  0.00000000000E+00 0.  1.
<mgrwt>
<rscale>  0 0.28166419E+04</rscale>
<asrwt>0</asrwt>
<pdfrwt beam="1">  1        1 0.26184306E+00 0.28166419E+04</pdfrwt>
<pdfrwt beam="2">  1       -2 0.17928151E+00 0.28166419E+04</pdfrwt>
<totfact> 0.66192755E-01</totfact>
</mgrwt>
</event>
<event>
12    5  0.5264288E-008  0.1914490E+04  0.7818608E-02  0.8647677E-01
         -2   -1    0    0    0  501 -0.00000000000E+00  0.00000000000E+00  0.42826276092E+03  0.42826276092E+03  0.00000000000E+00 0.  1.
          1   -1    0    0  501    0  0.00000000000E+00 -0.00000000000E+00 -0.21396156266E+04  0.21396156266E+04  0.00000000000E+00 0. -1.
        -24    2    1    2    0    0 -0.47559554649E+03 -0.48177811916E+03 -0.26015160541E+03  0.73022618840E+03  0.85147803783E+02 0.  0.
        254    2    1    2    0    0  0.47559554649E+03  0.48177811916E+03 -0.14512012603E+04  0.18376521991E+04  0.90148723072E+03 0.  0.
         23    2    4    4    0    0  0.45881756059E+03 -0.12023832328E+03 -0.87346758000E+03  0.99804877351E+03  0.90470617967E+02 0.  0.
         23    2    4    4    0    0  0.16777985906E+02  0.60201644244E+03 -0.57773368028E+03  0.83960342561E+03  0.91936984861E+02 0.  0.
          1    1    3    3  502    0 -0.70603413252E+02 -0.36407684372E+02 -0.42652118312E+02  0.90164098402E+02  0.00000000000E+00 0. -1.
         -2    1    3    3    0  502 -0.40499213324E+03 -0.44537043479E+03 -0.21749948709E+03  0.64006209000E+03  0.00000000000E+00 0.  1.
         13    1    5    5    0    0  0.45291173374E+03 -0.12976689684E+03 -0.84525050961E+03  0.96768636969E+03  0.00000000000E+00 0. -1.
        -13    1    5    5    0    0  0.59058268466E+01  0.95285735675E+01 -0.28217070388E+02  0.30362403828E+02  0.00000000000E+00 0.  1.
          1    1    6    6  503    0  0.16073203219E+02  0.46922265306E+03 -0.49933186628E+03  0.68539080727E+03  0.00000000000E+00 0. -1.
         -1    1    6    6    0  503  0.70478268751E+00  0.13279378938E+03 -0.78401813999E+02  0.15421261834E+03  0.00000000000E+00 0.  1.
<mgrwt>
<rscale>  0 0.19144897E+04</rscale>
<asrwt>0</asrwt>
<pdfrwt beam="1">  1        1 0.32917163E+00 0.19144897E+04</pdfrwt>
<pdfrwt beam="2">  1       -2 0.65886579E-01 0.19144897E+04</pdfrwt>
<totfact> 0.41682514E+00</totfact>
</mgrwt>
</event>
<event>
12    5  0.5264288E-008  0.2144381E+04  0.7818608E-02  0.8541941E-01
          1   -1    0    0  501    0  0.00000000000E+00  0.00000000000E+00  0.19910855724E+04  0.19910855724E+04  0.00000000000E+00 0. -1.
         -2   -1    0    0    0  501 -0.00000000000E+00 -0.00000000000E+00 -0.57736961338E+03  0.57736961338E+03  0.00000000000E+00 0.  1.
        -24    2    1    2    0    0  0.23656206154E+02  0.24314123780E+02  0.16581132193E+04  0.16599957323E+04  0.71383405022E+02 0.  0.
        254    2    1    2    0    0 -0.23656206154E+02 -0.24314123780E+02 -0.24439726025E+03  0.90845945351E+03  0.87430987936E+03 0.  0.
         23    2    4    4    0    0  0.52558085347E+02  0.40266611356E+03 -0.38199319836E+02  0.41928042823E+03  0.97131550563E+02 0.  0.
         23    2    4    4    0    0 -0.76214291502E+02 -0.42698023734E+03 -0.20619794041E+03  0.48917902528E+03  0.93047229047E+02 0.  0.
          1    1    3    3  502    0  0.58436804762E+01  0.83677199895E+01  0.15043815249E+04  0.15044161458E+04  0.00000000000E+00 0. -1.
         -2    1    3    3    0  502  0.17812525678E+02  0.15946403791E+02  0.15373169442E+03  0.15557958650E+03  0.00000000000E+00 0.  1.
         13    1    5    5    0    0 -0.14679627392E+02  0.54700041880E+02  0.20136255104E+02  0.60108691648E+02  0.00000000000E+00 0. -1.
        -13    1    5    5    0    0  0.67237712739E+02  0.34796607168E+03 -0.58335574939E+02  0.35917173658E+03  0.00000000000E+00 0.  1.
          1    1    6    6  503    0 -0.58915184303E+02 -0.29180316677E+03 -0.18700396838E+03  0.35155450682E+03  0.00000000000E+00 0. -1.
         -1    1    6    6    0  503 -0.17299107199E+02 -0.13517707057E+03 -0.19193972039E+02  0.13762451846E+03  0.00000000000E+00 0.  1.
<mgrwt>
<rscale>  0 0.21443808E+04</rscale>
<asrwt>0</asrwt>
<pdfrwt beam="1">  1        1 0.30632085E+00 0.21443808E+04</pdfrwt>
<pdfrwt beam="2">  1       -2 0.88826095E-01 0.21443808E+04</pdfrwt>
<totfact> 0.26486800E+00</totfact>
</mgrwt>
</event>
<event>
12    5  0.5264288E-008  0.1484402E+04  0.7818608E-02  0.8894892E-01
         -2   -1    0    0    0  501 -0.00000000000E+00  0.00000000000E+00  0.43394757253E+04  0.43394757253E+04  0.00000000000E+00 0.  1.
          1   -1    0    0  501    0  0.00000000000E+00 -0.00000000000E+00 -0.12694220241E+03  0.12694220241E+03  0.00000000000E+00 0. -1.
        -24    2    1    2    0    0 -0.26098773910E+03 -0.27081241071E+03  0.21646277274E+04  0.21985021980E+04  0.79653968334E+02 0.  0.
        254    2    1    2    0    0  0.26098773910E+03  0.27081241071E+03  0.20479057954E+04  0.22679157296E+04  0.89892694256E+03 0.  0.
         23    2    4    4    0    0  0.20545005033E+02  0.20919252113E+03  0.28373164530E+02  0.23121758726E+03  0.92048509288E+02 0.  0.
         23    2    4    4    0    0  0.24044273406E+03  0.61619889580E+02  0.20195326309E+04  0.20366981424E+04  0.89540810660E+02 0.  0.
          3    1    3    3  502    0 -0.22648413868E+02 -0.67126585935E+02  0.38149868223E+03  0.38802084188E+03  0.00000000000E+00 0. -1.
         -4    1    3    3    0  502 -0.23833932523E+03 -0.20368582478E+03  0.17831290452E+04  0.18104813561E+04  0.00000000000E+00 0.  1.
         13    1    5    5    0    0 -0.15483586124E+01  0.18749411388E+03 -0.24624009483E+01  0.18751667545E+03  0.00000000000E+00 0. -1.
        -13    1    5    5    0    0  0.22093363645E+02  0.21698407256E+02  0.30835565478E+02  0.43700911809E+02  0.00000000000E+00 0.  1.
          1    1    6    6  503    0  0.69886082434E+02  0.49391875369E+02  0.91696556720E+03  0.92095030990E+03  0.00000000000E+00 0. -1.
         -1    1    6    6    0  503  0.17055665163E+03  0.12228014211E+02  0.11025670637E+04  0.11157478325E+04  0.00000000000E+00 0.  1.
<mgrwt>
<rscale>  0 0.14844024E+04</rscale>
<asrwt>0</asrwt>
<pdfrwt beam="1">  1        1 0.19529573E-01 0.14844024E+04</pdfrwt>
<pdfrwt beam="2">  1       -2 0.66761154E+00 0.14844024E+04</pdfrwt>
<totfact> 0.66440530E-02</totfact>
</mgrwt>
</event>
<event>
12    5  0.5264288E-008  0.1483955E+04  0.7818608E-02  0.8895193E-01
          1   -1    0    0  501    0  0.00000000000E+00  0.00000000000E+00  0.81225679482E+03  0.81225679482E+03  0.00000000000E+00 0. -1.
         -2   -1    0    0    0  501 -0.00000000000E+00 -0.00000000000E+00 -0.67777902982E+03  0.67777902982E+03  0.00000000000E+00 0.  1.
        -24    2    1    2    0    0 -0.41772481383E+03 -0.19581680145E+03 -0.20929861678E+02  0.46853853255E+03  0.79069953584E+02 0.  0.
        254    2    1    2    0    0  0.41772481383E+03  0.19581680145E+03  0.15540762668E+03  0.10214972921E+04  0.89803504804E+03 0.  0.
         23    2    4    4    0    0  0.46745404800E+03  0.45619260718E+03 -0.68482445809E+02  0.66240179227E+03  0.86378858416E+02 0.  0.
         23    2    4    4    0    0 -0.49729234168E+02 -0.26037580573E+03  0.22389007249E+03  0.35909549982E+03  0.92489223676E+02 0.  0.
          1    1    3    3  502    0 -0.31325438956E+02 -0.16316155019E+02 -0.23588908446E+02  0.42472775304E+02  0.00000000000E+00 0. -1.
         -2    1    3    3    0  502 -0.38639937487E+03 -0.17950064643E+03  0.26590467677E+01  0.42606575725E+03  0.00000000000E+00 0.  1.
         13    1    5    5    0    0  0.39469997933E+03  0.37909061351E+03 -0.25038676073E+02  0.54783638272E+03  0.00000000000E+00 0. -1.
        -13    1    5    5    0    0  0.72754068662E+02  0.77101993675E+02 -0.43443769736E+02  0.11456540955E+03  0.00000000000E+00 0.  1.
          4    1    6    6  503    0 -0.74984204643E+02 -0.19922346549E+03  0.15314125315E+03  0.26223055421E+03  0.00000000000E+00 0. -1.
         -4    1    6    6    0  503  0.25254970475E+02 -0.61152340242E+02  0.70748819336E+02  0.96864945611E+02  0.00000000000E+00 0.  1.
<mgrwt>
<rscale>  0 0.14839550E+04</rscale>
<asrwt>0</asrwt>
<pdfrwt beam="1">  1        1 0.12496258E+00 0.14839550E+04</pdfrwt>
<pdfrwt beam="2">  1       -2 0.10427370E+00 0.14839550E+04</pdfrwt>
<totfact> 0.13682913E+01</totfact>
</mgrwt>
</event>
<event>
12    5  0.5264288E-008  0.3200303E+04  0.7818608E-02  0.8188737E-01
          1   -1    0    0  501    0  0.00000000000E+00  0.00000000000E+00  0.21679026937E+04  0.21679026937E+04  0.00000000000E+00 0. -1.
         -2   -1    0    0    0  501 -0.00000000000E+00 -0.00000000000E+00 -0.11810882838E+04  0.11810882838E+04  0.00000000000E+00 0.  1.
        -24    2    1    2    0    0 -0.12499387164E+04  0.67867032553E+03  0.96912023666E+03  0.17229565963E+04  0.80281966138E+02 0.  0.
        254    2    1    2    0    0  0.12499387164E+04 -0.67867032553E+03  0.17694173149E+02  0.16260343812E+04  0.78786706964E+03 0.  0.
         23    2    4    4    0    0  0.12415661907E+04 -0.78623142363E+03  0.73142347341E+02  0.14742914175E+04  0.92406295083E+02 0.  0.
         23    2    4    4    0    0  0.83725257819E+01  0.10756109809E+03 -0.55448174193E+02  0.15174296371E+03  0.91169830560E+02 0.  0.
          1    1    3    3  502    0 -0.10480791561E+04  0.60165108368E+03  0.81895824265E+03  0.14598446997E+04  0.00000000000E+00 0. -1.
         -2    1    3    3    0  502 -0.20185956030E+03  0.77019241854E+02  0.15016199400E+03  0.26311189662E+03  0.00000000000E+00 0.  1.
         13    1    5    5    0    0  0.24556013367E+03 -0.11688165557E+03 -0.12973151009E+01  0.27196099662E+03  0.00000000000E+00 0. -1.
        -13    1    5    5    0    0  0.99600605699E+03 -0.66934976806E+03  0.74439662442E+02  0.12023304208E+04  0.00000000000E+00 0.  1.
          2    1    6    6  503    0 -0.95663115034E+01 -0.46372466117E+01  0.14751423024E+02  0.18183037512E+02  0.00000000000E+00 0. -1.
         -2    1    6    6    0  503  0.17938837285E+02  0.11219834471E+03 -0.70199597216E+02  0.13355992620E+03  0.00000000000E+00 0.  1.
<mgrwt>
<rscale>  0 0.32003028E+04</rscale>
<asrwt>0</asrwt>
<pdfrwt beam="1">  1        1 0.33352349E+00 0.32003028E+04</pdfrwt>
<pdfrwt beam="2">  1       -2 0.18170589E+00 0.32003028E+04</pdfrwt>
<totfact> 0.29750120E-01</totfact>
</mgrwt>
</event>
<event>
12    5  0.5264288E-008  0.2264277E+04  0.7818608E-02  0.8492141E-01
         -4   -1    0    0    0  501 -0.00000000000E+00  0.00000000000E+00  0.74827476455E+03  0.74827476455E+03  0.00000000000E+00 0.  1.
          3   -1    0    0  501    0  0.00000000000E+00 -0.00000000000E+00 -0.17129240374E+04  0.17129240374E+04  0.00000000000E+00 0. -1.
        -24    2    1    2    0    0 -0.17184960931E+03  0.91844355511E+03 -0.58514064029E+03  0.11054088104E+04  0.80425226403E+02 0.  0.
        254    2    1    2    0    0  0.17184960931E+03 -0.91844355511E+03 -0.37950863256E+03  0.13557899916E+04  0.90612849359E+03 0.  0.
         23    2    4    4    0    0 -0.30955118282E+03 -0.23899027844E+03 -0.32444044190E+03  0.51632468579E+03  0.91604000179E+02 0.  0.
         23    2    4    4    0    0  0.48140079212E+03 -0.67945327668E+03 -0.55068190662E+02  0.83946530577E+03  0.90917633745E+02 0.  0.
          1    1    3    3  502    0 -0.54621391210E+02  0.30271172203E+03 -0.23786678542E+03  0.38884250107E+03  0.00000000000E+00 0. -1.
         -2    1    3    3    0  502 -0.11722821810E+03  0.61573183308E+03 -0.34727385487E+03  0.71656630933E+03  0.00000000000E+00 0.  1.
         13    1    5    5    0    0  0.18247308954E+01  0.10677661515E+01 -0.17244495994E+02  0.17373612448E+02  0.00000000000E+00 0.  1.
        -13    1    5    5    0    0 -0.31137591371E+03 -0.24005804459E+03 -0.30719594591E+03  0.49895107335E+03  0.00000000000E+00 0. -1.
          4    1    6    6  503    0  0.42990833434E+03 -0.64657578315E+03 -0.54573800619E+02  0.77836991142E+03  0.00000000000E+00 0. -1.
         -4    1    6    6    0  503  0.51492457784E+02 -0.32877493525E+02 -0.49439004262E+00  0.61095394349E+02  0.00000000000E+00 0.  1.
<mgrwt>
<rscale>  0 0.22642772E+04</rscale>
<asrwt>0</asrwt>
<pdfrwt beam="1">  1        3 0.26352677E+00 0.22642772E+04</pdfrwt>
<pdfrwt beam="2">  1       -4 0.11511919E+00 0.22642772E+04</pdfrwt>
<totfact> 0.75503306E-02</totfact>
</mgrwt>
</event>
<event>
12    5  0.5264288E-008  0.1063847E+04  0.7818608E-02  0.9241164E-01
          1   -1    0    0  501    0  0.00000000000E+00  0.00000000000E+00  0.12394808989E+04  0.12394808989E+04  0.00000000000E+00 0. -1.
         -2   -1    0    0    0  501 -0.00000000000E+00 -0.00000000000E+00 -0.22827487840E+03  0.22827487840E+03  0.00000000000E+00 0.  1.
        -24    2    1    2    0    0  0.20247618931E+02 -0.12598197528E+03  0.13748566281E+03  0.20385936887E+03  0.79843037464E+02 0.  0.
        254    2    1    2    0    0 -0.20247618931E+02  0.12598197528E+03  0.87372035764E+03  0.12638964084E+04  0.90430384473E+03 0.  0.
         23    2    4    4    0    0  0.22367034828E+03 -0.31723819879E+03  0.38200199486E+03  0.55253258700E+03  0.93264334807E+02 0.  0.
         23    2    4    4    0    0 -0.24391796721E+03  0.44322017407E+03  0.49171836279E+03  0.71136382138E+03  0.91167102850E+02 0.  0.
          1    1    3    3  502    0  0.31874124719E+02 -0.23214384916E+02  0.70072540347E+02  0.80405400343E+02  0.00000000000E+00 0. -1.
         -2    1    3    3    0  502 -0.11626505788E+02 -0.10276759036E+03  0.67413122464E+02  0.12345396853E+03  0.00000000000E+00 0.  1.
         13    1    5    5    0    0  0.22684546812E+03 -0.27832331082E+03  0.35596964214E+03  0.50560569407E+03  0.00000000000E+00 0. -1.
        -13    1    5    5    0    0 -0.31751198352E+01 -0.38914887975E+02  0.26032352719E+02  0.46926892931E+02  0.00000000000E+00 0.  1.
          1    1    6    6  503    0 -0.19762865152E+03  0.29767680287E+03  0.38366519151E+03  0.52427811517E+03  0.00000000000E+00 0. -1.
         -1    1    6    6    0  503 -0.46289315689E+02  0.14554337120E+03  0.10805317128E+03  0.18708570621E+03  0.00000000000E+00 0.  1.
<mgrwt>
<rscale>  0 0.10638465E+04</rscale>
<asrwt>0</asrwt>
<pdfrwt beam="1">  1        1 0.19068937E+00 0.10638465E+04</pdfrwt>
<pdfrwt beam="2">  1       -2 0.35119213E-01 0.10638465E+04</pdfrwt>
<totfact> 0.66646078E+01</totfact>
</mgrwt>
</event>
<event>
12    5  0.5264288E-008  0.2194450E+04  0.7818608E-02  0.8520742E-01
          1   -1    0    0  501    0  0.00000000000E+00  0.00000000000E+00  0.87624266602E+03  0.87624266602E+03  0.00000000000E+00 0. -1.
         -2   -1    0    0    0  501 -0.00000000000E+00 -0.00000000000E+00 -0.13739376608E+04  0.13739376608E+04  0.00000000000E+00 0.  1.
        -24    2    1    2    0    0 -0.13777388939E+03 -0.43513648999E+03 -0.10180311326E+04  0.11184493780E+04  0.78842974973E+02 0.  0.
        254    2    1    2    0    0  0.13777388939E+03  0.43513648999E+03  0.52033613786E+03  0.11317309488E+04  0.89539925984E+03 0.  0.
         23    2    4    4    0    0 -0.18649651834E+02 -0.17407841385E+03 -0.11693665439E+03  0.23154932988E+03  0.96383646685E+02 0.  0.
         23    2    4    4    0    0  0.15642354123E+03  0.60921490384E+03  0.63727279224E+03  0.90018161889E+03  0.92731935906E+02 0.  0.
          1    1    3    3  502    0 -0.36724056252E+02 -0.24522746687E+03 -0.53324466913E+03  0.58807741324E+03  0.00000000000E+00 0. -1.
         -2    1    3    3    0  502 -0.10104983314E+03 -0.18990902312E+03 -0.48478646348E+03  0.53037196477E+03  0.00000000000E+00 0.  1.
         13    1    5    5    0    0  0.13333257831E+02 -0.56040681996E+02 -0.89144633670E+02  0.10613717311E+03  0.00000000000E+00 0.  1.
        -13    1    5    5    0    0 -0.31982909666E+02 -0.11803773185E+03 -0.27792020718E+02  0.12541215678E+03  0.00000000000E+00 0. -1.
          1    1    6    6  503    0  0.14941606790E+03  0.44572168361E+03  0.44022129136E+03  0.64404018971E+03  0.00000000000E+00 0. -1.
         -1    1    6    6    0  503  0.70074733303E+01  0.16349322022E+03  0.19705150089E+03  0.25614142918E+03  0.00000000000E+00 0.  1.
<mgrwt>
<rscale>  0 0.21944501E+04</rscale>
<asrwt>0</asrwt>
<pdfrwt beam="1">  1        1 0.13480656E+00 0.21944501E+04</pdfrwt>
<pdfrwt beam="2">  1       -2 0.21137502E+00 0.21944501E+04</pdfrwt>
<totfact> 0.17073918E+00</totfact>
</mgrwt>
</event>
<event>
12    5  0.5264288E-008  0.1303169E+04  0.7818608E-02  0.9027056E-01
          1   -1    0    0  501    0  0.00000000000E+00  0.00000000000E+00  0.23305000670E+03  0.23305000670E+03  0.00000000000E+00 0. -1.
         -2   -1    0    0    0  501 -0.00000000000E+00 -0.00000000000E+00 -0.18217663466E+04  0.18217663466E+04  0.00000000000E+00 0.  1.
        -24    2    1    2    0    0  0.63307939661E+02 -0.10194461190E+03 -0.97295797081E+03  0.98345843270E+03  0.78375230586E+02 0.  0.
        254    2    1    2    0    0 -0.63307939661E+02  0.10194461190E+03 -0.61575836910E+03  0.10713579206E+04  0.86847500012E+03 0.  0.
         23    2    4    4    0    0  0.15923456929E+03  0.18743182675E+03  0.12334480768E+03  0.29002895945E+03  0.91741582735E+02 0.  0.
         23    2    4    4    0    0 -0.22254250895E+03 -0.85487214851E+02 -0.73910317678E+03  0.78132896116E+03  0.85838263178E+02 0.  0.
          1    1    3    3  502    0  0.10636079535E+02  0.12770393683E+02 -0.89777528883E+02  0.91302868712E+02  0.00000000000E+00 0. -1.
         -2    1    3    3    0  502  0.52671860126E+02 -0.11471500558E+03 -0.88318044192E+03  0.89215556399E+03  0.00000000000E+00 0.  1.
         13    1    5    5    0    0  0.14553745712E+03  0.18708430445E+03  0.89230913894E+02  0.25326635069E+03  0.00000000000E+00 0. -1.
        -13    1    5    5    0    0  0.13697112168E+02  0.34752229950E+00  0.34113893791E+02  0.36762608763E+02  0.00000000000E+00 0.  1.
          1    1    6    6  503    0 -0.20097728085E+03 -0.10270768233E+03 -0.65218073151E+03  0.69013074267E+03  0.00000000000E+00 0. -1.
         -1    1    6    6    0  503 -0.21565228104E+02  0.17220467483E+02 -0.86922445274E+02  0.91198218491E+02  0.00000000000E+00 0.  1.
<mgrwt>
<rscale>  0 0.13031695E+04</rscale>
<asrwt>0</asrwt>
<pdfrwt beam="1">  1        1 0.35853847E-01 0.13031695E+04</pdfrwt>
<pdfrwt beam="2">  1       -2 0.28027174E+00 0.13031695E+04</pdfrwt>
<totfact> 0.43993365E+00</totfact>
</mgrwt>
</event>
<event>
12    5  0.5264288E-008  0.3086785E+04  0.7818608E-02  0.8219374E-01
         -2   -1    0    0    0  501 -0.00000000000E+00  0.00000000000E+00  0.11111193689E+04  0.11111193689E+04  0.00000000000E+00 0.  1.
          1   -1    0    0  501    0  0.00000000000E+00 -0.00000000000E+00 -0.21438389471E+04  0.21438389471E+04  0.00000000000E+00 0. -1.
        -24    2    1    2    0    0  0.12223192311E+04  0.55103239609E+03 -0.11381694206E+02  0.13432855866E+04  0.81151833064E+02 0.  0.
        254    2    1    2    0    0 -0.12223192311E+04 -0.55103239609E+03 -0.10213378840E+04  0.19116727295E+04  0.90203134482E+03 0.  0.
         23    2    4    4    0    0  0.22050986549E+02 -0.19942872443E+03  0.54059977135E+02  0.22730120991E+03  0.92115670550E+02 0.  0.
         23    2    4    4    0    0 -0.12443702176E+04 -0.35160367166E+03 -0.10753978612E+04  0.16843715196E+04  0.92436333065E+02 0.  0.
          1    1    3    3  502    0  0.11332233553E+04  0.48751094467E+03 -0.16440213733E+02  0.12337472897E+04  0.00000000000E+00 0. -1.
         -2    1    3    3    0  502  0.89095875719E+02  0.63521451424E+02  0.50585195261E+01  0.10953829687E+03  0.00000000000E+00 0.  1.
         13    1    5    5    0    0  0.33573161291E+02 -0.19221266787E+03  0.26952324070E+02  0.19697536552E+03  0.00000000000E+00 0.  1.
        -13    1    5    5    0    0 -0.11522174742E+02 -0.72160565622E+01  0.27107653065E+02  0.30325844387E+02  0.00000000000E+00 0. -1.
          1    1    6    6  503    0 -0.33999004446E+03 -0.13293122805E+03 -0.27519686017E+03  0.45716217426E+03  0.00000000000E+00 0. -1.
         -1    1    6    6    0  503 -0.90438017315E+03 -0.21867244360E+03 -0.80020100100E+03  0.12272093453E+04  0.00000000000E+00 0.  1.
<mgrwt>
<rscale>  0 0.30867854E+04</rscale>
<asrwt>0</asrwt>
<pdfrwt beam="1">  1        1 0.32982138E+00 0.30867854E+04</pdfrwt>
<pdfrwt beam="2">  1       -2 0.17094144E+00 0.30867854E+04</pdfrwt>
<totfact> 0.37094241E-01</totfact>
</mgrwt>
</event>
<event>
12    5  0.5264288E-008  0.1286572E+04  0.7818608E-02  0.9040282E-01
          1   -1    0    0  501    0  0.00000000000E+00  0.00000000000E+00  0.86899826926E+03  0.86899826926E+03  0.00000000000E+00 0. -1.
         -2   -1    0    0    0  501 -0.00000000000E+00 -0.00000000000E+00 -0.47619954084E+03  0.47619954084E+03  0.00000000000E+00 0.  1.
        -24    2    1    2    0    0  0.10787589107E+02  0.28360914045E+03  0.24050342939E+03  0.38056123431E+03  0.80214941764E+02 0.  0.
        254    2    1    2    0    0 -0.10787589107E+02 -0.28360914045E+03  0.15229529903E+03  0.96463657580E+03  0.90927407784E+03 0.  0.
         23    2    4    4    0    0  0.17582638709E+03 -0.57566452200E+01 -0.32181611436E+03  0.37705630873E+03  0.87508805993E+02 0.  0.
         23    2    4    4    0    0 -0.18661397619E+03 -0.27785249523E+03  0.47411141339E+03  0.58758026707E+03  0.91881188115E+02 0.  0.
          1    1    3    3  502    0  0.51292017621E+01  0.27195796019E+03  0.19884966383E+03  0.33694009798E+03  0.00000000000E+00 0. -1.
         -2    1    3    3    0  502  0.56583873447E+01  0.11651180260E+02  0.41653765567E+02  0.43621136330E+02  0.00000000000E+00 0.  1.
         13    1    5    5    0    0  0.36110127617E+02  0.35638249510E+02 -0.80280348183E+02  0.94968207570E+02  0.00000000000E+00 0.  1.
        -13    1    5    5    0    0  0.13971625947E+03 -0.41394894730E+02 -0.24153576618E+03  0.28208810116E+03  0.00000000000E+00 0. -1.
          4    1    6    6  503    0 -0.12392471185E+02 -0.14662834080E+02  0.14904868343E+01  0.19256001567E+02  0.00000000000E+00 0. -1.
         -4    1    6    6    0  503 -0.17422150501E+03 -0.26318966115E+03  0.47262092656E+03  0.56832426550E+03  0.00000000000E+00 0.  1.
<mgrwt>
<rscale>  0 0.12865715E+04</rscale>
<asrwt>0</asrwt>
<pdfrwt beam="1">  1        1 0.13369204E+00 0.12865715E+04</pdfrwt>
<pdfrwt beam="2">  1       -2 0.73261468E-01 0.12865715E+04</pdfrwt>
<totfact> 0.27989002E+01</totfact>
</mgrwt>
</event>
<event>
12    5  0.5264288E-008  0.1668325E+04  0.7818608E-02  0.8779639E-01
         -2   -1    0    0    0  501 -0.00000000000E+00  0.00000000000E+00  0.30296215290E+03  0.30296215290E+03  0.00000000000E+00 0.  1.
          1   -1    0    0  501    0  0.00000000000E+00 -0.00000000000E+00 -0.22967468548E+04  0.22967468548E+04  0.00000000000E+00 0. -1.
        -24    2    1    2    0    0  0.31135088848E+02  0.88602007075E+02  0.19540393435E+03  0.23057824628E+03  0.78510640581E+02 0.  0.
        254    2    1    2    0    0 -0.31135088848E+02 -0.88602007075E+02 -0.21891886362E+04  0.23691307614E+04  0.90078519646E+03 0.  0.
         23    2    4    4    0    0 -0.38370123532E+03 -0.18441193948E+03 -0.16820197545E+04  0.17375659298E+04  0.93330083372E+02 0.  0.
         23    2    4    4    0    0  0.35256614648E+03  0.95809932401E+02 -0.50716888174E+03  0.63156483160E+03  0.90395968526E+02 0.  0.
          1    1    3    3  502    0  0.40105511797E+02  0.10901058282E+02  0.46393399104E+02  0.62286697044E+02  0.00000000000E+00 0. -1.
         -2    1    3    3    0  502 -0.89704229497E+01  0.77700948793E+02  0.14901053525E+03  0.16829154924E+03  0.00000000000E+00 0.  1.
         13    1    5    5    0    0 -0.99807611411E+02 -0.52159267536E+02 -0.62734591838E+03  0.63737355593E+03  0.00000000000E+00 0.  1.
        -13    1    5    5    0    0 -0.28389362391E+03 -0.13225267194E+03 -0.10546738361E+04  0.11001923738E+04  0.00000000000E+00 0. -1.
          3    1    6    6  503    0  0.33891766742E+03  0.68544683677E+02 -0.46991655978E+03  0.58342534407E+03  0.00000000000E+00 0. -1.
         -3    1    6    6    0  503  0.13648479060E+02  0.27265248724E+02 -0.37252321957E+02  0.48139487532E+02  0.00000000000E+00 0.  1.
<mgrwt>
<rscale>  0 0.16683254E+04</rscale>
<asrwt>0</asrwt>
<pdfrwt beam="1">  1        1 0.35334567E+00 0.16683254E+04</pdfrwt>
<pdfrwt beam="2">  1       -2 0.46609561E-01 0.16683254E+04</pdfrwt>
<totfact> 0.68465116E+00</totfact>
</mgrwt>
</event>
<event>
12    5  0.5264288E-008  0.1329071E+04  0.7818608E-02  0.9006824E-01
         -2   -1    0    0    0  501 -0.00000000000E+00  0.00000000000E+00  0.14702656839E+03  0.14702656839E+03  0.00000000000E+00 0.  1.
          1   -1    0    0  501    0  0.00000000000E+00 -0.00000000000E+00 -0.30035901911E+04  0.30035901911E+04  0.00000000000E+00 0. -1.
        -24    2    1    2    0    0  0.22551316990E+03  0.10717807349E+03 -0.14315718752E+04  0.14554673451E+04  0.81509689136E+02 0.  0.
        254    2    1    2    0    0 -0.22551316990E+03 -0.10717807349E+03 -0.14249917475E+04  0.16951494145E+04  0.88350819328E+03 0.  0.
         23    2    4    4    0    0  0.29050407995E+03 -0.21037214064E+03 -0.73262577493E+03  0.82069247197E+03  0.90258237534E+02 0.  0.
         23    2    4    4    0    0 -0.51601724984E+03  0.10319406715E+03 -0.69236597259E+03  0.87445694248E+03  0.91550459407E+02 0.  0.
          3    1    3    3  502    0  0.13287975997E+03  0.10504033373E+03 -0.87685398817E+03  0.89306406203E+03  0.00000000000E+00 0. -1.
         -4    1    3    3    0  502  0.92633409927E+02  0.21377397604E+01 -0.55471788706E+03  0.56240328306E+03  0.00000000000E+00 0.  1.
         13    1    5    5    0    0  0.17527472040E+03 -0.17070813142E+03 -0.43505322519E+03  0.49913305089E+03  0.00000000000E+00 0. -1.
        -13    1    5    5    0    0  0.11522935954E+03 -0.39664009218E+02 -0.29757254974E+03  0.32155942108E+03  0.00000000000E+00 0.  1.
          4    1    6    6  503    0 -0.45338683650E+03  0.11989739134E+03 -0.61825329279E+03  0.77599751417E+03  0.00000000000E+00 0. -1.
         -4    1    6    6    0  503 -0.62630413344E+02 -0.16703324191E+02 -0.74112679807E+02  0.98459428309E+02  0.00000000000E+00 0.  1.
<mgrwt>
<rscale>  0 0.13290712E+04</rscale>
<asrwt>0</asrwt>
<pdfrwt beam="1">  1        1 0.46209080E+00 0.13290712E+04</pdfrwt>
<pdfrwt beam="2">  1       -2 0.22619472E-01 0.13290712E+04</pdfrwt>
<totfact> 0.88712599E+00</totfact>
</mgrwt>
</event>
<event>
12    5  0.5264288E-008  0.1637144E+04  0.7818608E-02  0.8798048E-01
          1   -1    0    0  501    0  0.00000000000E+00  0.00000000000E+00  0.10563040079E+04  0.10563040079E+04  0.00000000000E+00 0. -1.
         -2   -1    0    0    0  501 -0.00000000000E+00 -0.00000000000E+00 -0.63434419340E+03  0.63434419340E+03  0.00000000000E+00 0.  1.
        -24    2    1    2    0    0 -0.12486127335E+03  0.11768482942E+03  0.70294558272E+03  0.72761950258E+03  0.76534904599E+02 0.  0.
        254    2    1    2    0    0  0.12486127335E+03 -0.11768482942E+03 -0.28098576822E+03  0.96302869871E+03  0.90500343421E+03 0.  0.
         23    2    4    4    0    0 -0.36405042767E+03  0.77126762430E+02 -0.74489684105E+02  0.39033715975E+03  0.91286000421E+02 0.  0.
         23    2    4    4    0    0  0.48891170102E+03 -0.19481159185E+03 -0.20649608412E+03  0.57269153896E+03  0.91371540044E+02 0.  0.
          3    1    3    3  502    0 -0.84547250390E+02  0.32106122417E+02  0.40680721580E+03  0.41673870887E+03  0.00000000000E+00 0. -1.
         -4    1    3    3    0  502 -0.40314022960E+02  0.85578707000E+02  0.29613836692E+03  0.31088079372E+03  0.00000000000E+00 0.  1.
         13    1    5    5    0    0 -0.34945592197E+03  0.81405408035E+02 -0.88601749009E+02  0.36958970736E+03  0.00000000000E+00 0. -1.
        -13    1    5    5    0    0 -0.14594505697E+02 -0.42786456048E+01  0.14112064904E+02  0.20747452389E+02  0.00000000000E+00 0.  1.
          2    1    6    6  503    0  0.40218954135E+03 -0.16545592039E+03 -0.20580791095E+03  0.48113302212E+03  0.00000000000E+00 0. -1.
         -2    1    6    6    0  503  0.86722159667E+02 -0.29355671457E+02 -0.68817317132E+00  0.91558516842E+02  0.00000000000E+00 0.  1.
<mgrwt>
<rscale>  0 0.16371442E+04</rscale>
<asrwt>0</asrwt>
<pdfrwt beam="1">  1        1 0.16250831E+00 0.16371442E+04</pdfrwt>
<pdfrwt beam="2">  1       -2 0.97591414E-01 0.16371442E+04</pdfrwt>
<totfact> 0.10043945E+01</totfact>
</mgrwt>
</event>
<event>
12    5  0.5264288E-008  0.2170115E+04  0.7818608E-02  0.8530971E-01
         -4   -1    0    0    0  501 -0.00000000000E+00  0.00000000000E+00  0.68778127738E+03  0.68778127738E+03  0.00000000000E+00 0.  1.
          3   -1    0    0  501    0  0.00000000000E+00 -0.00000000000E+00 -0.17118090696E+04  0.17118090696E+04  0.00000000000E+00 0. -1.
        -24    2    1    2    0    0  0.63217704063E+03 -0.54442334991E+03 -0.10117791354E+03  0.84418225656E+03  0.79762882894E+02 0.  0.
        254    2    1    2    0    0 -0.63217704063E+03  0.54442334991E+03 -0.92284987869E+03  0.15554080904E+04  0.93359404163E+03 0.  0.
         23    2    4    4    0    0 -0.48608711766E+03  0.79950206081E+03 -0.75087370288E+03  0.12033221396E+04  0.93212781810E+02 0.  0.
         23    2    4    4    0    0 -0.14608992297E+03 -0.25507871090E+03 -0.17197617581E+03  0.35208595088E+03  0.89338107280E+02 0.  0.
          3    1    3    3  502    0  0.33756354079E+03 -0.30975612556E+03 -0.18246080307E+02  0.45850945556E+03  0.00000000000E+00 0. -1.
         -4    1    3    3    0  502  0.29461349984E+03 -0.23466722435E+03 -0.82931833236E+02  0.38567280101E+03  0.00000000000E+00 0.  1.
         13    1    5    5    0    0 -0.10877039911E+03  0.11251093527E+03 -0.12177368575E+03  0.19828903353E+03  0.00000000000E+00 0. -1.
        -13    1    5    5    0    0 -0.37731671855E+03  0.68699112554E+03 -0.62910001713E+03  0.10050331060E+04  0.00000000000E+00 0.  1.
          1    1    6    6  503    0 -0.73858437289E+02 -0.55006938655E+02 -0.32193605869E+02  0.97556446828E+02  0.00000000000E+00 0. -1.
         -1    1    6    6    0  503 -0.72231485680E+02 -0.20007177224E+03 -0.13978256994E+03  0.25452950405E+03  0.00000000000E+00 0.  1.
<mgrwt>
<rscale>  0 0.21701154E+04</rscale>
<asrwt>0</asrwt>
<pdfrwt beam="1">  1        3 0.26335524E+00 0.21701154E+04</pdfrwt>
<pdfrwt beam="2">  1       -4 0.10581250E+00 0.21701154E+04</pdfrwt>
<totfact> 0.93724080E-02</totfact>
</mgrwt>
</event>
<event>
12    5  0.5264288E-008  0.1655854E+04  0.7818608E-02  0.8786951E-01
          1   -1    0    0  501    0  0.00000000000E+00  0.00000000000E+00  0.60033942137E+03  0.60033942137E+03  0.00000000000E+00 0. -1.
         -2   -1    0    0    0  501 -0.00000000000E+00 -0.00000000000E+00 -0.11417921698E+04  0.11417921698E+04  0.00000000000E+00 0.  1.
        -24    2    1    2    0    0  0.16227968200E+03  0.23551850134E+03 -0.71994916837E+03  0.77884148606E+03  0.80396490650E+02 0.  0.
        254    2    1    2    0    0 -0.16227968200E+03 -0.23551850134E+03  0.17849641991E+03  0.96329010513E+03  0.90236533348E+03 0.  0.
         23    2    4    4    0    0 -0.31777072292E+03 -0.27446994954E+03 -0.24967480213E+03  0.49675359084E+03  0.90081283551E+02 0.  0.
         23    2    4    4    0    0  0.15549104092E+03  0.38951448199E+02  0.42817122204E+03  0.46653651430E+03  0.92903415811E+02 0.  0.
          1    1    3    3  502    0  0.13875981497E+02  0.71333211060E+02 -0.23043578088E+03  0.24162288586E+03  0.00000000000E+00 0. -1.
         -2    1    3    3    0  502  0.14840370050E+03  0.16418529028E+03 -0.48951338749E+03  0.53721860020E+03  0.00000000000E+00 0.  1.
         13    1    5    5    0    0 -0.24215558999E+03 -0.22985919240E+03 -0.15651304436E+03  0.36874233707E+03  0.00000000000E+00 0. -1.
        -13    1    5    5    0    0 -0.75615132928E+02 -0.44610757142E+02 -0.93161757765E+02  0.12801125376E+03  0.00000000000E+00 0.  1.
          4    1    6    6  503    0  0.70054747687E+02  0.25440517762E+02  0.31718872655E+03  0.32582752472E+03  0.00000000000E+00 0. -1.
         -4    1    6    6    0  503  0.85436293232E+02  0.13510930437E+02  0.11098249549E+03  0.14070898958E+03  0.00000000000E+00 0.  1.
<mgrwt>
<rscale>  0 0.16558537E+04</rscale>
<asrwt>0</asrwt>
<pdfrwt beam="1">  1        1 0.92359913E-01 0.16558537E+04</pdfrwt>
<pdfrwt beam="2">  1       -2 0.17566033E+00 0.16558537E+04</pdfrwt>
<totfact> 0.55562070E+00</totfact>
</mgrwt>
</event>
<event>
12    5  0.5264288E-008  0.1075470E+04  0.7818608E-02  0.9229436E-01
          1   -1    0    0  501    0  0.00000000000E+00  0.00000000000E+00  0.10921265749E+04  0.10921265749E+04  0.00000000000E+00 0. -1.
         -4   -1    0    0    0  501 -0.00000000000E+00 -0.00000000000E+00 -0.26476691995E+03  0.26476691995E+03  0.00000000000E+00 0.  1.
        -24    2    1    2    0    0  0.58652917745E+01 -0.10152522907E+03  0.25441889464E+03  0.28550726383E+03  0.80272348689E+02 0.  0.
        254    2    1    2    0    0 -0.58652917745E+01  0.10152522907E+03  0.57294076026E+03  0.10713862310E+04  0.89959188934E+03 0.  0.
         23    2    4    4    0    0  0.32580574664E+03  0.28311977710E+03  0.87303025701E+02  0.44970266736E+03  0.91128908702E+02 0.  0.
         23    2    4    4    0    0 -0.33167103841E+03 -0.18159454804E+03  0.48563773456E+03  0.62168356362E+03  0.87545339335E+02 0.  0.
          3    1    3    3  502    0  0.27910820020E+02 -0.85843834334E+02  0.23627928926E+03  0.25293493294E+03  0.00000000000E+00 0. -1.
         -4    1    3    3    0  502 -0.22045528246E+02 -0.15681394733E+02  0.18139605387E+02  0.32572330896E+02  0.00000000000E+00 0.  1.
         13    1    5    5    0    0  0.83856590026E+01  0.17324967864E+01 -0.11328050843E+02  0.14200195700E+02  0.00000000000E+00 0.  1.
        -13    1    5    5    0    0  0.31742008764E+03  0.28138728032E+03  0.98631076543E+02  0.43550247166E+03  0.00000000000E+00 0. -1.
          3    1    6    6  503    0 -0.28083851320E+03 -0.12026232647E+03  0.41423211503E+03  0.51470529703E+03  0.00000000000E+00 0. -1.
         -3    1    6    6    0  503 -0.50832525216E+02 -0.61332221563E+02  0.71405619532E+02  0.10697826659E+03  0.00000000000E+00 0.  1.
<mgrwt>
<rscale>  0 0.10754701E+04</rscale>
<asrwt>0</asrwt>
<pdfrwt beam="1">  1        1 0.16801947E+00 0.10754701E+04</pdfrwt>
<pdfrwt beam="2">  1       -4 0.40733373E-01 0.10754701E+04</pdfrwt>
<totfact> 0.36886981E+01</totfact>
</mgrwt>
</event>
<event>
12    5  0.5264288E-008  0.2683847E+04  0.7818608E-02  0.8340265E-01
         -2   -1    0    0    0  501 -0.00000000000E+00  0.00000000000E+00  0.77233529272E+03  0.77233529272E+03  0.00000000000E+00 0.  1.
          1   -1    0    0  501    0  0.00000000000E+00 -0.00000000000E+00 -0.23315762516E+04  0.23315762516E+04  0.00000000000E+00 0. -1.
        -24    2    1    2    0    0 -0.21877424744E+03  0.11469414419E+04 -0.95801331430E+03  0.15120194626E+04  0.71249579208E+02 0.  0.
        254    2    1    2    0    0  0.21877424744E+03 -0.11469414419E+04 -0.60122764461E+03  0.15918920817E+04  0.89961596077E+03 0.  0.
         23    2    4    4    0    0  0.20344115726E+02  0.21665570102E+02 -0.36792669011E+03  0.38018965124E+03  0.91054058886E+02 0.  0.
         23    2    4    4    0    0  0.19843013171E+03 -0.11686070120E+04 -0.23330095450E+03  0.12117024305E+04  0.93683398433E+02 0.  0.
          3    1    3    3  502    0 -0.14472314982E+03  0.90432013486E+03 -0.73609956552E+03  0.11749818155E+04  0.00000000000E+00 0. -1.
         -4    1    3    3    0  502 -0.74051097618E+02  0.24262130700E+03 -0.22191374878E+03  0.33703764711E+03  0.00000000000E+00 0.  1.
         13    1    5    5    0    0  0.12425956615E+02  0.23670235633E+02 -0.37062469601E+03  0.37158760709E+03  0.00000000000E+00 0. -1.
        -13    1    5    5    0    0  0.79181591110E+01 -0.20046655310E+01  0.26980059005E+01  0.86020441430E+01  0.00000000000E+00 0.  1.
          4    1    6    6  503    0 -0.88088547232E+01 -0.10398235613E+03 -0.16819152796E+02  0.10570151470E+03  0.00000000000E+00 0.  1.
         -4    1    6    6    0  503  0.20723898644E+03 -0.10646246558E+04 -0.21648180170E+03  0.11060009158E+04  0.00000000000E+00 0. -1.
<mgrwt>
<rscale>  0 0.26838470E+04</rscale>
<asrwt>0</asrwt>
<pdfrwt beam="1">  1        1 0.35870403E+00 0.26838470E+04</pdfrwt>
<pdfrwt beam="2">  1       -2 0.11882082E+00 0.26838470E+04</pdfrwt>
<totfact> 0.74061247E-01</totfact>
</mgrwt>
</event>
<event>
12    5  0.5264288E-008  0.1570648E+04  0.7818608E-02  0.8838785E-01
          1   -1    0    0  501    0  0.00000000000E+00  0.00000000000E+00  0.91051057970E+03  0.91051057970E+03  0.00000000000E+00 0. -1.
         -2   -1    0    0    0  501 -0.00000000000E+00 -0.00000000000E+00 -0.67734976020E+03  0.67734976020E+03  0.00000000000E+00 0.  1.
        -24    2    1    2    0    0 -0.51417700384E+03  0.96596451082E+02 -0.20231779005E+02  0.52951176928E+03  0.79148741498E+02 0.  0.
        254    2    1    2    0    0  0.51417700384E+03 -0.96596451082E+02  0.25339259851E+03  0.10583485706E+04  0.88441224682E+03 0.  0.
         23    2    4    4    0    0  0.62913122986E+03  0.17319095242E+03 -0.15907811705E+01  0.65854589628E+03  0.88763486572E+02 0.  0.
         23    2    4    4    0    0 -0.11495422601E+03 -0.26978740350E+03  0.25498337968E+03  0.39980267434E+03  0.93946459915E+02 0.  0.
          3    1    3    3  502    0 -0.88490943649E+01  0.12862665862E+02  0.57425892264E+01  0.16635263003E+02  0.00000000000E+00 0. -1.
         -4    1    3    3    0  502 -0.50532790948E+03  0.83733785220E+02 -0.25974368232E+02  0.51287650627E+03  0.00000000000E+00 0.  1.
         13    1    5    5    0    0  0.57912921406E+03  0.13292499734E+03  0.28241241486E+01  0.59419498245E+03  0.00000000000E+00 0. -1.
        -13    1    5    5    0    0  0.50002015797E+02  0.40265955076E+02 -0.44149053191E+01  0.64350913832E+02  0.00000000000E+00 0.  1.
          2    1    6    6  503    0 -0.86951646838E+02 -0.26493148286E+03  0.22320173246E+03  0.35716703777E+03  0.00000000000E+00 0. -1.
         -2    1    6    6    0  503 -0.28002579176E+02 -0.48559206457E+01  0.31781647218E+02  0.42635636570E+02  0.00000000000E+00 0.  1.
<mgrwt>
<rscale>  0 0.15706484E+04</rscale>
<asrwt>0</asrwt>
<pdfrwt beam="1">  1        1 0.14007855E+00 0.15706484E+04</pdfrwt>
<pdfrwt beam="2">  1       -2 0.10420766E+00 0.15706484E+04</pdfrwt>
<totfact> 0.11256787E+01</totfact>
</mgrwt>
</event>
<event>
12    5  0.5264288E-008  0.1774620E+04  0.7818608E-02  0.8719914E-01
          1   -1    0    0  501    0  0.00000000000E+00  0.00000000000E+00  0.10791888869E+04  0.10791888869E+04  0.00000000000E+00 0. -1.
         -2   -1    0    0    0  501 -0.00000000000E+00 -0.00000000000E+00 -0.72954710790E+03  0.72954710790E+03  0.00000000000E+00 0.  1.
        -24    2    1    2    0    0  0.15896447911E+03 -0.40857604320E+03 -0.36055171852E+03  0.57320077584E+03  0.79733926304E+02 0.  0.
        254    2    1    2    0    0 -0.15896447911E+03  0.40857604320E+03  0.71019349754E+03  0.12355352190E+04  0.91102600660E+03 0.  0.
         23    2    4    4    0    0  0.26337981464E+02  0.15104175555E+03  0.85595610927E+03  0.87452234134E+03  0.92850219854E+02 0.  0.
         23    2    4    4    0    0 -0.18530246057E+03  0.25753428765E+03 -0.14576261172E+03  0.36101287765E+03  0.91774983748E+02 0.  0.
          1    1    3    3  502    0 -0.36728755406E+01 -0.52453134669E+01  0.23157162161E+01  0.68092488350E+01  0.00000000000E+00 0. -1.
         -2    1    3    3    0  502  0.16263735465E+03 -0.40333072973E+03 -0.36286743474E+03  0.56639152701E+03  0.00000000000E+00 0.  1.
         13    1    5    5    0    0  0.50650017582E+02  0.10509869554E+03  0.43515628628E+03  0.45052430964E+03  0.00000000000E+00 0. -1.
        -13    1    5    5    0    0 -0.24312036118E+02  0.45943060011E+02  0.42079982298E+03  0.42399803170E+03  0.00000000000E+00 0.  1.
          3    1    6    6  503    0 -0.16203163404E+03  0.18157885964E+03 -0.75082643614E+02  0.25468124405E+03  0.00000000000E+00 0. -1.
         -3    1    6    6    0  503 -0.23270826525E+02  0.75955428011E+02 -0.70679968108E+02  0.10633163360E+03  0.00000000000E+00 0.  1.
<mgrwt>
<rscale>  0 0.17746201E+04</rscale>
<asrwt>0</asrwt>
<pdfrwt beam="1">  1        1 0.16602906E+00 0.17746201E+04</pdfrwt>
<pdfrwt beam="2">  1       -2 0.11223802E+00 0.17746201E+04</pdfrwt>
<totfact> 0.68205416E+00</totfact>
</mgrwt>
</event>
<event>
12    5  0.5264288E-008  0.1158986E+04  0.7818608E-02  0.9149533E-01
         -2   -1    0    0    0  501 -0.00000000000E+00  0.00000000000E+00  0.42412500587E+03  0.42412500587E+03  0.00000000000E+00 0.  1.
          1   -1    0    0  501    0  0.00000000000E+00 -0.00000000000E+00 -0.79177659843E+03  0.79177659843E+03  0.00000000000E+00 0. -1.
        -24    2    1    2    0    0  0.54795151718E+02  0.79195877028E+02 -0.28440117213E+03  0.31060818137E+03  0.79491634999E+02 0.  0.
        254    2    1    2    0    0 -0.54795151718E+02 -0.79195877028E+02 -0.83250420426E+02  0.90529342293E+03  0.89629852923E+03 0.  0.
         23    2    4    4    0    0 -0.24140878795E+02 -0.39605377851E+03 -0.30299113697E+03  0.50778005977E+03  0.92712364429E+02 0.  0.
         23    2    4    4    0    0 -0.30654272923E+02  0.31685790148E+03  0.21974071655E+03  0.39751336316E+03  0.91609372910E+02 0.  0.
          1    1    3    3  502    0  0.61761466077E+02  0.88706867094E+02 -0.21979493296E+03  0.24493509246E+03  0.00000000000E+00 0. -1.
         -2    1    3    3    0  502 -0.69663143592E+01 -0.95109900659E+01 -0.64606239167E+02  0.65673088911E+02  0.00000000000E+00 0.  1.
         13    1    5    5    0    0  0.28352132202E+02 -0.88396915523E+02 -0.94342390674E+02  0.13235688404E+03  0.00000000000E+00 0. -1.
        -13    1    5    5    0    0 -0.52493010997E+02 -0.30765686298E+03 -0.20864874630E+03  0.37542317573E+03  0.00000000000E+00 0.  1.
          4    1    6    6  503    0  0.54111210856E+01 -0.38292032988E+01 -0.75089294373E+00  0.66713469045E+01  0.00000000000E+00 0. -1.
         -4    1    6    6    0  503 -0.36065394009E+02  0.32068710478E+03  0.22049160949E+03  0.39084201626E+03  0.00000000000E+00 0.  1.
<mgrwt>
<rscale>  0 0.11589862E+04</rscale>
<asrwt>0</asrwt>
<pdfrwt beam="1">  1        1 0.12181178E+00 0.11589862E+04</pdfrwt>
<pdfrwt beam="2">  1       -2 0.65250002E-01 0.11589862E+04</pdfrwt>
<totfact> 0.42334077E+01</totfact>
</mgrwt>
</event>
<event>
12    5  0.5264288E-008  0.2472986E+04  0.7818608E-02  0.8412673E-01
         -2   -1    0    0    0  501 -0.00000000000E+00  0.00000000000E+00  0.70638833800E+03  0.70638833800E+03  0.00000000000E+00 0.  1.
          1   -1    0    0  501    0  0.00000000000E+00 -0.00000000000E+00 -0.21644107017E+04  0.21644107017E+04  0.00000000000E+00 0. -1.
        -24    2    1    2    0    0  0.32497403795E+03  0.94209618030E+03 -0.17797419646E+03  0.10154494133E+04  0.79431468486E+02 0.  0.
        254    2    1    2    0    0 -0.32497403795E+03 -0.94209618030E+03 -0.12800481673E+04  0.18553496264E+04  0.90035858816E+03 0.  0.
         23    2    4    4    0    0  0.26455113305E+03 -0.46832961948E+03 -0.74543958429E+03  0.92451144421E+03  0.98596664033E+02 0.  0.
         23    2    4    4    0    0 -0.58952517100E+03 -0.47376656082E+03 -0.53460858298E+03  0.93083818216E+03  0.93052151973E+02 0.  0.
          1    1    3    3  502    0  0.62097571197E+02  0.28084476572E+03 -0.66030454220E+02  0.29510999927E+03  0.00000000000E+00 0. -1.
         -2    1    3    3    0  502  0.26287646675E+03  0.66125141458E+03 -0.11194374224E+03  0.72033941408E+03  0.00000000000E+00 0.  1.
         13    1    5    5    0    0  0.15165246615E+03 -0.24198091858E+03 -0.31439496377E+03  0.42473218467E+03  0.00000000000E+00 0. -1.
        -13    1    5    5    0    0  0.11289866690E+03 -0.22634870090E+03 -0.43104462052E+03  0.49977925954E+03  0.00000000000E+00 0.  1.
          3    1    6    6  503    0 -0.29959020214E+03 -0.19252892747E+03 -0.28386337057E+03  0.45541200059E+03  0.00000000000E+00 0. -1.
         -3    1    6    6    0  503 -0.28993496886E+03 -0.28123763335E+03 -0.25074521241E+03  0.47542618157E+03  0.00000000000E+00 0.  1.
<mgrwt>
<rscale>  0 0.24729856E+04</rscale>
<asrwt>0</asrwt>
<pdfrwt beam="1">  1        1 0.33298626E+00 0.24729856E+04</pdfrwt>
<pdfrwt beam="2">  1       -2 0.10867513E+00 0.24729856E+04</pdfrwt>
<totfact> 0.12197010E+00</totfact>
</mgrwt>
</event>
<event>
12    5  0.5264288E-008  0.3347759E+04  0.7818608E-02  0.8150848E-01
          1   -1    0    0  501    0  0.00000000000E+00  0.00000000000E+00  0.25951093297E+04  0.25951093297E+04  0.00000000000E+00 0. -1.
         -2   -1    0    0    0  501 -0.00000000000E+00 -0.00000000000E+00 -0.10796740206E+04  0.10796740206E+04  0.00000000000E+00 0.  1.
        -24    2    1    2    0    0  0.27037713043E+03  0.10218434509E+04 -0.54587807473E+03  0.11923988811E+04  0.81020914237E+02 0.  0.
        254    2    1    2    0    0 -0.27037713043E+03 -0.10218434509E+04  0.20613133839E+04  0.24823844691E+04  0.89216139523E+03 0.  0.
         23    2    4    4    0    0  0.32113237121E+03 -0.40216406393E+03  0.75677038444E+03  0.91913554485E+03  0.85128143892E+02 0.  0.
         23    2    4    4    0    0 -0.59150950164E+03 -0.61967938693E+03  0.13045429994E+04  0.15632489242E+04  0.89603173349E+02 0.  0.
          1    1    3    3  502    0  0.37994116168E+02  0.11264023975E+03 -0.35008235659E+02  0.12392317393E+03  0.00000000000E+00 0. -1.
         -2    1    3    3    0  502  0.23238301427E+03  0.90920321111E+03 -0.51086983907E+03  0.10684757072E+04  0.00000000000E+00 0.  1.
         13    1    5    5    0    0  0.14043848239E+02 -0.41979342302E+02  0.10207708938E+03  0.11126197477E+03  0.00000000000E+00 0.  1.
        -13    1    5    5    0    0  0.30708852297E+03 -0.36018472163E+03  0.65469329506E+03  0.80787357008E+03  0.00000000000E+00 0. -1.
          1    1    6    6  503    0 -0.44392306688E+03 -0.44975449410E+03  0.10278737168E+04  0.12065948665E+04  0.00000000000E+00 0. -1.
         -1    1    6    6    0  503 -0.14758643476E+03 -0.16992489283E+03  0.27666928267E+03  0.35665405774E+03  0.00000000000E+00 0.  1.
<mgrwt>
<rscale>  0 0.33477587E+04</rscale>
<asrwt>0</asrwt>
<pdfrwt beam="1">  1        1 0.39924759E+00 0.33477587E+04</pdfrwt>
<pdfrwt beam="2">  1       -2 0.16610370E+00 0.33477587E+04</pdfrwt>
<totfact> 0.19216868E-01</totfact>
</mgrwt>
</event>
<event>
12    5  0.5264288E-008  0.2476466E+04  0.7818608E-02  0.8411418E-01
         -2   -1    0    0    0  501 -0.00000000000E+00  0.00000000000E+00  0.40013458432E+03  0.40013458432E+03  0.00000000000E+00 0.  1.
          1   -1    0    0  501    0  0.00000000000E+00 -0.00000000000E+00 -0.38317646065E+04  0.38317646065E+04  0.00000000000E+00 0. -1.
        -24    2    1    2    0    0 -0.15820168771E+03 -0.57764832943E+03  0.23178034798E+02  0.60482993137E+03  0.81096597301E+02 0.  0.
        254    2    1    2    0    0  0.15820168771E+03  0.57764832943E+03 -0.34548080570E+04  0.36270692594E+04  0.92802334872E+03 0.  0.
         23    2    4    4    0    0 -0.33468823881E+02  0.55284691326E+03 -0.33381455846E+04  0.33849990566E+04  0.90789853015E+02 0.  0.
         23    2    4    4    0    0  0.19167051159E+03  0.24801416174E+02 -0.11666247235E+03  0.24207020284E+03  0.87379376217E+02 0.  0.
          3    1    3    3  502    0 -0.12998867847E+03 -0.49462789929E+03 -0.87954910368E+01  0.51149895009E+03  0.00000000000E+00 0. -1.
         -4    1    3    3    0  502 -0.28213009240E+02 -0.83020430147E+02  0.31973525835E+02  0.93330981279E+02  0.00000000000E+00 0.  1.
         13    1    5    5    0    0 -0.29439531381E+02  0.17071427901E+03 -0.12807328309E+04  0.12923956961E+04  0.00000000000E+00 0.  1.
        -13    1    5    5    0    0 -0.40292924994E+01  0.38213263425E+03 -0.20574127537E+04  0.20926033605E+04  0.00000000000E+00 0. -1.
          2    1    6    6  503    0  0.23896065133E+02  0.32943228967E+02 -0.41248234361E+02  0.57945621936E+02  0.00000000000E+00 0. -1.
         -2    1    6    6    0  503  0.16777444646E+03 -0.81418127931E+01 -0.75414237989E+02  0.18412458090E+03  0.00000000000E+00 0.  1.
<mgrwt>
<rscale>  0 0.24764665E+04</rscale>
<asrwt>0</asrwt>
<pdfrwt beam="1">  1        1 0.58950225E+00 0.24764665E+04</pdfrwt>
<pdfrwt beam="2">  1       -2 0.61559167E-01 0.24764665E+04</pdfrwt>
<totfact> 0.25782417E-01</totfact>
</mgrwt>
</event>
<event>
12    5  0.5264288E-008  0.3660990E+04  0.7818608E-02  0.8076662E-01
         -2   -1    0    0    0  501 -0.00000000000E+00  0.00000000000E+00  0.16034777464E+04  0.16034777464E+04  0.00000000000E+00 0.  1.
          1   -1    0    0  501    0  0.00000000000E+00 -0.00000000000E+00 -0.20896529814E+04  0.20896529814E+04  0.00000000000E+00 0. -1.
        -24    2    1    2    0    0 -0.83994198980E+03  0.14948591994E+04 -0.33686062324E+03  0.17493178358E+04  0.80816081219E+02 0.  0.
        254    2    1    2    0    0  0.83994198980E+03 -0.14948591994E+04 -0.14931461176E+03  0.19438128921E+04  0.90333113191E+03 0.  0.
         23    2    4    4    0    0  0.22471371378E+03 -0.85618894328E+03 -0.45684400698E+03  0.10005545791E+04  0.94059870366E+02 0.  0.
         23    2    4    4    0    0  0.61522827603E+03 -0.63867025611E+03  0.30752939521E+03  0.94325831301E+03  0.93575576374E+02 0.  0.
          1    1    3    3  502    0 -0.41757686028E+03  0.78212586904E+03 -0.13785933340E+03  0.89727170081E+03  0.00000000000E+00 0. -1.
         -2    1    3    3    0  502 -0.42236512953E+03  0.71273333034E+03 -0.19900128983E+03  0.85204613500E+03  0.00000000000E+00 0.  1.
         13    1    5    5    0    0  0.33600371321E+01 -0.81535210461E+02 -0.19732114382E+02  0.83956159586E+02  0.00000000000E+00 0.  1.
        -13    1    5    5    0    0  0.22135367664E+03 -0.77465373282E+03 -0.43711189259E+03  0.91659841947E+03  0.00000000000E+00 0. -1.
          3    1    6    6  503    0  0.20048965541E+03 -0.27134644493E+03  0.12871286991E+03  0.36109832177E+03  0.00000000000E+00 0. -1.
         -3    1    6    6    0  503  0.41473862062E+03 -0.36732381118E+03  0.17881652530E+03  0.58215999125E+03  0.00000000000E+00 0.  1.
<mgrwt>
<rscale>  0 0.36609901E+04</rscale>
<asrwt>0</asrwt>
<pdfrwt beam="1">  1        1 0.32148507E+00 0.36609901E+04</pdfrwt>
<pdfrwt beam="2">  1       -2 0.24668889E+00 0.36609901E+04</pdfrwt>
<totfact> 0.12348080E-01</totfact>
</mgrwt>
</event>
<event>
12    5  0.5264288E-008  0.2201564E+04  0.7818608E-02  0.8517777E-01
         -2   -1    0    0    0  501 -0.00000000000E+00  0.00000000000E+00  0.64838586294E+03  0.64838586294E+03  0.00000000000E+00 0.  1.
          1   -1    0    0  501    0  0.00000000000E+00 -0.00000000000E+00 -0.18688267823E+04  0.18688267823E+04  0.00000000000E+00 0. -1.
        -24    2    1    2    0    0 -0.67912745252E+03  0.77689736534E+02  0.18527500599E+03  0.71283909014E+03  0.81012027883E+02 0.  0.
        254    2    1    2    0    0  0.67912745252E+03 -0.77689736534E+02 -0.14057159253E+04  0.18043735551E+04  0.90137498946E+03 0.  0.
         23    2    4    4    0    0  0.48810582586E+03 -0.29296744859E+03 -0.13870147274E+04  0.15017121537E+04  0.85160527223E+02 0.  0.
         23    2    4    4    0    0  0.19102162666E+03  0.21527771206E+03 -0.18701197902E+02  0.30266140134E+03  0.91762922256E+02 0.  0.
          3    1    3    3  502    0 -0.48812306608E+02  0.33969012398E+01  0.36261687881E+02  0.60902300633E+02  0.00000000000E+00 0. -1.
         -4    1    3    3    0  502 -0.63031514591E+03  0.74292835294E+02  0.14901331811E+03  0.65193678951E+03  0.00000000000E+00 0.  1.
         13    1    5    5    0    0  0.36756816492E+03 -0.22099554999E+03 -0.11333942376E+04  0.12118283240E+04  0.00000000000E+00 0. -1.
        -13    1    5    5    0    0  0.12053766094E+03 -0.71971898599E+02 -0.25362048988E+03  0.28988382980E+03  0.00000000000E+00 0.  1.
          2    1    6    6  503    0  0.99711621477E+02  0.12404033344E+03  0.34838885683E+02  0.16291764709E+03  0.00000000000E+00 0. -1.
         -2    1    6    6    0  503  0.91310005180E+02  0.91237378620E+02 -0.53540083585E+02  0.13974375426E+03  0.00000000000E+00 0.  1.
<mgrwt>
<rscale>  0 0.22015639E+04</rscale>
<asrwt>0</asrwt>
<pdfrwt beam="1">  1        1 0.28751181E+00 0.22015639E+04</pdfrwt>
<pdfrwt beam="2">  1       -2 0.99751673E-01 0.22015639E+04</pdfrwt>
<totfact> 0.24335718E+00</totfact>
</mgrwt>
</event>
<event>
12    5  0.5264288E-008  0.1214836E+04  0.7818608E-02  0.9099969E-01
         -2   -1    0    0    0  501 -0.00000000000E+00  0.00000000000E+00  0.58152036365E+03  0.58152036365E+03  0.00000000000E+00 0.  1.
          1   -1    0    0  501    0  0.00000000000E+00 -0.00000000000E+00 -0.63446908219E+03  0.63446908219E+03  0.00000000000E+00 0. -1.
        -24    2    1    2    0    0  0.13700338767E+03  0.33679399655E+00  0.21574740695E+03  0.26839597563E+03  0.81972034642E+02 0.  0.
        254    2    1    2    0    0 -0.13700338767E+03 -0.33679399655E+00 -0.26869612550E+03  0.94759347022E+03  0.89831271575E+03 0.  0.
         23    2    4    4    0    0 -0.24522301804E+03  0.20263651647E+03  0.22042207747E+03  0.39740050578E+03  0.90251777685E+02 0.  0.
         23    2    4    4    0    0  0.10821963036E+03 -0.20297331047E+03 -0.48911820296E+03  0.55019296444E+03  0.10279118879E+03 0.  0.
          3    1    3    3  502    0  0.36406234074E+02  0.26730954346E+02  0.26264295031E+02  0.52247210386E+02  0.00000000000E+00 0. -1.
         -4    1    3    3    0  502  0.10059715360E+03 -0.26394160349E+02  0.18948311192E+03  0.21614876524E+03  0.00000000000E+00 0.  1.
         13    1    5    5    0    0 -0.15949969966E+03  0.78518537391E+02  0.14112717222E+03  0.22698500753E+03  0.00000000000E+00 0. -1.
        -13    1    5    5    0    0 -0.85723318378E+02  0.12411797908E+03  0.79294905246E+02  0.17041549824E+03  0.00000000000E+00 0.  1.
          2    1    6    6  503    0 -0.15231427023E+02 -0.24210948227E+02 -0.26012447005E+02  0.38662821708E+02  0.00000000000E+00 0.  1.
         -2    1    6    6    0  503  0.12345105739E+03 -0.17876236224E+03 -0.46310575596E+03  0.51153014273E+03  0.00000000000E+00 0. -1.
<mgrwt>
<rscale>  0 0.12148361E+04</rscale>
<asrwt>0</asrwt>
<pdfrwt beam="1">  1        1 0.97610628E-01 0.12148361E+04</pdfrwt>
<pdfrwt beam="2">  1       -2 0.89464671E-01 0.12148361E+04</pdfrwt>
<totfact> 0.29277476E+01</totfact>
</mgrwt>
</event>
<event>
12    5  0.5264288E-008  0.1866705E+04  0.7818608E-02  0.8671609E-01
          1   -1    0    0  501    0  0.00000000000E+00  0.00000000000E+00  0.67484186327E+03  0.67484186327E+03  0.00000000000E+00 0. -1.
         -2   -1    0    0    0  501 -0.00000000000E+00 -0.00000000000E+00 -0.12908905902E+04  0.12908905902E+04  0.00000000000E+00 0.  1.
        -24    2    1    2    0    0  0.21896339037E+03 -0.47632558322E+03 -0.74919643123E+03  0.91911386457E+03  0.92972984937E+02 0.  0.
        254    2    1    2    0    0 -0.21896339037E+03  0.47632558322E+03  0.13314770435E+03  0.10466185889E+04  0.89601960459E+03 0.  0.
         23    2    4    4    0    0 -0.89818312745E+02  0.85937877390E+02 -0.36425832493E+03  0.39511785177E+03  0.89338353605E+02 0.  0.
         23    2    4    4    0    0 -0.12914507762E+03  0.39038770583E+03  0.49740602928E+03  0.65150073709E+03  0.89215696632E+02 0.  0.
          1    1    3    3  502    0  0.64314630850E+02 -0.63638334608E+02 -0.15230771468E+03  0.17715487384E+03  0.00000000000E+00 0. -1.
         -2    1    3    3    0  502  0.15464875952E+03 -0.41268724861E+03 -0.59688871655E+03  0.74195899073E+03  0.00000000000E+00 0.  1.
         13    1    5    5    0    0  0.14119271573E+02 -0.44338316880E+01 -0.26418939078E+02  0.30281562628E+02  0.00000000000E+00 0.  1.
        -13    1    5    5    0    0 -0.10393758432E+03  0.90371709078E+02 -0.33783938586E+03  0.36483628914E+03  0.00000000000E+00 0. -1.
          3    1    6    6  503    0 -0.28135298705E+02  0.15900525449E+03  0.13877168511E+03  0.21291276753E+03  0.00000000000E+00 0. -1.
         -3    1    6    6    0  503 -0.10100977892E+03  0.23138245134E+03  0.35863434417E+03  0.43858796956E+03  0.00000000000E+00 0.  1.
<mgrwt>
<rscale>  0 0.18667051E+04</rscale>
<asrwt>0</asrwt>
<pdfrwt beam="1">  1        1 0.10382183E+00 0.18667051E+04</pdfrwt>
<pdfrwt beam="2">  1       -2 0.19859855E+00 0.18667051E+04</pdfrwt>
<totfact> 0.32122323E+00</totfact>
</mgrwt>
</event>
<event>
12    5  0.5264288E-008  0.1641496E+04  0.7818608E-02  0.8795454E-01
          1   -1    0    0  501    0  0.00000000000E+00  0.00000000000E+00  0.58029527529E+03  0.58029527529E+03  0.00000000000E+00 0. -1.
         -2   -1    0    0    0  501 -0.00000000000E+00 -0.00000000000E+00 -0.11608346815E+04  0.11608346815E+04  0.00000000000E+00 0.  1.
        -24    2    1    2    0    0  0.41258425683E+03  0.11231948491E+02  0.22383142456E+03  0.47610832919E+03  0.78909497880E+02 0.  0.
        254    2    1    2    0    0 -0.41258425683E+03 -0.11231948491E+02 -0.80437083080E+03  0.12650216276E+04  0.88482504446E+03 0.  0.
         23    2    4    4    0    0 -0.26493397495E+03 -0.19835579151E+03  0.73143986881E+02  0.35102355512E+03  0.91282322074E+02 0.  0.
         23    2    4    4    0    0 -0.14765028188E+03  0.18712384302E+03 -0.87751481768E+03  0.91399807252E+03  0.92435290654E+02 0.  0.
          1    1    3    3  502    0  0.20142145922E+03  0.22095693052E+02  0.15014263429E+03  0.25219364488E+03  0.00000000000E+00 0. -1.
         -2    1    3    3    0  502  0.21116279761E+03 -0.10863744561E+02  0.73688790270E+02  0.22391468431E+03  0.00000000000E+00 0.  1.
         13    1    5    5    0    0 -0.29788512737E+02 -0.67312513229E+02  0.78747695461E+01  0.74029331509E+02  0.00000000000E+00 0.  1.
        -13    1    5    5    0    0 -0.23514546221E+03 -0.13104327828E+03  0.65269217335E+02  0.27699422361E+03  0.00000000000E+00 0. -1.
          3    1    6    6  503    0 -0.14816445213E+03  0.18280651657E+03 -0.87855982798E+03  0.90952641453E+03  0.00000000000E+00 0. -1.
         -3    1    6    6    0  503  0.51417024779E+00  0.43173264474E+01  0.10450103021E+01  0.44716579955E+01  0.00000000000E+00 0.  1.
<mgrwt>
<rscale>  0 0.16414955E+04</rscale>
<asrwt>0</asrwt>
<pdfrwt beam="1">  1        1 0.89276196E-01 0.16414955E+04</pdfrwt>
<pdfrwt beam="2">  1       -2 0.17858995E+00 0.16414955E+04</pdfrwt>
<totfact> 0.55724955E+00</totfact>
</mgrwt>
</event>
<event>
12    5  0.5264288E-008  0.1569795E+04  0.7818608E-02  0.8839322E-01
         -2   -1    0    0    0  501 -0.00000000000E+00  0.00000000000E+00  0.16321561679E+03  0.16321561679E+03  0.00000000000E+00 0.  1.
          1   -1    0    0  501    0  0.00000000000E+00 -0.00000000000E+00 -0.37745406254E+04  0.37745406254E+04  0.00000000000E+00 0. -1.
        -24    2    1    2    0    0  0.53070427074E+03 -0.80499837361E+02 -0.14199435757E+04  0.15199607201E+04  0.76899841582E+02 0.  0.
        254    2    1    2    0    0 -0.53070427074E+03  0.80499837361E+02 -0.21913814329E+04  0.24177955221E+04  0.86916934792E+03 0.  0.
         23    2    4    4    0    0 -0.16383658735E+03 -0.28808471910E+03 -0.30631117913E+03  0.46018906409E+03  0.90067771775E+02 0.  0.
         23    2    4    4    0    0 -0.36686768339E+03  0.36858455647E+03 -0.18850702538E+04  0.19576064580E+04  0.91031370197E+02 0.  0.
          3    1    3    3  502    0  0.45121500156E+03 -0.74268972741E+02 -0.12751496056E+04  0.13546650415E+04  0.00000000000E+00 0. -1.
         -4    1    3    3    0  502  0.79489269178E+02 -0.62308646198E+01 -0.14479397010E+03  0.16529567860E+03  0.00000000000E+00 0.  1.
         13    1    5    5    0    0 -0.13498962191E+03 -0.14784263202E+03 -0.17442514093E+03  0.26552546329E+03  0.00000000000E+00 0. -1.
        -13    1    5    5    0    0 -0.28846965436E+02 -0.14024208708E+03 -0.13188603820E+03  0.19466360080E+03  0.00000000000E+00 0.  1.
          2    1    6    6  503    0 -0.19970731022E+03  0.25259325236E+03 -0.12456339185E+04  0.12865808252E+04  0.00000000000E+00 0. -1.
         -2    1    6    6    0  503 -0.16716037316E+03  0.11599130411E+03 -0.63943633523E+03  0.67102563274E+03  0.00000000000E+00 0.  1.
<mgrwt>
<rscale>  0 0.15697949E+04</rscale>
<asrwt>0</asrwt>
<pdfrwt beam="1">  1        1 0.58069853E+00 0.15697949E+04</pdfrwt>
<pdfrwt beam="2">  1       -2 0.25110096E-01 0.15697949E+04</pdfrwt>
<totfact> 0.18246848E+00</totfact>
</mgrwt>
</event>
<event>
12    5  0.5264288E-008  0.1909700E+04  0.7818608E-02  0.8650043E-01
          1   -1    0    0  501    0  0.00000000000E+00  0.00000000000E+00  0.22352684317E+04  0.22352684317E+04  0.00000000000E+00 0. -1.
         -2   -1    0    0    0  501 -0.00000000000E+00 -0.00000000000E+00 -0.40788770130E+03  0.40788770130E+03  0.00000000000E+00 0.  1.
        -24    2    1    2    0    0  0.85892292326E+02  0.17898987654E+03  0.17113728994E+04  0.17246365433E+04  0.78480214210E+02 0.  0.
        254    2    1    2    0    0 -0.85892292326E+02 -0.17898987654E+03  0.11600783102E+03  0.91851958969E+03  0.88927248805E+03 0.  0.
         23    2    4    4    0    0  0.17630325530E+02  0.14247215009E+03 -0.31753437538E+03  0.36144541538E+03  0.95945645143E+02 0.  0.
         23    2    4    4    0    0 -0.10352261786E+03 -0.32146202663E+03  0.43354220640E+03  0.55707417431E+03  0.91203201609E+02 0.  0.
          1    1    3    3  502    0  0.92735627165E+02  0.12581086202E+03  0.13980086242E+04  0.14067183026E+04  0.00000000000E+00 0. -1.
         -4    1    3    3    0  502 -0.68433348388E+01  0.53179014520E+02  0.31336427516E+03  0.31791824069E+03  0.00000000000E+00 0.  1.
         13    1    5    5    0    0 -0.33354029558E+02  0.17518586380E+02 -0.66136759293E+02  0.76114802018E+02  0.00000000000E+00 0.  1.
        -13    1    5    5    0    0  0.50984355088E+02  0.12495356371E+03 -0.25139761608E+03  0.28533061336E+03  0.00000000000E+00 0. -1.
          1    1    6    6  503    0 -0.49872421183E+02 -0.17202127349E+03  0.15692558531E+03  0.23812647113E+03  0.00000000000E+00 0. -1.
         -1    1    6    6    0  503 -0.53650196673E+02 -0.14944075314E+03  0.27661662109E+03  0.31894770319E+03  0.00000000000E+00 0.  1.
<mgrwt>
<rscale>  0 0.19097000E+04</rscale>
<asrwt>0</asrwt>
<pdfrwt beam="1">  1        1 0.34388744E+00 0.19097000E+04</pdfrwt>
<pdfrwt beam="2">  1       -2 0.62751955E-01 0.19097000E+04</pdfrwt>
<totfact> 0.39850362E+00</totfact>
</mgrwt>
</event>
<event>
12    5  0.5264288E-008  0.1670753E+04  0.7818608E-02  0.8778223E-01
          1   -1    0    0  501    0  0.00000000000E+00  0.00000000000E+00  0.80586775044E+03  0.80586775044E+03  0.00000000000E+00 0. -1.
         -2   -1    0    0    0  501 -0.00000000000E+00 -0.00000000000E+00 -0.86596551662E+03  0.86596551662E+03  0.00000000000E+00 0.  1.
        -24    2    1    2    0    0 -0.27821059128E+03 -0.61550007845E+02  0.49493545849E+03  0.57751304610E+03  0.85852628238E+02 0.  0.
        254    2    1    2    0    0  0.27821059128E+03  0.61550007845E+02 -0.55503322467E+03  0.10943202210E+04  0.89904690029E+03 0.  0.
         23    2    4    4    0    0 -0.67858985001E+02 -0.15527650462E+03  0.17046021268E+03  0.25698220418E+03  0.90925983210E+02 0.  0.
         23    2    4    4    0    0  0.34606957628E+03  0.21682651247E+03 -0.72549343735E+03  0.83733801677E+03  0.89534007820E+02 0.  0.
          1    1    3    3  502    0 -0.23917383725E+03 -0.39616382456E+02  0.46261761061E+03  0.52229171526E+03  0.00000000000E+00 0. -1.
         -2    1    3    3    0  502 -0.39036754024E+02 -0.21933625389E+02  0.32317847882E+02  0.55221330835E+02  0.00000000000E+00 0.  1.
         13    1    5    5    0    0 -0.60390833395E+01 -0.31985165676E-01 -0.95936495187E+01  0.11336210201E+02  0.00000000000E+00 0. -1.
        -13    1    5    5    0    0 -0.61819901662E+02 -0.15524451946E+03  0.18005386220E+03  0.24564599398E+03  0.00000000000E+00 0.  1.
          4    1    6    6  503    0  0.63194414975E+02  0.35836615713E+02 -0.70293327380E+02  0.10108881730E+03  0.00000000000E+00 0. -1.
         -4    1    6    6    0  503  0.28287516130E+03  0.18098989676E+03 -0.65520010997E+03  0.73624919947E+03  0.00000000000E+00 0.  1.
<mgrwt>
<rscale>  0 0.16707527E+04</rscale>
<asrwt>0</asrwt>
<pdfrwt beam="1">  1        1 0.12397965E+00 0.16707527E+04</pdfrwt>
<pdfrwt beam="2">  1       -2 0.13322546E+00 0.16707527E+04</pdfrwt>
<totfact> 0.74493769E+00</totfact>
</mgrwt>
</event>
<event>
12    5  0.5264288E-008  0.1541646E+04  0.7818608E-02  0.8857222E-01
          1   -1    0    0  501    0  0.00000000000E+00  0.00000000000E+00  0.24364077054E+04  0.24364077054E+04  0.00000000000E+00 0. -1.
         -2   -1    0    0    0  501 -0.00000000000E+00 -0.00000000000E+00 -0.24387049980E+03  0.24387049980E+03  0.00000000000E+00 0.  1.
        -24    2    1    2    0    0 -0.41036362325E+03  0.25486784899E+03  0.95976107418E+03  0.10773644137E+04  0.78846919362E+02 0.  0.
        254    2    1    2    0    0  0.41036362325E+03 -0.25486784899E+03  0.12327761314E+04  0.16029137915E+04  0.90345985468E+03 0.  0.
         23    2    4    4    0    0  0.31981253775E+03  0.27363733991E+03  0.79681867965E+03  0.90568365424E+03  0.90473312217E+02 0.  0.
         23    2    4    4    0    0  0.90551085500E+02 -0.52850518889E+03  0.43595745176E+03  0.69723013724E+03  0.92486381499E+02 0.  0.
          1    1    3    3  502    0 -0.30923736939E+03  0.19875909049E+03  0.79709409773E+03  0.87777669559E+03  0.00000000000E+00 0. -1.
         -2    1    3    3    0  502 -0.10112625386E+03  0.56108758497E+02  0.16266697644E+03  0.19958771812E+03  0.00000000000E+00 0.  1.
         13    1    5    5    0    0  0.31601282558E+03  0.27926801865E+03  0.76901908956E+03  0.87706618467E+03  0.00000000000E+00 0. -1.
        -13    1    5    5    0    0  0.37997121687E+01 -0.56306787458E+01  0.27799590088E+02  0.28617469573E+02  0.00000000000E+00 0.  1.
          4    1    6    6  503    0  0.78301439604E+02 -0.29150003548E+03  0.29026161733E+03  0.41875433446E+03  0.00000000000E+00 0. -1.
         -4    1    6    6    0  503  0.12249645896E+02 -0.23700515341E+03  0.14569583443E+03  0.27847580278E+03  0.00000000000E+00 0.  1.
<mgrwt>
<rscale>  0 0.15416458E+04</rscale>
<asrwt>0</asrwt>
<pdfrwt beam="1">  1        1 0.37483194E+00 0.15416458E+04</pdfrwt>
<pdfrwt beam="2">  1       -2 0.37518540E-01 0.15416458E+04</pdfrwt>
<totfact> 0.85225689E+00</totfact>
</mgrwt>
</event>
<event>
12    5  0.5264288E-008  0.2097460E+04  0.7818608E-02  0.8562363E-01
         -2   -1    0    0    0  501 -0.00000000000E+00  0.00000000000E+00  0.68984894362E+03  0.68984894362E+03  0.00000000000E+00 0.  1.
          1   -1    0    0  501    0  0.00000000000E+00 -0.00000000000E+00 -0.15943117257E+04  0.15943117257E+04  0.00000000000E+00 0. -1.
        -24    2    1    2    0    0  0.43483783251E+02  0.38873303138E+03 -0.12077649668E+04  0.12733043996E+04  0.97998316967E+02 0.  0.
        254    2    1    2    0    0 -0.43483783251E+02 -0.38873303138E+03  0.30330218466E+03  0.10108562697E+04  0.88138185463E+03 0.  0.
         23    2    4    4    0    0  0.40392640364E+03 -0.14017259101E+03  0.20007378390E+03  0.48085459706E+03  0.91579089736E+02 0.  0.
         23    2    4    4    0    0 -0.44741018689E+03 -0.24856044036E+03  0.10322840075E+03  0.53000167264E+03  0.91035720612E+02 0.  0.
          1    1    3    3  502    0  0.33844670431E+02  0.38723525445E+03 -0.11980717828E+04  0.12595525399E+04  0.00000000000E+00 0. -1.
         -2    1    3    3    0  502  0.96391128198E+01  0.14977769252E+01 -0.96931840102E+01  0.13751859799E+02  0.00000000000E+00 0.  1.
         13    1    5    5    0    0  0.18982751809E+03 -0.99853636064E+02  0.13518050591E+03  0.25353304408E+03  0.00000000000E+00 0.  1.
        -13    1    5    5    0    0  0.21409888555E+03 -0.40318954948E+02  0.64893277991E+02  0.22732155298E+03  0.00000000000E+00 0. -1.
          1    1    6    6  503    0 -0.54720506854E+02  0.34163742109E+00  0.63570416368E+01  0.55089586719E+02  0.00000000000E+00 0. -1.
         -1    1    6    6    0  503 -0.39268968004E+03 -0.24890207778E+03  0.96871359116E+02  0.47491208592E+03  0.00000000000E+00 0.  1.
<mgrwt>
<rscale>  0 0.20974597E+04</rscale>
<asrwt>0</asrwt>
<pdfrwt beam="1">  1        1 0.24527872E+00 0.20974597E+04</pdfrwt>
<pdfrwt beam="2">  1       -2 0.10613061E+00 0.20974597E+04</pdfrwt>
<totfact> 0.32575933E+00</totfact>
</mgrwt>
</event>
<event>
12    5  0.5264288E-008  0.1285589E+04  0.7818608E-02  0.9041072E-01
          3   -1    0    0  501    0  0.00000000000E+00  0.00000000000E+00  0.26981228814E+04  0.26981228814E+04  0.00000000000E+00 0. -1.
         -4   -1    0    0    0  501 -0.00000000000E+00 -0.00000000000E+00 -0.15313779226E+03  0.15313779226E+03  0.00000000000E+00 0.  1.
        -24    2    1    2    0    0  0.16972219614E+03 -0.22130728750E+03  0.10498514170E+04  0.10893053772E+04  0.81336754676E+02 0.  0.
        254    2    1    2    0    0 -0.16972219614E+03  0.22130728750E+03  0.14951336721E+04  0.17619552964E+04  0.88953877362E+03 0.  0.
         23    2    4    4    0    0 -0.69007940591E+02  0.23907470055E+02  0.15156295936E+04  0.15205022915E+04  0.97265051433E+02 0.  0.
         23    2    4    4    0    0 -0.10071425555E+03  0.19739981744E+03 -0.20495921570E+02  0.24145300493E+03  0.93645189910E+02 0.  0.
          3    1    3    3  502    0  0.15502302198E+03 -0.21005255078E+03  0.86520812203E+03  0.90373630328E+03  0.00000000000E+00 0. -1.
         -4    1    3    3    0  502  0.14699174162E+02 -0.11254736716E+02  0.18464329501E+03  0.18556907397E+03  0.00000000000E+00 0.  1.
         13    1    5    5    0    0 -0.74721325409E+02 -0.65143616650E+01  0.64894657970E+03  0.65326669645E+03  0.00000000000E+00 0. -1.
        -13    1    5    5    0    0  0.57133848174E+01  0.30421831720E+02  0.86668301394E+03  0.86723559502E+03  0.00000000000E+00 0.  1.
          3    1    6    6  503    0 -0.64826450457E+02  0.34360744615E+02 -0.10027934128E+01  0.73376665528E+02  0.00000000000E+00 0.  1.
         -3    1    6    6    0  503 -0.35887805091E+02  0.16303907282E+03 -0.19493128158E+02  0.16807633940E+03  0.00000000000E+00 0. -1.
<mgrwt>
<rscale>  0 0.12855887E+04</rscale>
<asrwt>0</asrwt>
<pdfrwt beam="1">  1        3 0.41509579E+00 0.12855887E+04</pdfrwt>
<pdfrwt beam="2">  1       -4 0.23559662E-01 0.12855887E+04</pdfrwt>
<totfact> 0.36133151E-01</totfact>
</mgrwt>
</event>
<event>
12    5  0.5264288E-008  0.3047061E+04  0.7818608E-02  0.8230419E-01
         -2   -1    0    0    0  501 -0.00000000000E+00  0.00000000000E+00  0.13644101388E+04  0.13644101388E+04  0.00000000000E+00 0.  1.
          1   -1    0    0  501    0  0.00000000000E+00 -0.00000000000E+00 -0.17012075471E+04  0.17012075471E+04  0.00000000000E+00 0. -1.
        -24    2    1    2    0    0  0.12885776153E+04  0.18404497604E+03 -0.60215301834E+03  0.14365864624E+04  0.82991461798E+02 0.  0.
        254    2    1    2    0    0 -0.12885776153E+04 -0.18404497604E+03  0.26535561007E+03  0.16290312235E+04  0.94288085324E+03 0.  0.
         23    2    4    4    0    0 -0.71590381057E+03 -0.32509630030E+03 -0.26111945534E+03  0.83251060642E+03  0.81759827498E+02 0.  0.
         23    2    4    4    0    0 -0.57267380473E+03  0.14105132427E+03  0.52647506540E+03  0.79652061706E+03  0.97048112802E+02 0.  0.
          1    1    3    3  502    0  0.13403534419E+03  0.34181735058E+02 -0.87512901218E+02  0.16368375724E+03  0.00000000000E+00 0. -1.
         -2    1    3    3    0  502  0.11545422711E+04  0.14986324098E+03 -0.51464011712E+03  0.12729027052E+04  0.00000000000E+00 0.  1.
         13    1    5    5    0    0 -0.71660237259E+03 -0.32341758589E+03 -0.25561643646E+03  0.82671497981E+03  0.00000000000E+00 0. -1.
        -13    1    5    5    0    0  0.69856201990E+00 -0.16787144114E+01 -0.55030188809E+01  0.57956266075E+01  0.00000000000E+00 0.  1.
          1    1    6    6  503    0 -0.31892043652E+03  0.11875322965E+03  0.33801646943E+03  0.47965373759E+03  0.00000000000E+00 0. -1.
         -1    1    6    6    0  503 -0.25375336822E+03  0.22298094616E+02  0.18845859598E+03  0.31686687947E+03  0.00000000000E+00 0.  1.
<mgrwt>
<rscale>  0 0.30470608E+04</rscale>
<asrwt>0</asrwt>
<pdfrwt beam="1">  1        1 0.26172424E+00 0.30470608E+04</pdfrwt>
<pdfrwt beam="2">  1       -2 0.20990925E+00 0.30470608E+04</pdfrwt>
<totfact> 0.40626764E-01</totfact>
</mgrwt>
</event>
<event>
12    5  0.5264288E-008  0.2143047E+04  0.7818608E-02  0.8542514E-01
         -2   -1    0    0    0  501 -0.00000000000E+00  0.00000000000E+00  0.61769065146E+03  0.61769065146E+03  0.00000000000E+00 0.  1.
          1   -1    0    0  501    0  0.00000000000E+00 -0.00000000000E+00 -0.18587991520E+04  0.18587991520E+04  0.00000000000E+00 0. -1.
        -24    2    1    2    0    0 -0.15497956348E+00  0.86958866220E+03 -0.66382800323E+03  0.10969502537E+04  0.80298043901E+02 0.  0.
        254    2    1    2    0    0  0.15497956348E+00 -0.86958866220E+03 -0.57728049730E+03  0.13795395497E+04  0.90204885192E+03 0.  0.
         23    2    4    4    0    0  0.35637563265E+02 -0.53452141137E+03  0.15801215329E+03  0.56565273383E+03  0.89509773594E+02 0.  0.
         23    2    4    4    0    0 -0.35482583702E+02 -0.33506725083E+03 -0.73529265059E+03  0.81388681590E+03  0.90704965466E+02 0.  0.
          3    1    3    3  502    0 -0.14272968229E+02  0.34010006825E+03 -0.21435845090E+03  0.40227020710E+03  0.00000000000E+00 0. -1.
         -2    1    3    3    0  502  0.14117988665E+02  0.52948859394E+03 -0.44946955232E+03  0.69468004663E+03  0.00000000000E+00 0.  1.
         13    1    5    5    0    0  0.23367000335E+02 -0.56574858091E+02  0.40252541862E+02  0.73259800702E+02  0.00000000000E+00 0. -1.
        -13    1    5    5    0    0  0.12270562930E+02 -0.47794655328E+03  0.11775961143E+03  0.49239293312E+03  0.00000000000E+00 0.  1.
          4    1    6    6  503    0 -0.13153086940E+02 -0.20259798208E+03 -0.33570975383E+03  0.39232637543E+03  0.00000000000E+00 0. -1.
         -4    1    6    6    0  503 -0.22329496762E+02 -0.13246926874E+03 -0.39958289675E+03  0.42156044046E+03  0.00000000000E+00 0.  1.
<mgrwt>
<rscale>  0 0.21430472E+04</rscale>
<asrwt>0</asrwt>
<pdfrwt beam="1">  1        1 0.28596910E+00 0.21430472E+04</pdfrwt>
<pdfrwt beam="2">  1       -2 0.95029331E-01 0.21430472E+04</pdfrwt>
<totfact> 0.27847653E+00</totfact>
</mgrwt>
</event>
<event>
12    5  0.5264288E-008  0.1198637E+04  0.7818608E-02  0.9114050E-01
         -2   -1    0    0    0  501 -0.00000000000E+00  0.00000000000E+00  0.54809064406E+03  0.54809064406E+03  0.00000000000E+00 0.  1.
          1   -1    0    0  501    0  0.00000000000E+00 -0.00000000000E+00 -0.65533450327E+03  0.65533450327E+03  0.00000000000E+00 0. -1.
        -24    2    1    2    0    0  0.65923280408E+02 -0.52804714447E+02  0.26035886243E+03  0.28519913473E+03  0.80109877276E+02 0.  0.
        254    2    1    2    0    0 -0.65923280408E+02  0.52804714447E+02 -0.36760272164E+03  0.91822601260E+03  0.83718160066E+03 0.  0.
         23    2    4    4    0    0 -0.31695591016E+03  0.32035781688E+03 -0.16755642396E+03  0.48974687614E+03  0.93202294312E+02 0.  0.
         23    2    4    4    0    0  0.25103262975E+03 -0.26755310243E+03 -0.20004629769E+03  0.42847913646E+03  0.94730171234E+02 0.  0.
          1    1    3    3  502    0  0.47468219206E+02 -0.52192488073E+02  0.92530352266E+02  0.11635786925E+03  0.00000000000E+00 0. -1.
         -2    1    3    3    0  502  0.18455061202E+02 -0.61222637373E+00  0.16782851016E+03  0.16884126548E+03  0.00000000000E+00 0.  1.
         13    1    5    5    0    0 -0.32041625975E+03  0.30006924779E+03 -0.15453202380E+03  0.46539045903E+03  0.00000000000E+00 0.  1.
        -13    1    5    5    0    0  0.34603495920E+01  0.20288569089E+02 -0.13024400157E+02  0.24356417110E+02  0.00000000000E+00 0. -1.
          3    1    6    6  503    0  0.26768977247E+02 -0.71957919843E+02 -0.69374919953E+02  0.10347656686E+03  0.00000000000E+00 0. -1.
         -3    1    6    6    0  503  0.22426365250E+03 -0.19559518259E+03 -0.13067137773E+03  0.32500256959E+03  0.00000000000E+00 0.  1.
<mgrwt>
<rscale>  0 0.11986371E+04</rscale>
<asrwt>0</asrwt>
<pdfrwt beam="1">  1        1 0.10082069E+00 0.11986371E+04</pdfrwt>
<pdfrwt beam="2">  1       -2 0.84321638E-01 0.11986371E+04</pdfrwt>
<totfact> 0.32004244E+01</totfact>
</mgrwt>
</event>
<event>
12    5  0.5264288E-008  0.1379070E+04  0.7818608E-02  0.8969109E-01
         -2   -1    0    0    0  501 -0.00000000000E+00  0.00000000000E+00  0.33510413369E+03  0.33510413369E+03  0.00000000000E+00 0.  1.
          1   -1    0    0  501    0  0.00000000000E+00 -0.00000000000E+00 -0.14188390395E+04  0.14188390395E+04  0.00000000000E+00 0. -1.
        -24    2    1    2    0    0  0.16643093304E+03  0.28340478017E+03 -0.13542091834E+03  0.36438856702E+03  0.80141610646E+02 0.  0.
        254    2    1    2    0    0 -0.16643093304E+03 -0.28340478017E+03 -0.94831398749E+03  0.13895546062E+04  0.96101251804E+03 0.  0.
         23    2    4    4    0    0 -0.28396927356E+03 -0.56505260753E+03 -0.39464944144E+03  0.75160418288E+03  0.96112790483E+02 0.  0.
         23    2    4    4    0    0  0.11753834052E+03  0.28164782736E+03 -0.55366454605E+03  0.63795042331E+03  0.85414008794E+02 0.  0.
          3    1    3    3  502    0  0.16163136653E+03  0.21221524986E+03 -0.11166090879E+03  0.28918535487E+03  0.00000000000E+00 0. -1.
         -4    1    3    3    0  502  0.47995665129E+01  0.71189530308E+02 -0.23760009551E+02  0.75203212153E+02  0.00000000000E+00 0.  1.
         13    1    5    5    0    0 -0.77254888254E+02 -0.84204618790E+02 -0.94240944615E+02  0.14812187964E+03  0.00000000000E+00 0.  1.
        -13    1    5    5    0    0 -0.20671438531E+03 -0.48084798874E+03 -0.30040849682E+03  0.60348230325E+03  0.00000000000E+00 0. -1.
          1    1    6    6  503    0  0.11049045463E+03  0.16470127864E+03 -0.31817424901E+03  0.37492599868E+03  0.00000000000E+00 0. -1.
         -1    1    6    6    0  503  0.70478858871E+01  0.11694654873E+03 -0.23549029704E+03  0.26302442463E+03  0.00000000000E+00 0.  1.
<mgrwt>
<rscale>  0 0.13790705E+04</rscale>
<asrwt>0</asrwt>
<pdfrwt beam="1">  1        1 0.21828293E+00 0.13790705E+04</pdfrwt>
<pdfrwt beam="2">  1       -2 0.51554482E-01 0.13790705E+04</pdfrwt>
<totfact> 0.22694185E+01</totfact>
</mgrwt>
</event>
<event>
12    5  0.5264288E-008  0.1477158E+04  0.7818608E-02  0.8899786E-01
         -2   -1    0    0    0  501 -0.00000000000E+00  0.00000000000E+00  0.39890768206E+03  0.39890768206E+03  0.00000000000E+00 0.  1.
          1   -1    0    0  501    0  0.00000000000E+00 -0.00000000000E+00 -0.13674818611E+04  0.13674818611E+04  0.00000000000E+00 0. -1.
        -24    2    1    2    0    0  0.54101845523E+02  0.32502176838E+03 -0.86668600957E+03  0.93050469397E+03  0.78282735702E+02 0.  0.
        254    2    1    2    0    0 -0.54101845523E+02 -0.32502176838E+03 -0.10188816948E+03  0.83588484919E+03  0.76141718028E+03 0.  0.
         23    2    4    4    0    0 -0.10502210435E+03 -0.35354515880E+03  0.25749029789E+03  0.46029003673E+03  0.97682356087E+02 0.  0.
         23    2    4    4    0    0  0.50920258830E+02  0.28523390420E+02 -0.35937846737E+03  0.37559481246E+03  0.92261171577E+02 0.  0.
          3    1    3    3  502    0  0.14428442721E+02  0.26600131206E+03 -0.65095192861E+03  0.70335147070E+03  0.00000000000E+00 0. -1.
         -4    1    3    3    0  502  0.39673402801E+02  0.59020456315E+02 -0.21573408096E+03  0.22715322327E+03  0.00000000000E+00 0.  1.
         13    1    5    5    0    0 -0.37549591048E+02 -0.23301567441E+02  0.35564571303E+02  0.56725422564E+02  0.00000000000E+00 0.  1.
        -13    1    5    5    0    0 -0.67472513305E+02 -0.33024359136E+03  0.22192572659E+03  0.40356461416E+03  0.00000000000E+00 0. -1.
          4    1    6    6  503    0  0.53276349838E+02  0.76096312933E+01 -0.86291581876E+02  0.10169814670E+03  0.00000000000E+00 0. -1.
         -4    1    6    6    0  503 -0.23560910078E+01  0.20913759126E+02 -0.27308688549E+03  0.27389666576E+03  0.00000000000E+00 0.  1.
<mgrwt>
<rscale>  0 0.14771581E+04</rscale>
<asrwt>0</asrwt>
<pdfrwt beam="1">  1        1 0.21038183E+00 0.14771581E+04</pdfrwt>
<pdfrwt beam="2">  1       -2 0.61370412E-01 0.14771581E+04</pdfrwt>
<totfact> 0.16999767E+01</totfact>
</mgrwt>
</event>
<event>
12    5  0.5264288E-008  0.1503095E+04  0.7818608E-02  0.8882397E-01
         -2   -1    0    0    0  501 -0.00000000000E+00  0.00000000000E+00  0.42701479831E+03  0.42701479831E+03  0.00000000000E+00 0.  1.
          1   -1    0    0  501    0  0.00000000000E+00 -0.00000000000E+00 -0.13227264462E+04  0.13227264462E+04  0.00000000000E+00 0. -1.
        -24    2    1    2    0    0  0.19114482233E+03  0.27814909046E+03  0.10417242769E+03  0.36213824609E+03  0.79930938705E+02 0.  0.
        254    2    1    2    0    0 -0.19114482233E+03 -0.27814909046E+03 -0.99988407554E+03  0.13876029984E+04  0.90098316132E+03 0.  0.
         23    2    4    4    0    0 -0.18231731118E+03  0.18832067424E+03  0.26934533087E+01  0.27831860906E+03  0.93539912099E+02 0.  0.
         23    2    4    4    0    0 -0.88275111559E+01 -0.46646976470E+03 -0.10025775288E+04  0.11092843893E+04  0.87625274478E+02 0.  0.
          3    1    3    3  502    0  0.54201337642E+02  0.33678956735E+02  0.37814798358E+02  0.74175576195E+02  0.00000000000E+00 0. -1.
         -4    1    3    3    0  502  0.13694348469E+03  0.24447013373E+03  0.66357629330E+02  0.28796266990E+03  0.00000000000E+00 0.  1.
         13    1    5    5    0    0 -0.23692499051E+02  0.49165481837E+02 -0.33770100824E+02  0.64179426807E+02  0.00000000000E+00 0.  1.
        -13    1    5    5    0    0 -0.15862481213E+03  0.13915519240E+03  0.36463554133E+02  0.21413918225E+03  0.00000000000E+00 0. -1.
          1    1    6    6  503    0 -0.13050060530E+02 -0.44759504685E+03 -0.90397080705E+03  0.10087987163E+04  0.00000000000E+00 0. -1.
         -1    1    6    6    0  503  0.42225493740E+01 -0.18874717851E+02 -0.98606721795E+02  0.10048567301E+03  0.00000000000E+00 0.  1.
<mgrwt>
<rscale>  0 0.15030952E+04</rscale>
<asrwt>0</asrwt>
<pdfrwt beam="1">  1        1 0.20349637E+00 0.15030952E+04</pdfrwt>
<pdfrwt beam="2">  1       -2 0.65694587E-01 0.15030952E+04</pdfrwt>
<totfact> 0.15773656E+01</totfact>
</mgrwt>
</event>
<event>
12    5  0.5264288E-008  0.2008854E+04  0.7818608E-02  0.8602492E-01
         -2   -1    0    0    0  501 -0.00000000000E+00  0.00000000000E+00  0.92725645987E+03  0.92725645987E+03  0.00000000000E+00 0.  1.
          1   -1    0    0  501    0  0.00000000000E+00 -0.00000000000E+00 -0.10880200878E+04  0.10880200878E+04  0.00000000000E+00 0. -1.
        -24    2    1    2    0    0 -0.71172078268E+03  0.14949914379E+03 -0.39254026790E+03  0.83025458868E+03  0.79613777797E+02 0.  0.
        254    2    1    2    0    0  0.71172078268E+03 -0.14949914379E+03  0.23177663996E+03  0.11850219590E+04  0.90645472364E+03 0.  0.
         23    2    4    4    0    0  0.28858502635E+03  0.28833906589E+03 -0.16881629052E+03  0.45047085069E+03  0.89466826405E+02 0.  0.
         23    2    4    4    0    0  0.42313575633E+03 -0.43783820968E+03  0.40059293047E+03  0.73455110832E+03  0.91348063135E+02 0.  0.
          3    1    3    3  502    0 -0.36992559060E+03  0.11105239008E+03 -0.18185993788E+03  0.42690820199E+03  0.00000000000E+00 0. -1.
         -4    1    3    3    0  502 -0.34179519208E+03  0.38446753720E+02 -0.21068033003E+03  0.40334638669E+03  0.00000000000E+00 0.  1.
         13    1    5    5    0    0  0.35082189977E+01 -0.65842299752E+01 -0.31173722452E+01  0.80856474458E+01  0.00000000000E+00 0.  1.
        -13    1    5    5    0    0  0.28507680735E+03  0.29492329586E+03 -0.16569891827E+03  0.44238520324E+03  0.00000000000E+00 0. -1.
          1    1    6    6  503    0  0.38910046434E+03 -0.36961802470E+03  0.32620514746E+03  0.62803379985E+03  0.00000000000E+00 0. -1.
         -1    1    6    6    0  503  0.34035291995E+02 -0.68220184986E+02  0.74387783012E+02  0.10651730846E+03  0.00000000000E+00 0.  1.
<mgrwt>
<rscale>  0 0.20088541E+04</rscale>
<asrwt>0</asrwt>
<pdfrwt beam="1">  1        1 0.16738771E+00 0.20088541E+04</pdfrwt>
<pdfrwt beam="2">  1       -2 0.14265484E+00 0.20088541E+04</pdfrwt>
<totfact> 0.35985729E+00</totfact>
</mgrwt>
</event>
<event>
12    5  0.5264288E-008  0.1805069E+04  0.7818608E-02  0.8703608E-01
          1   -1    0    0  501    0  0.00000000000E+00  0.00000000000E+00  0.13830300225E+04  0.13830300225E+04  0.00000000000E+00 0. -1.
         -2   -1    0    0    0  501 -0.00000000000E+00 -0.00000000000E+00 -0.58897411715E+03  0.58897411715E+03  0.00000000000E+00 0.  1.
        -24    2    1    2    0    0 -0.37681094635E+03 -0.43333980067E+03  0.69424978847E+03  0.90445822527E+03  0.79322382346E+02 0.  0.
        254    2    1    2    0    0  0.37681094635E+03  0.43333980067E+03  0.99806116883E+02  0.10675459144E+04  0.89438422740E+03 0.  0.
         23    2    4    4    0    0  0.19354898124E+03  0.16967528778E+03 -0.39039720057E+03  0.47569439236E+03  0.87317061808E+02 0.  0.
         23    2    4    4    0    0  0.18326196510E+03  0.26366451289E+03  0.49020331746E+03  0.59185152203E+03  0.82975951157E+02 0.  0.
          1    1    3    3  502    0 -0.24029001849E+03 -0.31195819134E+03  0.51739936212E+03  0.65019943559E+03  0.00000000000E+00 0. -1.
         -2    1    3    3    0  502 -0.13652092786E+03 -0.12138160933E+03  0.17685042635E+03  0.25425878967E+03  0.00000000000E+00 0.  1.
         13    1    5    5    0    0  0.13534844150E+03  0.11701173670E+03 -0.19253279908E+03  0.26283041275E+03  0.00000000000E+00 0. -1.
        -13    1    5    5    0    0  0.58200539740E+02  0.52663551077E+02 -0.19786440149E+03  0.21286397961E+03  0.00000000000E+00 0.  1.
          1    1    6    6  503    0  0.59851019054E+02  0.15706636496E+03  0.23275832173E+03  0.28710350715E+03  0.00000000000E+00 0. -1.
         -1    1    6    6    0  503  0.12341094605E+03  0.10659814793E+03  0.25744499573E+03  0.30474801488E+03  0.00000000000E+00 0.  1.
<mgrwt>
<rscale>  0 0.18050694E+04</rscale>
<asrwt>0</asrwt>
<pdfrwt beam="1">  1        1 0.21277385E+00 0.18050694E+04</pdfrwt>
<pdfrwt beam="2">  1       -2 0.90611403E-01 0.18050694E+04</pdfrwt>
<totfact> 0.67997847E+00</totfact>
</mgrwt>
</event>
<event>
12    5  0.5264288E-008  0.1806061E+04  0.7818608E-02  0.8703083E-01
          1   -1    0    0  501    0  0.00000000000E+00  0.00000000000E+00  0.25599016170E+04  0.25599016170E+04  0.00000000000E+00 0. -1.
         -2   -1    0    0    0  501 -0.00000000000E+00 -0.00000000000E+00 -0.31855291472E+03  0.31855291472E+03  0.00000000000E+00 0.  1.
        -24    2    1    2    0    0 -0.66747599653E+02  0.10016073262E+03 -0.18814043259E+03  0.23757921244E+03  0.80991637785E+02 0.  0.
        254    2    1    2    0    0  0.66747599653E+02 -0.10016073262E+03  0.24294891349E+04  0.26408753193E+04  0.10282594911E+04 0.  0.
         23    2    4    4    0    0  0.42732211013E+03 -0.16153361481E+03  0.20662997193E+04  0.21181174665E+04  0.90165277541E+02 0.  0.
         23    2    4    4    0    0 -0.36057451047E+03  0.61372882189E+02  0.36318941552E+03  0.52275785276E+03  0.87112644361E+02 0.  0.
          1    1    3    3  502    0  0.15029697018E+02  0.23109384926E+02 -0.66497091310E+02  0.71984710993E+02  0.00000000000E+00 0. -1.
         -2    1    3    3    0  502 -0.81777296671E+02  0.77051347691E+02 -0.12164334128E+03  0.16559450145E+03  0.00000000000E+00 0.  1.
         13    1    5    5    0    0  0.11870400006E+03 -0.89535407096E+02  0.67538004866E+03  0.69155291835E+03  0.00000000000E+00 0.  1.
        -13    1    5    5    0    0  0.30861811006E+03 -0.71998207710E+02  0.13909196707E+04  0.14265645482E+04  0.00000000000E+00 0. -1.
          3    1    6    6  503    0 -0.36437883750E+03  0.58526512536E+02  0.34954535959E+03  0.50831018905E+03  0.00000000000E+00 0. -1.
         -3    1    6    6    0  503  0.38043270261E+01  0.28463696533E+01  0.13644055934E+02  0.14447663709E+02  0.00000000000E+00 0.  1.
<mgrwt>
<rscale>  0 0.18060610E+04</rscale>
<asrwt>0</asrwt>
<pdfrwt beam="1">  1        1 0.39383100E+00 0.18060610E+04</pdfrwt>
<pdfrwt beam="2">  1       -2 0.49008142E-01 0.18060610E+04</pdfrwt>
<totfact> 0.40238768E+00</totfact>
</mgrwt>
</event>
<event>
12    5  0.5264288E-008  0.3408985E+04  0.7818608E-02  0.8135705E-01
          1   -1    0    0  501    0  0.00000000000E+00  0.00000000000E+00  0.26747864515E+04  0.26747864515E+04  0.00000000000E+00 0. -1.
         -2   -1    0    0    0  501 -0.00000000000E+00 -0.00000000000E+00 -0.10861783193E+04  0.10861783193E+04  0.00000000000E+00 0.  1.
        -24    2    1    2    0    0  0.69356717609E+03 -0.13335868662E+04  0.12800682949E+04  0.19759576319E+04  0.79651531144E+02 0.  0.
        254    2    1    2    0    0 -0.69356717609E+03  0.13335868662E+04  0.30853983736E+03  0.17850071389E+04  0.91190147351E+03 0.  0.
         23    2    4    4    0    0  0.15427660154E+03  0.13291085263E+03  0.21348808114E+03  0.30854934810E+03  0.90327044109E+02 0.  0.
         23    2    4    4    0    0 -0.84784377763E+03  0.12006760135E+04  0.95051756222E+02  0.14764577908E+04  0.10213134173E+03 0.  0.
          1    1    3    3  502    0  0.67709600786E+03 -0.12824257412E+04  0.12178160698E+04  0.18937134856E+04  0.00000000000E+00 0. -1.
         -2    1    3    3    0  502  0.16471168231E+02 -0.51161124923E+02  0.62252225017E+02  0.82244146332E+02  0.00000000000E+00 0.  1.
         13    1    5    5    0    0 -0.28182821061E+01  0.39237991316E+02  0.30012335432E+02  0.49480328967E+02  0.00000000000E+00 0.  1.
        -13    1    5    5    0    0  0.15709488364E+03  0.93672861317E+02  0.18347574571E+03  0.25906901914E+03  0.00000000000E+00 0. -1.
          3    1    6    6  503    0 -0.40632371469E+03  0.60522200033E+03  0.95311879225E+02  0.73517139846E+03  0.00000000000E+00 0. -1.
         -3    1    6    6    0  503 -0.44152006294E+03  0.59545401319E+03 -0.26012300305E+00  0.74128639234E+03  0.00000000000E+00 0.  1.
<mgrwt>
<rscale>  0 0.34089852E+04</rscale>
<asrwt>0</asrwt>
<pdfrwt beam="1">  1        1 0.41150561E+00 0.34089852E+04</pdfrwt>
<pdfrwt beam="2">  1       -2 0.16710436E+00 0.34089852E+04</pdfrwt>
<totfact> 0.16532090E-01</totfact>
</mgrwt>
</event>
<event>
12    5  0.5264288E-008  0.1347372E+04  0.7818608E-02  0.8992820E-01
         -2   -1    0    0    0  501 -0.00000000000E+00  0.00000000000E+00  0.19912791940E+03  0.19912791940E+03  0.00000000000E+00 0.  1.
          1   -1    0    0  501    0  0.00000000000E+00 -0.00000000000E+00 -0.22792018567E+04  0.22792018567E+04  0.00000000000E+00 0. -1.
        -24    2    1    2    0    0  0.29046794531E+03 -0.23502043436E+02 -0.90056221752E+03  0.94948525625E+03  0.74739353107E+02 0.  0.
        254    2    1    2    0    0 -0.29046794531E+03  0.23502043436E+02 -0.11795117198E+04  0.15288445199E+04  0.92800522387E+03 0.  0.
         23    2    4    4    0    0 -0.17561178535E+03  0.46045833300E+03 -0.72570900190E+03  0.88199023926E+03  0.91607047308E+02 0.  0.
         23    2    4    4    0    0 -0.11485615996E+03 -0.43695628957E+03 -0.45380271790E+03  0.64685428063E+03  0.91437503908E+02 0.  0.
          1    1    3    3  502    0  0.24044849365E+03  0.49752025892E+00 -0.79003821928E+03  0.82581845072E+03  0.00000000000E+00 0. -1.
         -2    1    3    3    0  502  0.50019451662E+02 -0.23999563695E+02 -0.11052399824E+03  0.12366680553E+03  0.00000000000E+00 0.  1.
         13    1    5    5    0    0 -0.15312888345E+02  0.31000587648E+01 -0.14225694063E+02  0.21129725161E+02  0.00000000000E+00 0. -1.
        -13    1    5    5    0    0 -0.16029889700E+03  0.45735827424E+03 -0.71148330784E+03  0.86086051409E+03  0.00000000000E+00 0.  1.
          3    1    6    6  503    0 -0.58544568352E+02 -0.82005062481E+02 -0.11568625692E+03  0.15341318977E+03  0.00000000000E+00 0. -1.
         -3    1    6    6    0  503 -0.56311591605E+02 -0.35495122709E+03 -0.33811646099E+03  0.49344109086E+03  0.00000000000E+00 0.  1.
<mgrwt>
<rscale>  0 0.13473718E+04</rscale>
<asrwt>0</asrwt>
<pdfrwt beam="1">  1        1 0.35064643E+00 0.13473718E+04</pdfrwt>
<pdfrwt beam="2">  1       -2 0.30635066E-01 0.13473718E+04</pdfrwt>
<totfact> 0.16341494E+01</totfact>
</mgrwt>
</event>
<event>
12    5  0.5264288E-008  0.1931407E+04  0.7818608E-02  0.8639379E-01
         -2   -1    0    0    0  501 -0.00000000000E+00  0.00000000000E+00  0.61938834641E+03  0.61938834641E+03  0.00000000000E+00 0.  1.
          1   -1    0    0  501    0  0.00000000000E+00 -0.00000000000E+00 -0.15056518309E+04  0.15056518309E+04  0.00000000000E+00 0. -1.
        -24    2    1    2    0    0  0.70529387298E+02  0.51497580390E+03  0.24948487687E+03  0.58206848727E+03  0.79915874642E+02 0.  0.
        254    2    1    2    0    0 -0.70529387298E+02 -0.51497580390E+03 -0.11357483614E+04  0.15429716900E+04  0.90590442259E+03 0.  0.
         23    2    4    4    0    0  0.20150831025E+03  0.14804157853E+03 -0.55669313677E+03  0.61704550631E+03  0.91192106263E+02 0.  0.
         23    2    4    4    0    0 -0.27203769755E+03 -0.66301738243E+03 -0.57905522459E+03  0.92592618374E+03  0.91857423864E+02 0.  0.
          1    1    3    3  502    0  0.63921717576E+01  0.46953211103E+01 -0.37899224635E+01  0.87903021783E+01  0.00000000000E+00 0. -1.
         -2    1    3    3    0  502  0.64137215541E+02  0.51028048279E+03  0.25327479933E+03  0.57327818510E+03  0.00000000000E+00 0.  1.
         13    1    5    5    0    0  0.18403240959E+03  0.11107746907E+03 -0.38900495221E+03  0.44444458008E+03  0.00000000000E+00 0.  1.
        -13    1    5    5    0    0  0.17475900657E+02  0.36964109461E+02 -0.16768818457E+03  0.17260092623E+03  0.00000000000E+00 0. -1.
          3    1    6    6  503    0 -0.61396000567E+02 -0.25981441044E+03 -0.23309479993E+03  0.35440962531E+03  0.00000000000E+00 0. -1.
         -3    1    6    6    0  503 -0.21064169698E+03 -0.40320297199E+03 -0.34596042466E+03  0.57151655843E+03  0.00000000000E+00 0.  1.
<mgrwt>
<rscale>  0 0.19314069E+04</rscale>
<asrwt>0</asrwt>
<pdfrwt beam="1">  1        1 0.23163874E+00 0.19314069E+04</pdfrwt>
<pdfrwt beam="2">  1       -2 0.95290516E-01 0.19314069E+04</pdfrwt>
<totfact> 0.49131138E+00</totfact>
</mgrwt>
</event>
<event>
12    5  0.5264288E-008  0.1762118E+04  0.7818608E-02  0.8726708E-01
          1   -1    0    0  501    0  0.00000000000E+00  0.00000000000E+00  0.82896984176E+03  0.82896984176E+03  0.00000000000E+00 0. -1.
         -2   -1    0    0    0  501 -0.00000000000E+00 -0.00000000000E+00 -0.93642123701E+03  0.93642123701E+03  0.00000000000E+00 0.  1.
        -24    2    1    2    0    0 -0.36282908952E+03  0.50031424391E+03 -0.23150146380E+03  0.66423571482E+03  0.75212141612E+02 0.  0.
        254    2    1    2    0    0  0.36282908952E+03 -0.50031424391E+03  0.12405006855E+03  0.11011553639E+04  0.90288173377E+03 0.  0.
         23    2    4    4    0    0  0.45894652833E+03 -0.68923693631E+03 -0.11818508574E+02  0.83329154190E+03  0.92496737311E+02 0.  0.
         23    2    4    4    0    0 -0.96117438811E+02  0.18892269240E+03  0.13586857712E+03  0.26786382205E+03  0.91435284017E+02 0.  0.
          1    1    3    3  502    0 -0.29742062855E+02  0.80830974814E+02 -0.44050606648E+02  0.96740336667E+02  0.00000000000E+00 0. -1.
         -2    1    3    3    0  502 -0.33308702666E+03  0.41948326909E+03 -0.18745085716E+03  0.56749537816E+03  0.00000000000E+00 0.  1.
         13    1    5    5    0    0  0.30546711311E+03 -0.47465161315E+03  0.34196251636E+02  0.56548536204E+03  0.00000000000E+00 0. -1.
        -13    1    5    5    0    0  0.15347941522E+03 -0.21458532316E+03 -0.46014760209E+02  0.26780617986E+03  0.00000000000E+00 0.  1.
          3    1    6    6  503    0 -0.95188857142E+02  0.92066264588E+02  0.93685042155E+02  0.16221591390E+03  0.00000000000E+00 0. -1.
         -3    1    6    6    0  503 -0.92858166856E+00  0.96856427814E+02  0.42183534968E+02  0.10564790814E+03  0.00000000000E+00 0.  1.
<mgrwt>
<rscale>  0 0.17621180E+04</rscale>
<asrwt>0</asrwt>
<pdfrwt beam="1">  1        1 0.12753382E+00 0.17621180E+04</pdfrwt>
<pdfrwt beam="2">  1       -2 0.14406480E+00 0.17621180E+04</pdfrwt>
<totfact> 0.57672003E+00</totfact>
</mgrwt>
</event>
<event>
12    5  0.5264288E-008  0.1330872E+04  0.7818608E-02  0.9005435E-01
          1   -1    0    0  501    0  0.00000000000E+00  0.00000000000E+00  0.40093500812E+03  0.40093500812E+03  0.00000000000E+00 0. -1.
         -2   -1    0    0    0  501 -0.00000000000E+00 -0.00000000000E+00 -0.11044312597E+04  0.11044312597E+04  0.00000000000E+00 0.  1.
        -24    2    1    2    0    0 -0.13993346461E+03 -0.16971344494E+03  0.12043440722E+03  0.26904115652E+03  0.97440594962E+02 0.  0.
        254    2    1    2    0    0  0.13993346461E+03  0.16971344494E+03 -0.82393065876E+03  0.12363251113E+04  0.89512793631E+03 0.  0.
         23    2    4    4    0    0 -0.31896402004E+03 -0.73203209623E+02 -0.53826331737E+03  0.63677540477E+03  0.93052465376E+02 0.  0.
         23    2    4    4    0    0  0.45889748464E+03  0.24291665457E+03 -0.28566734138E+03  0.59954970648E+03  0.90876939500E+02 0.  0.
          3    1    3    3  502    0 -0.13624182103E+03 -0.17609778358E+03  0.12933087619E+03  0.25748541457E+03  0.00000000000E+00 0. -1.
         -4    1    3    3    0  502 -0.36916435748E+01  0.63843386319E+01 -0.88964689652E+01  0.11555741954E+02  0.00000000000E+00 0.  1.
         13    1    5    5    0    0 -0.56098105228E+02  0.20335099969E+02 -0.73235657684E+02  0.94466794469E+02  0.00000000000E+00 0.  1.
        -13    1    5    5    0    0 -0.26286591481E+03 -0.93538309592E+02 -0.46502765969E+03  0.54230861030E+03  0.00000000000E+00 0. -1.
          3    1    6    6  503    0  0.39910785858E+03  0.22725513640E+03 -0.21958313172E+03  0.50906652958E+03  0.00000000000E+00 0. -1.
         -3    1    6    6    0  503  0.59789626068E+02  0.15661518164E+02 -0.66084209662E+02  0.90483176907E+02  0.00000000000E+00 0.  1.
<mgrwt>
<rscale>  0 0.13308721E+04</rscale>
<asrwt>0</asrwt>
<pdfrwt beam="1">  1        1 0.61682309E-01 0.13308721E+04</pdfrwt>
<pdfrwt beam="2">  1       -2 0.16991250E+00 0.13308721E+04</pdfrwt>
<totfact> 0.10922062E+01</totfact>
</mgrwt>
</event>
<event>
12    5  0.5264288E-008  0.1407767E+04  0.7818608E-02  0.8948216E-01
          1   -1    0    0  501    0  0.00000000000E+00  0.00000000000E+00  0.19600618264E+04  0.19600618264E+04  0.00000000000E+00 0. -1.
         -2   -1    0    0    0  501 -0.00000000000E+00 -0.00000000000E+00 -0.25277358039E+03  0.25277358039E+03  0.00000000000E+00 0.  1.
        -24    2    1    2    0    0  0.59785150058E+02 -0.35945341097E+03  0.24431261317E+03  0.44587581145E+03  0.79596277896E+02 0.  0.
        254    2    1    2    0    0 -0.59785150058E+02  0.35945341097E+03  0.14629756328E+04  0.17669595953E+04  0.92144858264E+03 0.  0.
         23    2    4    4    0    0 -0.15200156262E+02  0.64060492655E+03  0.12219668719E+04  0.13825985648E+04  0.88147822137E+02 0.  0.
         23    2    4    4    0    0 -0.44584993795E+02 -0.28115151558E+03  0.24100876086E+03  0.38436103052E+03  0.92812620838E+02 0.  0.
          1    1    3    3  502    0  0.39320460856E+02 -0.59288520267E+02  0.59837596619E+02  0.92961095339E+02  0.00000000000E+00 0. -1.
         -2    1    3    3    0  502  0.20464689202E+02 -0.30016489071E+03  0.18447501655E+03  0.35291471611E+03  0.00000000000E+00 0.  1.
         13    1    5    5    0    0 -0.57201096396E+01  0.61882422170E+03  0.12003186727E+04  0.13504595710E+04  0.00000000000E+00 0. -1.
        -13    1    5    5    0    0 -0.94800466225E+01  0.21780704849E+02  0.21648199252E+02  0.32138993739E+02  0.00000000000E+00 0.  1.
          2    1    6    6  503    0 -0.93202821741E+01 -0.15645784373E+03  0.74975182551E+02  0.17374464746E+03  0.00000000000E+00 0. -1.
         -2    1    6    6    0  503 -0.35264711621E+02 -0.12469367185E+03  0.16603357831E+03  0.21061638306E+03  0.00000000000E+00 0.  1.
<mgrwt>
<rscale>  0 0.14077668E+04</rscale>
<asrwt>0</asrwt>
<pdfrwt beam="1">  1        1 0.30154796E+00 0.14077668E+04</pdfrwt>
<pdfrwt beam="2">  1       -2 0.38888245E-01 0.14077668E+04</pdfrwt>
<totfact> 0.16970157E+01</totfact>
</mgrwt>
</event>
<event>
12    5  0.5264288E-008  0.1591767E+04  0.7818608E-02  0.8825622E-01
          1   -1    0    0  501    0  0.00000000000E+00  0.00000000000E+00  0.16137669756E+04  0.16137669756E+04  0.00000000000E+00 0. -1.
         -2   -1    0    0    0  501 -0.00000000000E+00 -0.00000000000E+00 -0.39251659181E+03  0.39251659181E+03  0.00000000000E+00 0.  1.
        -24    2    1    2    0    0  0.11276640906E+03  0.20206274892E+03  0.10856591786E+04  0.11129447929E+04  0.80278530216E+02 0.  0.
        254    2    1    2    0    0 -0.11276640906E+03 -0.20206274892E+03  0.13559120513E+03  0.89333877447E+03  0.85212884798E+03 0.  0.
         23    2    4    4    0    0  0.20615206592E+03 -0.41333612143E+03 -0.13968020537E+02  0.47080093997E+03  0.90072170586E+02 0.  0.
         23    2    4    4    0    0 -0.31891847499E+03  0.21127337252E+03  0.14955922567E+03  0.42253783450E+03  0.99120270285E+02 0.  0.
          3    1    3    3  502    0  0.11042570125E+03  0.15416797354E+03  0.95773048839E+03  0.97632437641E+03  0.00000000000E+00 0. -1.
         -4    1    3    3    0  502  0.23407078117E+01  0.47894775375E+02  0.12792869025E+03  0.13662041652E+03  0.00000000000E+00 0.  1.
         13    1    5    5    0    0  0.78978854626E+02 -0.23098275778E+03 -0.38511464225E+02  0.24713119339E+03  0.00000000000E+00 0.  1.
        -13    1    5    5    0    0  0.12717321130E+03 -0.18235336365E+03  0.24543443688E+02  0.22366974658E+03  0.00000000000E+00 0. -1.
          4    1    6    6  503    0 -0.10488088789E+03  0.64436071479E+02  0.24920901149E+00  0.12309374500E+03  0.00000000000E+00 0. -1.
         -4    1    6    6    0  503 -0.21403758710E+03  0.14683730104E+03  0.14931001665E+03  0.29944408950E+03  0.00000000000E+00 0.  1.
<mgrwt>
<rscale>  0 0.15917667E+04</rscale>
<asrwt>0</asrwt>
<pdfrwt beam="1">  1        1 0.24827184E+00 0.15917667E+04</pdfrwt>
<pdfrwt beam="2">  1       -2 0.60387169E-01 0.15917667E+04</pdfrwt>
<totfact> 0.11754814E+01</totfact>
</mgrwt>
</event>
<event>
12    5  0.5264288E-008  0.1255772E+04  0.7818608E-02  0.9065393E-01
         -2   -1    0    0    0  501 -0.00000000000E+00  0.00000000000E+00  0.10311275558E+04  0.10311275558E+04  0.00000000000E+00 0.  1.
          1   -1    0    0  501    0  0.00000000000E+00 -0.00000000000E+00 -0.38233971554E+03  0.38233971554E+03  0.00000000000E+00 0. -1.
        -24    2    1    2    0    0 -0.21743070693E+03 -0.20098294035E+03  0.15770973803E+03  0.34563082714E+03  0.83174831338E+02 0.  0.
        254    2    1    2    0    0  0.21743070693E+03  0.20098294035E+03  0.49107810218E+03  0.10678364442E+04  0.90080337167E+03 0.  0.
         23    2    4    4    0    0 -0.50984272461E+02 -0.25639582089E+03 -0.74884364712E+02  0.28700222966E+03  0.91784523442E+02 0.  0.
         23    2    4    4    0    0  0.26841497939E+03  0.45737876123E+03  0.56596246690E+03  0.78083421451E+03  0.90258651770E+02 0.  0.
          3    1    3    3  502    0 -0.15339376739E+03 -0.18378837453E+03  0.10729359742E+03  0.26233514925E+03  0.00000000000E+00 0. -1.
         -4    1    3    3    0  502 -0.64036939541E+02 -0.17194565818E+02  0.50416140615E+02  0.83295677883E+02  0.00000000000E+00 0.  1.
         13    1    5    5    0    0 -0.71259218410E+02 -0.19187203519E+03 -0.32651798429E+02  0.20726527456E+03  0.00000000000E+00 0. -1.
        -13    1    5    5    0    0  0.20274945950E+02 -0.64523785697E+02 -0.42232566283E+02  0.79736955101E+02  0.00000000000E+00 0.  1.
          3    1    6    6  503    0  0.12932998383E+03  0.15059201433E+03  0.17350442403E+03  0.26364366986E+03  0.00000000000E+00 0. -1.
         -3    1    6    6    0  503  0.13908499557E+03  0.30678674690E+03  0.39245804286E+03  0.51719054465E+03  0.00000000000E+00 0.  1.
<mgrwt>
<rscale>  0 0.12557723E+04</rscale>
<asrwt>0</asrwt>
<pdfrwt beam="1">  1        1 0.58821495E-01 0.12557723E+04</pdfrwt>
<pdfrwt beam="2">  1       -2 0.15863501E+00 0.12557723E+04</pdfrwt>
<totfact> 0.14130736E+01</totfact>
</mgrwt>
</event>
<event>
12    5  0.5264288E-008  0.2088612E+04  0.7818608E-02  0.8566277E-01
         -2   -1    0    0    0  501 -0.00000000000E+00  0.00000000000E+00  0.24473166357E+04  0.24473166357E+04  0.00000000000E+00 0.  1.
          1   -1    0    0  501    0  0.00000000000E+00 -0.00000000000E+00 -0.44562069258E+03  0.44562069258E+03  0.00000000000E+00 0. -1.
        -24    2    1    2    0    0  0.35942063733E+03  0.71876076189E+03  0.11534661143E+04  0.14090159156E+04  0.95087045957E+02 0.  0.
        254    2    1    2    0    0 -0.35942063733E+03 -0.71876076189E+03  0.84822982887E+03  0.14839214127E+04  0.91472875163E+03 0.  0.
         23    2    4    4    0    0 -0.10328719816E+03  0.10256296917E+03  0.53916996814E+03  0.56542597673E+03  0.88401768518E+02 0.  0.
         23    2    4    4    0    0 -0.25613343917E+03 -0.82132373106E+03  0.30905986073E+03  0.91849543595E+03  0.89100272017E+02 0.  0.
          3    1    3    3  502    0  0.33056592075E+03  0.64083219844E+03  0.10769436994E+04  0.12960507190E+04  0.00000000000E+00 0. -1.
         -4    1    3    3    0  502  0.28854716583E+02  0.77928563454E+02  0.76522414876E+02  0.11296519663E+03  0.00000000000E+00 0.  1.
         13    1    5    5    0    0 -0.40429154058E+02  0.17558024225E+02  0.58385807864E+02  0.73155336596E+02  0.00000000000E+00 0. -1.
        -13    1    5    5    0    0 -0.62858044100E+02  0.85004944946E+02  0.48078416027E+03  0.49227064014E+03  0.00000000000E+00 0.  1.
          2    1    6    6  503    0 -0.81144434584E+02 -0.15681900720E+03  0.83025974240E+02  0.19511517799E+03  0.00000000000E+00 0. -1.
         -2    1    6    6    0  503 -0.17498900459E+03 -0.66450472386E+03  0.22603388649E+03  0.72338025796E+03  0.00000000000E+00 0.  1.
<mgrwt>
<rscale>  0 0.20886119E+04</rscale>
<asrwt>0</asrwt>
<pdfrwt beam="1">  1        1 0.68557031E-01 0.20886119E+04</pdfrwt>
<pdfrwt beam="2">  1       -2 0.37651024E+00 0.20886119E+04</pdfrwt>
<totfact> 0.44188066E-01</totfact>
</mgrwt>
</event>
<event>
12    5  0.5264288E-008  0.1736001E+04  0.7818608E-02  0.8741094E-01
          1   -1    0    0  501    0  0.00000000000E+00  0.00000000000E+00  0.50228260063E+03  0.50228260063E+03  0.00000000000E+00 0. -1.
         -2   -1    0    0    0  501 -0.00000000000E+00 -0.00000000000E+00 -0.15000015085E+04  0.15000015085E+04  0.00000000000E+00 0.  1.
        -24    2    1    2    0    0 -0.14246251369E+03  0.63273258671E+01  0.34433560211E+03  0.38119628663E+03  0.80049979392E+02 0.  0.
        254    2    1    2    0    0  0.14246251369E+03 -0.63273258671E+01 -0.13420545100E+04  0.16210878225E+04  0.89804221373E+03 0.  0.
         23    2    4    4    0    0  0.17885649881E+03  0.18716039868E+03 -0.14718285434E+02  0.27593785791E+03  0.94373786091E+02 0.  0.
         23    2    4    4    0    0 -0.36393985122E+02 -0.19348772454E+03 -0.13273362246E+04  0.13451499646E+04  0.94047607827E+02 0.  0.
          3    1    3    3  502    0 -0.11685582734E+03  0.16639602296E+02  0.32918480949E+03  0.34970673363E+03  0.00000000000E+00 0. -1.
         -4    1    3    3    0  502 -0.25606686352E+02 -0.10312276429E+02  0.15150792618E+02  0.31489552998E+02  0.00000000000E+00 0.  1.
         13    1    5    5    0    0  0.10419682081E+03  0.51677051977E+02 -0.31062309916E+02  0.12038422765E+03  0.00000000000E+00 0.  1.
        -13    1    5    5    0    0  0.74659678001E+02  0.13548334670E+03  0.16344024482E+02  0.15555363026E+03  0.00000000000E+00 0. -1.
          1    1    6    6  503    0 -0.90759681616E+01 -0.18630174235E+03 -0.12191957093E+04  0.12333810806E+04  0.00000000000E+00 0. -1.
         -1    1    6    6    0  503 -0.27318016960E+02 -0.71859821919E+01 -0.10814051522E+03  0.11176888397E+03  0.00000000000E+00 0.  1.
<mgrwt>
<rscale>  0 0.17360008E+04</rscale>
<asrwt>0</asrwt>
<pdfrwt beam="1">  1        1 0.77274247E-01 0.17360008E+04</pdfrwt>
<pdfrwt beam="2">  1       -2 0.23076946E+00 0.17360008E+04</pdfrwt>
<totfact> 0.30899906E+00</totfact>
</mgrwt>
</event>
<event>
12    5  0.5264288E-008  0.2458706E+04  0.7818608E-02  0.8417846E-01
         -2   -1    0    0    0  501 -0.00000000000E+00  0.00000000000E+00  0.85896305598E+03  0.85896305598E+03  0.00000000000E+00 0.  1.
          1   -1    0    0  501    0  0.00000000000E+00 -0.00000000000E+00 -0.17594570409E+04  0.17594570409E+04  0.00000000000E+00 0. -1.
        -24    2    1    2    0    0 -0.27015569058E+03  0.62126902853E+03 -0.12782093629E+04  0.14489385205E+04  0.81512931729E+02 0.  0.
        254    2    1    2    0    0  0.27015569058E+03 -0.62126902853E+03  0.37771537799E+03  0.11694815763E+04  0.87524793490E+03 0.  0.
         23    2    4    4    0    0  0.22986841891E+03 -0.74629903460E+03  0.29668328090E+02  0.78671408829E+03  0.90758514584E+02 0.  0.
         23    2    4    4    0    0  0.40287271669E+02  0.12503000606E+03  0.34804704990E+03  0.38276748800E+03  0.90103464149E+02 0.  0.
          1    1    3    3  502    0 -0.26295025331E+03  0.62037938590E+03 -0.12527133112E+04  0.14224289291E+04  0.00000000000E+00 0. -1.
         -2    1    3    3    0  502 -0.72054372647E+01  0.88964262963E+00 -0.25496051665E+02  0.26509591485E+02  0.00000000000E+00 0.  1.
         13    1    5    5    0    0  0.98140410920E+01 -0.15365446248E+03  0.71221895393E+01  0.15413219919E+03  0.00000000000E+00 0. -1.
        -13    1    5    5    0    0  0.22005437782E+03 -0.59264457212E+03  0.22546138551E+02  0.63258188910E+03  0.00000000000E+00 0.  1.
          1    1    6    6  503    0  0.49275217592E+02  0.34226637440E+02  0.20051021128E+03  0.20929370417E+03  0.00000000000E+00 0. -1.
         -1    1    6    6    0  503 -0.89879459232E+01  0.90803368625E+02  0.14753683862E+03  0.17347378383E+03  0.00000000000E+00 0.  1.
<mgrwt>
<rscale>  0 0.24587058E+04</rscale>
<asrwt>0</asrwt>
<pdfrwt beam="1">  1        1 0.27068570E+00 0.24587058E+04</pdfrwt>
<pdfrwt beam="2">  1       -2 0.13214816E+00 0.24587058E+04</pdfrwt>
<totfact> 0.14165041E+00</totfact>
</mgrwt>
</event>
<event>
12    5  0.5264288E-008  0.1526002E+04  0.7818608E-02  0.8867344E-01
         -4   -1    0    0    0  501 -0.00000000000E+00  0.00000000000E+00  0.14471080932E+04  0.14471080932E+04  0.00000000000E+00 0.  1.
          1   -1    0    0  501    0  0.00000000000E+00 -0.00000000000E+00 -0.40229916190E+03  0.40229916190E+03  0.00000000000E+00 0. -1.
        -24    2    1    2    0    0 -0.46710030509E+03  0.16108338317E+03  0.26535898286E+03  0.56651692750E+03  0.79971795101E+02 0.  0.
        254    2    1    2    0    0  0.46710030509E+03 -0.16108338317E+03  0.77944994847E+03  0.12828903276E+04  0.89114242364E+03 0.  0.
         23    2    4    4    0    0  0.31042074629E+03 -0.11988324310E+03  0.96167468398E+03  0.10216382865E+04  0.90518279716E+02 0.  0.
         23    2    4    4    0    0  0.15667955879E+03 -0.41200140070E+02 -0.18222473551E+03  0.26125204111E+03  0.93812787326E+02 0.  0.
          1    1    3    3  502    0 -0.38930633810E+03  0.11645692968E+03  0.24518184641E+03  0.47459011702E+03  0.00000000000E+00 0. -1.
         -2    1    3    3    0  502 -0.77793966983E+02  0.44626453493E+02  0.20177136443E+02  0.91926810481E+02  0.00000000000E+00 0.  1.
         13    1    5    5    0    0  0.23714249332E+03 -0.13043518105E+03  0.74142756115E+03  0.78928114574E+03  0.00000000000E+00 0.  1.
        -13    1    5    5    0    0  0.73278252971E+02  0.10551937948E+02  0.22024712283E+03  0.23235714077E+03  0.00000000000E+00 0. -1.
          3    1    6    6  503    0 -0.18542158627E+01  0.12765531287E+02  0.11061784017E+01  0.12946834986E+02  0.00000000000E+00 0. -1.
         -3    1    6    6    0  503  0.15853377466E+03 -0.53965671357E+02 -0.18333091392E+03  0.24830520612E+03  0.00000000000E+00 0.  1.
<mgrwt>
<rscale>  0 0.15260018E+04</rscale>
<asrwt>0</asrwt>
<pdfrwt beam="1">  1        1 0.61892179E-01 0.15260018E+04</pdfrwt>
<pdfrwt beam="2">  1       -4 0.22263201E+00 0.15260018E+04</pdfrwt>
<totfact> 0.25704574E+00</totfact>
</mgrwt>
</event>
<event>
12    5  0.5487178E-008  0.1550985E+04  0.7818608E-02  0.8851239E-01
          1   -1    0    0  501    0  0.00000000000E+00  0.00000000000E+00  0.92875357056E+03  0.92875357056E+03  0.00000000000E+00 0. -1.
         -2   -1    0    0    0  501 -0.00000000000E+00 -0.00000000000E+00 -0.64752200160E+03  0.64752200160E+03  0.00000000000E+00 0.  1.
        -24    2    1    2    0    0 -0.37368938831E+02  0.13529985147E+03  0.59133639563E+03  0.61299817347E+03  0.79909576927E+02 0.  0.
        254    2    1    2    0    0  0.37368938831E+02 -0.13529985147E+03 -0.31010482667E+03  0.96327739869E+03  0.90113032126E+03 0.  0.
         23    2    4    4    0    0 -0.69278028745E+02  0.69862099360E+02  0.28724147657E+03  0.31702268918E+03  0.91189700076E+02 0.  0.
         23    2    4    4    0    0  0.10664696758E+03 -0.20516195083E+03 -0.59734630324E+03  0.64625470951E+03  0.85776114375E+02 0.  0.
          3    1    3    3  502    0 -0.35798866216E+02  0.14550142391E+03  0.56888752423E+03  0.58829009715E+03  0.00000000000E+00 0. -1.
         -4    1    3    3    0  502 -0.15700726149E+01 -0.10201572440E+02  0.22448871405E+02  0.24708076324E+02  0.00000000000E+00 0.  1.
         13    1    5    5    0    0 -0.25505746351E+02 -0.19623049313E+02  0.47151321269E+02  0.57086375421E+02  0.00000000000E+00 0.  1.
        -13    1    5    5    0    0 -0.43772282394E+02  0.89485148673E+02  0.24009015530E+03  0.25993631376E+03  0.00000000000E+00 0. -1.
          1    1    6    6  503    0  0.63946472569E+02 -0.18830636587E+03 -0.45156265810E+03  0.49341389621E+03  0.00000000000E+00 0. -1.
         -1    1    6    6    0  503  0.42700495007E+02 -0.16855584965E+02 -0.14578364514E+03  0.15284081330E+03  0.00000000000E+00 0.  1.
<mgrwt>
<rscale>  0 0.15509847E+04</rscale>
<asrwt>0</asrwt>
<pdfrwt beam="1">  1        1 0.14288516E+00 0.15509847E+04</pdfrwt>
<pdfrwt beam="2">  1       -2 0.99618770E-01 0.15509847E+04</pdfrwt>
<totfact> 0.12133803E+01</totfact>
</mgrwt>
</event>
<event>
12    5  0.5264288E-008  0.3148222E+04  0.7818608E-02  0.8202627E-01
          3   -1    0    0  501    0  0.00000000000E+00  0.00000000000E+00  0.14298489815E+04  0.14298489815E+04  0.00000000000E+00 0. -1.
         -4   -1    0    0    0  501 -0.00000000000E+00 -0.00000000000E+00 -0.17329283030E+04  0.17329283030E+04  0.00000000000E+00 0.  1.
        -24    2    1    2    0    0 -0.85871169024E+03 -0.11578707372E+04 -0.64424328792E+02  0.14451080269E+04  0.78334565588E+02 0.  0.
        254    2    1    2    0    0  0.85871169024E+03  0.11578707372E+04 -0.23865499272E+03  0.17176692577E+04  0.90298453035E+03 0.  0.
         23    2    4    4    0    0  0.45121737233E+03  0.11963139638E+04 -0.16330647293E+03  0.12919457924E+04  0.87696690123E+02 0.  0.
         23    2    4    4    0    0  0.40749431790E+03 -0.38443226521E+02 -0.75348519793E+02  0.42572346524E+03  0.89630177030E+02 0.  0.
          1    1    3    3  502    0 -0.18058636828E+03 -0.28378247894E+03  0.78086936859E+01  0.33645936970E+03  0.00000000000E+00 0. -1.
         -2    1    3    3    0  502 -0.67812532195E+03 -0.87408825830E+03 -0.72233022478E+02  0.11086486572E+04  0.00000000000E+00 0.  1.
         13    1    5    5    0    0  0.16611023809E+03  0.56323764051E+03 -0.80372446285E+02  0.59269636494E+03  0.00000000000E+00 0. -1.
        -13    1    5    5    0    0  0.28510713425E+03  0.63307632325E+03 -0.82934026646E+02  0.69924942748E+03  0.00000000000E+00 0.  1.
          3    1    6    6  503    0  0.14328544081E+03  0.27976886689E+02 -0.37009913071E+02  0.15060928724E+03  0.00000000000E+00 0. -1.
         -3    1    6    6    0  503  0.26420887709E+03 -0.66420113209E+02 -0.38338606722E+02  0.27511417800E+03  0.00000000000E+00 0.  1.
<mgrwt>
<rscale>  0 0.31482222E+04</rscale>
<asrwt>0</asrwt>
<pdfrwt beam="1">  1        3 0.21997677E+00 0.31482222E+04</pdfrwt>
<pdfrwt beam="2">  1       -4 0.26660435E+00 0.31482222E+04</pdfrwt>
<totfact> 0.10582487E-02</totfact>
</mgrwt>
</event>
<event>
12    5  0.5264288E-008  0.2181356E+04  0.7818608E-02  0.8526228E-01
          1   -1    0    0  501    0  0.00000000000E+00  0.00000000000E+00  0.11059864536E+04  0.11059864536E+04  0.00000000000E+00 0. -1.
         -2   -1    0    0    0  501 -0.00000000000E+00 -0.00000000000E+00 -0.10755818881E+04  0.10755818881E+04  0.00000000000E+00 0.  1.
        -24    2    1    2    0    0 -0.19868592682E+03  0.10246389562E+03 -0.86070694385E+03  0.89337461361E+03  0.85596785163E+02 0.  0.
        254    2    1    2    0    0  0.19868592682E+03 -0.10246389562E+03  0.89111150934E+03  0.12881937281E+04  0.90298859988E+03 0.  0.
         23    2    4    4    0    0  0.16180761395E+02  0.23511280466E+03 -0.59474786775E+02  0.25926426169E+03  0.90226709874E+02 0.  0.
         23    2    4    4    0    0  0.18250516542E+03 -0.33757670027E+03  0.95058629612E+03  0.10289294664E+04  0.88404617658E+02 0.  0.
          1    1    3    3  502    0 -0.11457674635E+02  0.12902375824E+02 -0.20219769719E+03  0.20293264489E+03  0.00000000000E+00 0. -1.
         -2    1    3    3    0  502 -0.18722825218E+03  0.89561519795E+02 -0.65850924665E+03  0.69044196872E+03  0.00000000000E+00 0.  1.
         13    1    5    5    0    0  0.29922605724E+02  0.20081852156E+02 -0.12144558353E+01  0.36057149393E+02  0.00000000000E+00 0.  1.
        -13    1    5    5    0    0 -0.13741844329E+02  0.21503095250E+03 -0.58260330940E+02  0.22320711230E+03  0.00000000000E+00 0. -1.
          3    1    6    6  503    0  0.15006529473E+03 -0.29043992096E+03  0.71025995959E+03  0.78188499830E+03  0.00000000000E+00 0. -1.
         -3    1    6    6    0  503  0.32439870697E+02 -0.47136779310E+02  0.24032633653E+03  0.24704446807E+03  0.00000000000E+00 0.  1.
<mgrwt>
<rscale>  0 0.21813565E+04</rscale>
<asrwt>0</asrwt>
<pdfrwt beam="1">  1        1 0.17015176E+00 0.21813565E+04</pdfrwt>
<pdfrwt beam="2">  1       -2 0.16547414E+00 0.21813565E+04</pdfrwt>
<totfact> 0.23082278E+00</totfact>
</mgrwt>
</event>
<event>
12    5  0.5264288E-008  0.1611640E+04  0.7818608E-02  0.8813429E-01
         -2   -1    0    0    0  501 -0.00000000000E+00  0.00000000000E+00  0.22998929584E+03  0.22998929584E+03  0.00000000000E+00 0.  1.
          1   -1    0    0  501    0  0.00000000000E+00 -0.00000000000E+00 -0.28233746386E+04  0.28233746386E+04  0.00000000000E+00 0. -1.
        -24    2    1    2    0    0 -0.36979705432E+03  0.38067774935E+03 -0.61746734757E+03  0.81807768491E+03  0.79496937093E+02 0.  0.
        254    2    1    2    0    0  0.36979705432E+03 -0.38067774935E+03 -0.19759179952E+04  0.22352862495E+04  0.90032620939E+03 0.  0.
         23    2    4    4    0    0 -0.57147616881E+02 -0.43339949580E+03 -0.40034577800E+03  0.59952586297E+03  0.89741547390E+02 0.  0.
         23    2    4    4    0    0  0.42694467120E+03  0.52721746450E+02 -0.15755722172E+04  0.16357603865E+04  0.90680184281E+02 0.  0.
          3    1    3    3  502    0 -0.55086063407E+01 -0.21492482908E+01 -0.81706337728E+00  0.59692214396E+01  0.00000000000E+00 0. -1.
         -4    1    3    3    0  502 -0.36428844798E+03  0.38282699764E+03 -0.61665028419E+03  0.81210846347E+03  0.00000000000E+00 0.  1.
         13    1    5    5    0    0  0.20488591080E+02 -0.12176648804E+03 -0.13478414035E+03  0.18279393990E+03  0.00000000000E+00 0. -1.
        -13    1    5    5    0    0 -0.77636207961E+02 -0.31163300776E+03 -0.26556163766E+03  0.41673192307E+03  0.00000000000E+00 0.  1.
          1    1    6    6  503    0  0.52397953716E+02  0.32642421232E+02 -0.16499998922E+03  0.17617056979E+03  0.00000000000E+00 0. -1.
         -1    1    6    6    0  503  0.37454671749E+03  0.20079325218E+02 -0.14105722279E+04  0.14595898167E+04  0.00000000000E+00 0.  1.
<mgrwt>
<rscale>  0 0.16116401E+04</rscale>
<asrwt>0</asrwt>
<pdfrwt beam="1">  1        1 0.43436537E+00 0.16116401E+04</pdfrwt>
<pdfrwt beam="2">  1       -2 0.35382966E-01 0.16116401E+04</pdfrwt>
<totfact> 0.50838475E+00</totfact>
</mgrwt>
</event>
<event>
12    5  0.5264288E-008  0.2005980E+04  0.7818608E-02  0.8603830E-01
          1   -1    0    0  501    0  0.00000000000E+00  0.00000000000E+00  0.16628820106E+04  0.16628820106E+04  0.00000000000E+00 0. -1.
         -2   -1    0    0    0  501 -0.00000000000E+00 -0.00000000000E+00 -0.60496715800E+03  0.60496715800E+03  0.00000000000E+00 0.  1.
        -24    2    1    2    0    0 -0.39288395048E+03 -0.65756668936E+03  0.70076918026E+03  0.10411483574E+04  0.78490181697E+02 0.  0.
        254    2    1    2    0    0  0.39288395048E+03  0.65756668936E+03  0.35714567236E+03  0.12267008112E+04  0.88909510145E+03 0.  0.
         23    2    4    4    0    0  0.26333341518E+03  0.87713278627E+02  0.53377981866E+03  0.60919048755E+03  0.95676791942E+02 0.  0.
         23    2    4    4    0    0  0.12955053530E+03  0.56985341074E+03 -0.17663414630E+03  0.61751032366E+03  0.92753044502E+02 0.  0.
          3    1    3    3  502    0 -0.24332287197E+03 -0.47516499802E+03  0.49901565950E+03  0.73075606313E+03  0.00000000000E+00 0. -1.
         -4    1    3    3    0  502 -0.14956107851E+03 -0.18240169134E+03  0.20175352076E+03  0.31039229428E+03  0.00000000000E+00 0.  1.
         13    1    5    5    0    0  0.19740115772E+03  0.31055197761E+02  0.42740536452E+03  0.47181245002E+03  0.00000000000E+00 0. -1.
        -13    1    5    5    0    0  0.65932257465E+02  0.56658080866E+02  0.10637445414E+03  0.13737803753E+03  0.00000000000E+00 0.  1.
          3    1    6    6  503    0  0.46195945577E+02  0.23954493730E+03 -0.12105738647E+03  0.27234304323E+03  0.00000000000E+00 0.  1.
         -3    1    6    6    0  503  0.83354589719E+02  0.33030847343E+03 -0.55576759832E+02  0.34516728043E+03  0.00000000000E+00 0. -1.
<mgrwt>
<rscale>  0 0.20059801E+04</rscale>
<asrwt>0</asrwt>
<pdfrwt beam="1">  1        1 0.25582800E+00 0.20059801E+04</pdfrwt>
<pdfrwt beam="2">  1       -2 0.93071871E-01 0.20059801E+04</pdfrwt>
<totfact> 0.40210024E+00</totfact>
</mgrwt>
</event>
<event>
12    5  0.5264288E-008  0.1934665E+04  0.7818608E-02  0.8637791E-01
          1   -1    0    0  501    0  0.00000000000E+00  0.00000000000E+00  0.11614930735E+04  0.11614930735E+04  0.00000000000E+00 0. -1.
         -2   -1    0    0    0  501 -0.00000000000E+00 -0.00000000000E+00 -0.80562902796E+03  0.80562902796E+03  0.00000000000E+00 0.  1.
        -24    2    1    2    0    0 -0.10138905448E+02  0.66114927375E+03  0.50593138234E+03  0.83624487449E+03  0.78216154952E+02 0.  0.
        254    2    1    2    0    0  0.10138905448E+02 -0.66114927375E+03 -0.15006733676E+03  0.11308772270E+04  0.90506460401E+03 0.  0.
         23    2    4    4    0    0  0.18944425031E+03 -0.10152338749E+03 -0.41768225420E+03  0.47864630097E+03  0.91911336508E+02 0.  0.
         23    2    4    4    0    0 -0.17930534486E+03 -0.55962588626E+03  0.26761491744E+03  0.65223092604E+03  0.91955954545E+02 0.  0.
          1    1    3    3  502    0 -0.17761374238E+02  0.64456314084E+03  0.50292020136E+03  0.81774435974E+03  0.00000000000E+00 0. -1.
         -2    1    3    3    0  502  0.76224687900E+01  0.16586132906E+02  0.30111809783E+01  0.18500514752E+02  0.00000000000E+00 0.  1.
         13    1    5    5    0    0  0.18889081998E+03 -0.68907893475E+02 -0.35514588196E+03  0.40811351011E+03  0.00000000000E+00 0. -1.
        -13    1    5    5    0    0  0.55343032808E+00 -0.32615494011E+02 -0.62536372236E+02  0.70532790864E+02  0.00000000000E+00 0.  1.
          3    1    6    6  503    0 -0.10974946408E+03 -0.45450896408E+03  0.19365660666E+03  0.50608914689E+03  0.00000000000E+00 0. -1.
         -3    1    6    6    0  503 -0.69555880782E+02 -0.10511692218E+03  0.73958310781E+02  0.14614177915E+03  0.00000000000E+00 0.  1.
<mgrwt>
<rscale>  0 0.19346654E+04</rscale>
<asrwt>0</asrwt>
<pdfrwt beam="1">  1        1 0.17869124E+00 0.19346654E+04</pdfrwt>
<pdfrwt beam="2">  1       -2 0.12394293E+00 0.19346654E+04</pdfrwt>
<totfact> 0.45712221E+00</totfact>
</mgrwt>
</event>
<event>
12    5  0.5264288E-008  0.2149179E+04  0.7818608E-02  0.8539884E-01
         -2   -1    0    0    0  501 -0.00000000000E+00  0.00000000000E+00  0.64576182533E+03  0.64576182533E+03  0.00000000000E+00 0.  1.
          1   -1    0    0  501    0  0.00000000000E+00 -0.00000000000E+00 -0.17881861941E+04  0.17881861941E+04  0.00000000000E+00 0. -1.
        -24    2    1    2    0    0  0.28929800813E+03 -0.13268252554E+02  0.47346271835E+03  0.56117240927E+03  0.82934571955E+02 0.  0.
        254    2    1    2    0    0 -0.28929800813E+03  0.13268252554E+02 -0.16158870871E+04  0.18727756101E+04  0.90129241849E+03 0.  0.
         23    2    4    4    0    0 -0.60300771612E+03  0.66598210446E+02 -0.11184924264E+04  0.12755564063E+04  0.89248028330E+02 0.  0.
         23    2    4    4    0    0  0.31370970800E+03 -0.53329957892E+02 -0.49739466070E+03  0.59721920377E+03  0.89506779412E+02 0.  0.
          3    1    3    3  502    0  0.60939232870E+02  0.51097824559E+01  0.47216653873E+02  0.77260030950E+02  0.00000000000E+00 0. -1.
         -4    1    3    3    0  502  0.22835877526E+03 -0.18378035010E+02  0.42624606448E+03  0.48391237832E+03  0.00000000000E+00 0.  1.
         13    1    5    5    0    0 -0.54272186686E+03  0.73349870915E+02 -0.10486721322E+04  0.11830640173E+04  0.00000000000E+00 0. -1.
        -13    1    5    5    0    0 -0.60285849267E+02 -0.67516604696E+01 -0.69820294210E+02  0.92492389008E+02  0.00000000000E+00 0.  1.
          1    1    6    6  503    0  0.17169327925E+03  0.76812960967E+01 -0.30852179903E+03  0.35316183957E+03  0.00000000000E+00 0. -1.
         -1    1    6    6    0  503  0.14201642875E+03 -0.61011253989E+02 -0.18887286167E+03  0.24405736420E+03  0.00000000000E+00 0.  1.
<mgrwt>
<rscale>  0 0.21491788E+04</rscale>
<asrwt>0</asrwt>
<pdfrwt beam="1">  1        1 0.27510557E+00 0.21491788E+04</pdfrwt>
<pdfrwt beam="2">  1       -2 0.99347973E-01 0.21491788E+04</pdfrwt>
<totfact> 0.27998477E+00</totfact>
</mgrwt>
</event>
<event>
12    5  0.5264288E-008  0.1474408E+04  0.7818608E-02  0.8901652E-01
         -2   -1    0    0    0  501 -0.00000000000E+00  0.00000000000E+00  0.20026604913E+03  0.20026604913E+03  0.00000000000E+00 0.  1.
          1   -1    0    0  501    0  0.00000000000E+00 -0.00000000000E+00 -0.27137380761E+04  0.27137380761E+04  0.00000000000E+00 0. -1.
        -24    2    1    2    0    0  0.42048774570E+03  0.10272510104E+03 -0.93700636683E+03  0.10353377445E+04  0.81122888255E+02 0.  0.
        254    2    1    2    0    0 -0.42048774570E+03 -0.10272510104E+03 -0.15764656602E+04  0.18786663808E+04  0.92562465496E+03 0.  0.
         23    2    4    4    0    0  0.15789371252E+03 -0.12084353045E+02 -0.11072320478E+04  0.11222345469E+04  0.91493794587E+02 0.  0.
         23    2    4    4    0    0 -0.57838145822E+03 -0.90640747998E+02 -0.46923361236E+03  0.75643183390E+03  0.96270867623E+02 0.  0.
          1    1    3    3  502    0  0.27072971951E+03  0.10528324449E+03 -0.60626076457E+03  0.67225832628E+03  0.00000000000E+00 0. -1.
         -2    1    3    3    0  502  0.14975802620E+03 -0.25581434495E+01 -0.33074560226E+03  0.36307941820E+03  0.00000000000E+00 0.  1.
         13    1    5    5    0    0  0.97393961376E+02  0.11177893869E+02 -0.89425677726E+03  0.89961420214E+03  0.00000000000E+00 0. -1.
        -13    1    5    5    0    0  0.60499751144E+02 -0.23262246914E+02 -0.21297527056E+03  0.22262034474E+03  0.00000000000E+00 0.  1.
          1    1    6    6  503    0 -0.53305470159E+03 -0.80680630050E+02 -0.39292085609E+03  0.66711579063E+03  0.00000000000E+00 0. -1.
         -1    1    6    6    0  503 -0.45326756634E+02 -0.99601179487E+01 -0.76312756268E+02  0.89316043271E+02  0.00000000000E+00 0.  1.
<mgrwt>
<rscale>  0 0.14744078E+04</rscale>
<asrwt>0</asrwt>
<pdfrwt beam="1">  1        1 0.41749818E+00 0.14744078E+04</pdfrwt>
<pdfrwt beam="2">  1       -2 0.30810160E-01 0.14744078E+04</pdfrwt>
<totfact> 0.80028488E+00</totfact>
</mgrwt>
</event>
<event>
12    5  0.5264288E-008  0.1089379E+04  0.7818608E-02  0.9215606E-01
          1   -1    0    0  501    0  0.00000000000E+00  0.00000000000E+00  0.33818645881E+03  0.33818645881E+03  0.00000000000E+00 0. -1.
         -4   -1    0    0    0  501 -0.00000000000E+00 -0.00000000000E+00 -0.87728768927E+03  0.87728768927E+03  0.00000000000E+00 0.  1.
        -24    2    1    2    0    0  0.10051156338E+03  0.12159644344E+03 -0.98395286520E+02  0.20211714902E+03  0.79255536657E+02 0.  0.
        254    2    1    2    0    0 -0.10051156338E+03 -0.12159644344E+03 -0.44070594394E+03  0.10133569991E+04  0.89876716066E+03 0.  0.
         23    2    4    4    0    0 -0.40322762120E+03 -0.27424769978E+03 -0.65712948910E+02  0.50038050522E+03  0.90874325384E+02 0.  0.
         23    2    4    4    0    0  0.30271605782E+03  0.15265125635E+03 -0.37499299503E+03  0.51297649384E+03  0.87096034233E+02 0.  0.
          3    1    3    3  502    0  0.20567894962E+02  0.16054819126E+02  0.12942312532E+02  0.29125572510E+02  0.00000000000E+00 0. -1.
         -4    1    3    3    0  502  0.79943668414E+02  0.10554162431E+03 -0.11133759905E+03  0.17299157651E+03  0.00000000000E+00 0.  1.
         13    1    5    5    0    0 -0.69844361618E+02 -0.12245240047E+02 -0.21327593562E+02  0.74047599561E+02  0.00000000000E+00 0.  1.
        -13    1    5    5    0    0 -0.33338325958E+03 -0.26200245974E+03 -0.44385355348E+02  0.42633290566E+03  0.00000000000E+00 0. -1.
          1    1    6    6  503    0  0.28592270250E+03  0.16157163285E+03 -0.33738944389E+03  0.47083842366E+03  0.00000000000E+00 0. -1.
         -1    1    6    6    0  503  0.16793355326E+02 -0.89203765022E+01 -0.37603551138E+02  0.42138070177E+02  0.00000000000E+00 0.  1.
<mgrwt>
<rscale>  0 0.10893793E+04</rscale>
<asrwt>0</asrwt>
<pdfrwt beam="1">  1        1 0.52028687E-01 0.10893793E+04</pdfrwt>
<pdfrwt beam="2">  1       -4 0.13496733E+00 0.10893793E+04</pdfrwt>
<totfact> 0.13974668E+01</totfact>
</mgrwt>
</event>
<event>
12    5  0.5264288E-008  0.1933896E+04  0.7818608E-02  0.8638165E-01
          1   -1    0    0  501    0  0.00000000000E+00  0.00000000000E+00  0.11049099291E+04  0.11049099291E+04  0.00000000000E+00 0. -1.
         -2   -1    0    0    0  501 -0.00000000000E+00 -0.00000000000E+00 -0.84621279097E+03  0.84621279097E+03  0.00000000000E+00 0.  1.
        -24    2    1    2    0    0 -0.34007549941E+03 -0.27176917486E+03  0.71637824118E+03  0.84336511129E+03  0.92504577206E+02 0.  0.
        254    2    1    2    0    0  0.34007549941E+03  0.27176917486E+03 -0.45768110306E+03  0.11077576088E+04  0.91002477877E+03 0.  0.
         23    2    4    4    0    0  0.26215627810E+03  0.54136953503E+03 -0.52529892344E+03  0.80371910742E+03  0.90656257683E+02 0.  0.
         23    2    4    4    0    0  0.77919221317E+02 -0.26960036016E+03  0.67617820373E+02  0.30403850135E+03  0.95454080170E+02 0.  0.
          3    1    3    3  502    0 -0.27543805292E+03 -0.26068916043E+03  0.62000385478E+03  0.72679415194E+03  0.00000000000E+00 0. -1.
         -4    1    3    3    0  502 -0.64637446496E+02 -0.11080014435E+02  0.96374386400E+02  0.11657095935E+03  0.00000000000E+00 0.  1.
         13    1    5    5    0    0  0.15017715441E+03  0.39676741721E+03 -0.38951152346E+03  0.57593123546E+03  0.00000000000E+00 0. -1.
        -13    1    5    5    0    0  0.11197912368E+03  0.14460211782E+03 -0.13578739998E+03  0.22778787196E+03  0.00000000000E+00 0.  1.
          2    1    6    6  503    0  0.66560432028E+02 -0.16872834372E+03  0.86231008332E+02  0.20083658005E+03  0.00000000000E+00 0. -1.
         -2    1    6    6    0  503  0.11358789289E+02 -0.10087201644E+03 -0.18613187958E+02  0.10320192130E+03  0.00000000000E+00 0.  1.
<mgrwt>
<rscale>  0 0.19338965E+04</rscale>
<asrwt>0</asrwt>
<pdfrwt beam="1">  1        1 0.16998614E+00 0.19338965E+04</pdfrwt>
<pdfrwt beam="2">  1       -2 0.13018658E+00 0.19338965E+04</pdfrwt>
<totfact> 0.44503543E+00</totfact>
</mgrwt>
</event>
<event>
12    5  0.5264288E-008  0.2645611E+04  0.7818608E-02  0.8352871E-01
          1   -1    0    0  501    0  0.00000000000E+00  0.00000000000E+00  0.12243204670E+04  0.12243204670E+04  0.00000000000E+00 0. -1.
         -2   -1    0    0    0  501 -0.00000000000E+00 -0.00000000000E+00 -0.14292122064E+04  0.14292122064E+04  0.00000000000E+00 0.  1.
        -24    2    1    2    0    0 -0.44612340430E+03  0.97923238297E+03  0.37069085431E+03  0.11409528380E+04  0.80246603465E+02 0.  0.
        254    2    1    2    0    0  0.44612340430E+03 -0.97923238297E+03 -0.57558259378E+03  0.15125798354E+04  0.89368914307E+03 0.  0.
         23    2    4    4    0    0  0.65347655140E+03 -0.74310194233E+03 -0.19956725206E+03  0.10136011299E+04  0.91258219084E+02 0.  0.
         23    2    4    4    0    0 -0.20735314710E+03 -0.23613044064E+03 -0.37601534172E+03  0.49897870547E+03  0.94017544616E+02 0.  0.
          3    1    3    3  502    0 -0.37947971971E+03  0.88946071806E+03  0.33926926299E+03  0.10248165004E+04  0.00000000000E+00 0. -1.
         -4    1    3    3    0  502 -0.66643684592E+02  0.89771664919E+02  0.31421591322E+02  0.11613633764E+03  0.00000000000E+00 0.  1.
         13    1    5    5    0    0  0.63885318643E+03 -0.72470341456E+03 -0.20872169627E+03  0.98837906664E+03  0.00000000000E+00 0. -1.
        -13    1    5    5    0    0  0.14623364964E+02 -0.18398527772E+02  0.91544442025E+01  0.25222063273E+02  0.00000000000E+00 0.  1.
          1    1    6    6  503    0 -0.18840995898E+03 -0.24023805137E+03 -0.33287578227E+03  0.45168453637E+03  0.00000000000E+00 0. -1.
         -1    1    6    6    0  503 -0.18943188125E+02  0.41076107293E+01 -0.43139559444E+02  0.47294169104E+02  0.00000000000E+00 0.  1.
<mgrwt>
<rscale>  0 0.26456105E+04</rscale>
<asrwt>0</asrwt>
<pdfrwt beam="1">  1        1 0.18835699E+00 0.26456105E+04</pdfrwt>
<pdfrwt beam="2">  1       -2 0.21987880E+00 0.26456105E+04</pdfrwt>
<totfact> 0.78188628E-01</totfact>
</mgrwt>
</event>
<event>
12    5  0.5264288E-008  0.1631132E+04  0.7818608E-02  0.8801648E-01
         -2   -1    0    0    0  501 -0.00000000000E+00  0.00000000000E+00  0.13526363692E+03  0.13526363692E+03  0.00000000000E+00 0.  1.
          1   -1    0    0  501    0  0.00000000000E+00 -0.00000000000E+00 -0.49174160511E+04  0.49174160511E+04  0.00000000000E+00 0. -1.
        -24    2    1    2    0    0 -0.16354475543E+03  0.26967792082E+03 -0.22436517438E+03  0.39476250525E+03  0.77618529173E+02 0.  0.
        254    2    1    2    0    0  0.16354475543E+03 -0.26967792082E+03 -0.45577872398E+04  0.46579171828E+04  0.90735598870E+03 0.  0.
         23    2    4    4    0    0  0.51116621863E+03 -0.14555312383E+02 -0.24752491568E+04  0.25292601541E+04  0.93785813184E+02 0.  0.
         23    2    4    4    0    0 -0.34762146320E+03 -0.25512260844E+03 -0.20825380830E+04  0.21286570287E+04  0.91036539229E+02 0.  0.
          3    1    3    3  502    0 -0.93254911417E+02  0.20275498151E+03 -0.12469654270E+03  0.25564680478E+03  0.00000000000E+00 0. -1.
         -4    1    3    3    0  502 -0.70289844013E+02  0.66922939306E+02 -0.99668631686E+02  0.13911570048E+03  0.00000000000E+00 0.  1.
         13    1    5    5    0    0  0.19421239789E+02  0.17535383926E+02 -0.95235584468E+02  0.98764825689E+02  0.00000000000E+00 0. -1.
        -13    1    5    5    0    0  0.49174497884E+03 -0.32090696309E+02 -0.23800135723E+04  0.24304953284E+04  0.00000000000E+00 0.  1.
          1    1    6    6  503    0 -0.26552902505E+02 -0.96406248454E+01 -0.27701500888E+03  0.27845163570E+03  0.00000000000E+00 0. -1.
         -1    1    6    6    0  503 -0.32106856070E+03 -0.24548198359E+03 -0.18055230742E+04  0.18502053930E+04  0.00000000000E+00 0.  1.
<mgrwt>
<rscale>  0 0.16311316E+04</rscale>
<asrwt>0</asrwt>
<pdfrwt beam="1">  1        1 0.75652534E+00 0.16311316E+04</pdfrwt>
<pdfrwt beam="2">  1       -2 0.20809796E-01 0.16311316E+04</pdfrwt>
<totfact> 0.19028428E-01</totfact>
</mgrwt>
</event>
<event>
12    5  0.5264288E-008  0.1615826E+04  0.7818608E-02  0.8810884E-01
         -4   -1    0    0    0  501 -0.00000000000E+00  0.00000000000E+00  0.15039255134E+04  0.15039255134E+04  0.00000000000E+00 0.  1.
          3   -1    0    0  501    0  0.00000000000E+00 -0.00000000000E+00 -0.43401336204E+03  0.43401336204E+03  0.00000000000E+00 0. -1.
        -24    2    1    2    0    0 -0.36134074570E+03 -0.41942678109E+03  0.27609150728E+03  0.62370701258E+03  0.79359674581E+02 0.  0.
        254    2    1    2    0    0  0.36134074570E+03  0.41942678109E+03  0.79382064403E+03  0.13142318628E+04  0.88913903028E+03 0.  0.
         23    2    4    4    0    0  0.17504364879E+03 -0.24412674769E+03  0.42211928674E+03  0.52585827002E+03  0.90022663802E+02 0.  0.
         23    2    4    4    0    0  0.18629709692E+03  0.66355352878E+03  0.37170135729E+03  0.78837359280E+03  0.91439208946E+02 0.  0.
          3    1    3    3  502    0 -0.20295710125E+03 -0.20216907103E+03  0.10541922958E+03  0.30524929516E+03  0.00000000000E+00 0. -1.
         -4    1    3    3    0  502 -0.15838364445E+03 -0.21725771007E+03  0.17067227770E+03  0.31845771743E+03  0.00000000000E+00 0.  1.
         13    1    5    5    0    0  0.14644286637E+02 -0.49026006998E+02  0.12990313444E+03  0.13961672117E+03  0.00000000000E+00 0. -1.
        -13    1    5    5    0    0  0.16039936215E+03 -0.19510074069E+03  0.29221615230E+03  0.38624154886E+03  0.00000000000E+00 0.  1.
          2    1    6    6  503    0  0.93591811179E+02  0.18269390127E+03  0.11973019757E+03  0.23763797864E+03  0.00000000000E+00 0. -1.
         -2    1    6    6    0  503  0.92705285737E+02  0.48085962751E+03  0.25197115972E+03  0.55073561416E+03  0.00000000000E+00 0.  1.
<mgrwt>
<rscale>  0 0.16158264E+04</rscale>
<asrwt>0</asrwt>
<pdfrwt beam="1">  1        3 0.66771287E-01 0.16158264E+04</pdfrwt>
<pdfrwt beam="2">  1       -4 0.23137315E+00 0.16158264E+04</pdfrwt>
<totfact> 0.39142354E-01</totfact>
</mgrwt>
</event>
<event>
12    5  0.5646960E-008  0.1637128E+04  0.7818608E-02  0.8798058E-01
          1   -1    0    0  501    0  0.00000000000E+00  0.00000000000E+00  0.16861650151E+04  0.16861650151E+04  0.00000000000E+00 0. -1.
         -2   -1    0    0    0  501 -0.00000000000E+00 -0.00000000000E+00 -0.39737919107E+03  0.39737919107E+03  0.00000000000E+00 0.  1.
        -24    2    1    2    0    0  0.34448622457E+03 -0.15022242792E+03  0.10023563227E+04  0.10733644935E+04  0.78457640908E+02 0.  0.
        254    2    1    2    0    0 -0.34448622457E+03  0.15022242792E+03  0.28642950129E+03  0.10101797127E+04  0.89285141871E+03 0.  0.
         23    2    4    4    0    0 -0.55592301208E+03  0.25811529015E+03 -0.10448038881E+02  0.61989964429E+03  0.92154810582E+02 0.  0.
         23    2    4    4    0    0  0.21143678751E+03 -0.10789286223E+03  0.29687754017E+03  0.39028006836E+03  0.88520466965E+02 0.  0.
          3    1    3    3  502    0  0.29210382164E+03 -0.11023176155E+03  0.74654003095E+03  0.80919571284E+03  0.00000000000E+00 0. -1.
         -4    1    3    3    0  502  0.52382402926E+02 -0.39990666372E+02  0.25581629175E+03  0.26416878063E+03  0.00000000000E+00 0.  1.
         13    1    5    5    0    0 -0.36276709616E+03  0.12461054722E+03  0.13992444161E+02  0.38382749124E+03  0.00000000000E+00 0.  1.
        -13    1    5    5    0    0 -0.19315591592E+03  0.13350474293E+03 -0.24440483042E+02  0.23607215306E+03  0.00000000000E+00 0. -1.
          3    1    6    6  503    0  0.13746334296E+02 -0.40435675873E+02  0.34458148077E+02  0.54875946997E+02  0.00000000000E+00 0. -1.
         -3    1    6    6    0  503  0.19769045321E+03 -0.67457186353E+02  0.26241939209E+03  0.33540412137E+03  0.00000000000E+00 0.  1.
<mgrwt>
<rscale>  0 0.16371278E+04</rscale>
<asrwt>0</asrwt>
<pdfrwt beam="1">  1        1 0.25941000E+00 0.16371278E+04</pdfrwt>
<pdfrwt beam="2">  1       -2 0.61135261E-01 0.16371278E+04</pdfrwt>
<totfact> 0.10179264E+01</totfact>
</mgrwt>
</event>
<event>
12    5  0.5264288E-008  0.1083587E+04  0.7818608E-02  0.9221338E-01
         -2   -1    0    0    0  501 -0.00000000000E+00  0.00000000000E+00  0.30080969919E+03  0.30080969919E+03  0.00000000000E+00 0.  1.
          1   -1    0    0  501    0  0.00000000000E+00 -0.00000000000E+00 -0.97583354108E+03  0.97583354108E+03  0.00000000000E+00 0. -1.
        -24    2    1    2    0    0 -0.14628915173E+03 -0.73215195552E+02 -0.11714029850E+03  0.21634573561E+03  0.79515074113E+02 0.  0.
        254    2    1    2    0    0  0.14628915173E+03  0.73215195552E+02 -0.55788354339E+03  0.10602975047E+04  0.88669936824E+03 0.  0.
         23    2    4    4    0    0  0.43808425187E+03  0.19853954696E+03 -0.10731630267E+03  0.50138862702E+03  0.92401315153E+02 0.  0.
         23    2    4    4    0    0 -0.29179510014E+03 -0.12532435140E+03 -0.45056724072E+03  0.55890887764E+03  0.92291503269E+02 0.  0.
          3    1    3    3  502    0 -0.11149107665E+03 -0.27176085235E+02 -0.10861964376E+03  0.15800957817E+03  0.00000000000E+00 0. -1.
         -4    1    3    3    0  502 -0.34798075080E+02 -0.46039110318E+02 -0.85206547330E+01  0.58336157443E+02  0.00000000000E+00 0.  1.
         13    1    5    5    0    0  0.19269235408E+03  0.11915722172E+03 -0.86959817061E+02  0.24267426026E+03  0.00000000000E+00 0.  1.
        -13    1    5    5    0    0  0.24539189780E+03  0.79382325236E+02 -0.20356485610E+02  0.25871436676E+03  0.00000000000E+00 0. -1.
          1    1    6    6  503    0 -0.14671466925E+03 -0.77311021688E+02 -0.30852620675E+03  0.35027219201E+03  0.00000000000E+00 0. -1.
         -1    1    6    6    0  503 -0.14508043089E+03 -0.48013329716E+02 -0.14204103397E+03  0.20863668563E+03  0.00000000000E+00 0.  1.
<mgrwt>
<rscale>  0 0.10835870E+04</rscale>
<asrwt>0</asrwt>
<pdfrwt beam="1">  1        1 0.15012824E+00 0.10835870E+04</pdfrwt>
<pdfrwt beam="2">  1       -2 0.46278415E-01 0.10835870E+04</pdfrwt>
<totfact> 0.61184815E+01</totfact>
</mgrwt>
</event>
<event>
12    5  0.5264288E-008  0.2050694E+04  0.7818608E-02  0.8583280E-01
          1   -1    0    0  501    0  0.00000000000E+00  0.00000000000E+00  0.18429754166E+04  0.18429754166E+04  0.00000000000E+00 0. -1.
         -2   -1    0    0    0  501 -0.00000000000E+00 -0.00000000000E+00 -0.57045580152E+03  0.57045580152E+03  0.00000000000E+00 0.  1.
        -24    2    1    2    0    0 -0.13459577480E+03 -0.26280740275E+03 -0.39361597462E+03  0.49793878301E+03  0.76326552468E+02 0.  0.
        254    2    1    2    0    0  0.13459577480E+03  0.26280740275E+03  0.16661355897E+04  0.19154924351E+04  0.89773031148E+03 0.  0.
         23    2    4    4    0    0 -0.28441304777E+03 -0.72950138315E+01  0.18705905442E+03  0.35199734098E+03  0.89258272706E+02 0.  0.
         23    2    4    4    0    0  0.41900882256E+03  0.27010241658E+03  0.14790765352E+04  0.15634950941E+04  0.91245840052E+02 0.  0.
          3    1    3    3  502    0 -0.13345859322E+03 -0.19329780979E+03 -0.29064341758E+03  0.37369618082E+03  0.00000000000E+00 0. -1.
         -4    1    3    3    0  502 -0.11371815754E+01 -0.69509592956E+02 -0.10297255704E+03  0.12424260219E+03  0.00000000000E+00 0.  1.
         13    1    5    5    0    0 -0.10890029018E+03  0.27706726934E+02  0.36582038318E+02  0.11817436882E+03  0.00000000000E+00 0.  1.
        -13    1    5    5    0    0 -0.17551275759E+03 -0.35001740766E+02  0.15047701610E+03  0.23382297216E+03  0.00000000000E+00 0. -1.
          1    1    6    6  503    0  0.81730539050E+02  0.86525533472E+02  0.27453840194E+03  0.29922881394E+03  0.00000000000E+00 0.  1.
         -1    1    6    6    0  503  0.33727828351E+03  0.18357688311E+03  0.12045381333E+04  0.12642662802E+04  0.00000000000E+00 0. -1.
<mgrwt>
<rscale>  0 0.20506936E+04</rscale>
<asrwt>0</asrwt>
<pdfrwt beam="1">  1        1 0.28353468E+00 0.20506936E+04</pdfrwt>
<pdfrwt beam="2">  1       -2 0.87762432E-01 0.20506936E+04</pdfrwt>
<totfact> 0.34596074E+00</totfact>
</mgrwt>
</event>
<event>
12    5  0.5264288E-008  0.1410134E+04  0.7818608E-02  0.8946516E-01
          1   -1    0    0  501    0  0.00000000000E+00  0.00000000000E+00  0.10544250557E+04  0.10544250557E+04  0.00000000000E+00 0. -1.
         -2   -1    0    0    0  501 -0.00000000000E+00 -0.00000000000E+00 -0.47145996545E+03  0.47145996545E+03  0.00000000000E+00 0.  1.
        -24    2    1    2    0    0 -0.39013027529E+03  0.67861646423E+02  0.33550851335E+03  0.52513571195E+03  0.79966984952E+02 0.  0.
        254    2    1    2    0    0  0.39013027529E+03 -0.67861646423E+02  0.24745657688E+03  0.10007493092E+04  0.88513139569E+03 0.  0.
         23    2    4    4    0    0  0.57594922909E+03  0.21461814710E+02  0.41824428236E+03  0.71758207373E+03  0.88417355943E+02 0.  0.
         23    2    4    4    0    0 -0.18581895380E+03 -0.89323461133E+02 -0.17078770547E+03  0.28316723545E+03  0.92238162353E+02 0.  0.
          3    1    3    3  502    0 -0.15093173046E+03  0.30152956204E+02  0.81358397570E+02  0.17409416096E+03  0.00000000000E+00 0. -1.
         -2    1    3    3    0  502 -0.23919854484E+03  0.37708690219E+02  0.25415011578E+03  0.35104155099E+03  0.00000000000E+00 0.  1.
         13    1    5    5    0    0  0.39621846168E+03  0.46376045739E+02  0.31886499788E+03  0.51070019960E+03  0.00000000000E+00 0. -1.
        -13    1    5    5    0    0  0.17973076741E+03 -0.24914231029E+02  0.99379284481E+02  0.20688187413E+03  0.00000000000E+00 0.  1.
          4    1    6    6  503    0 -0.18506824398E+03 -0.77547500967E+02 -0.12620088261E+03  0.23704542309E+03  0.00000000000E+00 0. -1.
         -4    1    6    6    0  503 -0.75070982110E+00 -0.11775960166E+02 -0.44586822861E+02  0.46121812366E+02  0.00000000000E+00 0.  1.
<mgrwt>
<rscale>  0 0.14101336E+04</rscale>
<asrwt>0</asrwt>
<pdfrwt beam="1">  1        1 0.16221924E+00 0.14101336E+04</pdfrwt>
<pdfrwt beam="2">  1       -2 0.72532303E-01 0.14101336E+04</pdfrwt>
<totfact> 0.20169958E+01</totfact>
</mgrwt>
</event>
<event>
12    5  0.5264288E-008  0.1562094E+04  0.7818608E-02  0.8844180E-01
          1   -1    0    0  501    0  0.00000000000E+00  0.00000000000E+00  0.26699669431E+04  0.26699669431E+04  0.00000000000E+00 0. -1.
         -2   -1    0    0    0  501 -0.00000000000E+00 -0.00000000000E+00 -0.22848016236E+03  0.22848016236E+03  0.00000000000E+00 0.  1.
        -24    2    1    2    0    0 -0.27085526170E+03  0.35759814153E+03  0.13020605372E+04  0.13796996374E+04  0.83489181635E+02 0.  0.
        254    2    1    2    0    0  0.27085526170E+03 -0.35759814153E+03  0.11394262436E+04  0.15187474681E+04  0.89836668655E+03 0.  0.
         23    2    4    4    0    0  0.37491132363E+03 -0.33020288665E+03  0.12441982577E+04  0.13436257098E+04  0.87796905760E+02 0.  0.
         23    2    4    4    0    0 -0.10405606193E+03 -0.27395254879E+02 -0.10477201414E+03  0.17512175821E+03  0.90068258778E+02 0.  0.
          1    1    3    3  502    0 -0.79254072774E+02  0.83840531444E+02  0.23954197139E+03  0.26587741314E+03  0.00000000000E+00 0. -1.
         -2    1    3    3    0  502 -0.19160118892E+03  0.27375761009E+03  0.10625185658E+04  0.11138222243E+04  0.00000000000E+00 0.  1.
         13    1    5    5    0    0  0.98673053956E+02 -0.12494006402E+03  0.31968283862E+03  0.35713234029E+03  0.00000000000E+00 0. -1.
        -13    1    5    5    0    0  0.27623826967E+03 -0.20526282264E+03  0.92451541912E+03  0.98649336955E+03  0.00000000000E+00 0.  1.
          2    1    6    6  503    0  0.14526690885E+02  0.44374209428E+01 -0.26436052258E+01  0.15417655505E+02  0.00000000000E+00 0. -1.
         -2    1    6    6    0  503 -0.11858275282E+03 -0.31832675821E+02 -0.10212840891E+03  0.15970410271E+03  0.00000000000E+00 0.  1.
<mgrwt>
<rscale>  0 0.15620941E+04</rscale>
<asrwt>0</asrwt>
<pdfrwt beam="1">  1        1 0.41076412E+00 0.15620941E+04</pdfrwt>
<pdfrwt beam="2">  1       -2 0.35150796E-01 0.15620941E+04</pdfrwt>
<totfact> 0.66381740E+00</totfact>
</mgrwt>
</event>
<event>
12    5  0.5264288E-008  0.1079495E+04  0.7818608E-02  0.9225411E-01
         -2   -1    0    0    0  501 -0.00000000000E+00  0.00000000000E+00  0.23252951458E+04  0.23252951458E+04  0.00000000000E+00 0.  1.
          1   -1    0    0  501    0  0.00000000000E+00 -0.00000000000E+00 -0.12528609330E+03  0.12528609330E+03  0.00000000000E+00 0. -1.
        -24    2    1    2    0    0 -0.10659405199E+03 -0.94396087326E+02  0.47888272014E+03  0.50583737220E+03  0.79182537498E+02 0.  0.
        254    2    1    2    0    0  0.10659405199E+03  0.94396087326E+02  0.17211263323E+04  0.19447438669E+04  0.89413642287E+03 0.  0.
         23    2    4    4    0    0  0.23448827924E+03 -0.12446843359E+03  0.95815042479E+02  0.29712398565E+03  0.92870858834E+02 0.  0.
         23    2    4    4    0    0 -0.12789422725E+03  0.21886452092E+03  0.16253112899E+04  0.16476198812E+04  0.93572817787E+02 0.  0.
          1    1    3    3  502    0  0.44229635292E+01 -0.48683877883E+01  0.11224905212E+03  0.11244160044E+03  0.00000000000E+00 0. -1.
         -2    1    3    3    0  502 -0.11101701552E+03 -0.89527699538E+02  0.36663366801E+03  0.39339577176E+03  0.00000000000E+00 0.  1.
         13    1    5    5    0    0  0.28107291995E+02 -0.57619226516E+02  0.26645263605E+02  0.69425969206E+02  0.00000000000E+00 0. -1.
        -13    1    5    5    0    0  0.20638098724E+03 -0.66849207079E+02  0.69169778873E+02  0.22769801644E+03  0.00000000000E+00 0.  1.
          1    1    6    6  503    0 -0.52895867856E+02  0.11521015163E+03  0.53436238808E+03  0.54919442247E+03  0.00000000000E+00 0. -1.
         -1    1    6    6    0  503 -0.74998359389E+02  0.10365436929E+03  0.10909489018E+04  0.10984254588E+04  0.00000000000E+00 0.  1.
<mgrwt>
<rscale>  0 0.10794946E+04</rscale>
<asrwt>0</asrwt>
<pdfrwt beam="1">  1        1 0.19274785E-01 0.10794946E+04</pdfrwt>
<pdfrwt beam="2">  1       -2 0.35773768E+00 0.10794946E+04</pdfrwt>
<totfact> 0.33946714E+00</totfact>
</mgrwt>
</event>
<event>
12    5  0.5264288E-008  0.1686964E+04  0.7818608E-02  0.8768835E-01
          1   -1    0    0  501    0  0.00000000000E+00  0.00000000000E+00  0.10862610596E+04  0.10862610596E+04  0.00000000000E+00 0. -1.
         -4   -1    0    0    0  501 -0.00000000000E+00 -0.00000000000E+00 -0.65496377735E+03  0.65496377735E+03  0.00000000000E+00 0.  1.
        -24    2    1    2    0    0  0.26672398413E+02  0.11274896979E+03 -0.45157378448E+03  0.47295205553E+03  0.79630502796E+02 0.  0.
        254    2    1    2    0    0 -0.26672398413E+02 -0.11274896979E+03  0.88287106672E+03  0.12682727814E+04  0.90312279375E+03 0.  0.
         23    2    4    4    0    0  0.36359642228E+03 -0.24054238885E+03  0.64438110458E+03  0.78338640487E+03  0.91674708956E+02 0.  0.
         23    2    4    4    0    0 -0.39026882069E+03  0.12779341906E+03  0.23848996214E+03  0.48488637655E+03  0.97961348268E+02 0.  0.
          3    1    3    3  502    0 -0.24957805040E+02  0.32811383589E+02 -0.88765050530E+02  0.97870900277E+02  0.00000000000E+00 0. -1.
         -4    1    3    3    0  502  0.51630203453E+02  0.79937586202E+02 -0.36280873395E+03  0.37508115525E+03  0.00000000000E+00 0.  1.
         13    1    5    5    0    0  0.25495944450E+03 -0.11690389438E+03  0.42249686800E+03  0.50712369530E+03  0.00000000000E+00 0. -1.
        -13    1    5    5    0    0  0.10863697778E+03 -0.12363849448E+03  0.22188423658E+03  0.27626270957E+03  0.00000000000E+00 0.  1.
          2    1    6    6  503    0 -0.15684165782E+03  0.98327616543E+02  0.83011299621E+02  0.20287558175E+03  0.00000000000E+00 0. -1.
         -2    1    6    6    0  503 -0.23342716287E+03  0.29465802521E+02  0.15547866252E+03  0.28201079480E+03  0.00000000000E+00 0.  1.
<mgrwt>
<rscale>  0 0.16869637E+04</rscale>
<asrwt>0</asrwt>
<pdfrwt beam="1">  1        1 0.16711709E+00 0.16869637E+04</pdfrwt>
<pdfrwt beam="2">  1       -4 0.10076366E+00 0.16869637E+04</pdfrwt>
<totfact> 0.48824655E+00</totfact>
</mgrwt>
</event>
<event>
12    5  0.5264288E-008  0.2031497E+04  0.7818608E-02  0.8592035E-01
          1   -1    0    0  501    0  0.00000000000E+00  0.00000000000E+00  0.92255550421E+03  0.92255550421E+03  0.00000000000E+00 0. -1.
         -2   -1    0    0    0  501 -0.00000000000E+00 -0.00000000000E+00 -0.11183550672E+04  0.11183550672E+04  0.00000000000E+00 0.  1.
        -24    2    1    2    0    0 -0.61514259831E+03  0.15575556351E+03  0.38012602485E+03  0.74368077473E+03  0.76844571156E+02 0.  0.
        254    2    1    2    0    0  0.61514259831E+03 -0.15575556351E+03 -0.57592558781E+03  0.12972297966E+04  0.97388636441E+03 0.  0.
         23    2    4    4    0    0  0.40171713244E+03  0.36657493361E+03 -0.44995024818E+03  0.71196402766E+03  0.93186449663E+02 0.  0.
         23    2    4    4    0    0  0.21342546587E+03 -0.52233049712E+03 -0.12597533963E+03  0.58526576898E+03  0.91031074022E+02 0.  0.
          1    1    3    3  502    0 -0.57377742777E+03  0.12839452664E+03  0.36403789413E+03  0.69154123482E+03  0.00000000000E+00 0. -1.
         -2    1    3    3    0  502 -0.41365170537E+02  0.27361036869E+02  0.16088130721E+02  0.52139539912E+02  0.00000000000E+00 0.  1.
         13    1    5    5    0    0  0.87345044003E+02  0.13692759505E+03 -0.12921804030E+03  0.20754668134E+03  0.00000000000E+00 0. -1.
        -13    1    5    5    0    0  0.31437208843E+03  0.22964733857E+03 -0.32073220788E+03  0.50441734632E+03  0.00000000000E+00 0.  1.
          1    1    6    6  503    0  0.14019619069E+03 -0.23196563131E+03 -0.42154247571E+02  0.27429911882E+03  0.00000000000E+00 0. -1.
         -1    1    6    6    0  503  0.73229275180E+02 -0.29036486581E+03 -0.83821092061E+02  0.31096665016E+03  0.00000000000E+00 0.  1.
<mgrwt>
<rscale>  0 0.20314966E+04</rscale>
<asrwt>0</asrwt>
<pdfrwt beam="1">  1        1 0.14193162E+00 0.20314966E+04</pdfrwt>
<pdfrwt beam="2">  1       -2 0.17205463E+00 0.20314966E+04</pdfrwt>
<totfact> 0.29140011E+00</totfact>
</mgrwt>
</event>
<event>
12    5  0.5264288E-008  0.1392178E+04  0.7818608E-02  0.8959500E-01
          1   -1    0    0  501    0  0.00000000000E+00  0.00000000000E+00  0.82603397261E+03  0.82603397261E+03  0.00000000000E+00 0. -1.
         -2   -1    0    0    0  501 -0.00000000000E+00 -0.00000000000E+00 -0.58658565895E+03  0.58658565895E+03  0.00000000000E+00 0.  1.
        -24    2    1    2    0    0 -0.38417251911E+03  0.12006615973E+02  0.18933184918E+03  0.43575402554E+03  0.79387268502E+02 0.  0.
        254    2    1    2    0    0  0.38417251911E+03 -0.12006615973E+02  0.50116464490E+02  0.97686560601E+03  0.89667277696E+03 0.  0.
         23    2    4    4    0    0  0.29623915468E+03  0.30279826579E+03 -0.27052035449E+03  0.51081922126E+03  0.91162426959E+02 0.  0.
         23    2    4    4    0    0  0.87933364433E+02 -0.31480488176E+03  0.32063681898E+03  0.46604638475E+03  0.86930276072E+02 0.  0.
          3    1    3    3  502    0 -0.37860471884E+03  0.23801869356E+02  0.18144948664E+03  0.42051394545E+03  0.00000000000E+00 0. -1.
         -4    1    3    3    0  502 -0.55678002668E+01 -0.11795253383E+02  0.78823625405E+01  0.15240080098E+02  0.00000000000E+00 0.  1.
         13    1    5    5    0    0  0.21673283436E+03  0.16427887302E+03 -0.14875521780E+03  0.30998190985E+03  0.00000000000E+00 0.  1.
        -13    1    5    5    0    0  0.79506320317E+02  0.13851939276E+03 -0.12176513669E+03  0.20083731141E+03  0.00000000000E+00 0. -1.
          1    1    6    6  503    0  0.64719024177E+02 -0.16171639993E+03  0.11536749476E+03  0.20892679326E+03  0.00000000000E+00 0. -1.
         -1    1    6    6    0  503  0.23214340256E+02 -0.15308848183E+03  0.20526932422E+03  0.25711959149E+03  0.00000000000E+00 0.  1.
<mgrwt>
<rscale>  0 0.13921777E+04</rscale>
<asrwt>0</asrwt>
<pdfrwt beam="1">  1        1 0.12708215E+00 0.13921777E+04</pdfrwt>
<pdfrwt beam="2">  1       -2 0.90243948E-01 0.13921777E+04</pdfrwt>
<totfact> 0.18846983E+01</totfact>
</mgrwt>
</event>
<event>
12    5  0.5264288E-008  0.2010179E+04  0.7818608E-02  0.8601876E-01
          1   -1    0    0  501    0  0.00000000000E+00  0.00000000000E+00  0.23209940045E+04  0.23209940045E+04  0.00000000000E+00 0. -1.
         -2   -1    0    0    0  501 -0.00000000000E+00 -0.00000000000E+00 -0.43524663332E+03  0.43524663332E+03  0.00000000000E+00 0.  1.
        -24    2    1    2    0    0 -0.57893833713E+03  0.25550370379E+03  0.14396712500E+04  0.15746031960E+04  0.79184442730E+02 0.  0.
        254    2    1    2    0    0  0.57893833713E+03 -0.25550370379E+03  0.44607612114E+03  0.11816374418E+04  0.89265413070E+03 0.  0.
         23    2    4    4    0    0  0.34034196683E+03 -0.70959746651E+02  0.69333422064E+03  0.78118078690E+03  0.93075991911E+02 0.  0.
         23    2    4    4    0    0  0.23859637030E+03 -0.18454395714E+03 -0.24725809950E+03  0.40045665486E+03  0.90797932901E+02 0.  0.
          3    1    3    3  502    0 -0.41536568262E+03  0.15091233494E+03  0.94641587076E+03  0.10445124143E+04  0.00000000000E+00 0. -1.
         -4    1    3    3    0  502 -0.16357265451E+03  0.10459136885E+03  0.49325537927E+03  0.53009078177E+03  0.00000000000E+00 0.  1.
         13    1    5    5    0    0  0.30001789749E+03 -0.61433850708E+02  0.66143365405E+03  0.72888911059E+03  0.00000000000E+00 0. -1.
        -13    1    5    5    0    0  0.40324069346E+02 -0.95258959431E+01  0.31900566592E+02  0.52291676308E+02  0.00000000000E+00 0.  1.
          2    1    6    6  503    0  0.10822470292E+03 -0.69437634838E+02 -0.51267230350E+02  0.13842868330E+03  0.00000000000E+00 0. -1.
         -2    1    6    6    0  503  0.13037166738E+03 -0.11510632230E+03 -0.19599086915E+03  0.26202797156E+03  0.00000000000E+00 0.  1.
<mgrwt>
<rscale>  0 0.20101789E+04</rscale>
<asrwt>0</asrwt>
<pdfrwt beam="1">  1        1 0.35707599E+00 0.20101789E+04</pdfrwt>
<pdfrwt beam="2">  1       -2 0.66961022E-01 0.20101789E+04</pdfrwt>
<totfact> 0.30018477E+00</totfact>
</mgrwt>
</event>
<event>
12    5  0.5264288E-008  0.1285046E+04  0.7818608E-02  0.9041509E-01
          1   -1    0    0  501    0  0.00000000000E+00  0.00000000000E+00  0.15994459344E+04  0.15994459344E+04  0.00000000000E+00 0. -1.
         -4   -1    0    0    0  501 -0.00000000000E+00 -0.00000000000E+00 -0.25811180020E+03  0.25811180020E+03  0.00000000000E+00 0.  1.
        -24    2    1    2    0    0 -0.83084793592E+02  0.33641961131E+02 -0.98471087157E+02  0.15598795390E+03  0.81245444680E+02 0.  0.
        254    2    1    2    0    0  0.83084793592E+02 -0.33641961131E+02  0.14398052213E+04  0.17015697807E+04  0.90236676503E+03 0.  0.
         23    2    4    4    0    0 -0.15244015048E+03 -0.35504657329E+00 -0.54384858151E+02  0.18580440187E+03  0.91254793957E+02 0.  0.
         23    2    4    4    0    0  0.23552494407E+03 -0.33286914558E+02  0.14941900795E+04  0.15157653788E+04  0.91436710246E+02 0.  0.
          3    1    3    3  502    0 -0.40926666652E+01 -0.16361937129E+02  0.39422088892E+01  0.17320621177E+02  0.00000000000E+00 0. -1.
         -4    1    3    3    0  502 -0.78992126927E+02  0.50003898260E+02 -0.10241329605E+03  0.13866733272E+03  0.00000000000E+00 0.  1.
         13    1    5    5    0    0 -0.10929336791E+03  0.17813460989E+02  0.41956148125E+01  0.11081499378E+03  0.00000000000E+00 0. -1.
        -13    1    5    5    0    0 -0.43146782570E+02 -0.18168507563E+02 -0.58580472964E+02  0.74989408091E+02  0.00000000000E+00 0.  1.
          2    1    6    6  503    0  0.47197968789E+02  0.58286302205E+01  0.13713994695E+03  0.14515159744E+03  0.00000000000E+00 0. -1.
         -2    1    6    6    0  503  0.18832697528E+03 -0.39115544778E+02  0.13570501325E+04  0.13706137814E+04  0.00000000000E+00 0.  1.
<mgrwt>
<rscale>  0 0.12850461E+04</rscale>
<asrwt>0</asrwt>
<pdfrwt beam="1">  1        1 0.24606860E+00 0.12850461E+04</pdfrwt>
<pdfrwt beam="2">  1       -4 0.39709509E-01 0.12850461E+04</pdfrwt>
<totfact> 0.16764044E+01</totfact>
</mgrwt>
</event>
<event>
12    5  0.5264288E-008  0.2554969E+04  0.7818608E-02  0.8383660E-01
          1   -1    0    0  501    0  0.00000000000E+00  0.00000000000E+00  0.93429495333E+03  0.93429495333E+03  0.00000000000E+00 0. -1.
         -2   -1    0    0    0  501 -0.00000000000E+00 -0.00000000000E+00 -0.17467358615E+04  0.17467358615E+04  0.00000000000E+00 0.  1.
        -24    2    1    2    0    0 -0.14190322971E+03  0.34476659170E+01 -0.15191847390E+04  0.15275501928E+04  0.73067826674E+02 0.  0.
        254    2    1    2    0    0  0.14190322971E+03 -0.34476659170E+01  0.70674383084E+03  0.11534806220E+04  0.90049002768E+03 0.  0.
         23    2    4    4    0    0 -0.24739354291E+03 -0.29899669085E+03  0.42123264284E+03  0.58005410569E+03  0.91778210508E+02 0.  0.
         23    2    4    4    0    0  0.38929677262E+03  0.29554902494E+03  0.28551118800E+03  0.57342651633E+03  0.91652211366E+02 0.  0.
          3    1    3    3  502    0 -0.11485817739E+03 -0.17692209861E+02 -0.90868395653E+03  0.91608512053E+03  0.00000000000E+00 0. -1.
         -4    1    3    3    0  502 -0.27045052328E+02  0.21139875778E+02 -0.61050078250E+03  0.61146507229E+03  0.00000000000E+00 0.  1.
         13    1    5    5    0    0 -0.16530635848E+03 -0.23334734514E+03  0.35485140636E+03  0.45573752998E+03  0.00000000000E+00 0.  1.
        -13    1    5    5    0    0 -0.82087184430E+02 -0.65649345711E+02  0.66381236477E+02  0.12431657571E+03  0.00000000000E+00 0. -1.
          3    1    6    6  503    0  0.24186776675E+03  0.14898167154E+03  0.20578678983E+03  0.35077593691E+03  0.00000000000E+00 0. -1.
         -3    1    6    6    0  503  0.14742900587E+03  0.14656735340E+03  0.79724398171E+02  0.22265057942E+03  0.00000000000E+00 0.  1.
<mgrwt>
<rscale>  0 0.25549689E+04</rscale>
<asrwt>0</asrwt>
<pdfrwt beam="1">  1        1 0.14373769E+00 0.25549689E+04</pdfrwt>
<pdfrwt beam="2">  1       -2 0.26872859E+00 0.25549689E+04</pdfrwt>
<totfact> 0.65287348E-01</totfact>
</mgrwt>
</event>
<event>
12    5  0.5264288E-008  0.2505262E+04  0.7818608E-02  0.8401113E-01
         -2   -1    0    0    0  501 -0.00000000000E+00  0.00000000000E+00  0.12459250913E+04  0.12459250913E+04  0.00000000000E+00 0.  1.
          1   -1    0    0  501    0  0.00000000000E+00 -0.00000000000E+00 -0.12593733676E+04  0.12593733676E+04  0.00000000000E+00 0. -1.
        -24    2    1    2    0    0  0.58168463480E+03 -0.49150100055E+03 -0.78600880820E+03  0.10974295096E+04  0.81310725608E+02 0.  0.
        254    2    1    2    0    0 -0.58168463480E+03  0.49150100055E+03  0.77256053187E+03  0.14078689492E+04  0.89739342258E+03 0.  0.
         23    2    4    4    0    0 -0.65001994464E+03  0.22483039170E+03  0.85911197657E+03  0.11043498556E+04  0.91872639279E+02 0.  0.
         23    2    4    4    0    0  0.68335309832E+02  0.26667060884E+03 -0.86551444698E+02  0.30351909362E+03  0.94073159930E+02 0.  0.
          1    1    3    3  502    0  0.29050817503E+03 -0.24644656004E+03 -0.45144913378E+03  0.59070908839E+03  0.00000000000E+00 0. -1.
         -2    1    3    3    0  502  0.29117645978E+03 -0.24505444050E+03 -0.33455967442E+03  0.50672042122E+03  0.00000000000E+00 0.  1.
         13    1    5    5    0    0 -0.60795519993E+03  0.22814436482E+03  0.82617950293E+03  0.10508244132E+04  0.00000000000E+00 0. -1.
        -13    1    5    5    0    0 -0.42064744707E+02 -0.33139731236E+01  0.32932473644E+02  0.53525442412E+02  0.00000000000E+00 0.  1.
          4    1    6    6  503    0  0.21987568649E+02  0.22487076940E+03 -0.84005816817E+02  0.24105454438E+03  0.00000000000E+00 0. -1.
         -4    1    6    6    0  503  0.46347741183E+02  0.41799839444E+02 -0.25456278806E+01  0.62464549239E+02  0.00000000000E+00 0.  1.
<mgrwt>
<rscale>  0 0.25052624E+04</rscale>
<asrwt>0</asrwt>
<pdfrwt beam="1">  1        1 0.19374975E+00 0.25052624E+04</pdfrwt>
<pdfrwt beam="2">  1       -2 0.19168078E+00 0.25052624E+04</pdfrwt>
<totfact> 0.11386923E+00</totfact>
</mgrwt>
</event>
<event>
12    5  0.5264288E-008  0.1246848E+04  0.7818608E-02  0.9072811E-01
          1   -1    0    0  501    0  0.00000000000E+00  0.00000000000E+00  0.96602900160E+03  0.96602900160E+03  0.00000000000E+00 0. -1.
         -2   -1    0    0    0  501 -0.00000000000E+00 -0.00000000000E+00 -0.40232488099E+03  0.40232488099E+03  0.00000000000E+00 0.  1.
        -24    2    1    2    0    0  0.11694176257E+02 -0.25291216735E+03  0.36635456716E+02  0.26850334013E+03  0.81551019750E+02 0.  0.
        254    2    1    2    0    0 -0.11694176257E+02  0.25291216735E+03  0.52706866389E+03  0.10998505425E+04  0.93154093907E+03 0.  0.
         23    2    4    4    0    0 -0.96814209009E+02  0.54853902367E+03  0.11201131061E+03  0.57577167255E+03  0.93265393688E+02 0.  0.
         23    2    4    4    0    0  0.85120032752E+02 -0.29562685632E+03  0.41505735328E+03  0.52407886991E+03  0.88007938397E+02 0.  0.
          3    1    3    3  502    0  0.59072691450E+01 -0.36241188276E+02 -0.23465393365E+02  0.43576877380E+02  0.00000000000E+00 0. -1.
         -4    1    3    3    0  502  0.57869071123E+01 -0.21667097907E+03  0.60100850080E+02  0.22492646275E+03  0.00000000000E+00 0.  1.
         13    1    5    5    0    0 -0.82984008903E+02  0.39099859668E+03  0.39063991538E+02  0.40161205631E+03  0.00000000000E+00 0. -1.
        -13    1    5    5    0    0 -0.13830200106E+02  0.15754042699E+03  0.72947319074E+02  0.17415961625E+03  0.00000000000E+00 0.  1.
          4    1    6    6  503    0  0.80278078488E+02 -0.26087425223E+03  0.40347905646E+03  0.48712964841E+03  0.00000000000E+00 0. -1.
         -4    1    6    6    0  503  0.48419542637E+01 -0.34752604089E+02  0.11578296826E+02  0.36949221500E+02  0.00000000000E+00 0.  1.
<mgrwt>
<rscale>  0 0.12468480E+04</rscale>
<asrwt>0</asrwt>
<pdfrwt beam="1">  1        1 0.14861985E+00 0.12468480E+04</pdfrwt>
<pdfrwt beam="2">  1       -2 0.61896136E-01 0.12468480E+04</pdfrwt>
<totfact> 0.33738954E+01</totfact>
</mgrwt>
</event>
<event>
12    5  0.5264288E-008  0.1605500E+04  0.7818608E-02  0.8817176E-01
          1   -1    0    0  501    0  0.00000000000E+00  0.00000000000E+00  0.11921804098E+04  0.11921804098E+04  0.00000000000E+00 0. -1.
         -2   -1    0    0    0  501 -0.00000000000E+00 -0.00000000000E+00 -0.54052870928E+03  0.54052870928E+03  0.00000000000E+00 0.  1.
        -24    2    1    2    0    0 -0.16892844441E+03  0.41226121916E+02 -0.33769899574E+03  0.38657471242E+03  0.71853908043E+02 0.  0.
        254    2    1    2    0    0  0.16892844441E+03 -0.41226121916E+02  0.98935069630E+03  0.13461344067E+04  0.89611753034E+03 0.  0.
         23    2    4    4    0    0  0.26941997106E+03 -0.16443640310E+03  0.10884339030E+04  0.11376854844E+04  0.10006722066E+03 0.  0.
         23    2    4    4    0    0 -0.10049152665E+03  0.12321028118E+03 -0.99083206700E+02  0.20844892234E+03  0.91401045181E+02 0.  0.
          3    1    3    3  502    0 -0.70786331910E+02  0.49853422960E+02 -0.19288133790E+03  0.21142204018E+03  0.00000000000E+00 0. -1.
         -4    1    3    3    0  502 -0.98142112500E+02 -0.86273010436E+01 -0.14481765784E+03  0.17515267224E+03  0.00000000000E+00 0.  1.
         13    1    5    5    0    0  0.69718908336E+02  0.34108673884E+01  0.20648237761E+03  0.21796176834E+03  0.00000000000E+00 0. -1.
        -13    1    5    5    0    0  0.19970106272E+03 -0.16784727049E+03  0.88195152539E+03  0.91972371601E+03  0.00000000000E+00 0.  1.
          1    1    6    6  503    0  0.13275423404E+02  0.24480841711E+02  0.53687471281E+00  0.27853845549E+02  0.00000000000E+00 0. -1.
         -1    1    6    6    0  503 -0.11376695005E+03  0.98729439472E+02 -0.99620081412E+02  0.18059507680E+03  0.00000000000E+00 0.  1.
<mgrwt>
<rscale>  0 0.16055002E+04</rscale>
<asrwt>0</asrwt>
<pdfrwt beam="1">  1        1 0.18341237E+00 0.16055002E+04</pdfrwt>
<pdfrwt beam="2">  1       -2 0.83158263E-01 0.16055002E+04</pdfrwt>
<totfact> 0.11535076E+01</totfact>
</mgrwt>
</event>
<event>
12    5  0.5264288E-008  0.1563791E+04  0.7818608E-02  0.8843107E-01
         -2   -1    0    0    0  501 -0.00000000000E+00  0.00000000000E+00  0.14355596379E+04  0.14355596379E+04  0.00000000000E+00 0.  1.
          1   -1    0    0  501    0  0.00000000000E+00 -0.00000000000E+00 -0.42586917778E+03  0.42586917778E+03  0.00000000000E+00 0. -1.
        -24    2    1    2    0    0  0.42620031945E+03 -0.29207562302E+03  0.25407081498E+03  0.58116544483E+03  0.79034254473E+02 0.  0.
        254    2    1    2    0    0 -0.42620031945E+03  0.29207562302E+03  0.75561964518E+03  0.12802633709E+04  0.89507450461E+03 0.  0.
         23    2    4    4    0    0 -0.32837092682E+03 -0.26507587699E+03  0.47852116089E+03  0.64388845464E+03  0.86701525143E+02 0.  0.
         23    2    4    4    0    0 -0.97829392626E+02  0.55715150001E+03  0.27709848429E+03  0.63637491624E+03  0.90559814488E+02 0.  0.
          3    1    3    3  502    0  0.41506462432E+03 -0.28520440410E+03  0.22973019800E+03  0.55353063000E+03  0.00000000000E+00 0. -1.
         -4    1    3    3    0  502  0.11135695125E+02 -0.68712189201E+01  0.24340616981E+02  0.27634814824E+02  0.00000000000E+00 0.  1.
         13    1    5    5    0    0 -0.15600458115E+03 -0.76092996389E+02  0.21983750654E+03  0.28010016552E+03  0.00000000000E+00 0. -1.
        -13    1    5    5    0    0 -0.17236634567E+03 -0.18898288060E+03  0.25868365434E+03  0.36378828913E+03  0.00000000000E+00 0.  1.
          1    1    6    6  503    0  0.14152695485E+02  0.46360442665E+02  0.11276156033E+02  0.49766867779E+02  0.00000000000E+00 0. -1.
         -1    1    6    6    0  503 -0.11198208811E+03  0.51079105735E+03  0.26582232826E+03  0.58660804847E+03  0.00000000000E+00 0.  1.
<mgrwt>
<rscale>  0 0.15637910E+04</rscale>
<asrwt>0</asrwt>
<pdfrwt beam="1">  1        1 0.65518335E-01 0.15637910E+04</pdfrwt>
<pdfrwt beam="2">  1       -2 0.22085533E+00 0.15637910E+04</pdfrwt>
<totfact> 0.45278582E+00</totfact>
</mgrwt>
</event>
<event>
12    5  0.5264288E-008  0.1392182E+04  0.7818608E-02  0.8959497E-01
          1   -1    0    0  501    0  0.00000000000E+00  0.00000000000E+00  0.27378991544E+04  0.27378991544E+04  0.00000000000E+00 0. -1.
         -2   -1    0    0    0  501 -0.00000000000E+00 -0.00000000000E+00 -0.17697612208E+03  0.17697612208E+03  0.00000000000E+00 0.  1.
        -24    2    1    2    0    0 -0.13702207899E+03 -0.37267791223E+03  0.70436195666E+03  0.81254504276E+03  0.80248390153E+02 0.  0.
        254    2    1    2    0    0  0.13702207899E+03  0.37267791223E+03  0.18565610757E+04  0.21023302337E+04  0.90294490837E+03 0.  0.
         23    2    4    4    0    0  0.41983106988E+03  0.30024872805E+03  0.16550236298E+04  0.17360309491E+04  0.91064894970E+02 0.  0.
         23    2    4    4    0    0 -0.28280899089E+03  0.72429184182E+02  0.20153744583E+03  0.36629928459E+03  0.91273828499E+02 0.  0.
          3    1    3    3  502    0 -0.56247397148E+02 -0.18618473971E+03  0.42183267913E+03  0.46451193329E+03  0.00000000000E+00 0. -1.
         -4    1    3    3    0  502 -0.80774681841E+02 -0.18649317252E+03  0.28252927754E+03  0.34803310947E+03  0.00000000000E+00 0.  1.
         13    1    5    5    0    0  0.81320893178E+01  0.10236075672E+02  0.12674766001E+02  0.18208729088E+02  0.00000000000E+00 0.  1.
        -13    1    5    5    0    0  0.41169898056E+03  0.29001265238E+03  0.16423488638E+04  0.17178222200E+04  0.00000000000E+00 0. -1.
          3    1    6    6  503    0 -0.25088448434E+03  0.92818417167E+02  0.18313170200E+03  0.32418436625E+03  0.00000000000E+00 0. -1.
         -3    1    6    6    0  503 -0.31924506554E+02 -0.20389232985E+02  0.18405743832E+02  0.42114918336E+02  0.00000000000E+00 0.  1.
<mgrwt>
<rscale>  0 0.13921821E+04</rscale>
<asrwt>0</asrwt>
<pdfrwt beam="1">  1        1 0.42121522E+00 0.13921821E+04</pdfrwt>
<pdfrwt beam="2">  1       -2 0.27227098E-01 0.13921821E+04</pdfrwt>
<totfact> 0.97550580E+00</totfact>
</mgrwt>
</event>
<event>
12    5  0.5264288E-008  0.1655407E+04  0.7818608E-02  0.8787214E-01
         -2   -1    0    0    0  501 -0.00000000000E+00  0.00000000000E+00  0.10490853195E+04  0.10490853195E+04  0.00000000000E+00 0.  1.
          1   -1    0    0  501    0  0.00000000000E+00 -0.00000000000E+00 -0.65303839250E+03  0.65303839250E+03  0.00000000000E+00 0. -1.
        -24    2    1    2    0    0  0.46926295346E+03 -0.39881830648E+02 -0.19914758436E+03  0.51886448837E+03  0.88104012580E+02 0.  0.
        254    2    1    2    0    0 -0.46926295346E+03  0.39881830648E+02  0.59519451140E+03  0.11832592237E+04  0.90777067816E+03 0.  0.
         23    2    4    4    0    0  0.24949554932E+03  0.11694594522E+03  0.22041422866E+03  0.36406604262E+03  0.89650811228E+02 0.  0.
         23    2    4    4    0    0 -0.71875850278E+03 -0.77064114575E+02  0.37478028274E+03  0.81919318106E+03  0.89802808950E+02 0.  0.
          3    1    3    3  502    0 -0.13173528647E+01 -0.41472656701E+01 -0.91256108400E+01  0.10109995268E+02  0.00000000000E+00 0. -1.
         -4    1    3    3    0  502  0.47058030632E+03 -0.35734564978E+02 -0.19002197352E+03  0.50875449310E+03  0.00000000000E+00 0.  1.
         13    1    5    5    0    0  0.14962122886E+00  0.13881952192E+02 -0.24748020761E+01  0.14101617939E+02  0.00000000000E+00 0. -1.
        -13    1    5    5    0    0  0.24934592810E+03  0.10306399303E+03  0.22288903074E+03  0.34996442468E+03  0.00000000000E+00 0.  1.
          3    1    6    6  503    0 -0.32257390895E+03 -0.77675705917E+02  0.18526081826E+03  0.38001185878E+03  0.00000000000E+00 0. -1.
         -3    1    6    6    0  503 -0.39618459383E+03  0.61159134234E+00  0.18951946448E+03  0.43918132229E+03  0.00000000000E+00 0.  1.
<mgrwt>
<rscale>  0 0.16554069E+04</rscale>
<asrwt>0</asrwt>
<pdfrwt beam="1">  1        1 0.10046745E+00 0.16554069E+04</pdfrwt>
<pdfrwt beam="2">  1       -2 0.16139774E+00 0.16554069E+04</pdfrwt>
<totfact> 0.62168464E+00</totfact>
</mgrwt>
</event>
<event>
12    5  0.5264288E-008  0.1925463E+04  0.7818608E-02  0.8642285E-01
         -2   -1    0    0    0  501 -0.00000000000E+00  0.00000000000E+00  0.56211007634E+03  0.56211007634E+03  0.00000000000E+00 0.  1.
          1   -1    0    0  501    0  0.00000000000E+00 -0.00000000000E+00 -0.16488791237E+04  0.16488791237E+04  0.00000000000E+00 0. -1.
        -24    2    1    2    0    0 -0.58200609428E+02  0.12198098113E+03 -0.12582806162E+04  0.12685059796E+04  0.87009426402E+02 0.  0.
        254    2    1    2    0    0  0.58200609428E+02 -0.12198098113E+03  0.17151156889E+03  0.94248322047E+03  0.91683789838E+03 0.  0.
         23    2    4    4    0    0 -0.25416507774E+03  0.14055630543E+03 -0.21600965645E+03  0.37227269022E+03  0.87010473278E+02 0.  0.
         23    2    4    4    0    0  0.31236568717E+03 -0.26253728656E+03  0.38752122534E+03  0.57021053025E+03  0.92028253071E+02 0.  0.
          3    1    3    3  502    0 -0.40748173098E+02  0.13201166035E+03 -0.10091257946E+04  0.10185393274E+04  0.00000000000E+00 0. -1.
         -4    1    3    3    0  502 -0.17452436330E+02 -0.10030679223E+02 -0.24915482162E+03  0.24996665217E+03  0.00000000000E+00 0.  1.
         13    1    5    5    0    0 -0.22217946183E+03  0.11938298208E+03 -0.21867920714E+03  0.33382121758E+03  0.00000000000E+00 0. -1.
        -13    1    5    5    0    0 -0.31985615912E+02  0.21173323355E+02  0.26695506907E+01  0.38451472639E+02  0.00000000000E+00 0.  1.
          3    1    6    6  503    0  0.24617968226E+03 -0.15297436733E+03  0.28085497566E+03  0.40359027537E+03  0.00000000000E+00 0. -1.
         -3    1    6    6    0  503  0.66186004909E+02 -0.10956291923E+03  0.10666624968E+03  0.16662025488E+03  0.00000000000E+00 0.  1.
<mgrwt>
<rscale>  0 0.19254626E+04</rscale>
<asrwt>0</asrwt>
<pdfrwt beam="1">  1        1 0.25367371E+00 0.19254626E+04</pdfrwt>
<pdfrwt beam="2">  1       -2 0.86478473E-01 0.19254626E+04</pdfrwt>
<totfact> 0.49036637E+00</totfact>
</mgrwt>
</event>
<event>
12    5  0.5264288E-008  0.1471597E+04  0.7818608E-02  0.8903564E-01
          1   -1    0    0  501    0  0.00000000000E+00  0.00000000000E+00  0.97908168123E+03  0.97908168123E+03  0.00000000000E+00 0. -1.
         -4   -1    0    0    0  501 -0.00000000000E+00 -0.00000000000E+00 -0.55296625234E+03  0.55296625234E+03  0.00000000000E+00 0.  1.
        -24    2    1    2    0    0 -0.33548307777E+03  0.30179388269E+03  0.16116773521E+03  0.48532342124E+03  0.77041165813E+02 0.  0.
        254    2    1    2    0    0  0.33548307777E+03 -0.30179388269E+03  0.26494769368E+03  0.10467245123E+04  0.90653542746E+03 0.  0.
         23    2    4    4    0    0  0.32456921453E+03 -0.48298422953E+03  0.47323843117E+03  0.75591170021E+03  0.93962464809E+02 0.  0.
         23    2    4    4    0    0  0.10913863244E+02  0.18119034684E+03 -0.20829073749E+03  0.29081281212E+03  0.90763462757E+02 0.  0.
          1    1    3    3  502    0 -0.28044046955E+03  0.20980166192E+03  0.13132418082E+03  0.37404496357E+03  0.00000000000E+00 0. -1.
         -2    1    3    3    0  502 -0.55042608225E+02  0.91992220771E+02  0.29843554386E+02  0.11127845767E+03  0.00000000000E+00 0.  1.
         13    1    5    5    0    0  0.73366597359E+02 -0.56010992807E+02  0.54020919755E+02  0.10694928094E+03  0.00000000000E+00 0. -1.
        -13    1    5    5    0    0  0.25120261717E+03 -0.42697323672E+03  0.41921751141E+03  0.64896241927E+03  0.00000000000E+00 0.  1.
          2    1    6    6  503    0  0.27455568192E+02  0.76852041156E+01 -0.25588732901E+02  0.38309970485E+02  0.00000000000E+00 0. -1.
         -2    1    6    6    0  503 -0.16541704948E+02  0.17350514272E+03 -0.18270200459E+03  0.25250284163E+03  0.00000000000E+00 0.  1.
<mgrwt>
<rscale>  0 0.14715966E+04</rscale>
<asrwt>0</asrwt>
<pdfrwt beam="1">  1        1 0.15062795E+00 0.14715966E+04</pdfrwt>
<pdfrwt beam="2">  1       -4 0.85071731E-01 0.14715966E+04</pdfrwt>
<totfact> 0.89350773E+00</totfact>
</mgrwt>
</event>
<event>
12    5  0.5264288E-008  0.1434517E+04  0.7818608E-02  0.8929206E-01
          1   -1    0    0  501    0  0.00000000000E+00  0.00000000000E+00  0.54067886923E+03  0.54067886923E+03  0.00000000000E+00 0. -1.
         -2   -1    0    0    0  501 -0.00000000000E+00 -0.00000000000E+00 -0.95150700293E+03  0.95150700293E+03  0.00000000000E+00 0.  1.
        -24    2    1    2    0    0 -0.51927434335E+02  0.30876588513E+03  0.18076191863E+03  0.37013608911E+03  0.79328576051E+02 0.  0.
        254    2    1    2    0    0  0.51927434335E+02 -0.30876588513E+03 -0.59159005233E+03  0.11220497830E+04  0.90054655369E+03 0.  0.
         23    2    4    4    0    0 -0.28328014234E+03 -0.11067002385E+02  0.80632797393E+02  0.30872010775E+03  0.91849547230E+02 0.  0.
         23    2    4    4    0    0  0.33520757667E+03 -0.29769888275E+03 -0.67222284972E+03  0.81332967530E+03  0.92913167992E+02 0.  0.
          3    1    3    3  502    0 -0.29401193401E+02  0.28364111428E+03  0.17827209219E+03  0.33629994163E+03  0.00000000000E+00 0. -1.
         -2    1    3    3    0  502 -0.22526240934E+02  0.25124770846E+02  0.24898264388E+01  0.33836147481E+02  0.00000000000E+00 0.  1.
         13    1    5    5    0    0 -0.13041015428E+03  0.37791503766E+02  0.20390922845E+02  0.13729820039E+03  0.00000000000E+00 0. -1.
        -13    1    5    5    0    0 -0.15286998806E+03 -0.48858506150E+02  0.60241874549E+02  0.17142190736E+03  0.00000000000E+00 0.  1.
          2    1    6    6  503    0  0.31992086069E+03 -0.29885750302E+03 -0.62060870412E+03  0.75948688457E+03  0.00000000000E+00 0. -1.
         -2    1    6    6    0  503  0.15286715986E+02  0.11586202730E+01 -0.51614145605E+02  0.53842790725E+02  0.00000000000E+00 0.  1.
<mgrwt>
<rscale>  0 0.14345170E+04</rscale>
<asrwt>0</asrwt>
<pdfrwt beam="1">  1        1 0.83181365E-01 0.14345170E+04</pdfrwt>
<pdfrwt beam="2">  1       -2 0.14638569E+00 0.14345170E+04</pdfrwt>
<totfact> 0.10794986E+01</totfact>
</mgrwt>
</event>
<event>
12    5  0.5264288E-008  0.9627103E+03  0.7818608E-02  0.9350416E-01
         -2   -1    0    0    0  501 -0.00000000000E+00  0.00000000000E+00  0.71072177567E+03  0.71072177567E+03  0.00000000000E+00 0.  1.
          1   -1    0    0  501    0  0.00000000000E+00 -0.00000000000E+00 -0.32601049419E+03  0.32601049419E+03  0.00000000000E+00 0. -1.
        -24    2    1    2    0    0  0.13751189842E+03  0.81619128858E+02 -0.45088559129E+02  0.18396333865E+03  0.78983083003E+02 0.  0.
        254    2    1    2    0    0 -0.13751189842E+03 -0.81619128858E+02  0.42979984061E+03  0.85276893121E+03  0.71896852688E+03 0.  0.
         23    2    4    4    0    0 -0.48062961087E+02  0.30902392732E+03  0.16711840420E+03  0.36506589408E+03  0.86825745678E+02 0.  0.
         23    2    4    4    0    0 -0.89448937335E+02 -0.39064305618E+03  0.26268143640E+03  0.48770303713E+03  0.90827339868E+02 0.  0.
          3    1    3    3  502    0  0.11485098893E+03  0.61641382591E+02 -0.67081680296E+02  0.14659591241E+03  0.00000000000E+00 0. -1.
         -4    1    3    3    0  502  0.22660909496E+02  0.19977746266E+02  0.21993121167E+02  0.37367426239E+02  0.00000000000E+00 0.  1.
         13    1    5    5    0    0 -0.34715087260E+02  0.44824287436E+02  0.10550628645E+02  0.57668620518E+02  0.00000000000E+00 0.  1.
        -13    1    5    5    0    0 -0.13347873827E+02  0.26419963988E+03  0.15656777556E+03  0.30739727356E+03  0.00000000000E+00 0. -1.
          4    1    6    6  503    0 -0.80134983357E+02 -0.39313351861E+03  0.25772548242E+03  0.47686266713E+03  0.00000000000E+00 0. -1.
         -4    1    6    6    0  503 -0.93139539772E+01  0.24904624383E+01  0.49559539892E+01  0.10840370002E+02  0.00000000000E+00 0.  1.
<mgrwt>
<rscale>  0 0.96271025E+03</rscale>
<asrwt>0</asrwt>
<pdfrwt beam="1">  1        1 0.50155461E-01 0.96271025E+03</pdfrwt>
<pdfrwt beam="2">  1       -2 0.10934181E+00 0.96271025E+03</pdfrwt>
<totfact> 0.45966981E+01</totfact>
</mgrwt>
</event>
<event>
12    5  0.5264288E-008  0.1255557E+04  0.7818608E-02  0.9065571E-01
          1   -1    0    0  501    0  0.00000000000E+00  0.00000000000E+00  0.98032131272E+03  0.98032131272E+03  0.00000000000E+00 0. -1.
         -2   -1    0    0    0  501 -0.00000000000E+00 -0.00000000000E+00 -0.40201687449E+03  0.40201687449E+03  0.00000000000E+00 0.  1.
        -24    2    1    2    0    0  0.16843173345E+03  0.22528130268E+03  0.23012478405E+03  0.37259579022E+03  0.82154077734E+02 0.  0.
        254    2    1    2    0    0 -0.16843173345E+03 -0.22528130268E+03  0.34817965418E+03  0.10097423970E+04  0.90511309930E+03 0.  0.
         23    2    4    4    0    0  0.47265898239E+02 -0.36749751404E+01  0.59464886685E+03  0.60345416671E+03  0.91115782894E+02 0.  0.
         23    2    4    4    0    0 -0.21569763169E+03 -0.22160632754E+03 -0.24646921267E+03  0.40628823028E+03  0.93210624657E+02 0.  0.
          1    1    3    3  502    0  0.17472006160E+03  0.22456000340E+03  0.23061401998E+03  0.36624734984E+03  0.00000000000E+00 0. -1.
         -2    1    3    3    0  502 -0.62883281471E+01  0.72129927714E+00 -0.48923592913E+00  0.63484403854E+01  0.00000000000E+00 0.  1.
         13    1    5    5    0    0  0.58526719708E+02 -0.30766508905E+02  0.50026039980E+03  0.50461115981E+03  0.00000000000E+00 0.  1.
        -13    1    5    5    0    0 -0.11260821469E+02  0.27091533764E+02  0.94388467047E+02  0.98843006901E+02  0.00000000000E+00 0. -1.
          4    1    6    6  503    0 -0.99375257161E+02 -0.77817600059E+02 -0.48092957899E+02  0.13507017885E+03  0.00000000000E+00 0. -1.
         -4    1    6    6    0  503 -0.11632237453E+03 -0.14378872748E+03 -0.19837625477E+03  0.27121805143E+03  0.00000000000E+00 0.  1.
<mgrwt>
<rscale>  0 0.12555568E+04</rscale>
<asrwt>0</asrwt>
<pdfrwt beam="1">  1        1 0.15081866E+00 0.12555568E+04</pdfrwt>
<pdfrwt beam="2">  1       -2 0.61848750E-01 0.12555568E+04</pdfrwt>
<totfact> 0.32904398E+01</totfact>
</mgrwt>
</event>
<event>
12    5  0.5264288E-008  0.1328679E+04  0.7818608E-02  0.9007126E-01
         -2   -1    0    0    0  501 -0.00000000000E+00  0.00000000000E+00  0.10414887314E+04  0.10414887314E+04  0.00000000000E+00 0.  1.
          1   -1    0    0  501    0  0.00000000000E+00 -0.00000000000E+00 -0.42376569131E+03  0.42376569131E+03  0.00000000000E+00 0. -1.
        -24    2    1    2    0    0 -0.28186468148E+03 -0.14652330331E+02  0.40285206270E+03  0.49842968562E+03  0.80498308261E+02 0.  0.
        254    2    1    2    0    0  0.28186468148E+03  0.14652330331E+02  0.21487097742E+03  0.96682473711E+03  0.89939876913E+03 0.  0.
         23    2    4    4    0    0 -0.26205893164E+03  0.70976963521E+02  0.28963073388E+03  0.40729060471E+03  0.91033299775E+02 0.  0.
         23    2    4    4    0    0  0.54392361312E+03 -0.56324633189E+02 -0.74759756466E+02  0.55953413241E+03  0.92000341999E+02 0.  0.
          1    1    3    3  502    0 -0.63885358739E+02 -0.21353168613E+02  0.15059238677E+03  0.16497079688E+03  0.00000000000E+00 0. -1.
         -2    1    3    3    0  502 -0.21797932274E+03  0.67008382815E+01  0.25225967593E+03  0.33345888874E+03  0.00000000000E+00 0.  1.
         13    1    5    5    0    0 -0.14242287271E+02 -0.12562315513E+02  0.29014791149E+01  0.19211275304E+02  0.00000000000E+00 0. -1.
        -13    1    5    5    0    0 -0.24781664437E+03  0.83539279034E+02  0.28672925477E+03  0.38807932940E+03  0.00000000000E+00 0.  1.
          4    1    6    6  503    0  0.29028388605E+03 -0.68801036732E+02 -0.65427991995E+02  0.30541633763E+03  0.00000000000E+00 0. -1.
         -4    1    6    6    0  503  0.25363972707E+03  0.12476403542E+02 -0.93317644719E+01  0.25411779477E+03  0.00000000000E+00 0.  1.
<mgrwt>
<rscale>  0 0.13286793E+04</rscale>
<asrwt>0</asrwt>
<pdfrwt beam="1">  1        1 0.65194722E-01 0.13286793E+04</pdfrwt>
<pdfrwt beam="2">  1       -2 0.16022904E+00 0.13286793E+04</pdfrwt>
<totfact> 0.11926272E+01</totfact>
</mgrwt>
</event>
<event>
12    5  0.5264288E-008  0.1658204E+04  0.7818608E-02  0.8785568E-01
          1   -1    0    0  501    0  0.00000000000E+00  0.00000000000E+00  0.22487510974E+04  0.22487510974E+04  0.00000000000E+00 0. -1.
         -2   -1    0    0    0  501 -0.00000000000E+00 -0.00000000000E+00 -0.30568544258E+03  0.30568544258E+03  0.00000000000E+00 0.  1.
        -24    2    1    2    0    0 -0.27909025370E+02  0.50199561940E+03  0.11115560198E+04  0.12225559301E+04  0.79421038676E+02 0.  0.
        254    2    1    2    0    0  0.27909025370E+02 -0.50199561940E+03  0.83150963502E+03  0.13318806099E+04  0.91088921958E+03 0.  0.
         23    2    4    4    0    0  0.43253398879E+03 -0.36899732619E+03  0.31459595904E+03  0.65594582209E+03  0.89719707297E+02 0.  0.
         23    2    4    4    0    0 -0.40462496342E+03 -0.13299829321E+03  0.51691367599E+03  0.67593478783E+03  0.90984514944E+02 0.  0.
          1    1    3    3  502    0  0.19430320114E+02  0.16762999173E+03  0.42990673412E+03  0.46184104572E+03  0.00000000000E+00 0. -1.
         -2    1    3    3    0  502 -0.47339345484E+02  0.33436562767E+03  0.68164928569E+03  0.76071488436E+03  0.00000000000E+00 0.  1.
         13    1    5    5    0    0  0.98238627944E+02 -0.45397774506E+02  0.82019384206E+02  0.13579015184E+03  0.00000000000E+00 0.  1.
        -13    1    5    5    0    0  0.33429536085E+03 -0.32359955169E+03  0.23257657483E+03  0.52015567025E+03  0.00000000000E+00 0. -1.
          1    1    6    6  503    0 -0.33901873929E+03 -0.73357144201E+02  0.41053979660E+03  0.53745502210E+03  0.00000000000E+00 0. -1.
         -1    1    6    6    0  503 -0.65606224132E+02 -0.59641149008E+02  0.10637387939E+03  0.13847976573E+03  0.00000000000E+00 0.  1.
<mgrwt>
<rscale>  0 0.16582044E+04</rscale>
<asrwt>0</asrwt>
<pdfrwt beam="1">  1        1 0.34596170E+00 0.16582044E+04</pdfrwt>
<pdfrwt beam="2">  1       -2 0.47028531E-01 0.16582044E+04</pdfrwt>
<totfact> 0.72575604E+00</totfact>
</mgrwt>
</event>
<event>
12    5  0.5264288E-008  0.2041303E+04  0.7818608E-02  0.8587550E-01
         -2   -1    0    0    0  501 -0.00000000000E+00  0.00000000000E+00  0.59076010741E+03  0.59076010741E+03  0.00000000000E+00 0.  1.
          1   -1    0    0  501    0  0.00000000000E+00 -0.00000000000E+00 -0.17633722407E+04  0.17633722407E+04  0.00000000000E+00 0. -1.
        -24    2    1    2    0    0 -0.15826440497E+03 -0.79625719846E+03 -0.61049413163E+03  0.10188454284E+04  0.79181906199E+02 0.  0.
        254    2    1    2    0    0  0.15826440497E+03  0.79625719846E+03 -0.56211800169E+03  0.13352869197E+04  0.89885558472E+03 0.  0.
         23    2    4    4    0    0 -0.87268665636E+02  0.10742132739E+03  0.21060881580E+03  0.26737573499E+03  0.89322722673E+02 0.  0.
         23    2    4    4    0    0  0.24553307060E+03  0.68883587107E+03 -0.77272681749E+03  0.10679111847E+04  0.92445757005E+02 0.  0.
          3    1    3    3  502    0 -0.64312911030E+02 -0.21937513290E+03 -0.20903004517E+03  0.30976629779E+03  0.00000000000E+00 0. -1.
         -4    1    3    3    0  502 -0.93951493936E+02 -0.57688206556E+03 -0.40146408646E+03  0.70907913063E+03  0.00000000000E+00 0.  1.
         13    1    5    5    0    0 -0.22906228354E+02  0.82525160467E+02  0.16107592131E+03  0.18242957499E+03  0.00000000000E+00 0.  1.
        -13    1    5    5    0    0 -0.64362437282E+02  0.24896166922E+02  0.49532894494E+02  0.84946159991E+02  0.00000000000E+00 0. -1.
          1    1    6    6  503    0  0.69223839580E+02  0.11231889128E+03 -0.10788663349E+03  0.17043180159E+03  0.00000000000E+00 0. -1.
         -1    1    6    6    0  503  0.17630923102E+03  0.57651697979E+03 -0.66484018400E+03  0.89747938315E+03  0.00000000000E+00 0.  1.
<mgrwt>
<rscale>  0 0.20413035E+04</rscale>
<asrwt>0</asrwt>
<pdfrwt beam="1">  1        1 0.27128804E+00 0.20413035E+04</pdfrwt>
<pdfrwt beam="2">  1       -2 0.90886170E-01 0.20413035E+04</pdfrwt>
<totfact> 0.36178930E+00</totfact>
</mgrwt>
</event>
<event>
12    5  0.5264288E-008  0.1748884E+04  0.7818608E-02  0.8733965E-01
          1   -1    0    0  501    0  0.00000000000E+00  0.00000000000E+00  0.17565595115E+04  0.17565595115E+04  0.00000000000E+00 0. -1.
         -4   -1    0    0    0  501 -0.00000000000E+00 -0.00000000000E+00 -0.43531034636E+03  0.43531034636E+03  0.00000000000E+00 0.  1.
        -24    2    1    2    0    0  0.23626073469E+03 -0.25057770794E+03  0.11912154183E+04  0.12425370809E+04  0.79346720648E+02 0.  0.
        254    2    1    2    0    0 -0.23626073469E+03  0.25057770794E+03  0.13003374686E+03  0.94933277700E+03  0.87505178344E+03 0.  0.
         23    2    4    4    0    0 -0.12490300269E+03 -0.23179708040E+03  0.30737364261E+03  0.41558348872E+03  0.94342108108E+02 0.  0.
         23    2    4    4    0    0 -0.11135773200E+03  0.48237478834E+03 -0.17733989575E+03  0.53374928828E+03  0.91394109300E+02 0.  0.
          3    1    3    3  502    0  0.23990537838E+03 -0.23293451168E+03  0.11062437933E+04  0.11556766016E+04  0.00000000000E+00 0. -1.
         -4    1    3    3    0  502 -0.36446436886E+01 -0.17643196266E+02  0.84971624984E+02  0.86860479244E+02  0.00000000000E+00 0.  1.
         13    1    5    5    0    0  0.66680191042E+01 -0.18026854311E+01  0.34674060434E+02  0.35355376119E+02  0.00000000000E+00 0. -1.
        -13    1    5    5    0    0 -0.13157102179E+03 -0.22999439497E+03  0.27269958217E+03  0.38022811260E+03  0.00000000000E+00 0.  1.
          3    1    6    6  503    0 -0.68335551970E+02  0.28314017931E+03 -0.15143068981E+03  0.32828244336E+03  0.00000000000E+00 0. -1.
         -3    1    6    6    0  503 -0.43022180030E+02  0.19923460903E+03 -0.25909205943E+02  0.20546684492E+03  0.00000000000E+00 0.  1.
<mgrwt>
<rscale>  0 0.17488837E+04</rscale>
<asrwt>0</asrwt>
<pdfrwt beam="1">  1        1 0.27023992E+00 0.17488837E+04</pdfrwt>
<pdfrwt beam="2">  1       -4 0.66970823E-01 0.17488837E+04</pdfrwt>
<totfact> 0.41979259E+00</totfact>
</mgrwt>
</event>
<event>
12    5  0.5264288E-008  0.1620193E+04  0.7818608E-02  0.8808238E-01
         -2   -1    0    0    0  501 -0.00000000000E+00  0.00000000000E+00  0.56666266250E+03  0.56666266250E+03  0.00000000000E+00 0.  1.
          1   -1    0    0  501    0  0.00000000000E+00 -0.00000000000E+00 -0.11581082739E+04  0.11581082739E+04  0.00000000000E+00 0. -1.
        -24    2    1    2    0    0 -0.21878826458E+03 -0.20470169698E+03  0.29183755691E+03  0.42653523008E+03  0.83618499194E+02 0.  0.
        254    2    1    2    0    0  0.21878826458E+03  0.20470169698E+03 -0.88328316828E+03  0.12982357063E+04  0.90302586022E+03 0.  0.
         23    2    4    4    0    0 -0.18644298877E+03  0.24862433401E+03 -0.81186123226E+03  0.87394590599E+03  0.89931855472E+02 0.  0.
         23    2    4    4    0    0  0.40523125335E+03 -0.43922637027E+02 -0.71421936016E+02  0.42428980029E+03  0.93697251558E+02 0.  0.
          1    1    3    3  502    0 -0.38025884714E+02 -0.16451327799E+02  0.10411151785E+02  0.42720091012E+02  0.00000000000E+00 0. -1.
         -2    1    3    3    0  502 -0.18076237986E+03 -0.18825036918E+03  0.28142640513E+03  0.38381513906E+03  0.00000000000E+00 0.  1.
         13    1    5    5    0    0 -0.16758080300E+03  0.19429056207E+03 -0.73096221515E+03  0.77468568337E+03  0.00000000000E+00 0.  1.
        -13    1    5    5    0    0 -0.18862185776E+02  0.54333771940E+02 -0.80899017113E+02  0.99260222624E+02  0.00000000000E+00 0. -1.
          1    1    6    6  503    0  0.14590758144E+03 -0.58493660573E+02 -0.10737873884E+02  0.15756215467E+03  0.00000000000E+00 0. -1.
         -1    1    6    6    0  503  0.25932367191E+03  0.14571023546E+02 -0.60684062132E+02  0.26672764561E+03  0.00000000000E+00 0.  1.
<mgrwt>
<rscale>  0 0.16201935E+04</rscale>
<asrwt>0</asrwt>
<pdfrwt beam="1">  1        1 0.17817050E+00 0.16201935E+04</pdfrwt>
<pdfrwt beam="2">  1       -2 0.87178871E-01 0.16201935E+04</pdfrwt>
<totfact> 0.10960384E+01</totfact>
</mgrwt>
</event>
<event>
12    5  0.5264288E-008  0.1505433E+04  0.7818608E-02  0.8880848E-01
          1   -1    0    0  501    0  0.00000000000E+00  0.00000000000E+00  0.82247325848E+03  0.82247325848E+03  0.00000000000E+00 0. -1.
         -2   -1    0    0    0  501 -0.00000000000E+00 -0.00000000000E+00 -0.68887606465E+03  0.68887606465E+03  0.00000000000E+00 0.  1.
        -24    2    1    2    0    0 -0.14878007334E+03  0.36572364215E+03 -0.23729023371E+03  0.46807245686E+03  0.83041418629E+02 0.  0.
        254    2    1    2    0    0  0.14878007334E+03 -0.36572364215E+03  0.37088742754E+03  0.10432768663E+04  0.89161642152E+03 0.  0.
         23    2    4    4    0    0  0.12079303183E+02 -0.64190238479E+03  0.19517987073E+03  0.67720523370E+03  0.91253303747E+02 0.  0.
         23    2    4    4    0    0  0.13670077016E+03  0.27617874264E+03  0.17570755681E+03  0.36607163256E+03  0.90407390170E+02 0.  0.
          3    1    3    3  502    0 -0.33133167512E+02  0.13120439831E+03 -0.41934329655E+02  0.14167176475E+03  0.00000000000E+00 0. -1.
         -4    1    3    3    0  502 -0.11564690583E+03  0.23451924384E+03 -0.19535590405E+03  0.32640069211E+03  0.00000000000E+00 0.  1.
         13    1    5    5    0    0 -0.21897374537E+02 -0.47623345173E+02  0.25213084690E+02  0.58165089673E+02  0.00000000000E+00 0. -1.
        -13    1    5    5    0    0  0.33976677721E+02 -0.59427903962E+03  0.16996678604E+03  0.61904014403E+03  0.00000000000E+00 0.  1.
          2    1    6    6  503    0  0.13831797656E+02  0.10419968297E+03  0.29855864413E+02  0.10927152052E+03  0.00000000000E+00 0. -1.
         -2    1    6    6    0  503  0.12286897250E+03  0.17197905968E+03  0.14585169239E+03  0.25680011204E+03  0.00000000000E+00 0.  1.
<mgrwt>
<rscale>  0 0.15054330E+04</rscale>
<asrwt>0</asrwt>
<pdfrwt beam="1">  1        1 0.12653435E+00 0.15054330E+04</pdfrwt>
<pdfrwt beam="2">  1       -2 0.10598093E+00 0.15054330E+04</pdfrwt>
<totfact> 0.12872721E+01</totfact>
</mgrwt>
</event>
<event>
12    5  0.5264288E-008  0.1412088E+04  0.7818608E-02  0.8945115E-01
          1   -1    0    0  501    0  0.00000000000E+00  0.00000000000E+00  0.15169288039E+04  0.15169288039E+04  0.00000000000E+00 0. -1.
         -2   -1    0    0    0  501 -0.00000000000E+00 -0.00000000000E+00 -0.32862317387E+03  0.32862317387E+03  0.00000000000E+00 0.  1.
        -24    2    1    2    0    0  0.35840247347E+03  0.40581707094E+01  0.84319587129E+02  0.37708281037E+03  0.81319440281E+02 0.  0.
        254    2    1    2    0    0 -0.35840247347E+03 -0.40581707094E+01  0.11039860429E+04  0.14684691674E+04  0.89952638147E+03 0.  0.
         23    2    4    4    0    0 -0.14569747728E+03  0.43160737266E+03  0.43583697516E+03  0.63858835842E+03  0.10162944250E+03 0.  0.
         23    2    4    4    0    0 -0.21270499619E+03 -0.43566554337E+03  0.66814906777E+03  0.82988080900E+03  0.85035870698E+02 0.  0.
          3    1    3    3  502    0  0.32351794623E+03 -0.26001191349E+01  0.99466473797E+02  0.33847333951E+03  0.00000000000E+00 0. -1.
         -4    1    3    3    0  502  0.34884527235E+02  0.66582898443E+01 -0.15146886667E+02  0.38609470856E+02  0.00000000000E+00 0.  1.
         13    1    5    5    0    0 -0.13887491718E+03  0.30636217614E+03  0.27405510286E+03  0.43387812228E+03  0.00000000000E+00 0. -1.
        -13    1    5    5    0    0 -0.68225600945E+01  0.12524519652E+03  0.16178187230E+03  0.20471023614E+03  0.00000000000E+00 0.  1.
          3    1    6    6  503    0 -0.66652996889E+01 -0.27252791902E+02  0.80030516763E+02  0.84805804635E+02  0.00000000000E+00 0. -1.
         -3    1    6    6    0  503 -0.20603969650E+03 -0.40841275146E+03  0.58811855101E+03  0.74507500437E+03  0.00000000000E+00 0.  1.
<mgrwt>
<rscale>  0 0.14120878E+04</rscale>
<asrwt>0</asrwt>
<pdfrwt beam="1">  1        1 0.23337366E+00 0.14120878E+04</pdfrwt>
<pdfrwt beam="2">  1       -2 0.50557412E-01 0.14120878E+04</pdfrwt>
<totfact> 0.20134134E+01</totfact>
</mgrwt>
</event>
<event>
12    5  0.5264288E-008  0.1799211E+04  0.7818608E-02  0.8706719E-01
          1   -1    0    0  501    0  0.00000000000E+00  0.00000000000E+00  0.16587766402E+04  0.16587766402E+04  0.00000000000E+00 0. -1.
         -2   -1    0    0    0  501 -0.00000000000E+00 -0.00000000000E+00 -0.48788370395E+03  0.48788370395E+03  0.00000000000E+00 0.  1.
        -24    2    1    2    0    0 -0.41702515776E+03  0.39570837420E+03  0.85022119517E+03  0.10293955772E+04  0.79272151195E+02 0.  0.
        254    2    1    2    0    0  0.41702515776E+03 -0.39570837420E+03  0.32067174111E+03  0.11172647670E+04  0.90274863305E+03 0.  0.
         23    2    4    4    0    0  0.34904611412E+03 -0.49352317493E+03  0.56380052676E+03  0.83177560427E+03  0.92635349103E+02 0.  0.
         23    2    4    4    0    0  0.67979043636E+02  0.97814800723E+02 -0.24312878565E+03  0.28548916276E+03  0.90573561437E+02 0.  0.
          1    1    3    3  502    0 -0.42017336467E+03  0.38941485720E+03  0.84361869986E+03  0.10197460949E+04  0.00000000000E+00 0. -1.
         -2    1    3    3    0  502  0.31482069085E+01  0.62935170013E+01  0.66024953117E+01  0.96494822310E+01  0.00000000000E+00 0.  1.
         13    1    5    5    0    0  0.19109618205E+02 -0.45077947615E+02  0.82004952490E+02  0.95509219984E+02  0.00000000000E+00 0. -1.
        -13    1    5    5    0    0  0.32993649592E+03 -0.44844522731E+03  0.48179557427E+03  0.73626638428E+03  0.00000000000E+00 0.  1.
          4    1    6    6  503    0 -0.14969477158E+02  0.18313942605E+01 -0.65484256623E+02  0.67198416029E+02  0.00000000000E+00 0. -1.
         -4    1    6    6    0  503  0.82948520794E+02  0.95983406462E+02 -0.17764452902E+03  0.21829074673E+03  0.00000000000E+00 0.  1.
<mgrwt>
<rscale>  0 0.17992110E+04</rscale>
<asrwt>0</asrwt>
<pdfrwt beam="1">  1        1 0.25519640E+00 0.17992110E+04</pdfrwt>
<pdfrwt beam="2">  1       -2 0.75059032E-01 0.17992110E+04</pdfrwt>
<totfact> 0.67145033E+00</totfact>
</mgrwt>
</event>
<event>
12    5  0.5264288E-008  0.2302639E+04  0.7818608E-02  0.8476881E-01
         -2   -1    0    0    0  501 -0.00000000000E+00  0.00000000000E+00  0.97489993699E+03  0.97489993699E+03  0.00000000000E+00 0.  1.
          1   -1    0    0  501    0  0.00000000000E+00 -0.00000000000E+00 -0.13596644312E+04  0.13596644312E+04  0.00000000000E+00 0. -1.
        -24    2    1    2    0    0 -0.42357343254E+03  0.53508962605E+03 -0.86710772564E+03  0.11063732632E+04  0.80315807788E+02 0.  0.
        254    2    1    2    0    0  0.42357343254E+03 -0.53508962605E+03  0.48234323139E+03  0.12281911050E+04  0.90003501986E+03 0.  0.
         23    2    4    4    0    0  0.36300341589E+02 -0.55539601490E+03  0.59010370247E+03  0.81636631006E+03  0.91919118589E+02 0.  0.
         23    2    4    4    0    0  0.38727309095E+03  0.20306388852E+02 -0.10776047108E+03  0.41182479498E+03  0.87146693756E+02 0.  0.
          3    1    3    3  502    0 -0.29522972943E+03  0.42748124591E+03 -0.66560118100E+03  0.84434930029E+03  0.00000000000E+00 0. -1.
         -4    1    3    3    0  502 -0.12834370311E+03  0.10760838014E+03 -0.20150654464E+03  0.26202396290E+03  0.00000000000E+00 0.  1.
         13    1    5    5    0    0 -0.51193442341E+01 -0.45571082295E+03  0.46423137661E+03  0.65054541184E+03  0.00000000000E+00 0.  1.
        -13    1    5    5    0    0  0.41419685824E+02 -0.99685191952E+02  0.12587232586E+03  0.16582089822E+03  0.00000000000E+00 0. -1.
          3    1    6    6  503    0  0.10031346399E+03  0.24374918393E+02 -0.64152654941E+02  0.12154213607E+03  0.00000000000E+00 0. -1.
         -3    1    6    6    0  503  0.28695962696E+03 -0.40685295407E+01 -0.43607816143E+02  0.29028265891E+03  0.00000000000E+00 0.  1.
<mgrwt>
<rscale>  0 0.23026392E+04</rscale>
<asrwt>0</asrwt>
<pdfrwt beam="1">  1        1 0.20917914E+00 0.23026392E+04</pdfrwt>
<pdfrwt beam="2">  1       -2 0.14998461E+00 0.23026392E+04</pdfrwt>
<totfact> 0.19500105E+00</totfact>
</mgrwt>
</event>
<event>
12    5  0.5264288E-008  0.1634227E+04  0.7818608E-02  0.8799793E-01
          1   -1    0    0  501    0  0.00000000000E+00  0.00000000000E+00  0.13195149680E+04  0.13195149680E+04  0.00000000000E+00 0. -1.
         -2   -1    0    0    0  501 -0.00000000000E+00 -0.00000000000E+00 -0.50599962090E+03  0.50599962090E+03  0.00000000000E+00 0.  1.
        -24    2    1    2    0    0 -0.28189039843E+03 -0.46738331776E+03  0.39076505465E+03  0.67608586700E+03  0.80532038228E+02 0.  0.
        254    2    1    2    0    0  0.28189039843E+03  0.46738331776E+03  0.42275029247E+03  0.11494287219E+04  0.91899902859E+03 0.  0.
         23    2    4    4    0    0  0.34233566616E+03  0.69167423765E+03  0.17228681631E+03  0.79586005488E+03  0.90019556368E+02 0.  0.
         23    2    4    4    0    0 -0.60445267723E+02 -0.22429091989E+03  0.25046347616E+03  0.35356866704E+03  0.91207468382E+02 0.  0.
          1    1    3    3  502    0 -0.21460121334E+03 -0.39749155585E+03  0.34718407999E+03  0.56972800803E+03  0.00000000000E+00 0. -1.
         -4    1    3    3    0  502 -0.67289185089E+02 -0.69891761905E+02  0.43580974663E+02  0.10635785897E+03  0.00000000000E+00 0.  1.
         13    1    5    5    0    0  0.30859246400E+03  0.55503236235E+03  0.15784865551E+03  0.65437483917E+03  0.00000000000E+00 0. -1.
        -13    1    5    5    0    0  0.33743202159E+02  0.13664187530E+03  0.14438160802E+02  0.14148521571E+03  0.00000000000E+00 0.  1.
          2    1    6    6  503    0 -0.51754981324E+02 -0.23149136213E+03  0.24504982566E+03  0.34105167627E+03  0.00000000000E+00 0. -1.
         -2    1    6    6    0  503 -0.86902863989E+01  0.72004422409E+01  0.54136504999E+01  0.12516990768E+02  0.00000000000E+00 0.  1.
<mgrwt>
<rscale>  0 0.16342265E+04</rscale>
<asrwt>0</asrwt>
<pdfrwt beam="1">  1        1 0.20300230E+00 0.16342265E+04</pdfrwt>
<pdfrwt beam="2">  1       -2 0.77846096E-01 0.16342265E+04</pdfrwt>
<totfact> 0.10806123E+01</totfact>
</mgrwt>
</event>
<event>
12    5  0.5264288E-008  0.2074210E+04  0.7818608E-02  0.8572690E-01
          1   -1    0    0  501    0  0.00000000000E+00  0.00000000000E+00  0.92706688603E+03  0.92706688603E+03  0.00000000000E+00 0. -1.
         -2   -1    0    0    0  501 -0.00000000000E+00 -0.00000000000E+00 -0.11602045060E+04  0.11602045060E+04  0.00000000000E+00 0.  1.
        -24    2    1    2    0    0 -0.46312112075E+03  0.27109476127E+03 -0.73836884190E+03  0.91625803193E+03  0.79791555311E+02 0.  0.
        254    2    1    2    0    0  0.46312112075E+03 -0.27109476127E+03  0.50523122196E+03  0.11710133601E+04  0.90996712016E+03 0.  0.
         23    2    4    4    0    0  0.69074645705E+03 -0.25213388464E+03  0.54703004335E+03  0.92120650717E+03  0.93152545974E+02 0.  0.
         23    2    4    4    0    0 -0.22762533630E+03 -0.18960876629E+02 -0.41798821390E+02  0.24980685291E+03  0.92105991795E+02 0.  0.
          1    1    3    3  502    0 -0.10171063957E+03  0.48984130176E+02 -0.21243131804E+03  0.24056509326E+03  0.00000000000E+00 0. -1.
         -2    1    3    3    0  502 -0.36141048119E+03  0.22211063110E+03 -0.52593752386E+03  0.67569293867E+03  0.00000000000E+00 0.  1.
         13    1    5    5    0    0  0.38431723189E+03 -0.15453653537E+03  0.36241702325E+03  0.55038838490E+03  0.00000000000E+00 0. -1.
        -13    1    5    5    0    0  0.30642922516E+03 -0.97597349270E+02  0.18461302010E+03  0.37081812227E+03  0.00000000000E+00 0.  1.
          4    1    6    6  503    0 -0.21356429296E+03 -0.32907792012E+02 -0.15164482784E+02  0.21661623102E+03  0.00000000000E+00 0. -1.
         -4    1    6    6    0  503 -0.14061043334E+02  0.13946915383E+02 -0.26634338606E+02  0.33190621888E+02  0.00000000000E+00 0.  1.
<mgrwt>
<rscale>  0 0.20742104E+04</rscale>
<asrwt>0</asrwt>
<pdfrwt beam="1">  1        1 0.14262567E+00 0.20742104E+04</pdfrwt>
<pdfrwt beam="2">  1       -2 0.17849300E+00 0.20742104E+04</pdfrwt>
<totfact> 0.25947018E+00</totfact>
</mgrwt>
</event>
<event>
12    5  0.5264288E-008  0.1108632E+04  0.7818608E-02  0.9196819E-01
          1   -1    0    0  501    0  0.00000000000E+00  0.00000000000E+00  0.43204158136E+03  0.43204158136E+03  0.00000000000E+00 0. -1.
         -2   -1    0    0    0  501 -0.00000000000E+00 -0.00000000000E+00 -0.71119604897E+03  0.71119604897E+03  0.00000000000E+00 0.  1.
        -24    2    1    2    0    0 -0.27781094336E+02  0.24636194010E+02  0.14848066673E+03  0.17236230583E+03  0.79268687531E+02 0.  0.
        254    2    1    2    0    0  0.27781094336E+02 -0.24636194010E+02 -0.42763513433E+03  0.97087532449E+03  0.87083199087E+03 0.  0.
         23    2    4    4    0    0 -0.28606701502E+03 -0.22130086611E+03  0.31186203020E+02  0.37417745598E+03  0.90707104911E+02 0.  0.
         23    2    4    4    0    0  0.31384810936E+03  0.19666467210E+03 -0.45882133736E+03  0.59669786851E+03  0.91398564934E+02 0.  0.
          3    1    3    3  502    0 -0.14902545624E+02  0.75267393285E+01  0.14996943926E+03  0.15089589253E+03  0.00000000000E+00 0. -1.
         -4    1    3    3    0  502 -0.12878548712E+02  0.17109454681E+02 -0.14887725332E+01  0.21466413302E+02  0.00000000000E+00 0.  1.
         13    1    5    5    0    0 -0.58394601213E+02 -0.50308713842E+02  0.44741270408E+02  0.89121700034E+02  0.00000000000E+00 0. -1.
        -13    1    5    5    0    0 -0.22767241381E+03 -0.17099215227E+03 -0.13555067388E+02  0.28505575595E+03  0.00000000000E+00 0.  1.
          2    1    6    6  503    0  0.82218853573E+02  0.66495995089E+02 -0.74010861565E+02  0.12907077468E+03  0.00000000000E+00 0. -1.
         -2    1    6    6    0  503  0.23162925578E+03  0.13016867701E+03 -0.38481047579E+03  0.46762709383E+03  0.00000000000E+00 0.  1.
<mgrwt>
<rscale>  0 0.11086321E+04</rscale>
<asrwt>0</asrwt>
<pdfrwt beam="1">  1        1 0.66467936E-01 0.11086321E+04</pdfrwt>
<pdfrwt beam="2">  1       -2 0.10941478E+00 0.11086321E+04</pdfrwt>
<totfact> 0.31339962E+01</totfact>
</mgrwt>
</event>
<event>
12    5  0.5264288E-008  0.2164548E+04  0.7818608E-02  0.8533331E-01
          1   -1    0    0  501    0  0.00000000000E+00  0.00000000000E+00  0.14217944197E+04  0.14217944197E+04  0.00000000000E+00 0. -1.
         -2   -1    0    0    0  501 -0.00000000000E+00 -0.00000000000E+00 -0.82383010980E+03  0.82383010980E+03  0.00000000000E+00 0.  1.
        -24    2    1    2    0    0 -0.70752473169E+03 -0.43754170432E+03 -0.78152674560E+02  0.83962586445E+03  0.82642378606E+02 0.  0.
        254    2    1    2    0    0  0.70752473169E+03  0.43754170432E+03  0.67611698442E+03  0.14059986650E+04  0.90976045222E+03 0.  0.
         23    2    4    4    0    0  0.18302640306E+03 -0.12785001122E+02  0.67846248158E+03  0.70860429900E+03  0.90258479800E+02 0.  0.
         23    2    4    4    0    0  0.52449832863E+03  0.45032670544E+03 -0.23454971590E+01  0.69739436601E+03  0.91982400602E+02 0.  0.
          1    1    3    3  502    0 -0.85420844464E+01 -0.33219209499E+01 -0.10554873038E+02  0.13978830793E+02  0.00000000000E+00 0. -1.
         -2    1    3    3    0  502 -0.69898264725E+03 -0.43421978337E+03 -0.67597801522E+02  0.82564703366E+03  0.00000000000E+00 0.  1.
         13    1    5    5    0    0  0.90184311525E+01  0.88463121134E+01  0.66317692406E+01  0.14267785453E+02  0.00000000000E+00 0.  1.
        -13    1    5    5    0    0  0.17400797191E+03 -0.21631313236E+02  0.67183071234E+03  0.69433651355E+03  0.00000000000E+00 0. -1.
          2    1    6    6  503    0  0.44474368125E+03  0.39677447269E+03 -0.31965695584E+02  0.59686575533E+03  0.00000000000E+00 0. -1.
         -2    1    6    6    0  503  0.79754647379E+02  0.53552232751E+02  0.29620198425E+02  0.10052861068E+03  0.00000000000E+00 0.  1.
<mgrwt>
<rscale>  0 0.21645480E+04</rscale>
<asrwt>0</asrwt>
<pdfrwt beam="1">  1        1 0.21873760E+00 0.21645480E+04</pdfrwt>
<pdfrwt beam="2">  1       -2 0.12674309E+00 0.21645480E+04</pdfrwt>
<totfact> 0.27570219E+00</totfact>
</mgrwt>
</event>
<event>
12    5  0.5264288E-008  0.2098894E+04  0.7818608E-02  0.8561731E-01
          1   -1    0    0  501    0  0.00000000000E+00  0.00000000000E+00  0.10512087615E+04  0.10512087615E+04  0.00000000000E+00 0. -1.
         -2   -1    0    0    0  501 -0.00000000000E+00 -0.00000000000E+00 -0.10476881351E+04  0.10476881351E+04  0.00000000000E+00 0.  1.
        -24    2    1    2    0    0  0.74491685648E+03 -0.17648938439E+03 -0.33002350490E+03  0.83761292809E+03  0.81426516817E+02 0.  0.
        254    2    1    2    0    0 -0.74491685648E+03  0.17648938439E+03  0.33354413132E+03  0.12612839685E+04  0.94527029775E+03 0.  0.
         23    2    4    4    0    0 -0.90799300734E+03  0.32929116284E+03  0.21650357069E+03  0.99373951521E+03  0.88093454123E+02 0.  0.
         23    2    4    4    0    0  0.16307615086E+03 -0.15280177844E+03  0.11704056062E+03  0.26754445330E+03  0.89102902235E+02 0.  0.
          1    1    3    3  502    0  0.19686656847E+03 -0.57324983284E+02 -0.12675165325E+03  0.24105721539E+03  0.00000000000E+00 0. -1.
         -2    1    3    3    0  502  0.54805028801E+03 -0.11916440111E+03 -0.20327185165E+03  0.59655571270E+03  0.00000000000E+00 0.  1.
         13    1    5    5    0    0 -0.61177087659E+03  0.25600147275E+03  0.12213771344E+03  0.67432779903E+03  0.00000000000E+00 0. -1.
        -13    1    5    5    0    0 -0.29622213075E+03  0.73289690088E+02  0.94365857249E+02  0.31941171618E+03  0.00000000000E+00 0.  1.
          1    1    6    6  503    0  0.24958857685E+01 -0.40726723119E+02  0.39916299219E+02  0.57080700461E+02  0.00000000000E+00 0. -1.
         -1    1    6    6    0  503  0.16058026509E+03 -0.11207505532E+03  0.77124261405E+02  0.21046375284E+03  0.00000000000E+00 0.  1.
<mgrwt>
<rscale>  0 0.20988939E+04</rscale>
<asrwt>0</asrwt>
<pdfrwt beam="1">  1        1 0.16172442E+00 0.20988939E+04</pdfrwt>
<pdfrwt beam="2">  1       -2 0.16118279E+00 0.20988939E+04</pdfrwt>
<totfact> 0.27493725E+00</totfact>
</mgrwt>
</event>
<event>
12    5  0.5264288E-008  0.1786157E+04  0.7818608E-02  0.8713696E-01
          1   -1    0    0  501    0  0.00000000000E+00  0.00000000000E+00  0.27714065664E+04  0.27714065664E+04  0.00000000000E+00 0. -1.
         -2   -1    0    0    0  501 -0.00000000000E+00 -0.00000000000E+00 -0.28779208532E+03  0.28779208532E+03  0.00000000000E+00 0.  1.
        -24    2    1    2    0    0  0.31883164312E+03  0.81153741224E+02 -0.60613812778E+02  0.34307002744E+03  0.76049083212E+02 0.  0.
        254    2    1    2    0    0 -0.31883164312E+03 -0.81153741224E+02  0.25442282938E+04  0.27161286242E+04  0.89219815399E+03 0.  0.
         23    2    4    4    0    0 -0.22922088974E+03  0.36786665941E+03  0.16327854542E+04  0.16918512953E+04  0.92219144900E+02 0.  0.
         23    2    4    4    0    0 -0.89610753381E+02 -0.44902040063E+03  0.91144283965E+03  0.10242773289E+04  0.93630066316E+02 0.  0.
          3    1    3    3  502    0  0.93677824687E+01 -0.36243379496E+00 -0.17907633300E+02  0.20213115471E+02  0.00000000000E+00 0. -1.
         -4    1    3    3    0  502  0.30946386065E+03  0.81516175019E+02 -0.42706179478E+02  0.32285691197E+03  0.00000000000E+00 0.  1.
         13    1    5    5    0    0 -0.11776569313E+03  0.17059683519E+03  0.60970885644E+03  0.64398519259E+03  0.00000000000E+00 0. -1.
        -13    1    5    5    0    0 -0.11145519661E+03  0.19726982421E+03  0.10230765977E+04  0.10478661027E+04  0.00000000000E+00 0.  1.
          1    1    6    6  503    0 -0.96409707430E+01  0.13079553813E+01  0.14663526116E+02  0.17597672071E+02  0.00000000000E+00 0. -1.
         -1    1    6    6    0  503 -0.79969782638E+02 -0.45032835601E+03  0.89677931353E+03  0.10066796569E+04  0.00000000000E+00 0.  1.
<mgrwt>
<rscale>  0 0.17861566E+04</rscale>
<asrwt>0</asrwt>
<pdfrwt beam="1">  1        1 0.42637022E+00 0.17861566E+04</pdfrwt>
<pdfrwt beam="2">  1       -2 0.44275707E-01 0.17861566E+04</pdfrwt>
<totfact> 0.35135222E+00</totfact>
</mgrwt>
</event>
<event>
12    5  0.5264288E-008  0.1678762E+04  0.7818608E-02  0.8773571E-01
          3   -1    0    0  501    0  0.00000000000E+00  0.00000000000E+00  0.10382985659E+04  0.10382985659E+04  0.00000000000E+00 0. -1.
         -4   -1    0    0    0  501 -0.00000000000E+00 -0.00000000000E+00 -0.67857215920E+03  0.67857215920E+03  0.00000000000E+00 0.  1.
        -24    2    1    2    0    0  0.37366814545E+03  0.44266391795E+03 -0.20070095374E+02  0.58533088576E+03  0.81426100967E+02 0.  0.
        254    2    1    2    0    0 -0.37366814545E+03 -0.44266391795E+03  0.37979650212E+03  0.11315398394E+04  0.89473895517E+03 0.  0.
         23    2    4    4    0    0 -0.60494787436E+03 -0.46349569006E+03  0.42615258421E+03  0.87796732703E+03  0.91817301802E+02 0.  0.
         23    2    4    4    0    0  0.23127972890E+03  0.20831772108E+02 -0.46356082088E+02  0.25357251236E+03  0.90696510102E+02 0.  0.
          3    1    3    3  502    0  0.13616459762E+03  0.19689823782E+03  0.24582975385E+02  0.24065335315E+03  0.00000000000E+00 0. -1.
         -4    1    3    3    0  502  0.23750354783E+03  0.24576568013E+03 -0.44653070759E+02  0.34467753261E+03  0.00000000000E+00 0.  1.
         13    1    5    5    0    0 -0.31952611710E+03 -0.18726270879E+03  0.20076452610E+03  0.42127266295E+03  0.00000000000E+00 0. -1.
        -13    1    5    5    0    0 -0.28542175726E+03 -0.27623298127E+03  0.22538805811E+03  0.45669466408E+03  0.00000000000E+00 0.  1.
          4    1    6    6  503    0  0.22803142030E+03  0.14601896605E+02 -0.23550120265E+02  0.22970884222E+03  0.00000000000E+00 0. -1.
         -4    1    6    6    0  503  0.32483085992E+01  0.62298755026E+01 -0.22805961823E+02  0.23863670133E+02  0.00000000000E+00 0.  1.
<mgrwt>
<rscale>  0 0.16787620E+04</rscale>
<asrwt>0</asrwt>
<pdfrwt beam="1">  1        3 0.15973824E+00 0.16787620E+04</pdfrwt>
<pdfrwt beam="2">  1       -4 0.10439572E+00 0.16787620E+04</pdfrwt>
<totfact> 0.44601397E-01</totfact>
</mgrwt>
</event>
<event>
12    5  0.5264288E-008  0.3549602E+04  0.7818608E-02  0.8102134E-01
         -2   -1    0    0    0  501 -0.00000000000E+00  0.00000000000E+00  0.15324753230E+04  0.15324753230E+04  0.00000000000E+00 0.  1.
          1   -1    0    0  501    0  0.00000000000E+00 -0.00000000000E+00 -0.20554449420E+04  0.20554449420E+04  0.00000000000E+00 0. -1.
        -24    2    1    2    0    0 -0.93803832421E+03  0.13675434811E+04 -0.19301376342E+03  0.16712896275E+04  0.76574380544E+02 0.  0.
        254    2    1    2    0    0  0.93803832421E+03 -0.13675434811E+04 -0.32995585562E+03  0.19166306375E+04  0.90250266687E+03 0.  0.
         23    2    4    4    0    0  0.74310728849E+03 -0.31645607466E+03 -0.18929851006E+03  0.83456471345E+03  0.91167130203E+02 0.  0.
         23    2    4    4    0    0  0.19493103571E+03 -0.10510874064E+04 -0.14065734556E+03  0.10820659241E+04  0.91100661654E+02 0.  0.
          3    1    3    3  502    0 -0.42094857923E+01  0.18057613766E+02 -0.64777187952E+01  0.19640723672E+02  0.00000000000E+00 0. -1.
         -4    1    3    3    0  502 -0.93382883841E+03  0.13494858673E+04 -0.18653604462E+03  0.16516489038E+04  0.00000000000E+00 0.  1.
         13    1    5    5    0    0  0.56875287877E+03 -0.27843514456E+03 -0.16560869120E+03  0.65454732865E+03  0.00000000000E+00 0.  1.
        -13    1    5    5    0    0  0.17435440972E+03 -0.38020930097E+02 -0.23689818862E+02  0.18001738480E+03  0.00000000000E+00 0. -1.
          4    1    6    6  503    0  0.70971197512E+01 -0.23549128799E+03 -0.42214225935E+02  0.23935028034E+03  0.00000000000E+00 0. -1.
         -4    1    6    6    0  503  0.18783391596E+03 -0.81559611844E+03 -0.98443119627E+02  0.84271564374E+03  0.00000000000E+00 0.  1.
<mgrwt>
<rscale>  0 0.35496020E+04</rscale>
<asrwt>0</asrwt>
<pdfrwt beam="1">  1        1 0.31622230E+00 0.35496020E+04</pdfrwt>
<pdfrwt beam="2">  1       -2 0.23576543E+00 0.35496020E+04</pdfrwt>
<totfact> 0.15363347E-01</totfact>
</mgrwt>
</event>
<event>
12    5  0.5264288E-008  0.2916931E+04  0.7818608E-02  0.8267858E-01
         -2   -1    0    0    0  501 -0.00000000000E+00  0.00000000000E+00  0.11147423022E+04  0.11147423022E+04  0.00000000000E+00 0.  1.
          1   -1    0    0  501    0  0.00000000000E+00 -0.00000000000E+00 -0.19081737080E+04  0.19081737080E+04  0.00000000000E+00 0. -1.
        -24    2    1    2    0    0 -0.88143033456E+03  0.60608870382E+03 -0.11418820394E+04  0.15668182016E+04  0.82229759594E+02 0.  0.
        254    2    1    2    0    0  0.88143033456E+03 -0.60608870382E+03  0.34845063362E+03  0.14560978086E+04  0.92441334502E+03 0.  0.
         23    2    4    4    0    0  0.61158111237E+03 -0.63159302021E+03  0.60490982945E+03  0.10710570256E+04  0.91137533944E+02 0.  0.
         23    2    4    4    0    0  0.26984922219E+03  0.25504316384E+02 -0.25645919583E+03  0.38504078299E+03  0.94952685960E+02 0.  0.
          3    1    3    3  502    0 -0.44673970970E+03  0.28505531636E+03 -0.61920473883E+03  0.81501374847E+03  0.00000000000E+00 0. -1.
         -4    1    3    3    0  502 -0.43469062486E+03  0.32103338747E+03 -0.52267730059E+03  0.75180445314E+03  0.00000000000E+00 0.  1.
         13    1    5    5    0    0  0.21056935473E+03 -0.15765607907E+03  0.18172455158E+03  0.31971660118E+03  0.00000000000E+00 0. -1.
        -13    1    5    5    0    0  0.40101175764E+03 -0.47393694113E+03  0.42318527786E+03  0.75134042440E+03  0.00000000000E+00 0.  1.
          3    1    6    6  503    0  0.11710323982E+03  0.22446216454E+02 -0.17540563510E+03  0.21209464452E+03  0.00000000000E+00 0. -1.
         -3    1    6    6    0  503  0.15274598237E+03  0.30580999301E+01 -0.81053560726E+02  0.17294613847E+03  0.00000000000E+00 0.  1.
<mgrwt>
<rscale>  0 0.29169312E+04</rscale>
<asrwt>0</asrwt>
<pdfrwt beam="1">  1        1 0.29356518E+00 0.29169312E+04</pdfrwt>
<pdfrwt beam="2">  1       -2 0.17149882E+00 0.29169312E+04</pdfrwt>
<totfact> 0.53898227E-01</totfact>
</mgrwt>
</event>
<event>
12    5  0.5264288E-008  0.1753866E+04  0.7818608E-02  0.8731225E-01
          1   -1    0    0  501    0  0.00000000000E+00  0.00000000000E+00  0.13336624794E+04  0.13336624794E+04  0.00000000000E+00 0. -1.
         -2   -1    0    0    0  501 -0.00000000000E+00 -0.00000000000E+00 -0.57661616515E+03  0.57661616515E+03  0.00000000000E+00 0.  1.
        -24    2    1    2    0    0  0.29703686681E+03  0.33050550164E+03 -0.22643276884E+03  0.50537782809E+03  0.81671068665E+02 0.  0.
        254    2    1    2    0    0 -0.29703686681E+03 -0.33050550164E+03  0.98347908308E+03  0.14049008164E+04  0.89947229547E+03 0.  0.
         23    2    4    4    0    0 -0.60805588555E+02 -0.46450143578E+03  0.10100095487E+04  0.11171342847E+04  0.91710513220E+02 0.  0.
         23    2    4    4    0    0 -0.23623127826E+03  0.13399593413E+03 -0.26530465621E+02  0.28776653170E+03  0.91354167785E+02 0.  0.
          3    1    3    3  502    0  0.23799722020E+03  0.27751007592E+03 -0.14984223371E+03  0.39510405473E+03  0.00000000000E+00 0. -1.
         -4    1    3    3    0  502  0.59039646610E+02  0.52995425726E+02 -0.76590535128E+02  0.11027377336E+03  0.00000000000E+00 0.  1.
         13    1    5    5    0    0 -0.39989354991E+02 -0.15636140386E+03  0.44276059621E+03  0.47125893380E+03  0.00000000000E+00 0. -1.
        -13    1    5    5    0    0 -0.20816233563E+02 -0.30814003192E+03  0.56724895249E+03  0.64587535094E+03  0.00000000000E+00 0.  1.
          3    1    6    6  503    0 -0.17132846966E+03  0.46493424100E+02 -0.19545287895E+02  0.17859759595E+03  0.00000000000E+00 0. -1.
         -3    1    6    6    0  503 -0.64902808600E+02  0.87502510032E+02 -0.69851777266E+01  0.10916893575E+03  0.00000000000E+00 0.  1.
<mgrwt>
<rscale>  0 0.17538658E+04</rscale>
<asrwt>0</asrwt>
<pdfrwt beam="1">  1        1 0.20517884E+00 0.17538658E+04</pdfrwt>
<pdfrwt beam="2">  1       -2 0.88710180E-01 0.17538658E+04</pdfrwt>
<totfact> 0.77721084E+00</totfact>
</mgrwt>
</event>
<event>
12    5  0.5264288E-008  0.1303286E+04  0.7818608E-02  0.9026963E-01
          1   -1    0    0  501    0  0.00000000000E+00  0.00000000000E+00  0.11558429534E+04  0.11558429534E+04  0.00000000000E+00 0. -1.
         -2   -1    0    0    0  501 -0.00000000000E+00 -0.00000000000E+00 -0.36738448365E+03  0.36738448365E+03  0.00000000000E+00 0.  1.
        -24    2    1    2    0    0 -0.23230534197E+03  0.23422931202E+03  0.23258607816E+03  0.41123569896E+03  0.78672573522E+02 0.  0.
        254    2    1    2    0    0  0.23230534197E+03 -0.23422931202E+03  0.55587239162E+03  0.11119917381E+04  0.90482173236E+03 0.  0.
         23    2    4    4    0    0 -0.71390071979E+02 -0.24745208349E+03 -0.16849586852E+03  0.32128094520E+03  0.92203644366E+02 0.  0.
         23    2    4    4    0    0  0.30369541395E+03  0.13222771469E+02  0.72436826014E+03  0.79071079292E+03  0.90046852237E+02 0.  0.
          3    1    3    3  502    0 -0.19223309172E+03  0.14417360380E+03  0.17249658530E+03  0.29579496535E+03  0.00000000000E+00 0. -1.
         -4    1    3    3    0  502 -0.40072250244E+02  0.90055708225E+02  0.60089492863E+02  0.11544073361E+03  0.00000000000E+00 0.  1.
         13    1    5    5    0    0 -0.81489384031E+02 -0.21169636237E+03 -0.11029531553E+03  0.25223188969E+03  0.00000000000E+00 0.  1.
        -13    1    5    5    0    0  0.10099312052E+02 -0.35755721123E+02 -0.58200552996E+02  0.69049055504E+02  0.00000000000E+00 0. -1.
          4    1    6    6  503    0 -0.18975331617E+01 -0.22348530690E+01  0.50974629650E+02  0.51058868655E+02  0.00000000000E+00 0. -1.
         -4    1    6    6    0  503  0.30559294711E+03  0.15457624538E+02  0.67339363049E+03  0.73965192426E+03  0.00000000000E+00 0.  1.
<mgrwt>
<rscale>  0 0.13032863E+04</rscale>
<asrwt>0</asrwt>
<pdfrwt beam="1">  1        1 0.17782199E+00 0.13032863E+04</pdfrwt>
<pdfrwt beam="2">  1       -2 0.56520690E-01 0.13032863E+04</pdfrwt>
<totfact> 0.29136145E+01</totfact>
</mgrwt>
</event>
<event>
12    5  0.5264288E-008  0.1423084E+04  0.7818608E-02  0.8937277E-01
          1   -1    0    0  501    0  0.00000000000E+00  0.00000000000E+00  0.56174920111E+03  0.56174920111E+03  0.00000000000E+00 0. -1.
         -2   -1    0    0    0  501 -0.00000000000E+00 -0.00000000000E+00 -0.90127709782E+03  0.90127709782E+03  0.00000000000E+00 0.  1.
        -24    2    1    2    0    0 -0.43065163372E+03 -0.14831854856E+03 -0.13972347895E+03  0.48284899579E+03  0.78493825854E+02 0.  0.
        254    2    1    2    0    0  0.43065163372E+03  0.14831854856E+03 -0.19980441776E+03  0.98017730314E+03  0.84461027626E+03 0.  0.
         23    2    4    4    0    0 -0.86397477953E+02  0.30745172192E+03 -0.26889536576E+03  0.42730026071E+03  0.91047842168E+02 0.  0.
         23    2    4    4    0    0  0.51704911167E+03 -0.15913317336E+03  0.69090947999E+02  0.55287704243E+03  0.90754141563E+02 0.  0.
          3    1    3    3  502    0 -0.11858461755E+03 -0.23503275439E+02 -0.57463122639E+01  0.12102782977E+03  0.00000000000E+00 0. -1.
         -4    1    3    3    0  502 -0.31206701617E+03 -0.12481527312E+03 -0.13397716668E+03  0.36182116602E+03  0.00000000000E+00 0.  1.
         13    1    5    5    0    0 -0.57002136356E+02  0.70134624569E+02 -0.50939363321E+02  0.10374453165E+03  0.00000000000E+00 0.  1.
        -13    1    5    5    0    0 -0.29395341597E+02  0.23731709735E+03 -0.21795600244E+03  0.32355572905E+03  0.00000000000E+00 0. -1.
          3    1    6    6  503    0  0.51422963090E+03 -0.14598613744E+03  0.63476536915E+02  0.53830598766E+03  0.00000000000E+00 0. -1.
         -3    1    6    6    0  503  0.28194807761E+01 -0.13147035919E+02  0.56144110838E+01  0.14571054770E+02  0.00000000000E+00 0.  1.
<mgrwt>
<rscale>  0 0.14230835E+04</rscale>
<asrwt>0</asrwt>
<pdfrwt beam="1">  1        1 0.86422955E-01 0.14230835E+04</pdfrwt>
<pdfrwt beam="2">  1       -2 0.13865801E+00 0.14230835E+04</pdfrwt>
<totfact> 0.11797562E+01</totfact>
</mgrwt>
</event>
<event>
12    5  0.5264288E-008  0.1026735E+04  0.7818608E-02  0.9279699E-01
          1   -1    0    0  501    0  0.00000000000E+00  0.00000000000E+00  0.11918831219E+04  0.11918831219E+04  0.00000000000E+00 0. -1.
         -2   -1    0    0    0  501 -0.00000000000E+00 -0.00000000000E+00 -0.22111748229E+03  0.22111748229E+03  0.00000000000E+00 0.  1.
        -24    2    1    2    0    0  0.27524044817E+02  0.35334929391E+02  0.23354583647E+03  0.25050875334E+03  0.78770854332E+02 0.  0.
        254    2    1    2    0    0 -0.27524044817E+02 -0.35334929391E+02  0.73721980310E+03  0.11624918508E+04  0.89771272400E+03 0.  0.
         23    2    4    4    0    0 -0.14677326701E+03  0.34854273714E+03  0.62427753480E+03  0.73516596162E+03  0.87875588974E+02 0.  0.
         23    2    4    4    0    0  0.11924922220E+03 -0.38387766653E+03  0.11294226830E+03  0.42732588919E+03  0.90934150583E+02 0.  0.
          1    1    3    3  502    0  0.51126286257E+02  0.40096474322E+01  0.12619655247E+03  0.13621873687E+03  0.00000000000E+00 0. -1.
         -2    1    3    3    0  502 -0.23602241440E+02  0.31325281958E+02  0.10734928400E+03  0.11429001647E+03  0.00000000000E+00 0.  1.
         13    1    5    5    0    0 -0.24780109658E+02  0.46891108166E+02  0.40130641511E+02  0.66507881096E+02  0.00000000000E+00 0.  1.
        -13    1    5    5    0    0 -0.12199315736E+03  0.30165162898E+03  0.58414689329E+03  0.66865808052E+03  0.00000000000E+00 0. -1.
          4    1    6    6  503    0  0.55867262857E+02 -0.25202320409E+03  0.11105602670E+03  0.28101652535E+03  0.00000000000E+00 0.  1.
         -4    1    6    6    0  503  0.63381959340E+02 -0.13185446245E+03  0.18862415999E+01  0.14630936383E+03  0.00000000000E+00 0. -1.
<mgrwt>
<rscale>  0 0.10267350E+04</rscale>
<asrwt>0</asrwt>
<pdfrwt beam="1">  1        1 0.18336663E+00 0.10267350E+04</pdfrwt>
<pdfrwt beam="2">  1       -2 0.34018075E-01 0.10267350E+04</pdfrwt>
<totfact> 0.76886481E+01</totfact>
</mgrwt>
</event>
<event>
12    5  0.5264288E-008  0.1517603E+04  0.7818608E-02  0.8872831E-01
          1   -1    0    0  501    0  0.00000000000E+00  0.00000000000E+00  0.47657997291E+03  0.47657997291E+03  0.00000000000E+00 0. -1.
         -2   -1    0    0    0  501 -0.00000000000E+00 -0.00000000000E+00 -0.12081484463E+04  0.12081484463E+04  0.00000000000E+00 0.  1.
        -24    2    1    2    0    0 -0.22049801340E+03 -0.60046438539E+02  0.22887178983E+03  0.33298022070E+03  0.79174380351E+02 0.  0.
        254    2    1    2    0    0  0.22049801340E+03  0.60046438539E+02 -0.96044026317E+03  0.13517481985E+04  0.92333782780E+03 0.  0.
         23    2    4    4    0    0 -0.28951462308E+03  0.23379683369E+03 -0.26297662978E+03  0.46562947872E+03  0.95783230369E+02 0.  0.
         23    2    4    4    0    0  0.51001263648E+03 -0.17375039515E+03 -0.69746363339E+03  0.88611871974E+03  0.91917225776E+02 0.  0.
          3    1    3    3  502    0 -0.18297890516E+03 -0.28918960641E+02  0.21166526814E+03  0.28128237014E+03  0.00000000000E+00 0. -1.
         -4    1    3    3    0  502 -0.37519108240E+02 -0.31127477898E+02  0.17206521689E+02  0.51697850555E+02  0.00000000000E+00 0.  1.
         13    1    5    5    0    0 -0.38375243265E+02  0.62494413664E+01 -0.57169885556E+02  0.69138344119E+02  0.00000000000E+00 0. -1.
        -13    1    5    5    0    0 -0.25113937982E+03  0.22754739233E+03 -0.20580674422E+03  0.39649113460E+03  0.00000000000E+00 0.  1.
          2    1    6    6  503    0  0.10431204130E+03 -0.16754820229E+02 -0.88987244833E+02  0.13813202273E+03  0.00000000000E+00 0. -1.
         -2    1    6    6    0  503  0.40570059518E+03 -0.15699557492E+03 -0.60847638855E+03  0.74798669701E+03  0.00000000000E+00 0.  1.
<mgrwt>
<rscale>  0 0.15176025E+04</rscale>
<asrwt>0</asrwt>
<pdfrwt beam="1">  1        1 0.73319997E-01 0.15176025E+04</pdfrwt>
<pdfrwt beam="2">  1       -2 0.18586899E+00 0.15176025E+04</pdfrwt>
<totfact> 0.66043947E+00</totfact>
</mgrwt>
</event>
<event>
12    5  0.5264288E-008  0.1351947E+04  0.7818608E-02  0.8989356E-01
          1   -1    0    0  501    0  0.00000000000E+00  0.00000000000E+00  0.44146903525E+03  0.44146903525E+03  0.00000000000E+00 0. -1.
         -2   -1    0    0    0  501 -0.00000000000E+00 -0.00000000000E+00 -0.10350442445E+04  0.10350442445E+04  0.00000000000E+00 0.  1.
        -24    2    1    2    0    0  0.33883852256E+02  0.36404538576E+03 -0.21391892188E+03  0.43179777081E+03  0.83730827068E+02 0.  0.
        254    2    1    2    0    0 -0.33883852256E+02 -0.36404538576E+03 -0.37965628741E+03  0.10447155090E+04  0.90200578700E+03 0.  0.
         23    2    4    4    0    0  0.91407223446E+02 -0.46054196590E+03  0.13643152465E+03  0.49734100276E+03  0.90996314499E+02 0.  0.
         23    2    4    4    0    0 -0.12529107570E+03  0.96496580147E+02 -0.51608781206E+03  0.54737450621E+03  0.90899816621E+02 0.  0.
          3    1    3    3  502    0 -0.79061478493E+01  0.73498508670E+02 -0.10496665976E+02  0.74664033826E+02  0.00000000000E+00 0. -1.
         -4    1    3    3    0  502  0.41790000105E+02  0.29054687709E+03 -0.20342225590E+03  0.35713373698E+03  0.00000000000E+00 0.  1.
         13    1    5    5    0    0 -0.87883402435E+01 -0.12642388829E+03  0.13285488516E+02  0.12742346197E+03  0.00000000000E+00 0.  1.
        -13    1    5    5    0    0  0.10019556369E+03 -0.33411807762E+03  0.12314603614E+03  0.36991754080E+03  0.00000000000E+00 0. -1.
          3    1    6    6  503    0 -0.11822677072E+03  0.89831758233E+02 -0.33987142143E+03  0.37089068094E+03  0.00000000000E+00 0. -1.
         -3    1    6    6    0  503 -0.70643049809E+01  0.66648219138E+01 -0.17621639063E+03  0.17648382527E+03  0.00000000000E+00 0.  1.
<mgrwt>
<rscale>  0 0.13519467E+04</rscale>
<asrwt>0</asrwt>
<pdfrwt beam="1">  1        1 0.67918313E-01 0.13519467E+04</pdfrwt>
<pdfrwt beam="2">  1       -2 0.15923758E+00 0.13519467E+04</pdfrwt>
<totfact> 0.11460134E+01</totfact>
</mgrwt>
</event>
<event>
12    5  0.5264288E-008  0.1781742E+04  0.7818608E-02  0.8716069E-01
          1   -1    0    0  501    0  0.00000000000E+00  0.00000000000E+00  0.97685799708E+03  0.97685799708E+03  0.00000000000E+00 0. -1.
         -2   -1    0    0    0  501 -0.00000000000E+00 -0.00000000000E+00 -0.81245320221E+03  0.81245320221E+03  0.00000000000E+00 0.  1.
        -24    2    1    2    0    0 -0.33095223388E+02 -0.25224853254E+03  0.67277210596E+03  0.72454350460E+03  0.87271802525E+02 0.  0.
        254    2    1    2    0    0  0.33095223388E+02  0.25224853254E+03 -0.50836731109E+03  0.10647676947E+04  0.90031566947E+03 0.  0.
         23    2    4    4    0    0  0.22277978023E+03  0.45559457495E+03 -0.45624121510E+02  0.51720321995E+03  0.90666217877E+02 0.  0.
         23    2    4    4    0    0 -0.18968455684E+03 -0.20334604240E+03 -0.46274318958E+03  0.54756447474E+03  0.91464476317E+02 0.  0.
          1    1    3    3  502    0 -0.61512125983E+02 -0.17099495009E+03  0.42406160508E+03  0.46135805997E+03  0.00000000000E+00 0. -1.
         -2    1    3    3    0  502  0.28416902594E+02 -0.81253582459E+02  0.24871050088E+03  0.26318544463E+03  0.00000000000E+00 0.  1.
         13    1    5    5    0    0  0.18355304275E+02  0.47320285485E+02  0.22566574116E+02  0.55546168912E+02  0.00000000000E+00 0.  1.
        -13    1    5    5    0    0  0.20442447596E+03  0.40827428946E+03 -0.68190695626E+02  0.46165705104E+03  0.00000000000E+00 0. -1.
          3    1    6    6  503    0 -0.16520747549E+03 -0.19612706765E+03 -0.45240910133E+03  0.52003204862E+03  0.00000000000E+00 0. -1.
         -3    1    6    6    0  503 -0.24477081355E+02 -0.72189747503E+01 -0.10334088248E+02  0.27532426120E+02  0.00000000000E+00 0.  1.
<mgrwt>
<rscale>  0 0.17817423E+04</rscale>
<asrwt>0</asrwt>
<pdfrwt beam="1">  1        1 0.15028585E+00 0.17817423E+04</pdfrwt>
<pdfrwt beam="2">  1       -2 0.12499280E+00 0.17817423E+04</pdfrwt>
<totfact> 0.62680817E+00</totfact>
</mgrwt>
</event>
<event>
12    5  0.5264288E-008  0.1186350E+04  0.7818608E-02  0.9124889E-01
         -2   -1    0    0    0  501 -0.00000000000E+00  0.00000000000E+00  0.72007692052E+02  0.72007692052E+02  0.00000000000E+00 0.  1.
          1   -1    0    0  501    0  0.00000000000E+00 -0.00000000000E+00 -0.48863780742E+04  0.48863780742E+04  0.00000000000E+00 0. -1.
        -24    2    1    2    0    0  0.77768344038E+02 -0.44979914075E+02 -0.20312745271E+04  0.20347300953E+04  0.77325599696E+02 0.  0.
        254    2    1    2    0    0 -0.77768344038E+02  0.44979914075E+02 -0.27830958551E+04  0.29236556709E+04  0.89110540104E+03 0.  0.
         23    2    4    4    0    0 -0.27522330245E+03  0.13564109869E+03 -0.33203443402E+03  0.46124855460E+03  0.91416573369E+02 0.  0.
         23    2    4    4    0    0  0.19745495841E+03 -0.90661184612E+02 -0.24510614211E+04  0.24624071163E+04  0.92405659305E+02 0.  0.
          3    1    3    3  502    0  0.74602931983E+02 -0.62105072807E+02 -0.18700614633E+04  0.18725791076E+04  0.00000000000E+00 0. -1.
         -4    1    3    3    0  502  0.31654120556E+01  0.17125158731E+02 -0.16121306382E+03  0.16215098779E+03  0.00000000000E+00 0.  1.
         13    1    5    5    0    0 -0.38290242367E+02 -0.11995818807E+02 -0.53701246458E+02  0.67036305093E+02  0.00000000000E+00 0.  1.
        -13    1    5    5    0    0 -0.23693306008E+03  0.14763691749E+03 -0.27833318756E+03  0.39421224951E+03  0.00000000000E+00 0. -1.
          2    1    6    6  503    0  0.17715014832E+03 -0.10955690661E+03 -0.21830589659E+04  0.21929731734E+04  0.00000000000E+00 0. -1.
         -2    1    6    6    0  503  0.20304810089E+02  0.18895721995E+02 -0.26800245519E+03  0.26943394294E+03  0.00000000000E+00 0.  1.
<mgrwt>
<rscale>  0 0.11863504E+04</rscale>
<asrwt>0</asrwt>
<pdfrwt beam="1">  1        1 0.75175095E+00 0.11863504E+04</pdfrwt>
<pdfrwt beam="2">  1       -2 0.11078099E-01 0.11863504E+04</pdfrwt>
<totfact> 0.64774592E-01</totfact>
</mgrwt>
</event>
<event>
12    5  0.5264288E-008  0.1379705E+04  0.7818608E-02  0.8968641E-01
          1   -1    0    0  501    0  0.00000000000E+00  0.00000000000E+00  0.18323507590E+04  0.18323507590E+04  0.00000000000E+00 0. -1.
         -2   -1    0    0    0  501 -0.00000000000E+00 -0.00000000000E+00 -0.25971915249E+03  0.25971915249E+03  0.00000000000E+00 0.  1.
        -24    2    1    2    0    0  0.92591371872E+02  0.31223327997E+03  0.78120587895E+03  0.85009822535E+03  0.79508390563E+02 0.  0.
        254    2    1    2    0    0 -0.92591371872E+02 -0.31223327997E+03  0.79142572757E+03  0.12419716861E+04  0.90004233438E+03 0.  0.
         23    2    4    4    0    0 -0.25554323584E+03  0.24590102516E+03  0.35087765902E+03  0.50634722414E+03  0.86618244239E+02 0.  0.
         23    2    4    4    0    0  0.16295186396E+03 -0.55813430513E+03  0.44054806854E+03  0.73562446201E+03  0.94834254786E+02 0.  0.
          3    1    3    3  502    0  0.75465734163E+02  0.26129920353E+03  0.71402103067E+03  0.76406700167E+03  0.00000000000E+00 0. -1.
         -4    1    3    3    0  502  0.17125637709E+02  0.50934076441E+02  0.67184848281E+02  0.86031223682E+02  0.00000000000E+00 0.  1.
         13    1    5    5    0    0 -0.24493816497E+03  0.20578995178E+03  0.28476022101E+03  0.42829031320E+03  0.00000000000E+00 0. -1.
        -13    1    5    5    0    0 -0.10605070866E+02  0.40111073385E+02  0.66117438008E+02  0.78056910936E+02  0.00000000000E+00 0.  1.
          2    1    6    6  503    0  0.15613459471E+03 -0.40971874881E+03  0.30135707888E+03  0.53203717331E+03  0.00000000000E+00 0. -1.
         -2    1    6    6    0  503  0.68172692516E+01 -0.14841555632E+03  0.13919098966E+03  0.20358728870E+03  0.00000000000E+00 0.  1.
<mgrwt>
<rscale>  0 0.13797052E+04</rscale>
<asrwt>0</asrwt>
<pdfrwt beam="1">  1        1 0.28190011E+00 0.13797052E+04</pdfrwt>
<pdfrwt beam="2">  1       -2 0.39956794E-01 0.13797052E+04</pdfrwt>
<totfact> 0.19685542E+01</totfact>
</mgrwt>
</event>
<event>
12    5  0.5264288E-008  0.1586386E+04  0.7818608E-02  0.8828956E-01
          1   -1    0    0  501    0  0.00000000000E+00  0.00000000000E+00  0.22537599936E+04  0.22537599936E+04  0.00000000000E+00 0. -1.
         -2   -1    0    0    0  501 -0.00000000000E+00 -0.00000000000E+00 -0.27915783146E+03  0.27915783146E+03  0.00000000000E+00 0.  1.
        -24    2    1    2    0    0 -0.25513101746E+03  0.38842345214E+03  0.24552582208E+03  0.53190108393E+03  0.81677533910E+02 0.  0.
        254    2    1    2    0    0  0.25513101746E+03 -0.38842345214E+03  0.17290763401E+04  0.20010167412E+04  0.89353141763E+03 0.  0.
         23    2    4    4    0    0  0.41242356757E+03 -0.42931494855E+02  0.30068444692E+03  0.52002956584E+03  0.89907176507E+02 0.  0.
         23    2    4    4    0    0 -0.15729255012E+03 -0.34549195728E+03  0.14283918932E+04  0.14809871753E+04  0.94413844926E+02 0.  0.
          1    1    3    3  502    0 -0.12787814200E+03  0.15069730458E+03  0.14065715255E+03  0.24258386462E+03  0.00000000000E+00 0. -1.
         -2    1    3    3    0  502 -0.12725287545E+03  0.23772614756E+03  0.10486866952E+03  0.28931721931E+03  0.00000000000E+00 0.  1.
         13    1    5    5    0    0  0.38317045117E+03 -0.35943677713E+02  0.30306829747E+03  0.48985909764E+03  0.00000000000E+00 0.  1.
        -13    1    5    5    0    0  0.29253116408E+02 -0.69878171417E+01 -0.23838505422E+01  0.30170468200E+02  0.00000000000E+00 0. -1.
          1    1    6    6  503    0 -0.29422566592E+01 -0.82902634577E+02  0.23037159630E+03  0.24485215146E+03  0.00000000000E+00 0. -1.
         -1    1    6    6    0  503 -0.15435029346E+03 -0.26258932271E+03  0.11980202969E+04  0.12361350239E+04  0.00000000000E+00 0.  1.
<mgrwt>
<rscale>  0 0.15863855E+04</rscale>
<asrwt>0</asrwt>
<pdfrwt beam="1">  1        1 0.34673229E+00 0.15863855E+04</pdfrwt>
<pdfrwt beam="2">  1       -2 0.42947360E-01 0.15863855E+04</pdfrwt>
<totfact> 0.86890004E+00</totfact>
</mgrwt>
</event>
<event>
12    5  0.5264288E-008  0.2311929E+04  0.7818608E-02  0.8473233E-01
          1   -1    0    0  501    0  0.00000000000E+00  0.00000000000E+00  0.27257885660E+04  0.27257885660E+04  0.00000000000E+00 0. -1.
         -2   -1    0    0    0  501 -0.00000000000E+00 -0.00000000000E+00 -0.49022640309E+03  0.49022640309E+03  0.00000000000E+00 0.  1.
        -24    2    1    2    0    0  0.31982595406E+03  0.66299992988E+03  0.16302575740E+04  0.17905140216E+04  0.79643934546E+02 0.  0.
        254    2    1    2    0    0 -0.31982595406E+03 -0.66299992988E+03  0.60530458896E+03  0.14255009475E+04  0.10600951645E+04 0.  0.
         23    2    4    4    0    0 -0.53094282399E+03 -0.35445429828E+03 -0.69427639710E+02  0.64865029078E+03  0.91590778227E+02 0.  0.
         23    2    4    4    0    0  0.21111686993E+03 -0.30854563160E+03  0.67473222867E+03  0.77685065668E+03  0.91992515096E+02 0.  0.
          1    1    3    3  502    0  0.16364731289E+03  0.29029344038E+03  0.81832844692E+03  0.88357918240E+03  0.00000000000E+00 0. -1.
         -2    1    3    3    0  502  0.15617864117E+03  0.37270648950E+03  0.81192912706E+03  0.90693483925E+03  0.00000000000E+00 0.  1.
         13    1    5    5    0    0 -0.34010570071E+01  0.53310483679E+01  0.11690795173E+00  0.63246290749E+01  0.00000000000E+00 0.  1.
        -13    1    5    5    0    0 -0.52754176699E+03 -0.35978534665E+03 -0.69544547662E+02  0.64232566171E+03  0.00000000000E+00 0. -1.
          1    1    6    6  503    0  0.21607063731E+03 -0.26931000011E+03  0.61253195712E+03  0.70314279841E+03  0.00000000000E+00 0. -1.
         -1    1    6    6    0  503 -0.49537673848E+01 -0.39235631484E+02  0.62200271556E+02  0.73707858271E+02  0.00000000000E+00 0.  1.
<mgrwt>
<rscale>  0 0.23119287E+04</rscale>
<asrwt>0</asrwt>
<pdfrwt beam="1">  1        1 0.41935208E+00 0.23119287E+04</pdfrwt>
<pdfrwt beam="2">  1       -2 0.75419448E-01 0.23119287E+04</pdfrwt>
<totfact> 0.11780187E+00</totfact>
</mgrwt>
</event>
<event>
12    5  0.5264288E-008  0.2813109E+04  0.7818608E-02  0.8299210E-01
          1   -1    0    0  501    0  0.00000000000E+00  0.00000000000E+00  0.12503681568E+04  0.12503681568E+04  0.00000000000E+00 0. -1.
         -2   -1    0    0    0  501 -0.00000000000E+00 -0.00000000000E+00 -0.15822505416E+04  0.15822505416E+04  0.00000000000E+00 0.  1.
        -24    2    1    2    0    0  0.38366954247E+03  0.11013648616E+04  0.33827828898E+03  0.12168417863E+04  0.77877185407E+02 0.  0.
        254    2    1    2    0    0 -0.38366954247E+03 -0.11013648616E+04 -0.67016067373E+03  0.16157769120E+04  0.89521663562E+03 0.  0.
         23    2    4    4    0    0 -0.17190628646E+03 -0.11655272111E+04 -0.70087703623E+03  0.13738944071E+04  0.91388023221E+02 0.  0.
         23    2    4    4    0    0 -0.21176325601E+03  0.64162349534E+02  0.30716362495E+02  0.24188250492E+03  0.92753261776E+02 0.  0.
          3    1    3    3  502    0  0.94537754020E+02  0.28379803163E+03  0.12229102761E+03  0.32316219631E+03  0.00000000000E+00 0. -1.
         -4    1    3    3    0  502  0.28913178845E+03  0.81756682996E+03  0.21598726137E+03  0.89367959002E+03  0.00000000000E+00 0.  1.
         13    1    5    5    0    0 -0.13085976271E+03 -0.81655705394E+03 -0.53821721671E+03  0.98669522761E+03  0.00000000000E+00 0.  1.
        -13    1    5    5    0    0 -0.41046523751E+02 -0.34897015719E+03 -0.16265981951E+03  0.38719917950E+03  0.00000000000E+00 0. -1.
          2    1    6    6  503    0 -0.74450707302E+02  0.56394894265E+02  0.44882066015E+02  0.10362283420E+03  0.00000000000E+00 0. -1.
         -2    1    6    6    0  503 -0.13731254871E+03  0.77674552693E+01 -0.14165703520E+02  0.13825967073E+03  0.00000000000E+00 0.  1.
<mgrwt>
<rscale>  0 0.28131091E+04</rscale>
<asrwt>0</asrwt>
<pdfrwt beam="1">  1        1 0.19236433E+00 0.28131091E+04</pdfrwt>
<pdfrwt beam="2">  1       -2 0.24342316E+00 0.28131091E+04</pdfrwt>
<totfact> 0.52589697E-01</totfact>
</mgrwt>
</event>
<event>
12    5  0.5264288E-008  0.2615460E+04  0.7818608E-02  0.8362969E-01
          1   -1    0    0  501    0  0.00000000000E+00  0.00000000000E+00  0.28341689407E+04  0.28341689407E+04  0.00000000000E+00 0. -1.
         -2   -1    0    0    0  501 -0.00000000000E+00 -0.00000000000E+00 -0.60340726334E+03  0.60340726334E+03  0.00000000000E+00 0.  1.
        -24    2    1    2    0    0  0.10592874339E+04 -0.41200028976E+03  0.80471699166E+03  0.13949617154E+04  0.80713347000E+02 0.  0.
        254    2    1    2    0    0 -0.10592874339E+04  0.41200028976E+03  0.14260446857E+04  0.20426144887E+04  0.92023714198E+03 0.  0.
         23    2    4    4    0    0 -0.10863122579E+04  0.55782512637E+03  0.99753145822E+03  0.15794972157E+04  0.92191383154E+02 0.  0.
         23    2    4    4    0    0  0.27024823992E+02 -0.14582483661E+03  0.42851322751E+03  0.46311727299E+03  0.94121189480E+02 0.  0.
          3    1    3    3  502    0  0.93092935872E+03 -0.36273903988E+03  0.67352440481E+03  0.12049249793E+04  0.00000000000E+00 0. -1.
         -4    1    3    3    0  502  0.12835807514E+03 -0.49261249885E+02  0.13119258686E+03  0.19003673603E+03  0.00000000000E+00 0.  1.
         13    1    5    5    0    0 -0.28597390018E+03  0.16311675484E+03  0.31935515696E+03  0.45866748693E+03  0.00000000000E+00 0.  1.
        -13    1    5    5    0    0 -0.80033835767E+03  0.39470837153E+03  0.67817630126E+03  0.11208297288E+04  0.00000000000E+00 0. -1.
          1    1    6    6  503    0  0.20306821468E+02 -0.89581676282E+02  0.37173877242E+03  0.38291899750E+03  0.00000000000E+00 0. -1.
         -1    1    6    6    0  503  0.67180025240E+01 -0.56243160330E+02  0.56774455088E+02  0.80198275495E+02  0.00000000000E+00 0.  1.
<mgrwt>
<rscale>  0 0.26154603E+04</rscale>
<asrwt>0</asrwt>
<pdfrwt beam="1">  1        1 0.43602598E+00 0.26154603E+04</pdfrwt>
<pdfrwt beam="2">  1       -2 0.92831888E-01 0.26154603E+04</pdfrwt>
<totfact> 0.59920200E-01</totfact>
</mgrwt>
</event>
<event>
12    5  0.5264288E-008  0.1515982E+04  0.7818608E-02  0.8873894E-01
          1   -1    0    0  501    0  0.00000000000E+00  0.00000000000E+00  0.13850534756E+04  0.13850534756E+04  0.00000000000E+00 0. -1.
         -2   -1    0    0    0  501 -0.00000000000E+00 -0.00000000000E+00 -0.41482168608E+03  0.41482168608E+03  0.00000000000E+00 0.  1.
        -24    2    1    2    0    0  0.32242867632E+03  0.22564228029E+03  0.69053604719E+03  0.79860022313E+03  0.77766277748E+02 0.  0.
        254    2    1    2    0    0 -0.32242867632E+03 -0.22564228029E+03  0.27969574233E+03  0.10012749385E+04  0.87718134061E+03 0.  0.
         23    2    4    4    0    0  0.27612215306E+03 -0.80480446112E+02 -0.34467199556E+02  0.30381270085E+03  0.91616721945E+02 0.  0.
         23    2    4    4    0    0 -0.59855082938E+03 -0.14516183417E+03  0.31416294189E+03  0.69746223769E+03  0.91761459759E+02 0.  0.
          3    1    3    3  502    0  0.29988768717E+03  0.21052281856E+03  0.67302485347E+03  0.76629950766E+03  0.00000000000E+00 0. -1.
         -4    1    3    3    0  502  0.22540989146E+02  0.15119461724E+02  0.17511193718E+02  0.32300715471E+02  0.00000000000E+00 0.  1.
         13    1    5    5    0    0  0.19843139603E+03 -0.30592550905E+02 -0.57124654821E+02  0.20874421977E+03  0.00000000000E+00 0.  1.
        -13    1    5    5    0    0  0.77690757031E+02 -0.49887895207E+02  0.22657455265E+02  0.95068481082E+02  0.00000000000E+00 0. -1.
          1    1    6    6  503    0 -0.20866313078E+03 -0.65486832299E+02  0.65838311713E+02  0.22839332443E+03  0.00000000000E+00 0. -1.
         -1    1    6    6    0  503 -0.38988769859E+03 -0.79675001874E+02  0.24832463017E+03  0.46906891326E+03  0.00000000000E+00 0.  1.
<mgrwt>
<rscale>  0 0.15159818E+04</rscale>
<asrwt>0</asrwt>
<pdfrwt beam="1">  1        1 0.21308515E+00 0.15159818E+04</pdfrwt>
<pdfrwt beam="2">  1       -2 0.63818722E-01 0.15159818E+04</pdfrwt>
<totfact> 0.15150053E+01</totfact>
</mgrwt>
</event>
<event>
12    5  0.5264288E-008  0.1229726E+04  0.7818608E-02  0.9087228E-01
          1   -1    0    0  501    0  0.00000000000E+00  0.00000000000E+00  0.86730705787E+03  0.86730705787E+03  0.00000000000E+00 0. -1.
         -2   -1    0    0    0  501 -0.00000000000E+00 -0.00000000000E+00 -0.43589714065E+03  0.43589714065E+03  0.00000000000E+00 0.  1.
        -24    2    1    2    0    0 -0.12807394858E+03  0.15050507903E+03  0.30344611585E+03  0.37090460436E+03  0.80224467521E+02 0.  0.
        254    2    1    2    0    0  0.12807394858E+03 -0.15050507903E+03  0.12796380136E+03  0.93229959416E+03  0.90208263684E+03 0.  0.
         23    2    4    4    0    0 -0.26123407053E+03  0.24031597766E+02 -0.23584727071E+03  0.36420199748E+03  0.90545030612E+02 0.  0.
         23    2    4    4    0    0  0.38930801911E+03 -0.17453667679E+03  0.36381107207E+03  0.56809759668E+03  0.91392548398E+02 0.  0.
          3    1    3    3  502    0 -0.13735766794E+03  0.13239260188E+03  0.28754954809E+03  0.34507922653E+03  0.00000000000E+00 0. -1.
         -4    1    3    3    0  502  0.92837193547E+01  0.18112477144E+02  0.15896567759E+02  0.25825377826E+02  0.00000000000E+00 0.  1.
         13    1    5    5    0    0 -0.66685146729E+01 -0.11228756819E+02 -0.37069682341E+02  0.39302867790E+02  0.00000000000E+00 0.  1.
        -13    1    5    5    0    0 -0.25456555585E+03  0.35260354585E+02 -0.19877758837E+03  0.32489912969E+03  0.00000000000E+00 0. -1.
          4    1    6    6  503    0  0.36028134477E+03 -0.18491690522E+03  0.33050145552E+03  0.52271227394E+03  0.00000000000E+00 0. -1.
         -4    1    6    6    0  503  0.29026674339E+02  0.10380228428E+02  0.33309616552E+02  0.45385322740E+02  0.00000000000E+00 0.  1.
<mgrwt>
<rscale>  0 0.12297263E+04</rscale>
<asrwt>0</asrwt>
<pdfrwt beam="1">  1        1 0.13343185E+00 0.12297263E+04</pdfrwt>
<pdfrwt beam="2">  1       -2 0.67061099E-01 0.12297263E+04</pdfrwt>
<totfact> 0.34215278E+01</totfact>
</mgrwt>
</event>
<event>
12    5  0.5264288E-008  0.2796615E+04  0.7818608E-02  0.8304320E-01
         -2   -1    0    0    0  501 -0.00000000000E+00  0.00000000000E+00  0.78272692695E+03  0.78272692695E+03  0.00000000000E+00 0.  1.
          1   -1    0    0  501    0  0.00000000000E+00 -0.00000000000E+00 -0.24980158097E+04  0.24980158097E+04  0.00000000000E+00 0. -1.
        -24    2    1    2    0    0  0.31203867521E+03  0.30437658693E+03  0.60828864037E+03  0.75219832777E+03  0.75986925155E+02 0.  0.
        254    2    1    2    0    0 -0.31203867521E+03 -0.30437658693E+03 -0.23235775231E+04  0.25285444089E+04  0.89694541655E+03 0.  0.
         23    2    4    4    0    0 -0.12349212062E+03 -0.46486784265E+03 -0.55343614169E+03  0.73907176710E+03  0.92645016151E+02 0.  0.
         23    2    4    4    0    0 -0.18854655459E+03  0.16049125572E+03 -0.17701413814E+04  0.17894726418E+04  0.86628973397E+02 0.  0.
          1    1    3    3  502    0  0.10116567073E+03  0.11050765614E+03  0.15183311422E+03  0.21330665619E+03  0.00000000000E+00 0. -1.
         -2    1    3    3    0  502  0.21087300448E+03  0.19386893079E+03  0.45645552616E+03  0.53889167158E+03  0.00000000000E+00 0.  1.
         13    1    5    5    0    0 -0.62480219086E+02 -0.37802101178E+03 -0.44742886013E+03  0.58906387430E+03  0.00000000000E+00 0. -1.
        -13    1    5    5    0    0 -0.61011901534E+02 -0.86846830867E+02 -0.10600728156E+03  0.15000789281E+03  0.00000000000E+00 0.  1.
          3    1    6    6  503    0 -0.17714806486E+03  0.13416849021E+03 -0.16858730146E+04  0.17004559512E+04  0.00000000000E+00 0. -1.
         -3    1    6    6    0  503 -0.11398489730E+02  0.26322765511E+02 -0.84268366796E+02  0.89016690540E+02  0.00000000000E+00 0.  1.
<mgrwt>
<rscale>  0 0.27966153E+04</rscale>
<asrwt>0</asrwt>
<pdfrwt beam="1">  1        1 0.38431012E+00 0.27966153E+04</pdfrwt>
<pdfrwt beam="2">  1       -2 0.12041953E+00 0.27966153E+04</pdfrwt>
<totfact> 0.54472029E-01</totfact>
</mgrwt>
</event>
<event>
12    5  0.5264288E-008  0.1396458E+04  0.7818608E-02  0.8956386E-01
          1   -1    0    0  501    0  0.00000000000E+00  0.00000000000E+00  0.33303131320E+04  0.33303131320E+04  0.00000000000E+00 0. -1.
         -2   -1    0    0    0  501 -0.00000000000E+00 -0.00000000000E+00 -0.14638981427E+03  0.14638981427E+03  0.00000000000E+00 0.  1.
        -24    2    1    2    0    0  0.10495801934E+03 -0.34922176759E+03  0.13779258666E+04  0.14274048547E+04  0.76373403253E+02 0.  0.
        254    2    1    2    0    0 -0.10495801934E+03  0.34922176759E+03  0.18059974512E+04  0.20492980916E+04  0.89723121081E+03 0.  0.
         23    2    4    4    0    0  0.79906293573E+01  0.51651617922E+03  0.17403500552E+04  0.18176173876E+04  0.89787748064E+02 0.  0.
         23    2    4    4    0    0 -0.11294864870E+03 -0.16729441163E+03  0.65647395997E+02  0.23168070393E+03  0.92852305115E+02 0.  0.
          1    1    3    3  502    0  0.51159229153E+01 -0.77429377171E+02  0.40243302392E+03  0.40984609289E+03  0.00000000000E+00 0. -1.
         -2    1    3    3    0  502  0.99842096428E+02 -0.27179239042E+03  0.97549284267E+03  0.10175587618E+04  0.00000000000E+00 0.  1.
         13    1    5    5    0    0  0.21405240509E+02  0.49863071447E+03  0.16965993131E+04  0.17684852284E+04  0.00000000000E+00 0.  1.
        -13    1    5    5    0    0 -0.13414611152E+02  0.17885464750E+02  0.43750742084E+02  0.49132159271E+02  0.00000000000E+00 0. -1.
          3    1    6    6  503    0  0.12997695602E+02 -0.21048975520E+02  0.23516950613E+02  0.34132776440E+02  0.00000000000E+00 0. -1.
         -3    1    6    6    0  503 -0.12594634430E+03 -0.14624543611E+03  0.42130445385E+02  0.19754792749E+03  0.00000000000E+00 0.  1.
<mgrwt>
<rscale>  0 0.13964583E+04</rscale>
<asrwt>0</asrwt>
<pdfrwt beam="1">  1        1 0.51235581E+00 0.13964583E+04</pdfrwt>
<pdfrwt beam="2">  1       -2 0.22521512E-01 0.13964583E+04</pdfrwt>
<totfact> 0.50821116E+00</totfact>
</mgrwt>
</event>
<event>
12    5  0.5264288E-008  0.1713855E+04  0.7818608E-02  0.8753502E-01
          1   -1    0    0  501    0  0.00000000000E+00  0.00000000000E+00  0.25611716394E+04  0.25611716394E+04  0.00000000000E+00 0. -1.
         -2   -1    0    0    0  501 -0.00000000000E+00 -0.00000000000E+00 -0.28671441059E+03  0.28671441059E+03  0.00000000000E+00 0.  1.
        -24    2    1    2    0    0 -0.16467206948E+03 -0.15794409403E+02  0.18964559200E+04  0.19054982735E+04  0.83739237267E+02 0.  0.
        254    2    1    2    0    0  0.16467206948E+03  0.15794409403E+02  0.37800130881E+03  0.94238777652E+03  0.84725638271E+03 0.  0.
         23    2    4    4    0    0 -0.33677650644E+03  0.36420921428E+02  0.13054558597E+03  0.37520652056E+03  0.94830819061E+02 0.  0.
         23    2    4    4    0    0  0.50144857592E+03 -0.20626512025E+02  0.24745572284E+03  0.56718125596E+03  0.92650499500E+02 0.  0.
          3    1    3    3  502    0 -0.51350338973E+02  0.13529264409E+02  0.10033423945E+04  0.10047466640E+04  0.00000000000E+00 0. -1.
         -4    1    3    3    0  502 -0.11332173051E+03 -0.29323673812E+02  0.89311352553E+03  0.90075160945E+03  0.00000000000E+00 0.  1.
         13    1    5    5    0    0 -0.17722135081E+03  0.51888475624E+02  0.10632460158E+03  0.21308388486E+03  0.00000000000E+00 0. -1.
        -13    1    5    5    0    0 -0.15955515563E+03 -0.15467554196E+02  0.24220984394E+02  0.16212263570E+03  0.00000000000E+00 0.  1.
          2    1    6    6  503    0  0.40276364494E+03 -0.45209525348E+02  0.22295698519E+03  0.46257136975E+03  0.00000000000E+00 0. -1.
         -2    1    6    6    0  503  0.98684930987E+02  0.24583013324E+02  0.24498737648E+02  0.10460988622E+03  0.00000000000E+00 0.  1.
<mgrwt>
<rscale>  0 0.17138551E+04</rscale>
<asrwt>0</asrwt>
<pdfrwt beam="1">  1        1 0.39402639E+00 0.17138551E+04</pdfrwt>
<pdfrwt beam="2">  1       -2 0.44109911E-01 0.17138551E+04</pdfrwt>
<totfact> 0.50056504E+00</totfact>
</mgrwt>
</event>
<event>
12    5  0.5264288E-008  0.1121396E+04  0.7818608E-02  0.9184585E-01
          1   -1    0    0  501    0  0.00000000000E+00  0.00000000000E+00  0.53608794586E+03  0.53608794586E+03  0.00000000000E+00 0. -1.
         -2   -1    0    0    0  501 -0.00000000000E+00 -0.00000000000E+00 -0.58643816846E+03  0.58643816846E+03  0.00000000000E+00 0.  1.
        -24    2    1    2    0    0  0.18102398281E+03  0.54555874141E+02  0.17436026743E+02  0.20537492963E+03  0.78286786470E+02 0.  0.
        254    2    1    2    0    0 -0.18102398281E+03 -0.54555874141E+02 -0.67786249342E+02  0.91715118469E+03  0.89488842557E+03 0.  0.
         23    2    4    4    0    0  0.28829906342E+03 -0.78998386633E+01 -0.25977547982E+03  0.39945838654E+03  0.94366017365E+02 0.  0.
         23    2    4    4    0    0 -0.46932304623E+03 -0.46656035478E+02  0.19198923048E+03  0.51769279816E+03  0.93300917830E+02 0.  0.
          1    1    3    3  502    0  0.50073954373E+02  0.50688701363E+02  0.21121545328E+02  0.74315980983E+02  0.00000000000E+00 0. -1.
         -2    1    3    3    0  502  0.13095002844E+03  0.38671727785E+01 -0.36855185858E+01  0.13105894865E+03  0.00000000000E+00 0.  1.
         13    1    5    5    0    0 -0.13398431687E+01  0.11773132853E+02 -0.18541728668E+02  0.22004489062E+02  0.00000000000E+00 0. -1.
        -13    1    5    5    0    0  0.28963890659E+03 -0.19672971517E+02 -0.24123375116E+03  0.37745389747E+03  0.00000000000E+00 0.  1.
          3    1    6    6  503    0 -0.78211828534E+02 -0.40287029647E+02  0.19109738841E+02  0.90029534037E+02  0.00000000000E+00 0. -1.
         -3    1    6    6    0  503 -0.39111121770E+03 -0.63690058313E+01  0.17287949164E+03  0.42766326412E+03  0.00000000000E+00 0.  1.
<mgrwt>
<rscale>  0 0.11213963E+04</rscale>
<asrwt>0</asrwt>
<pdfrwt beam="1">  1        1 0.82475068E-01 0.11213963E+04</pdfrwt>
<pdfrwt beam="2">  1       -2 0.90221257E-01 0.11213963E+04</pdfrwt>
<totfact> 0.36800607E+01</totfact>
</mgrwt>
</event>
<event>
12    5  0.5264288E-008  0.1378207E+04  0.7818608E-02  0.8969746E-01
          1   -1    0    0  501    0  0.00000000000E+00  0.00000000000E+00  0.18191344114E+04  0.18191344114E+04  0.00000000000E+00 0. -1.
         -2   -1    0    0    0  501 -0.00000000000E+00 -0.00000000000E+00 -0.26103821003E+03  0.26103821003E+03  0.00000000000E+00 0.  1.
        -24    2    1    2    0    0  0.27637556877E+03  0.25744374066E+02  0.85494307117E+03  0.90253608796E+03  0.81225041159E+02 0.  0.
        254    2    1    2    0    0 -0.27637556877E+03 -0.25744374066E+02  0.70315313023E+03  0.11776365335E+04  0.90297134656E+03 0.  0.
         23    2    4    4    0    0 -0.37496101522E+03 -0.37387362651E+03  0.56590954935E+03  0.78026876709E+03  0.90490216667E+02 0.  0.
         23    2    4    4    0    0  0.98585446450E+02  0.34812925245E+03  0.13724358088E+03  0.39736776643E+03  0.90289947607E+02 0.  0.
          1    1    3    3  502    0  0.26501828351E+03  0.22836828691E+02  0.72838103974E+03  0.77543223456E+03  0.00000000000E+00 0. -1.
         -2    1    3    3    0  502  0.11357285257E+02  0.29075453753E+01  0.12656203143E+03  0.12710385340E+03  0.00000000000E+00 0.  1.
         13    1    5    5    0    0 -0.28381882339E+03 -0.28613393212E+03  0.48277910510E+03  0.62888903309E+03  0.00000000000E+00 0.  1.
        -13    1    5    5    0    0 -0.91142191830E+02 -0.87739694397E+02  0.83130444247E+02  0.15137973400E+03  0.00000000000E+00 0. -1.
          3    1    6    6  503    0 -0.13093047654E+02  0.23576211243E+02  0.23533691108E+02  0.35792460807E+02  0.00000000000E+00 0. -1.
         -3    1    6    6    0  503  0.11167849410E+03  0.32455304121E+03  0.11370988977E+03  0.36157530562E+03  0.00000000000E+00 0.  1.
<mgrwt>
<rscale>  0 0.13782069E+04</rscale>
<asrwt>0</asrwt>
<pdfrwt beam="1">  1        1 0.27986682E+00 0.13782069E+04</pdfrwt>
<pdfrwt beam="2">  1       -2 0.40159726E-01 0.13782069E+04</pdfrwt>
<totfact> 0.19899723E+01</totfact>
</mgrwt>
</event>
<event>
12    5  0.5264288E-008  0.1113803E+04  0.7818608E-02  0.9191842E-01
          1   -1    0    0  501    0  0.00000000000E+00  0.00000000000E+00  0.10128169806E+04  0.10128169806E+04  0.00000000000E+00 0. -1.
         -2   -1    0    0    0  501 -0.00000000000E+00 -0.00000000000E+00 -0.30621463608E+03  0.30621463608E+03  0.00000000000E+00 0.  1.
        -24    2    1    2    0    0  0.88851835544E+02 -0.15352200375E+03  0.19375108877E+03  0.27279960632E+03  0.73596783177E+02 0.  0.
        254    2    1    2    0    0 -0.88851835544E+02  0.15352200375E+03  0.51285125578E+03  0.10462320104E+04  0.89449502777E+03 0.  0.
         23    2    4    4    0    0  0.38928304730E+03  0.36930550829E+01  0.19040483689E+03  0.44296505855E+03  0.91701208353E+02 0.  0.
         23    2    4    4    0    0 -0.47813488284E+03  0.14982894866E+03  0.32244641889E+03  0.60326695185E+03  0.94327313599E+02 0.  0.
          1    1    3    3  502    0  0.23650948329E+02 -0.33385156270E+02  0.97169396007E+02  0.10543162494E+03  0.00000000000E+00 0. -1.
         -2    1    3    3    0  502  0.65200887216E+02 -0.12013684748E+03  0.96581692758E+02  0.16736798138E+03  0.00000000000E+00 0.  1.
         13    1    5    5    0    0  0.29186467243E+03 -0.19305998544E+02  0.10309013241E+03  0.31013752432E+03  0.00000000000E+00 0. -1.
        -13    1    5    5    0    0  0.97418374865E+02  0.22999053627E+02  0.87314704480E+02  0.13282753422E+03  0.00000000000E+00 0.  1.
          1    1    6    6  503    0 -0.32720236832E+03  0.84491332157E+02  0.26361277697E+03  0.42859289684E+03  0.00000000000E+00 0. -1.
         -1    1    6    6    0  503 -0.15093251452E+03  0.65337616507E+02  0.58833641925E+02  0.17467405501E+03  0.00000000000E+00 0.  1.
<mgrwt>
<rscale>  0 0.11138032E+04</rscale>
<asrwt>0</asrwt>
<pdfrwt beam="1">  1        1 0.15581800E+00 0.11138032E+04</pdfrwt>
<pdfrwt beam="2">  1       -2 0.47109944E-01 0.11138032E+04</pdfrwt>
<totfact> 0.55108038E+01</totfact>
</mgrwt>
</event>
<event>
12    5  0.5264288E-008  0.1722639E+04  0.7818608E-02  0.8748557E-01
          1   -1    0    0  501    0  0.00000000000E+00  0.00000000000E+00  0.19348491254E+04  0.19348491254E+04  0.00000000000E+00 0. -1.
         -2   -1    0    0    0  501 -0.00000000000E+00 -0.00000000000E+00 -0.38342579836E+03  0.38342579836E+03  0.00000000000E+00 0.  1.
        -24    2    1    2    0    0 -0.29730004455E+03 -0.84894702325E+02  0.13007352084E+04  0.13393838743E+04  0.80266140770E+02 0.  0.
        254    2    1    2    0    0  0.29730004455E+03  0.84894702325E+02  0.25068811858E+03  0.97889104942E+03  0.89430907793E+03 0.  0.
         23    2    4    4    0    0  0.48609325097E+03  0.33075343807E+03  0.27471812978E+03  0.65517672026E+03  0.90011102163E+02 0.  0.
         23    2    4    4    0    0 -0.18879320642E+03 -0.24585873574E+03 -0.24030011195E+02  0.32371432916E+03  0.90133971053E+02 0.  0.
          3    1    3    3  502    0 -0.24027563008E+03 -0.91621893435E+02  0.96000594060E+03  0.99385026828E+03  0.00000000000E+00 0. -1.
         -4    1    3    3    0  502 -0.57024414465E+02  0.67271911093E+01  0.34072926781E+03  0.34553360602E+03  0.00000000000E+00 0.  1.
         13    1    5    5    0    0  0.39350923460E+03  0.22526748074E+03  0.19322626934E+03  0.49288066178E+03  0.00000000000E+00 0.  1.
        -13    1    5    5    0    0  0.92584016368E+02  0.10548595733E+03  0.81491860442E+02  0.16229605848E+03  0.00000000000E+00 0. -1.
          1    1    6    6  503    0 -0.94279243917E+01 -0.16580021445E+02  0.21866496518E+02  0.29015970420E+02  0.00000000000E+00 0. -1.
         -1    1    6    6    0  503 -0.17936528203E+03 -0.22927871430E+03 -0.45896507713E+02  0.29469835874E+03  0.00000000000E+00 0.  1.
<mgrwt>
<rscale>  0 0.17226388E+04</rscale>
<asrwt>0</asrwt>
<pdfrwt beam="1">  1        1 0.29766909E+00 0.17226388E+04</pdfrwt>
<pdfrwt beam="2">  1       -2 0.58988585E-01 0.17226388E+04</pdfrwt>
<totfact> 0.73877202E+00</totfact>
</mgrwt>
</event>
<event>
12    5  0.5264288E-008  0.1888452E+04  0.7818608E-02  0.8660626E-01
          1   -1    0    0  501    0  0.00000000000E+00  0.00000000000E+00  0.10587718925E+04  0.10587718925E+04  0.00000000000E+00 0. -1.
         -2   -1    0    0    0  501 -0.00000000000E+00 -0.00000000000E+00 -0.84207233278E+03  0.84207233278E+03  0.00000000000E+00 0.  1.
        -24    2    1    2    0    0 -0.21525966272E+03  0.56921192506E+03  0.48536600432E+03  0.78255615871E+03  0.80467666532E+02 0.  0.
        254    2    1    2    0    0  0.21525966272E+03 -0.56921192506E+03 -0.26866644462E+03  0.11182880666E+04  0.89891468078E+03 0.  0.
         23    2    4    4    0    0  0.52206276725E+03 -0.47863631577E+03 -0.31446466013E+03  0.78183549318E+03  0.10361689146E+03 0.  0.
         23    2    4    4    0    0 -0.30680310453E+03 -0.90575609287E+02  0.45798215508E+02  0.33645257338E+03  0.93652397968E+02 0.  0.
          3    1    3    3  502    0 -0.55323504173E+02  0.11402492922E+03  0.63949200270E+02  0.14195729926E+03  0.00000000000E+00 0. -1.
         -4    1    3    3    0  502 -0.15993615855E+03  0.45518699584E+03  0.42141680405E+03  0.64059885945E+03  0.00000000000E+00 0.  1.
         13    1    5    5    0    0  0.24463407289E+03 -0.17057669333E+03 -0.96475553863E+02  0.31344819416E+03  0.00000000000E+00 0. -1.
        -13    1    5    5    0    0  0.27742869436E+03 -0.30805962244E+03 -0.21798910626E+03  0.46838729902E+03  0.00000000000E+00 0.  1.
          2    1    6    6  503    0 -0.18902865667E+02 -0.32596510632E+02 -0.62500397467E+01  0.38195730555E+02  0.00000000000E+00 0. -1.
         -2    1    6    6    0  503 -0.28790023886E+03 -0.57979098654E+02  0.52048255255E+02  0.29825684282E+03  0.00000000000E+00 0.  1.
<mgrwt>
<rscale>  0 0.18884518E+04</rscale>
<asrwt>0</asrwt>
<pdfrwt beam="1">  1        1 0.16288798E+00 0.18884518E+04</pdfrwt>
<pdfrwt beam="2">  1       -2 0.12954959E+00 0.18884518E+04</pdfrwt>
<totfact> 0.49024795E+00</totfact>
</mgrwt>
</event>
<event>
12    5  0.5264288E-008  0.1389314E+04  0.7818608E-02  0.8961590E-01
          3   -1    0    0  501    0  0.00000000000E+00  0.00000000000E+00  0.57030376526E+03  0.57030376526E+03  0.00000000000E+00 0. -1.
         -4   -1    0    0    0  501 -0.00000000000E+00 -0.00000000000E+00 -0.84612528353E+03  0.84612528353E+03  0.00000000000E+00 0.  1.
        -24    2    1    2    0    0  0.24553628859E+03 -0.30394762020E+03  0.16631351452E+02  0.39923697884E+03  0.80257950286E+02 0.  0.
        254    2    1    2    0    0 -0.24553628859E+03  0.30394762020E+03 -0.29245286973E+03  0.10171920700E+04  0.89245661034E+03 0.  0.
         23    2    4    4    0    0 -0.30138256365E+03  0.23602669368E+02  0.24655617253E+03  0.39977011510E+03  0.87393724256E+02 0.  0.
         23    2    4    4    0    0  0.55846275062E+02  0.28034495083E+03 -0.53900904226E+03  0.61742195486E+03  0.94694375806E+02 0.  0.
          3    1    3    3  502    0  0.16218486927E+03 -0.24083085694E+03  0.37064535701E+02  0.29270670180E+03  0.00000000000E+00 0. -1.
         -4    1    3    3    0  502  0.83351419318E+02 -0.63116763257E+02 -0.20433184249E+02  0.10653027703E+03  0.00000000000E+00 0.  1.
         13    1    5    5    0    0 -0.11015518011E+02 -0.15511441433E+02  0.40797403138E+01  0.19457408188E+02  0.00000000000E+00 0. -1.
        -13    1    5    5    0    0 -0.29036704564E+03  0.39114110800E+02  0.24247643222E+03  0.38031270691E+03  0.00000000000E+00 0.  1.
          3    1    6    6  503    0 -0.89352241572E+01  0.16468796217E+03 -0.34567137636E+03  0.38300217173E+03  0.00000000000E+00 0. -1.
         -3    1    6    6    0  503  0.64781499219E+02  0.11565698866E+03 -0.19333766590E+03  0.23441978313E+03  0.00000000000E+00 0.  1.
<mgrwt>
<rscale>  0 0.13893141E+04</rscale>
<asrwt>0</asrwt>
<pdfrwt beam="1">  1        3 0.87739042E-01 0.13893141E+04</pdfrwt>
<pdfrwt beam="2">  1       -4 0.13017312E+00 0.13893141E+04</pdfrwt>
<totfact> 0.11358577E+00</totfact>
</mgrwt>
</event>
<event>
12    5  0.5264288E-008  0.1952972E+04  0.7818608E-02  0.8628929E-01
         -2   -1    0    0    0  501 -0.00000000000E+00  0.00000000000E+00  0.88541527634E+03  0.88541527634E+03  0.00000000000E+00 0.  1.
          1   -1    0    0  501    0  0.00000000000E+00 -0.00000000000E+00 -0.10769238082E+04  0.10769238082E+04  0.00000000000E+00 0. -1.
        -24    2    1    2    0    0  0.69784903504E+03  0.11545687419E+03  0.19062019332E+03  0.73705923987E+03  0.81220068111E+02 0.  0.
        254    2    1    2    0    0 -0.69784903504E+03 -0.11545687419E+03 -0.38212872521E+03  0.12252798447E+04  0.92464304987E+03 0.  0.
         23    2    4    4    0    0  0.21367928395E+03  0.27913490705E+02 -0.11131066212E+03  0.25899713893E+03  0.90837520427E+02 0.  0.
         23    2    4    4    0    0 -0.91152831899E+03 -0.14337036490E+03 -0.27081806309E+03  0.96628270577E+03  0.94450549558E+02 0.  0.
          3    1    3    3  502    0  0.60765928957E+03  0.11799632781E+03  0.14416113256E+03  0.63557484038E+03  0.00000000000E+00 0. -1.
         -4    1    3    3    0  502  0.90189745468E+02 -0.25394536185E+01  0.46459060767E+02  0.10148439949E+03  0.00000000000E+00 0.  1.
         13    1    5    5    0    0 -0.57087412941E+01  0.41579188954E+00  0.63385022614E+01  0.85404461814E+01  0.00000000000E+00 0. -1.
        -13    1    5    5    0    0  0.21938802525E+03  0.27497698816E+02 -0.11764916438E+03  0.25045669275E+03  0.00000000000E+00 0.  1.
          2    1    6    6  503    0 -0.35823133185E+03 -0.34017367099E+02 -0.14785372074E+03  0.38903417731E+03  0.00000000000E+00 0. -1.
         -2    1    6    6    0  503 -0.55329698715E+03 -0.10935299780E+03 -0.12296434235E+03  0.57724852845E+03  0.00000000000E+00 0.  1.
<mgrwt>
<rscale>  0 0.19529719E+04</rscale>
<asrwt>0</asrwt>
<pdfrwt beam="1">  1        1 0.16568059E+00 0.19529719E+04</pdfrwt>
<pdfrwt beam="2">  1       -2 0.13621773E+00 0.19529719E+04</pdfrwt>
<totfact> 0.41560023E+00</totfact>
</mgrwt>
</event>
<event>
12    5  0.5264288E-008  0.1232613E+04  0.7818608E-02  0.9084779E-01
         -2   -1    0    0    0  501 -0.00000000000E+00  0.00000000000E+00  0.11263399810E+04  0.11263399810E+04  0.00000000000E+00 0.  1.
          1   -1    0    0  501    0  0.00000000000E+00 -0.00000000000E+00 -0.33722855550E+03  0.33722855550E+03  0.00000000000E+00 0. -1.
        -24    2    1    2    0    0  0.22958916902E+03 -0.24304844928E+02  0.38954037368E+03  0.46015837185E+03  0.81866430472E+02 0.  0.
        254    2    1    2    0    0 -0.22958916902E+03  0.24304844928E+02  0.39957105185E+03  0.10034101647E+04  0.89099552249E+03 0.  0.
         23    2    4    4    0    0 -0.44917368125E+03 -0.66828634595E+02  0.54363505722E+03  0.71358931356E+03  0.86299308572E+02 0.  0.
         23    2    4    4    0    0  0.21958451223E+03  0.91133479524E+02 -0.14406400536E+03  0.28982085113E+03  0.81969622453E+02 0.  0.
          3    1    3    3  502    0  0.56114805527E+02 -0.42506633629E+02  0.10521274996E+03  0.12659150072E+03  0.00000000000E+00 0. -1.
         -4    1    3    3    0  502  0.17347436349E+03  0.18201788700E+02  0.28432762372E+03  0.33356687113E+03  0.00000000000E+00 0.  1.
         13    1    5    5    0    0 -0.27088154698E+03 -0.59628620293E+01  0.35933821848E+03  0.45004035761E+03  0.00000000000E+00 0.  1.
        -13    1    5    5    0    0 -0.17829213427E+03 -0.60865772566E+02  0.18429683873E+03  0.26354895595E+03  0.00000000000E+00 0. -1.
          2    1    6    6  503    0  0.12218275785E+03  0.23094257098E+02 -0.11052214415E+03  0.16636440537E+03  0.00000000000E+00 0. -1.
         -2    1    6    6    0  503  0.97401754386E+02  0.68039222426E+02 -0.33541861207E+02  0.12345644576E+03  0.00000000000E+00 0.  1.
<mgrwt>
<rscale>  0 0.12326135E+04</rscale>
<asrwt>0</asrwt>
<pdfrwt beam="1">  1        1 0.51881317E-01 0.12326135E+04</pdfrwt>
<pdfrwt beam="2">  1       -2 0.17328307E+00 0.12326135E+04</pdfrwt>
<totfact> 0.13085108E+01</totfact>
</mgrwt>
</event>
<event>
12    5  0.5264288E-008  0.2755000E+04  0.7818608E-02  0.8317377E-01
          1   -1    0    0  501    0  0.00000000000E+00  0.00000000000E+00  0.16320376146E+04  0.16320376146E+04  0.00000000000E+00 0. -1.
         -2   -1    0    0    0  501 -0.00000000000E+00 -0.00000000000E+00 -0.11626610647E+04  0.11626610647E+04  0.00000000000E+00 0.  1.
        -24    2    1    2    0    0  0.42157962210E+03  0.11302367995E+04  0.45864159167E+03  0.12929625137E+04  0.78964241378E+02 0.  0.
        254    2    1    2    0    0 -0.42157962210E+03 -0.11302367995E+04  0.10734958168E+02  0.15017361656E+04  0.89438899313E+03 0.  0.
         23    2    4    4    0    0 -0.23558498647E+03 -0.11509541435E+04  0.22839764060E+03  0.12005208079E+04  0.94281502261E+02 0.  0.
         23    2    4    4    0    0 -0.18599463563E+03  0.20717343971E+02 -0.21766268244E+03  0.30121535772E+03  0.91271219887E+02 0.  0.
          1    1    3    3  502    0  0.18291357117E+03  0.53635512720E+03  0.25391845059E+03  0.62097405464E+03  0.00000000000E+00 0. -1.
         -2    1    3    3    0  502  0.23866605093E+03  0.59388167234E+03  0.20472314108E+03  0.67198845906E+03  0.00000000000E+00 0.  1.
         13    1    5    5    0    0 -0.20573335340E+02 -0.32724526310E+02 -0.21078723699E+01  0.38711753708E+02  0.00000000000E+00 0. -1.
        -13    1    5    5    0    0 -0.21501165113E+03 -0.11182296172E+04  0.23050551297E+03  0.11618090542E+04  0.00000000000E+00 0.  1.
          3    1    6    6  503    0 -0.17023039101E+02  0.12535575411E+01 -0.81697070610E+02  0.83461168294E+02  0.00000000000E+00 0. -1.
         -3    1    6    6    0  503 -0.16897159652E+03  0.19463786430E+02 -0.13596561183E+03  0.21775418943E+03  0.00000000000E+00 0.  1.
<mgrwt>
<rscale>  0 0.27550002E+04</rscale>
<asrwt>0</asrwt>
<pdfrwt beam="1">  1        1 0.25108271E+00 0.27550002E+04</pdfrwt>
<pdfrwt beam="2">  1       -2 0.17887093E+00 0.27550002E+04</pdfrwt>
<totfact> 0.74769177E-01</totfact>
</mgrwt>
</event>
<event>
12    5  0.5264288E-008  0.1966102E+04  0.7818608E-02  0.8622635E-01
          1   -1    0    0  501    0  0.00000000000E+00  0.00000000000E+00  0.85920262202E+03  0.85920262202E+03  0.00000000000E+00 0. -1.
         -2   -1    0    0    0  501 -0.00000000000E+00 -0.00000000000E+00 -0.11247514702E+04  0.11247514702E+04  0.00000000000E+00 0.  1.
        -24    2    1    2    0    0  0.73960451753E+03  0.23667784064E+03 -0.10344093840E+03  0.78722706991E+03  0.77428607516E+02 0.  0.
        254    2    1    2    0    0 -0.73960451753E+03 -0.23667784064E+03 -0.16210790982E+03  0.11967270223E+04  0.89601637764E+03 0.  0.
         23    2    4    4    0    0 -0.77874633785E+02  0.23953190759E+03  0.16112194756E+03  0.31488786113E+03  0.98762795421E+02 0.  0.
         23    2    4    4    0    0 -0.66172988374E+03 -0.47620974823E+03 -0.32322985738E+03  0.88183916122E+03  0.92198710459E+02 0.  0.
          3    1    3    3  502    0  0.51174665050E+03  0.17678799443E+03 -0.10557605244E+03  0.55162027893E+03  0.00000000000E+00 0. -1.
         -4    1    3    3    0  502  0.22785786702E+03  0.59889846215E+02  0.21351140413E+01  0.23560679098E+03  0.00000000000E+00 0.  1.
         13    1    5    5    0    0 -0.60940436133E+02  0.22687413945E+03  0.10965686595E+03  0.25924937832E+03  0.00000000000E+00 0. -1.
        -13    1    5    5    0    0 -0.16934197652E+02  0.12657768140E+02  0.51465081610E+02  0.55638482811E+02  0.00000000000E+00 0.  1.
          1    1    6    6  503    0 -0.54879198894E+03 -0.38918157801E+03 -0.22792956545E+03  0.71034275852E+03  0.00000000000E+00 0. -1.
         -1    1    6    6    0  503 -0.11293789480E+03 -0.87028170224E+02 -0.95300291927E+02  0.17149640269E+03  0.00000000000E+00 0.  1.
<mgrwt>
<rscale>  0 0.19661021E+04</rscale>
<asrwt>0</asrwt>
<pdfrwt beam="1">  1        1 0.13218502E+00 0.19661021E+04</pdfrwt>
<pdfrwt beam="2">  1       -2 0.17303869E+00 0.19661021E+04</pdfrwt>
<totfact> 0.32519685E+00</totfact>
</mgrwt>
</event>
<event>
12    5  0.5264288E-008  0.1942142E+04  0.7818608E-02  0.8634159E-01
         -2   -1    0    0    0  501 -0.00000000000E+00  0.00000000000E+00  0.98086405232E+03  0.98086405232E+03  0.00000000000E+00 0.  1.
          1   -1    0    0  501    0  0.00000000000E+00 -0.00000000000E+00 -0.96137556026E+03  0.96137556026E+03  0.00000000000E+00 0. -1.
        -24    2    1    2    0    0 -0.50846952985E+03 -0.24723033022E+03  0.51603957372E+03  0.76955516080E+03  0.79083531167E+02 0.  0.
        254    2    1    2    0    0  0.50846952985E+03  0.24723033022E+03 -0.49655108166E+03  0.11726844518E+04  0.89942300825E+03 0.  0.
         23    2    4    4    0    0 -0.15892735113E+03  0.26200654260E+03  0.25416943575E+02  0.32035794146E+03  0.89876906575E+02 0.  0.
         23    2    4    4    0    0  0.66739688098E+03 -0.14776212376E+02 -0.52196802524E+03  0.85232651032E+03  0.91503702805E+02 0.  0.
          1    1    3    3  502    0 -0.31132887719E+03 -0.14455266519E+03  0.26075131353E+03  0.43105961339E+03  0.00000000000E+00 0. -1.
         -2    1    3    3    0  502 -0.19714065266E+03 -0.10267766503E+03  0.25528826019E+03  0.33849554741E+03  0.00000000000E+00 0.  1.
         13    1    5    5    0    0  0.16030679484E+01  0.56177886940E+01 -0.14125701139E+02  0.15286098564E+02  0.00000000000E+00 0. -1.
        -13    1    5    5    0    0 -0.16053041907E+03  0.25638875390E+03  0.39542644714E+02  0.30507184290E+03  0.00000000000E+00 0.  1.
          3    1    6    6  503    0  0.16467258166E+03 -0.40184811531E+02 -0.11238798713E+03  0.20337880391E+03  0.00000000000E+00 0. -1.
         -3    1    6    6    0  503  0.50272429932E+03  0.25408599156E+02 -0.40958003810E+03  0.64894770641E+03  0.00000000000E+00 0.  1.
<mgrwt>
<rscale>  0 0.19421418E+04</rscale>
<asrwt>0</asrwt>
<pdfrwt beam="1">  1        1 0.14790393E+00 0.19421418E+04</pdfrwt>
<pdfrwt beam="2">  1       -2 0.15090216E+00 0.19421418E+04</pdfrwt>
<totfact> 0.39107297E+00</totfact>
</mgrwt>
</event>
<event>
12    5  0.5264288E-008  0.1198721E+04  0.7818608E-02  0.9113977E-01
          1   -1    0    0  501    0  0.00000000000E+00  0.00000000000E+00  0.19876634854E+04  0.19876634854E+04  0.00000000000E+00 0. -1.
         -2   -1    0    0    0  501 -0.00000000000E+00 -0.00000000000E+00 -0.18073130528E+03  0.18073130528E+03  0.00000000000E+00 0.  1.
        -24    2    1    2    0    0  0.14681475420E+03  0.85284085606E+02  0.74335650169E+02  0.20264481691E+03  0.81921826320E+02 0.  0.
        254    2    1    2    0    0 -0.14681475420E+03 -0.85284085606E+02  0.17325965299E+04  0.19657499738E+04  0.91293717006E+03 0.  0.
         23    2    4    4    0    0  0.24581713339E+03 -0.30663947903E+03  0.11765754536E+04  0.12441870171E+04  0.96008866531E+02 0.  0.
         23    2    4    4    0    0 -0.39263188759E+03  0.22135539343E+03  0.55602107638E+03  0.72156295665E+03  0.91299801111E+02 0.  0.
          1    1    3    3  502    0 -0.61863123308E+01  0.67544430835E+01 -0.78274979470E+01  0.12048347843E+02  0.00000000000E+00 0. -1.
         -2    1    3    3    0  502  0.15300106653E+03  0.78529642522E+02  0.82163148116E+02  0.19059646907E+03  0.00000000000E+00 0.  1.
         13    1    5    5    0    0  0.12836699239E+03 -0.86412889615E+02  0.42994681851E+03  0.45694588189E+03  0.00000000000E+00 0. -1.
        -13    1    5    5    0    0  0.11745014100E+03 -0.22022658942E+03  0.74662863505E+03  0.78724113522E+03  0.00000000000E+00 0.  1.
          2    1    6    6  503    0 -0.21075375096E+03  0.77051020316E+02  0.23010153749E+03  0.32140429498E+03  0.00000000000E+00 0. -1.
         -2    1    6    6    0  503 -0.18187813663E+03  0.14430437311E+03  0.32591953889E+03  0.40015866168E+03  0.00000000000E+00 0.  1.
<mgrwt>
<rscale>  0 0.11987210E+04</rscale>
<asrwt>0</asrwt>
<pdfrwt beam="1">  1        1 0.30579437E+00 0.11987210E+04</pdfrwt>
<pdfrwt beam="2">  1       -2 0.27804818E-01 0.11987210E+04</pdfrwt>
<totfact> 0.31228818E+01</totfact>
</mgrwt>
</event>
<event>
12    5  0.5264288E-008  0.1141220E+04  0.7818608E-02  0.9165922E-01
         -4   -1    0    0    0  501 -0.00000000000E+00  0.00000000000E+00  0.10939634932E+04  0.10939634932E+04  0.00000000000E+00 0.  1.
          3   -1    0    0  501    0  0.00000000000E+00 -0.00000000000E+00 -0.29762947201E+03  0.29762947201E+03  0.00000000000E+00 0. -1.
        -24    2    1    2    0    0  0.94896189008E+02  0.59621712244E+02  0.29992567229E+03  0.32981867047E+03  0.79151192261E+02 0.  0.
        254    2    1    2    0    0 -0.94896189008E+02 -0.59621712244E+02  0.49640834892E+03  0.10617742948E+04  0.93187089711E+03 0.  0.
         23    2    4    4    0    0  0.25601456906E+01 -0.43723806269E+03  0.31239555648E+02  0.44742807451E+03  0.89623067395E+02 0.  0.
         23    2    4    4    0    0 -0.97456334699E+02  0.37761635045E+03  0.46516879327E+03  0.61434622025E+03  0.94590838916E+02 0.  0.
          1    1    3    3  502    0 -0.53032211079E+00  0.34498750546E+02  0.11691398104E+03  0.12189882687E+03  0.00000000000E+00 0. -1.
         -2    1    3    3    0  502  0.95426511119E+02  0.25122961698E+02  0.18301169125E+03  0.20791984360E+03  0.00000000000E+00 0.  1.
         13    1    5    5    0    0  0.33690981325E+02 -0.10301469761E+03 -0.11738161433E+02  0.10901786359E+03  0.00000000000E+00 0.  1.
        -13    1    5    5    0    0 -0.31130835634E+02 -0.33422336508E+03  0.42977717081E+02  0.33841021092E+03  0.00000000000E+00 0. -1.
          1    1    6    6  503    0 -0.38579790701E+01  0.43966691353E+02  0.15791184363E+02  0.46875531512E+02  0.00000000000E+00 0. -1.
         -1    1    6    6    0  503 -0.93598355629E+02  0.33364965909E+03  0.44937760891E+03  0.56747068874E+03  0.00000000000E+00 0.  1.
<mgrwt>
<rscale>  0 0.11412200E+04</rscale>
<asrwt>0</asrwt>
<pdfrwt beam="1">  1        3 0.45789150E-01 0.11412200E+04</pdfrwt>
<pdfrwt beam="2">  1       -4 0.16830207E+00 0.11412200E+04</pdfrwt>
<totfact> 0.23358182E+00</totfact>
</mgrwt>
</event>
<event>
12    5  0.5264288E-008  0.1340320E+04  0.7818608E-02  0.8998188E-01
         -2   -1    0    0    0  501 -0.00000000000E+00  0.00000000000E+00  0.88813098028E+03  0.88813098028E+03  0.00000000000E+00 0.  1.
          1   -1    0    0  501    0  0.00000000000E+00 -0.00000000000E+00 -0.50568520278E+03  0.50568520278E+03  0.00000000000E+00 0. -1.
        -24    2    1    2    0    0  0.20606078091E+03  0.15462288065E+03  0.36787081557E+03  0.45622010080E+03  0.80240655417E+02 0.  0.
        254    2    1    2    0    0 -0.20606078091E+03 -0.15462288065E+03  0.14574961933E+02  0.93759608226E+03  0.90139042779E+03 0.  0.
         23    2    4    4    0    0  0.30403349988E+03 -0.25124132590E+03  0.56237599005E+02  0.40907093428E+03  0.92832046439E+02 0.  0.
         23    2    4    4    0    0 -0.51009428078E+03  0.96618445253E+02 -0.41662637072E+02  0.52852514798E+03  0.89842960033E+02 0.  0.
          1    1    3    3  502    0  0.26795761296E+02  0.62288217545E+02  0.82393033636E+02  0.10670729525E+03  0.00000000000E+00 0. -1.
         -2    1    3    3    0  502  0.17926501961E+03  0.92334663101E+02  0.28547778193E+03  0.34951280555E+03  0.00000000000E+00 0.  1.
         13    1    5    5    0    0  0.26050754695E+03 -0.20713642070E+03  0.80677719276E+02  0.34245959351E+03  0.00000000000E+00 0.  1.
        -13    1    5    5    0    0  0.43525952922E+02 -0.44104905194E+02 -0.24440120271E+02  0.66611340768E+02  0.00000000000E+00 0. -1.
          4    1    6    6  503    0 -0.16004076890E+02 -0.12669552377E+02  0.25221330042E+01  0.20567187202E+02  0.00000000000E+00 0. -1.
         -4    1    6    6    0  503 -0.49409020389E+03  0.10928799763E+03 -0.44184770076E+02  0.50795796078E+03  0.00000000000E+00 0.  1.
<mgrwt>
<rscale>  0 0.13403204E+04</rscale>
<asrwt>0</asrwt>
<pdfrwt beam="1">  1        1 0.77797723E-01 0.13403204E+04</pdfrwt>
<pdfrwt beam="2">  1       -2 0.13663554E+00 0.13403204E+04</pdfrwt>
<totfact> 0.14288960E+01</totfact>
</mgrwt>
</event>
<event>
12    5  0.5264288E-008  0.1696598E+04  0.7818608E-02  0.8763307E-01
         -2   -1    0    0    0  501 -0.00000000000E+00  0.00000000000E+00  0.12455774782E+04  0.12455774782E+04  0.00000000000E+00 0.  1.
          1   -1    0    0  501    0  0.00000000000E+00 -0.00000000000E+00 -0.57773300911E+03  0.57773300911E+03  0.00000000000E+00 0. -1.
        -24    2    1    2    0    0  0.26217326804E+03  0.41766913967E+03 -0.12667867231E+03  0.51538244192E+03  0.79932738694E+02 0.  0.
        254    2    1    2    0    0 -0.26217326804E+03 -0.41766913967E+03  0.79452314144E+03  0.13079280454E+04  0.91445416344E+03 0.  0.
         23    2    4    4    0    0  0.87040037676E+02 -0.44922809576E+03  0.82110148958E+03  0.94413067649E+03  0.88279260999E+02 0.  0.
         23    2    4    4    0    0 -0.34921330571E+03  0.31558956088E+02 -0.26578348143E+02  0.36379736894E+03  0.93253506415E+02 0.  0.
          3    1    3    3  502    0  0.13145827905E+03  0.28189952499E+03 -0.75006342678E+02  0.31996026747E+03  0.00000000000E+00 0. -1.
         -4    1    3    3    0  502  0.13071498898E+03  0.13576961469E+03 -0.51672329628E+02  0.19542217445E+03  0.00000000000E+00 0.  1.
         13    1    5    5    0    0  0.84265468659E+02 -0.27808477884E+03  0.57650037298E+03  0.64558848617E+03  0.00000000000E+00 0. -1.
        -13    1    5    5    0    0  0.27745690171E+01 -0.17114331692E+03  0.24460111661E+03  0.29854219032E+03  0.00000000000E+00 0.  1.
          3    1    6    6  503    0 -0.29742152590E+03 -0.60314324403E+01 -0.33795462501E+02  0.29939618490E+03  0.00000000000E+00 0. -1.
         -3    1    6    6    0  503 -0.51791779814E+02  0.37590388528E+02  0.72171143579E+01  0.64401184039E+02  0.00000000000E+00 0.  1.
<mgrwt>
<rscale>  0 0.16965980E+04</rscale>
<asrwt>0</asrwt>
<pdfrwt beam="1">  1        1 0.88882002E-01 0.16965980E+04</pdfrwt>
<pdfrwt beam="2">  1       -2 0.19162730E+00 0.16965980E+04</pdfrwt>
<totfact> 0.45502794E+00</totfact>
</mgrwt>
</event>
<event>
12    5  0.5264288E-008  0.2664428E+04  0.7818608E-02  0.8346640E-01
         -2   -1    0    0    0  501 -0.00000000000E+00  0.00000000000E+00  0.13906220665E+04  0.13906220665E+04  0.00000000000E+00 0.  1.
          1   -1    0    0  501    0  0.00000000000E+00 -0.00000000000E+00 -0.12762595253E+04  0.12762595253E+04  0.00000000000E+00 0. -1.
        -24    2    1    2    0    0 -0.63905867019E+03  0.27081527349E+03 -0.90329394259E+03  0.11405273743E+04  0.55909287784E+02 0.  0.
        254    2    1    2    0    0  0.63905867019E+03 -0.27081527349E+03  0.10176564838E+04  0.15263542176E+04  0.90132989649E+03 0.  0.
         23    2    4    4    0    0  0.84453377497E+03 -0.16709581029E+03  0.91108354647E+03  0.12569818815E+04  0.93658501199E+02 0.  0.
         23    2    4    4    0    0 -0.20547510478E+03 -0.10371946320E+03  0.10657293731E+03  0.26937233612E+03  0.90696850947E+02 0.  0.
          3    1    3    3  502    0 -0.60064527642E+03  0.25104889948E+03 -0.82297552167E+03  0.10493278836E+04  0.00000000000E+00 0. -1.
         -4    1    3    3    0  502 -0.38413393767E+02  0.19766374009E+02 -0.80318420922E+02  0.91199490687E+02  0.00000000000E+00 0.  1.
         13    1    5    5    0    0  0.79544349364E+03 -0.16413807097E+03  0.82417863485E+03  0.11571266482E+04  0.00000000000E+00 0.  1.
        -13    1    5    5    0    0  0.49090281324E+02 -0.29577393213E+01  0.86904911616E+02  0.99855233240E+02  0.00000000000E+00 0. -1.
          2    1    6    6  503    0 -0.46357076292E+02 -0.63785550146E+02  0.11287958502E+02  0.79655463949E+02  0.00000000000E+00 0. -1.
         -2    1    6    6    0  503 -0.15911802848E+03 -0.39933913053E+02  0.95284978812E+02  0.18971687217E+03  0.00000000000E+00 0.  1.
<mgrwt>
<rscale>  0 0.26644284E+04</rscale>
<asrwt>0</asrwt>
<pdfrwt beam="1">  1        1 0.19634762E+00 0.26644284E+04</pdfrwt>
<pdfrwt beam="2">  1       -2 0.21394186E+00 0.26644284E+04</pdfrwt>
<totfact> 0.78118642E-01</totfact>
</mgrwt>
</event>
<event>
12    5  0.5264288E-008  0.2123928E+04  0.7818608E-02  0.8550776E-01
         -2   -1    0    0    0  501 -0.00000000000E+00  0.00000000000E+00  0.80255645886E+03  0.80255645886E+03  0.00000000000E+00 0.  1.
          1   -1    0    0  501    0  0.00000000000E+00 -0.00000000000E+00 -0.14052188238E+04  0.14052188238E+04  0.00000000000E+00 0. -1.
        -24    2    1    2    0    0  0.44900932206E+02  0.63045936123E+03 -0.84790672859E+03  0.10604082995E+04  0.77619851733E+02 0.  0.
        254    2    1    2    0    0 -0.44900932206E+02 -0.63045936123E+03  0.24524436367E+03  0.11473669831E+04  0.92564091105E+03 0.  0.
         23    2    4    4    0    0 -0.46441992688E+03 -0.36492613788E+03  0.29074356966E+02  0.59841927794E+03  0.91669838969E+02 0.  0.
         23    2    4    4    0    0  0.41951899468E+03 -0.26553322334E+03  0.21617000670E+03  0.54894770520E+03  0.90055714154E+02 0.  0.
          1    1    3    3  502    0  0.33506946155E+02  0.57553700263E+03 -0.73309704750E+03  0.93262899263E+03  0.00000000000E+00 0. -1.
         -2    1    3    3    0  502  0.11393986051E+02  0.54922358593E+02 -0.11480968109E+03  0.12777930686E+03  0.00000000000E+00 0.  1.
         13    1    5    5    0    0 -0.42979679585E+03 -0.31234659651E+03  0.45811790657E+02  0.53327704079E+03  0.00000000000E+00 0. -1.
        -13    1    5    5    0    0 -0.34623131038E+02 -0.52579541375E+02 -0.16737433691E+02  0.65142237148E+02  0.00000000000E+00 0.  1.
          1    1    6    6  503    0  0.41630050332E+03 -0.26779929047E+03  0.20266217561E+03  0.53487804821E+03  0.00000000000E+00 0. -1.
         -1    1    6    6    0  503  0.32184913620E+01  0.22660671295E+01  0.13507831091E+02  0.14069656985E+02  0.00000000000E+00 0.  1.
<mgrwt>
<rscale>  0 0.21239279E+04</rscale>
<asrwt>0</asrwt>
<pdfrwt beam="1">  1        1 0.21618751E+00 0.21239279E+04</pdfrwt>
<pdfrwt beam="2">  1       -2 0.12347023E+00 0.21239279E+04</pdfrwt>
<totfact> 0.30347490E+00</totfact>
</mgrwt>
</event>
<event>
12    5  0.5264288E-008  0.1911224E+04  0.7818608E-02  0.8649290E-01
          1   -1    0    0  501    0  0.00000000000E+00  0.00000000000E+00  0.85408367310E+03  0.85408367310E+03  0.00000000000E+00 0. -1.
         -2   -1    0    0    0  501 -0.00000000000E+00 -0.00000000000E+00 -0.10692093959E+04  0.10692093959E+04  0.00000000000E+00 0.  1.
        -24    2    1    2    0    0  0.49950766342E+03 -0.54032995057E+03 -0.67088127463E+01  0.74033164769E+03  0.81126932125E+02 0.  0.
        254    2    1    2    0    0 -0.49950766342E+03  0.54032995057E+03 -0.20841691008E+03  0.11829614213E+04  0.90249418538E+03 0.  0.
         23    2    4    4    0    0 -0.45620765719E+03 -0.39514904069E+02  0.15350194420E+03  0.49248489973E+03  0.96393337212E+02 0.  0.
         23    2    4    4    0    0 -0.43300006222E+02  0.57984485464E+03 -0.36191885428E+03  0.69047652160E+03  0.87622050918E+02 0.  0.
          1    1    3    3  502    0  0.27727085720E+03 -0.31184656592E+03 -0.43180127557E+02  0.41951392390E+03  0.00000000000E+00 0. -1.
         -2    1    3    3    0  502  0.22223680622E+03 -0.22848338465E+03  0.36471314810E+02  0.32081772380E+03  0.00000000000E+00 0.  1.
         13    1    5    5    0    0 -0.33475381349E+03 -0.71531154146E+02  0.10952616894E+03  0.35940618156E+03  0.00000000000E+00 0. -1.
        -13    1    5    5    0    0 -0.12145384371E+03  0.32016250077E+02  0.43975775265E+02  0.13307871817E+03  0.00000000000E+00 0.  1.
          1    1    6    6  503    0 -0.87600073776E+00  0.44275146293E+03 -0.29577884217E+03  0.53246103029E+03  0.00000000000E+00 0. -1.
         -1    1    6    6    0  503 -0.42424005485E+02  0.13709339171E+03 -0.66140012115E+02  0.15801549131E+03  0.00000000000E+00 0.  1.
<mgrwt>
<rscale>  0 0.19112240E+04</rscale>
<asrwt>0</asrwt>
<pdfrwt beam="1">  1        1 0.13139749E+00 0.19112240E+04</pdfrwt>
<pdfrwt beam="2">  1       -2 0.16449375E+00 0.19112240E+04</pdfrwt>
<totfact> 0.37984468E+00</totfact>
</mgrwt>
</event>
<event>
12    5  0.5264288E-008  0.1790192E+04  0.7818608E-02  0.8711533E-01
          1   -1    0    0  501    0  0.00000000000E+00  0.00000000000E+00  0.13756347818E+04  0.13756347818E+04  0.00000000000E+00 0. -1.
         -2   -1    0    0    0  501 -0.00000000000E+00 -0.00000000000E+00 -0.58241962094E+03  0.58241962094E+03  0.00000000000E+00 0.  1.
        -24    2    1    2    0    0 -0.24460882138E+02 -0.52673297673E+03  0.74317560242E+03  0.91460715610E+03  0.78423914915E+02 0.  0.
        254    2    1    2    0    0  0.24460882138E+02  0.52673297673E+03  0.50039558447E+02  0.10434472466E+04  0.89901737223E+03 0.  0.
         23    2    4    4    0    0  0.14078871695E+02  0.68942098133E+03 -0.20739312290E+03  0.72574757071E+03  0.90543496975E+02 0.  0.
         23    2    4    4    0    0  0.10382010443E+02 -0.16268800460E+03  0.25743268135E+03  0.31769967592E+03  0.89923999436E+02 0.  0.
          1    1    3    3  502    0 -0.23507678994E+02 -0.25616118453E+03  0.29814381856E+03  0.39377772915E+03  0.00000000000E+00 0. -1.
         -2    1    3    3    0  502 -0.95320314359E+00 -0.27057179220E+03  0.44503178386E+03  0.52082942695E+03  0.00000000000E+00 0.  1.
         13    1    5    5    0    0 -0.20844538446E+02  0.31483019968E+03 -0.57212162420E+02  0.32066459260E+03  0.00000000000E+00 0. -1.
        -13    1    5    5    0    0  0.34923410140E+02  0.37459078165E+03 -0.15018096048E+03  0.40508297812E+03  0.00000000000E+00 0.  1.
          1    1    6    6  503    0  0.13619214306E+02  0.21849549793E+01  0.24052165611E+01  0.14001503251E+02  0.00000000000E+00 0. -1.
         -1    1    6    6    0  503 -0.32372038631E+01 -0.16487295958E+03  0.25502746478E+03  0.30369817267E+03  0.00000000000E+00 0.  1.
<mgrwt>
<rscale>  0 0.17901918E+04</rscale>
<asrwt>0</asrwt>
<pdfrwt beam="1">  1        1 0.21163612E+00 0.17901918E+04</pdfrwt>
<pdfrwt beam="2">  1       -2 0.89603019E-01 0.17901918E+04</pdfrwt>
<totfact> 0.70710038E+00</totfact>
</mgrwt>
</event>
<event>
12    5  0.5264288E-008  0.3278415E+04  0.7818608E-02  0.8168409E-01
          1   -1    0    0  501    0  0.00000000000E+00  0.00000000000E+00  0.12365653643E+04  0.12365653643E+04  0.00000000000E+00 0. -1.
         -2   -1    0    0    0  501 -0.00000000000E+00 -0.00000000000E+00 -0.21729552775E+04  0.21729552775E+04  0.00000000000E+00 0.  1.
        -24    2    1    2    0    0 -0.24357069688E+03  0.48529675085E+03  0.10361975668E+04  0.11725053819E+04  0.78891396827E+02 0.  0.
        254    2    1    2    0    0  0.24357069688E+03 -0.48529675085E+03 -0.19725874800E+04  0.22370152598E+04  0.90459730577E+03 0.  0.
         23    2    4    4    0    0 -0.87294972233E+02 -0.22814638428E+02 -0.14610050145E+04  0.14665386584E+04  0.89772290586E+02 0.  0.
         23    2    4    4    0    0  0.33086566912E+03 -0.46248211242E+03 -0.51158246544E+03  0.77047660140E+03  0.92497454253E+02 0.  0.
          3    1    3    3  502    0 -0.17561135140E+03  0.41098257247E+03  0.87264665171E+03  0.98043775955E+03  0.00000000000E+00 0. -1.
         -4    1    3    3    0  502 -0.67959345479E+02  0.74314178385E+02  0.16355091506E+03  0.19206762238E+03  0.00000000000E+00 0.  1.
         13    1    5    5    0    0 -0.21830939759E+02  0.13617806323E+02 -0.92122272149E+03  0.92158197528E+03  0.00000000000E+00 0.  1.
        -13    1    5    5    0    0 -0.65464032474E+02 -0.36432444751E+02 -0.53978229305E+03  0.54495668311E+03  0.00000000000E+00 0. -1.
          2    1    6    6  503    0  0.19864411066E+03 -0.19964736435E+03 -0.26196825715E+03  0.38463738839E+03  0.00000000000E+00 0. -1.
         -2    1    6    6    0  503  0.13222155846E+03 -0.26283474807E+03 -0.24961420829E+03  0.38583921301E+03  0.00000000000E+00 0.  1.
<mgrwt>
<rscale>  0 0.32784150E+04</rscale>
<asrwt>0</asrwt>
<pdfrwt beam="1">  1        1 0.19024083E+00 0.32784150E+04</pdfrwt>
<pdfrwt beam="2">  1       -2 0.33430081E+00 0.32784150E+04</pdfrwt>
<totfact> 0.14306685E-01</totfact>
</mgrwt>
</event>
<event>
12    5  0.5264288E-008  0.1122025E+04  0.7818608E-02  0.9183986E-01
         -2   -1    0    0    0  501 -0.00000000000E+00  0.00000000000E+00  0.76594607209E+03  0.76594607209E+03  0.00000000000E+00 0.  1.
          1   -1    0    0  501    0  0.00000000000E+00 -0.00000000000E+00 -0.41091050336E+03  0.41091050336E+03  0.00000000000E+00 0. -1.
        -24    2    1    2    0    0 -0.63022268157E+02 -0.93019443115E+02  0.22310542792E+03  0.26251650860E+03  0.80712218647E+02 0.  0.
        254    2    1    2    0    0  0.63022268157E+02  0.93019443115E+02  0.13193014081E+03  0.91434006684E+03  0.89776821769E+03 0.  0.
         23    2    4    4    0    0 -0.63981381331E+02 -0.27365529369E+03 -0.23157010430E+03  0.37570872563E+03  0.92474301206E+02 0.  0.
         23    2    4    4    0    0  0.12700364949E+03  0.36667473681E+03  0.36350024511E+03  0.53863134121E+03  0.86087188006E+02 0.  0.
          3    1    3    3  502    0 -0.25534528677E+01 -0.11245145590E+02 -0.51494374337E+01  0.12628940050E+02  0.00000000000E+00 0. -1.
         -4    1    3    3    0  502 -0.60468815289E+02 -0.81774297525E+02  0.22825486536E+03  0.24988756855E+03  0.00000000000E+00 0.  1.
         13    1    5    5    0    0  0.71940689499E+01 -0.13018649217E+03 -0.69061279160E+02  0.14754571376E+03  0.00000000000E+00 0. -1.
        -13    1    5    5    0    0 -0.71175450281E+02 -0.14346880153E+03 -0.16250882514E+03  0.22816301187E+03  0.00000000000E+00 0.  1.
          2    1    6    6  503    0  0.19246804444E+02  0.98096995675E+02  0.14453686040E+03  0.17573947780E+03  0.00000000000E+00 0.  1.
         -2    1    6    6    0  503  0.10775684504E+03  0.26857774113E+03  0.21896338471E+03  0.36289186341E+03  0.00000000000E+00 0. -1.
<mgrwt>
<rscale>  0 0.11220255E+04</rscale>
<asrwt>0</asrwt>
<pdfrwt beam="1">  1        1 0.63217000E-01 0.11220255E+04</pdfrwt>
<pdfrwt beam="2">  1       -2 0.11783786E+00 0.11220255E+04</pdfrwt>
<totfact> 0.27940768E+01</totfact>
</mgrwt>
</event>
<event>
12    5  0.5264288E-008  0.1958926E+04  0.7818608E-02  0.8626068E-01
          1   -1    0    0  501    0  0.00000000000E+00  0.00000000000E+00  0.17805912081E+04  0.17805912081E+04  0.00000000000E+00 0. -1.
         -2   -1    0    0    0  501 -0.00000000000E+00 -0.00000000000E+00 -0.53878068336E+03  0.53878068336E+03  0.00000000000E+00 0.  1.
        -24    2    1    2    0    0 -0.68482134223E+03  0.29325550446E+03  0.23489055015E+03  0.78517333454E+03  0.79652577242E+02 0.  0.
        254    2    1    2    0    0  0.68482134223E+03 -0.29325550446E+03  0.10069199746E+04  0.15341985569E+04  0.88594487139E+03 0.  0.
         23    2    4    4    0    0 -0.15417286286E+03 -0.22224653299E+03  0.40202595326E+03  0.49314313453E+03  0.91665102243E+02 0.  0.
         23    2    4    4    0    0  0.83899420508E+03 -0.71008971469E+02  0.60489402130E+03  0.10410554224E+04  0.94583641507E+02 0.  0.
          1    1    3    3  502    0 -0.67173713934E+03  0.27414266923E+03  0.22233389634E+03  0.75882629694E+03  0.00000000000E+00 0. -1.
         -2    1    3    3    0  502 -0.13084202886E+02  0.19112835226E+02  0.12556653812E+02  0.26347037604E+02  0.00000000000E+00 0.  1.
         13    1    5    5    0    0 -0.50011320009E+02 -0.11215507265E+03  0.24970941439E+03  0.27827088257E+03  0.00000000000E+00 0.  1.
        -13    1    5    5    0    0 -0.10416154285E+03 -0.11009146034E+03  0.15231653887E+03  0.21487225196E+03  0.00000000000E+00 0. -1.
          3    1    6    6  503    0  0.48633847329E+03 -0.48067608180E+02  0.40718511194E+03  0.63610951962E+03  0.00000000000E+00 0. -1.
         -3    1    6    6    0  503  0.35265573179E+03 -0.22941363289E+02  0.19770890937E+03  0.40494590275E+03  0.00000000000E+00 0.  1.
<mgrwt>
<rscale>  0 0.19589264E+04</rscale>
<asrwt>0</asrwt>
<pdfrwt beam="1">  1        1 0.27393711E+00 0.19589264E+04</pdfrwt>
<pdfrwt beam="2">  1       -2 0.82889337E-01 0.19589264E+04</pdfrwt>
<totfact> 0.43792518E+00</totfact>
</mgrwt>
</event>
<event>
12    5  0.5264288E-008  0.1271300E+04  0.7818608E-02  0.9052640E-01
          1   -1    0    0  501    0  0.00000000000E+00  0.00000000000E+00  0.69834399067E+03  0.69834399067E+03  0.00000000000E+00 0. -1.
         -2   -1    0    0    0  501 -0.00000000000E+00 -0.00000000000E+00 -0.57858402014E+03  0.57858402014E+03  0.00000000000E+00 0.  1.
        -24    2    1    2    0    0  0.32647773762E+02 -0.75712996268E+02 -0.22153832678E+03  0.24958403261E+03  0.80091348895E+02 0.  0.
        254    2    1    2    0    0 -0.32647773762E+02  0.75712996268E+02  0.34129829731E+03  0.10273439782E+04  0.96548059891E+03 0.  0.
         23    2    4    4    0    0 -0.13365624190E+03  0.23828483824E+03 -0.26084553182E+03  0.38890322462E+03  0.92529300865E+02 0.  0.
         23    2    4    4    0    0  0.10100846814E+03 -0.16257184197E+03  0.60214382913E+03  0.63844075358E+03  0.91635639602E+02 0.  0.
          1    1    3    3  502    0 -0.11180953333E+02 -0.18441884976E+02 -0.61253215510E+01  0.22419554032E+02  0.00000000000E+00 0. -1.
         -2    1    3    3    0  502  0.43828727095E+02 -0.57271111291E+02 -0.21541300523E+03  0.22716447858E+03  0.00000000000E+00 0.  1.
         13    1    5    5    0    0 -0.14715825073E+03  0.22168047576E+03 -0.24913345475E+03  0.36450687561E+03  0.00000000000E+00 0.  1.
        -13    1    5    5    0    0  0.13502008831E+02  0.16604362476E+02 -0.11712077062E+02  0.24396349006E+02  0.00000000000E+00 0. -1.
          4    1    6    6  503    0  0.36527620032E+02 -0.13761298296E+03  0.42861505179E+03  0.45164417712E+03  0.00000000000E+00 0. -1.
         -4    1    6    6    0  503  0.64480848103E+02 -0.24958859009E+02  0.17352877733E+03  0.18679657646E+03  0.00000000000E+00 0.  1.
<mgrwt>
<rscale>  0 0.12712996E+04</rscale>
<asrwt>0</asrwt>
<pdfrwt beam="1">  1        1 0.10743754E+00 0.12712996E+04</pdfrwt>
<pdfrwt beam="2">  1       -2 0.89012926E-01 0.12712996E+04</pdfrwt>
<totfact> 0.25560975E+01</totfact>
</mgrwt>
</event>
<event>
12    5  0.5264288E-008  0.1440591E+04  0.7818608E-02  0.8924950E-01
         -2   -1    0    0    0  501 -0.00000000000E+00  0.00000000000E+00  0.11982021256E+04  0.11982021256E+04  0.00000000000E+00 0.  1.
          1   -1    0    0  501    0  0.00000000000E+00 -0.00000000000E+00 -0.43300337183E+03  0.43300337183E+03  0.00000000000E+00 0. -1.
        -24    2    1    2    0    0  0.37409185397E+02 -0.65511177631E+02  0.70915607875E+03  0.71768300080E+03  0.80469771108E+02 0.  0.
        254    2    1    2    0    0 -0.37409185397E+02  0.65511177631E+02  0.56042674984E+02  0.91352249658E+03  0.90867563454E+03 0.  0.
         23    2    4    4    0    0 -0.27901217629E+03  0.71662558840E+02 -0.33122664527E+03  0.44805772700E+03  0.89784850256E+02 0.  0.
         23    2    4    4    0    0  0.24160299089E+03 -0.61513812086E+01  0.38726932025E+03  0.46546476959E+03  0.90939983627E+02 0.  0.
          3    1    3    3  502    0 -0.89924956137E+00 -0.26066737681E+02  0.51459726748E+02  0.57692173993E+02  0.00000000000E+00 0. -1.
         -4    1    3    3    0  502  0.38308434958E+02 -0.39444439950E+02  0.65769635200E+03  0.65999082680E+03  0.00000000000E+00 0.  1.
         13    1    5    5    0    0 -0.20138983114E+03  0.91376750580E+02 -0.25429301974E+03  0.33700521438E+03  0.00000000000E+00 0.  1.
        -13    1    5    5    0    0 -0.77622345149E+02 -0.19714191740E+02 -0.76933625527E+02  0.11105251262E+03  0.00000000000E+00 0. -1.
          2    1    6    6  503    0  0.77231695786E+02 -0.43854650787E+02  0.15103765242E+03  0.17521511829E+03  0.00000000000E+00 0.  1.
         -2    1    6    6    0  503  0.16437129510E+03  0.37703269578E+02  0.23623166783E+03  0.29024965129E+03  0.00000000000E+00 0. -1.
<mgrwt>
<rscale>  0 0.14405909E+04</rscale>
<asrwt>0</asrwt>
<pdfrwt beam="1">  1        1 0.66615904E-01 0.14405909E+04</pdfrwt>
<pdfrwt beam="2">  1       -2 0.18433879E+00 0.14405909E+04</pdfrwt>
<totfact> 0.77508830E+00</totfact>
</mgrwt>
</event>
<event>
12    5  0.5264288E-008  0.1332584E+04  0.7818608E-02  0.9004117E-01
         -2   -1    0    0    0  501 -0.00000000000E+00  0.00000000000E+00  0.33663807700E+03  0.33663807700E+03  0.00000000000E+00 0.  1.
          1   -1    0    0  501    0  0.00000000000E+00 -0.00000000000E+00 -0.13187608572E+04  0.13187608572E+04  0.00000000000E+00 0. -1.
        -24    2    1    2    0    0 -0.23381858967E+03  0.31193898120E+02  0.64034189574E+02  0.25777229659E+03  0.81865666175E+02 0.  0.
        254    2    1    2    0    0  0.23381858967E+03 -0.31193898120E+02 -0.10461569698E+04  0.13976266376E+04  0.89625421648E+03 0.  0.
         23    2    4    4    0    0 -0.80693298235E+02 -0.38290364997E+03 -0.27551253461E+03  0.48942184403E+03  0.10246936686E+03 0.  0.
         23    2    4    4    0    0  0.31451188791E+03  0.35170975185E+03 -0.77064443515E+03  0.90820479356E+03  0.91244859777E+02 0.  0.
          1    1    3    3  502    0 -0.49367574960E+02  0.51574640808E+01 -0.19873839718E+02  0.53467059002E+02  0.00000000000E+00 0. -1.
         -2    1    3    3    0  502 -0.18445101471E+03  0.26036434039E+02  0.83908029293E+02  0.20430523759E+03  0.00000000000E+00 0.  1.
         13    1    5    5    0    0  0.31130961329E+01 -0.15432844246E+03 -0.15116087149E+03  0.21604760723E+03  0.00000000000E+00 0. -1.
        -13    1    5    5    0    0 -0.83806394368E+02 -0.22857520751E+03 -0.12435166312E+03  0.27337423680E+03  0.00000000000E+00 0.  1.
          3    1    6    6  503    0  0.98635673362E+02  0.62461715499E+02 -0.14788314439E+03  0.18841413524E+03  0.00000000000E+00 0. -1.
         -3    1    6    6    0  503  0.21587621455E+03  0.28924803635E+03 -0.62276129076E+03  0.71979065832E+03  0.00000000000E+00 0.  1.
<mgrwt>
<rscale>  0 0.13325841E+04</rscale>
<asrwt>0</asrwt>
<pdfrwt beam="1">  1        1 0.20288628E+00 0.13325841E+04</pdfrwt>
<pdfrwt beam="2">  1       -2 0.51790474E-01 0.13325841E+04</pdfrwt>
<totfact> 0.26548791E+01</totfact>
</mgrwt>
</event>
<event>
12    5  0.5264288E-008  0.1399592E+04  0.7818608E-02  0.8954114E-01
          1   -1    0    0  501    0  0.00000000000E+00  0.00000000000E+00  0.36589446521E+04  0.36589446521E+04  0.00000000000E+00 0. -1.
         -2   -1    0    0    0  501 -0.00000000000E+00 -0.00000000000E+00 -0.13384034877E+03  0.13384034877E+03  0.00000000000E+00 0.  1.
        -24    2    1    2    0    0 -0.12350291735E+03 -0.17821378190E+03  0.11688406429E+03  0.26027485541E+03  0.84071357903E+02 0.  0.
        254    2    1    2    0    0  0.12350291735E+03  0.17821378190E+03  0.34082202390E+04  0.35325101455E+04  0.90313321683E+03 0.  0.
         23    2    4    4    0    0  0.34129337681E+03 -0.21072819014E+03  0.22649762409E+04  0.23020851276E+04  0.92687775174E+02 0.  0.
         23    2    4    4    0    0 -0.21779045946E+03  0.38894197205E+03  0.11432439981E+04  0.12304250179E+04  0.90721240408E+02 0.  0.
          3    1    3    3  502    0 -0.25996552114E+01 -0.70491456966E+02  0.38678665248E+02  0.80447764778E+02  0.00000000000E+00 0. -1.
         -4    1    3    3    0  502 -0.12090326214E+03 -0.10772232494E+03  0.78205399045E+02  0.17982709064E+03  0.00000000000E+00 0.  1.
         13    1    5    5    0    0  0.30712903368E+02 -0.57833088942E+02  0.36872690953E+03  0.37449630495E+03  0.00000000000E+00 0. -1.
        -13    1    5    5    0    0  0.31058047345E+03 -0.15289510120E+03  0.18962493314E+04  0.19275888226E+04  0.00000000000E+00 0.  1.
          2    1    6    6  503    0 -0.59100809802E+02  0.68699076342E+02  0.15513295583E+03  0.17966274737E+03  0.00000000000E+00 0. -1.
         -2    1    6    6    0  503 -0.15868964966E+03  0.32024289571E+03  0.98811104232E+03  0.10507622705E+04  0.00000000000E+00 0.  1.
<mgrwt>
<rscale>  0 0.13995920E+04</rscale>
<asrwt>0</asrwt>
<pdfrwt beam="1">  1        1 0.56291449E+00 0.13995920E+04</pdfrwt>
<pdfrwt beam="2">  1       -2 0.20590826E-01 0.13995920E+04</pdfrwt>
<totfact> 0.32964732E+00</totfact>
</mgrwt>
</event>
<event>
12    5  0.5264288E-008  0.1895064E+04  0.7818608E-02  0.8657317E-01
         -2   -1    0    0    0  501 -0.00000000000E+00  0.00000000000E+00  0.22105211077E+04  0.22105211077E+04  0.00000000000E+00 0.  1.
          1   -1    0    0  501    0  0.00000000000E+00 -0.00000000000E+00 -0.40615610265E+03  0.40615610265E+03  0.00000000000E+00 0. -1.
        -24    2    1    2    0    0 -0.33728051574E+02  0.59495129156E+02 -0.30806919572E+03  0.32514988404E+03  0.78349000508E+02 0.  0.
        254    2    1    2    0    0  0.33728051574E+02 -0.59495129156E+02  0.21124342008E+04  0.22915273263E+04  0.88546145188E+03 0.  0.
         23    2    4    4    0    0  0.43647081423E+03 -0.14250612693E+03  0.11545307228E+04  0.12451955173E+04  0.82194394721E+02 0.  0.
         23    2    4    4    0    0 -0.40274276265E+03  0.83010997776E+02  0.95790347799E+03  0.10463318090E+04  0.90214316014E+02 0.  0.
          1    1    3    3  502    0  0.14229470005E+02  0.31564873494E+02 -0.20672768226E+03  0.20960714127E+03  0.00000000000E+00 0. -1.
         -2    1    3    3    0  502 -0.47957521579E+02  0.27930255662E+02 -0.10134151346E+03  0.11554274277E+03  0.00000000000E+00 0.  1.
         13    1    5    5    0    0  0.32818478554E+03 -0.68673879439E+02  0.84099562275E+03  0.90537008603E+03  0.00000000000E+00 0.  1.
        -13    1    5    5    0    0  0.10828602868E+03 -0.73832247493E+02  0.31353510003E+03  0.33982543126E+03  0.00000000000E+00 0. -1.
          4    1    6    6  503    0  0.17453933117E+01  0.92444596227E+01  0.15352165986E+02  0.18005427848E+02  0.00000000000E+00 0. -1.
         -4    1    6    6    0  503 -0.40448815597E+03  0.73766538153E+02  0.94255131200E+03  0.10283263812E+04  0.00000000000E+00 0.  1.
<mgrwt>
<rscale>  0 0.18950637E+04</rscale>
<asrwt>0</asrwt>
<pdfrwt beam="1">  1        1 0.62485555E-01 0.18950637E+04</pdfrwt>
<pdfrwt beam="2">  1       -2 0.34008016E+00 0.18950637E+04</pdfrwt>
<totfact> 0.86683872E-01</totfact>
</mgrwt>
</event>
<event>
12    5  0.5264288E-008  0.1074675E+04  0.7818608E-02  0.9230233E-01
         -2   -1    0    0    0  501 -0.00000000000E+00  0.00000000000E+00  0.14578358679E+03  0.14578358679E+03  0.00000000000E+00 0.  1.
          1   -1    0    0  501    0  0.00000000000E+00 -0.00000000000E+00 -0.19805479909E+04  0.19805479909E+04  0.00000000000E+00 0. -1.
        -24    2    1    2    0    0 -0.14439102720E+03  0.24923784309E+02 -0.20534771307E+03  0.26317818858E+03  0.75000746155E+02 0.  0.
        254    2    1    2    0    0  0.14439102720E+03 -0.24923784309E+02 -0.16294166910E+04  0.18631533891E+04  0.89155585050E+03 0.  0.
         23    2    4    4    0    0  0.15338437825E+03 -0.44150232855E+03 -0.82701789359E+03  0.95433775032E+03  0.91383104405E+02 0.  0.
         23    2    4    4    0    0 -0.89933510458E+01  0.41657854424E+03 -0.80239879745E+03  0.90881563879E+03  0.92105761320E+02 0.  0.
          1    1    3    3  502    0 -0.78553672821E+02  0.39718066673E+01 -0.16594453217E+03  0.18364106980E+03  0.00000000000E+00 0. -1.
         -2    1    3    3    0  502 -0.65837354382E+02  0.20951977642E+02 -0.39403180898E+02  0.79537118781E+02  0.00000000000E+00 0.  1.
         13    1    5    5    0    0  0.30427292428E+02 -0.51464659472E+02 -0.57769566090E+02  0.83136959683E+02  0.00000000000E+00 0.  1.
        -13    1    5    5    0    0  0.12295708582E+03 -0.39003766908E+03 -0.76924832750E+03  0.87120079064E+03  0.00000000000E+00 0. -1.
          2    1    6    6  503    0 -0.11714480838E+02  0.40005885331E+03 -0.71110328315E+03  0.81599766818E+03  0.00000000000E+00 0. -1.
         -2    1    6    6    0  503  0.27211297926E+01  0.16519690934E+02 -0.91295514302E+02  0.92817970607E+02  0.00000000000E+00 0.  1.
<mgrwt>
<rscale>  0 0.10746746E+04</rscale>
<asrwt>0</asrwt>
<pdfrwt beam="1">  1        1 0.30469967E+00 0.10746746E+04</pdfrwt>
<pdfrwt beam="2">  1       -2 0.22428246E-01 0.10746746E+04</pdfrwt>
<totfact> 0.47099204E+01</totfact>
</mgrwt>
</event>
<event>
12    5  0.5264288E-008  0.2418372E+04  0.7818608E-02  0.8432657E-01
         -4   -1    0    0    0  501 -0.00000000000E+00  0.00000000000E+00  0.12900329482E+04  0.12900329482E+04  0.00000000000E+00 0.  1.
          3   -1    0    0  501    0  0.00000000000E+00 -0.00000000000E+00 -0.11334058666E+04  0.11334058666E+04  0.00000000000E+00 0. -1.
        -24    2    1    2    0    0  0.34658927797E+03 -0.23520135158E+03 -0.88665563299E+03  0.98413022808E+03  0.83128159554E+02 0.  0.
        254    2    1    2    0    0 -0.34658927797E+03  0.23520135158E+03  0.10432827145E+04  0.14393085867E+04  0.89873610246E+03 0.  0.
         23    2    4    4    0    0 -0.62626618450E+03  0.16550417693E+03  0.52153443469E+03  0.83642829154E+03  0.89516221441E+02 0.  0.
         23    2    4    4    0    0  0.27967690653E+03  0.69697174650E+02  0.52174827985E+03  0.60288029514E+03  0.90368769736E+02 0.  0.
          1    1    3    3  502    0  0.27965279255E+03 -0.16289681936E+03 -0.73727594600E+03  0.80518127070E+03  0.00000000000E+00 0. -1.
         -2    1    3    3    0  502  0.66936485416E+02 -0.72304532223E+02 -0.14937968699E+03  0.17894895738E+03  0.00000000000E+00 0.  1.
         13    1    5    5    0    0 -0.35207783841E+03  0.47130159826E+02  0.27796607756E+03  0.45104899572E+03  0.00000000000E+00 0. -1.
        -13    1    5    5    0    0 -0.27418834608E+03  0.11837401710E+03  0.24356835713E+03  0.38537929582E+03  0.00000000000E+00 0.  1.
          1    1    6    6  503    0  0.24592099436E+02  0.32640522959E+02  0.44136162685E+02  0.60151275550E+02  0.00000000000E+00 0. -1.
         -1    1    6    6    0  503  0.25508480709E+03  0.37056651691E+02  0.47761211716E+03  0.54272901959E+03  0.00000000000E+00 0.  1.
<mgrwt>
<rscale>  0 0.24183721E+04</rscale>
<asrwt>0</asrwt>
<pdfrwt beam="1">  1        3 0.17437013E+00 0.24183721E+04</pdfrwt>
<pdfrwt beam="2">  1       -4 0.19846661E+00 0.24183721E+04</pdfrwt>
<totfact> 0.59789744E-02</totfact>
</mgrwt>
</event>
<event>
12    5  0.5264288E-008  0.1222159E+04  0.7818608E-02  0.9093679E-01
          1   -1    0    0  501    0  0.00000000000E+00  0.00000000000E+00  0.13377817007E+04  0.13377817007E+04  0.00000000000E+00 0. -1.
         -2   -1    0    0    0  501 -0.00000000000E+00 -0.00000000000E+00 -0.27913219045E+03  0.27913219045E+03  0.00000000000E+00 0.  1.
        -24    2    1    2    0    0  0.19617386126E+03 -0.12197875953E+03  0.92424780557E+02  0.26136422442E+03  0.80036967260E+02 0.  0.
        254    2    1    2    0    0 -0.19617386126E+03  0.12197875953E+03  0.96622472972E+03  0.13555496667E+04  0.92225900325E+03 0.  0.
         23    2    4    4    0    0 -0.37805245551E+03 -0.98340936509E+02  0.68270160293E+02  0.40887081810E+03  0.99598856417E+02 0.  0.
         23    2    4    4    0    0  0.18187859425E+03  0.22031969604E+03  0.89795456942E+03  0.94667884864E+03  0.90872670302E+02 0.  0.
          3    1    3    3  502    0  0.53584869752E+02 -0.62497854450E+02  0.19982976593E+01  0.82348729624E+02  0.00000000000E+00 0. -1.
         -4    1    3    3    0  502  0.14258899151E+03 -0.59480905085E+02  0.90426482898E+02  0.17901549480E+03  0.00000000000E+00 0.  1.
         13    1    5    5    0    0 -0.50738813967E+02 -0.43921227962E+02 -0.10285468993E+02  0.67891769611E+02  0.00000000000E+00 0.  1.
        -13    1    5    5    0    0 -0.32731364154E+03 -0.54419708547E+02  0.78555629286E+02  0.34097904849E+03  0.00000000000E+00 0. -1.
          4    1    6    6  503    0  0.76897959255E+02  0.48912599103E+02  0.18972386870E+03  0.21047775379E+03  0.00000000000E+00 0. -1.
         -4    1    6    6    0  503  0.10498063499E+03  0.17140709694E+03  0.70823070073E+03  0.73620109485E+03  0.00000000000E+00 0.  1.
<mgrwt>
<rscale>  0 0.12221586E+04</rscale>
<asrwt>0</asrwt>
<pdfrwt beam="1">  1        1 0.20581257E+00 0.12221586E+04</pdfrwt>
<pdfrwt beam="2">  1       -2 0.42943415E-01 0.12221586E+04</pdfrwt>
<totfact> 0.37880123E+01</totfact>
</mgrwt>
</event>
<event>
12    5  0.5264288E-008  0.1582674E+04  0.7818608E-02  0.8831263E-01
          1   -1    0    0  501    0  0.00000000000E+00  0.00000000000E+00  0.11486870865E+04  0.11486870865E+04  0.00000000000E+00 0. -1.
         -2   -1    0    0    0  501 -0.00000000000E+00 -0.00000000000E+00 -0.54515630718E+03  0.54515630718E+03  0.00000000000E+00 0.  1.
        -24    2    1    2    0    0  0.49097708575E+03 -0.14463786941E+03  0.29655971939E+03  0.59700233871E+03  0.80532684442E+02 0.  0.
        254    2    1    2    0    0 -0.49097708575E+03  0.14463786941E+03  0.30697105995E+03  0.10968410550E+04  0.92024478062E+03 0.  0.
         23    2    4    4    0    0  0.24779252193E+03  0.15681009265E+03  0.69461721106E+02  0.31523853204E+03  0.92519523922E+02 0.  0.
         23    2    4    4    0    0 -0.73876960767E+03 -0.12172223248E+02  0.23750933885E+03  0.78160252294E+03  0.92537136274E+02 0.  0.
          1    1    3    3  502    0  0.48982425450E+03 -0.14689163417E+03  0.28553776787E+03  0.58569340901E+03  0.00000000000E+00 0. -1.
         -2    1    3    3    0  502  0.11528312530E+01  0.22537647640E+01  0.11021951525E+02  0.11308929699E+02  0.00000000000E+00 0.  1.
         13    1    5    5    0    0  0.19879674064E+03  0.11971039333E+03  0.92209683727E+02  0.24970652401E+03  0.00000000000E+00 0. -1.
        -13    1    5    5    0    0  0.48995781281E+02  0.37099699322E+02 -0.22747962621E+02  0.65532008030E+02  0.00000000000E+00 0.  1.
          3    1    6    6  503    0 -0.42084336803E+03 -0.49054572427E+01  0.86979802617E+02  0.42976585484E+03  0.00000000000E+00 0. -1.
         -3    1    6    6    0  503 -0.31792623965E+03 -0.72667660051E+01  0.15052953623E+03  0.35183666810E+03  0.00000000000E+00 0.  1.
<mgrwt>
<rscale>  0 0.15826737E+04</rscale>
<asrwt>0</asrwt>
<pdfrwt beam="1">  1        1 0.17672109E+00 0.15826737E+04</pdfrwt>
<pdfrwt beam="2">  1       -2 0.83870201E-01 0.15826737E+04</pdfrwt>
<totfact> 0.12203816E+01</totfact>
</mgrwt>
</event>
<event>
12    5  0.5264288E-008  0.1187309E+04  0.7818608E-02  0.9124038E-01
         -2   -1    0    0    0  501 -0.00000000000E+00  0.00000000000E+00  0.13525131459E+03  0.13525131459E+03  0.00000000000E+00 0.  1.
          1   -1    0    0  501    0  0.00000000000E+00 -0.00000000000E+00 -0.26057101556E+04  0.26057101556E+04  0.00000000000E+00 0. -1.
        -24    2    1    2    0    0 -0.46651312747E+02  0.23940624318E+02 -0.11025279109E+04  0.11062062256E+04  0.73313852030E+02 0.  0.
        254    2    1    2    0    0  0.46651312747E+02 -0.23940624318E+02 -0.13679309301E+04  0.16347552445E+04  0.89355480052E+03 0.  0.
         23    2    4    4    0    0  0.73028822653E+02  0.26973634667E+03 -0.72191170602E+02  0.30300911542E+03  0.92260789391E+02 0.  0.
         23    2    4    4    0    0 -0.26377509906E+02 -0.29367697099E+03 -0.12957397595E+04  0.13317461291E+04  0.87545940803E+02 0.  0.
          1    1    3    3  502    0 -0.22868268721E+02  0.43719136468E+02 -0.89779931813E+03  0.89915401142E+03  0.00000000000E+00 0. -1.
         -2    1    3    3    0  502 -0.23783044026E+02 -0.19778512149E+02 -0.20472859275E+03  0.20705221423E+03  0.00000000000E+00 0.  1.
         13    1    5    5    0    0  0.75341137361E+02  0.23485546428E+03 -0.30377807498E+02  0.24850792195E+03  0.00000000000E+00 0.  1.
        -13    1    5    5    0    0 -0.23123147078E+01  0.34880882389E+02 -0.41813363104E+02  0.54501193469E+02  0.00000000000E+00 0. -1.
          4    1    6    6  503    0 -0.27677155158E+02 -0.20626398536E+02 -0.14208191085E+03  0.14621471412E+03  0.00000000000E+00 0. -1.
         -4    1    6    6    0  503  0.12996452520E+01 -0.27305057245E+03 -0.11536578487E+04  0.11855314150E+04  0.00000000000E+00 0.  1.
<mgrwt>
<rscale>  0 0.11873091E+04</rscale>
<asrwt>0</asrwt>
<pdfrwt beam="1">  1        1 0.40087847E+00 0.11873091E+04</pdfrwt>
<pdfrwt beam="2">  1       -2 0.20807895E-01 0.11873091E+04</pdfrwt>
<totfact> 0.19976904E+01</totfact>
</mgrwt>
</event>
<event>
12    5  0.5264288E-008  0.1121409E+04  0.7818608E-02  0.9184573E-01
          1   -1    0    0  501    0  0.00000000000E+00  0.00000000000E+00  0.38373494197E+04  0.38373494197E+04  0.00000000000E+00 0. -1.
         -2   -1    0    0    0  501 -0.00000000000E+00 -0.00000000000E+00 -0.81928874083E+02  0.81928874083E+02  0.00000000000E+00 0.  1.
        -24    2    1    2    0    0  0.51849609577E+01 -0.73283764976E+02  0.12624381406E+04  0.12670907954E+04  0.79822496606E+02 0.  0.
        254    2    1    2    0    0 -0.51849609577E+01  0.73283764976E+02  0.24929824051E+04  0.26521874984E+04  0.90207530769E+03 0.  0.
         23    2    4    4    0    0  0.39613590253E+03 -0.14736240682E+03  0.10503208080E+04  0.11358006145E+04  0.90718817768E+02 0.  0.
         23    2    4    4    0    0 -0.40132086349E+03  0.22064617179E+03  0.14426615970E+04  0.15163868839E+04  0.91725293948E+02 0.  0.
          3    1    3    3  502    0 -0.71118610178E+01 -0.56032391794E+02  0.11965100671E+04  0.11978424555E+04  0.00000000000E+00 0. -1.
         -4    1    3    3    0  502  0.12296821976E+02 -0.17251373182E+02  0.65928073433E+02  0.69248339864E+02  0.00000000000E+00 0.  1.
         13    1    5    5    0    0  0.13903615594E+03 -0.78359636886E+02  0.49259356168E+03  0.51780276395E+03  0.00000000000E+00 0. -1.
        -13    1    5    5    0    0  0.25709974659E+03 -0.69002769931E+02  0.55772724637E+03  0.61799785056E+03  0.00000000000E+00 0.  1.
          2    1    6    6  503    0 -0.28392638290E+03  0.17784392842E+03  0.92327303060E+03  0.98217907879E+03  0.00000000000E+00 0. -1.
         -2    1    6    6    0  503 -0.11739448059E+03  0.42802243370E+02  0.51938856645E+03  0.53420780513E+03  0.00000000000E+00 0.  1.
<mgrwt>
<rscale>  0 0.11214093E+04</rscale>
<asrwt>0</asrwt>
<pdfrwt beam="1">  1        1 0.59036131E+00 0.11214093E+04</pdfrwt>
<pdfrwt beam="2">  1       -2 0.12604445E-01 0.11214093E+04</pdfrwt>
<totfact> 0.56436174E+00</totfact>
</mgrwt>
</event>
<event>
12    5  0.5264288E-008  0.1413477E+04  0.7818608E-02  0.8944121E-01
          1   -1    0    0  501    0  0.00000000000E+00  0.00000000000E+00  0.75789986069E+03  0.75789986069E+03  0.00000000000E+00 0. -1.
         -2   -1    0    0    0  501 -0.00000000000E+00 -0.00000000000E+00 -0.65903047829E+03  0.65903047829E+03  0.00000000000E+00 0.  1.
        -24    2    1    2    0    0  0.28866113090E+03 -0.25956856137E+03 -0.11750082470E+03  0.41196875421E+03  0.72185345436E+02 0.  0.
        254    2    1    2    0    0 -0.28866113090E+03  0.25956856137E+03  0.21637020710E+03  0.10049615848E+04  0.90134934061E+03 0.  0.
         23    2    4    4    0    0 -0.32900463639E+03  0.53757681482E+03  0.29240050563E+03  0.70085166680E+03  0.91989785168E+02 0.  0.
         23    2    4    4    0    0  0.40343505493E+02 -0.27800825345E+03 -0.76030298527E+02  0.30410991797E+03  0.88238588469E+02 0.  0.
          3    1    3    3  502    0 -0.28190511011E+01  0.16509886989E+01 -0.21908783530E+01  0.39335430279E+01  0.00000000000E+00 0. -1.
         -4    1    3    3    0  502  0.29148018200E+03 -0.26121955007E+03 -0.11530994634E+03  0.40803521118E+03  0.00000000000E+00 0.  1.
         13    1    5    5    0    0 -0.32829559265E+03  0.50325883130E+03  0.28772963252E+03  0.66621001858E+03  0.00000000000E+00 0.  1.
        -13    1    5    5    0    0 -0.70904374210E+00  0.34317983517E+02  0.46708731082E+01  0.34641648218E+02  0.00000000000E+00 0. -1.
          4    1    6    6  503    0 -0.21459514926E+02 -0.43387441672E+02  0.41457673956E+01  0.48581562995E+02  0.00000000000E+00 0. -1.
         -4    1    6    6    0  503  0.61803020419E+02 -0.23462081177E+03 -0.80176065923E+02  0.25552835498E+03  0.00000000000E+00 0.  1.
<mgrwt>
<rscale>  0 0.14134767E+04</rscale>
<asrwt>0</asrwt>
<pdfrwt beam="1">  1        1 0.11659998E+00 0.14134767E+04</pdfrwt>
<pdfrwt beam="2">  1       -2 0.10138930E+00 0.14134767E+04</pdfrwt>
<totfact> 0.16430533E+01</totfact>
</mgrwt>
</event>
<event>
12    5  0.5264288E-008  0.1884538E+04  0.7818608E-02  0.8662591E-01
          1   -1    0    0  501    0  0.00000000000E+00  0.00000000000E+00  0.75173810456E+03  0.75173810456E+03  0.00000000000E+00 0. -1.
         -2   -1    0    0    0  501 -0.00000000000E+00 -0.00000000000E+00 -0.11810908720E+04  0.11810908720E+04  0.00000000000E+00 0.  1.
        -24    2    1    2    0    0  0.19738008212E+03 -0.25597602402E+03 -0.82464678415E+03  0.88931208152E+03  0.79693400235E+02 0.  0.
        254    2    1    2    0    0 -0.19738008212E+03  0.25597602402E+03  0.39529401670E+03  0.10435168950E+04  0.91004809154E+03 0.  0.
         23    2    4    4    0    0  0.10025813634E+03  0.24052855059E+03  0.60651187049E+03  0.66674091812E+03  0.93707658660E+02 0.  0.
         23    2    4    4    0    0 -0.29763821846E+03  0.15447473428E+02 -0.21121785379E+03  0.37677597693E+03  0.92303962583E+02 0.  0.
          3    1    3    3  502    0  0.36558928747E+02 -0.41702514878E+02 -0.23813806047E+03  0.24451051278E+03  0.00000000000E+00 0. -1.
         -4    1    3    3    0  502  0.16082115338E+03 -0.21427350914E+03 -0.58650872368E+03  0.64480156874E+03  0.00000000000E+00 0.  1.
         13    1    5    5    0    0  0.22423763348E+02  0.16784291172E+03  0.40062423579E+03  0.43494119888E+03  0.00000000000E+00 0. -1.
        -13    1    5    5    0    0  0.77834372988E+02  0.72685638866E+02  0.20588763470E+03  0.23179971924E+03  0.00000000000E+00 0.  1.
          4    1    6    6  503    0 -0.10651086324E+03 -0.21308808634E+02 -0.11990840411E+03  0.16179201059E+03  0.00000000000E+00 0. -1.
         -4    1    6    6    0  503 -0.19112735522E+03  0.36756282062E+02 -0.91309449685E+02  0.21498396635E+03  0.00000000000E+00 0.  1.
<mgrwt>
<rscale>  0 0.18845382E+04</rscale>
<asrwt>0</asrwt>
<pdfrwt beam="1">  1        1 0.11565202E+00 0.18845382E+04</pdfrwt>
<pdfrwt beam="2">  1       -2 0.18170629E+00 0.18845382E+04</pdfrwt>
<totfact> 0.35323247E+00</totfact>
</mgrwt>
</event>
<event>
12    5  0.5264288E-008  0.1993393E+04  0.7818608E-02  0.8609716E-01
         -2   -1    0    0    0  501 -0.00000000000E+00  0.00000000000E+00  0.46855932145E+03  0.46855932145E+03  0.00000000000E+00 0.  1.
          1   -1    0    0  501    0  0.00000000000E+00 -0.00000000000E+00 -0.21201247384E+04  0.21201247384E+04  0.00000000000E+00 0. -1.
        -24    2    1    2    0    0 -0.57179405953E+03  0.36410467647E+03 -0.12501534108E+03  0.69390352651E+03  0.79703241203E+02 0.  0.
        254    2    1    2    0    0  0.57179405953E+03 -0.36410467647E+03 -0.15265500758E+04  0.18947805333E+04  0.89460464643E+03 0.  0.
         23    2    4    4    0    0  0.53847120646E+03  0.89557123430E+02 -0.12156343411E+04  0.13358443227E+04  0.93495907369E+02 0.  0.
         23    2    4    4    0    0  0.33322853069E+02 -0.45366179990E+03 -0.31091573472E+03  0.55893621059E+03  0.93923650849E+02 0.  0.
          3    1    3    3  502    0  0.94155617350E+00 -0.19161657468E+01 -0.24286810474E+01  0.32336837859E+01  0.00000000000E+00 0. -1.
         -4    1    3    3    0  502 -0.57273561570E+03  0.36602084221E+03 -0.12258666003E+03  0.69066984272E+03  0.00000000000E+00 0.  1.
         13    1    5    5    0    0  0.39368144966E+03  0.10704089546E+03 -0.89421799439E+03  0.98288791762E+03  0.00000000000E+00 0.  1.
        -13    1    5    5    0    0  0.14478975680E+03 -0.17483772035E+02 -0.32141634673E+03  0.35295640510E+03  0.00000000000E+00 0. -1.
          1    1    6    6  503    0  0.10895458340E+02 -0.88057212508E+02 -0.10944300789E+03  0.14089199999E+03  0.00000000000E+00 0. -1.
         -1    1    6    6    0  503  0.22427394729E+02 -0.36560458739E+03 -0.20147272684E+03  0.41804421060E+03  0.00000000000E+00 0.  1.
<mgrwt>
<rscale>  0 0.19933933E+04</rscale>
<asrwt>0</asrwt>
<pdfrwt beam="1">  1        1 0.32617304E+00 0.19933933E+04</pdfrwt>
<pdfrwt beam="2">  1       -2 0.72086049E-01 0.19933933E+04</pdfrwt>
<totfact> 0.35088473E+00</totfact>
</mgrwt>
</event>
<event>
12    5  0.5264288E-008  0.1159545E+04  0.7818608E-02  0.9149022E-01
          1   -1    0    0  501    0  0.00000000000E+00  0.00000000000E+00  0.41564553827E+03  0.41564553827E+03  0.00000000000E+00 0. -1.
         -2   -1    0    0    0  501 -0.00000000000E+00 -0.00000000000E+00 -0.80870913378E+03  0.80870913378E+03  0.00000000000E+00 0.  1.
        -24    2    1    2    0    0  0.13191656561E+03  0.17298528852E+03 -0.30787485112E+02  0.23345707276E+03  0.78920499580E+02 0.  0.
        254    2    1    2    0    0 -0.13191656561E+03 -0.17298528852E+03 -0.36227611040E+03  0.99089759928E+03  0.89627461293E+03 0.  0.
         23    2    4    4    0    0 -0.40540591963E+03 -0.39455654358E+01 -0.48193291791E+03  0.63644758141E+03  0.91851289353E+02 0.  0.
         23    2    4    4    0    0  0.27348935402E+03 -0.16903972309E+03  0.11965680751E+03  0.35445001788E+03  0.89141510237E+02 0.  0.
          3    1    3    3  502    0 -0.14292016455E+01  0.50201301386E+01  0.13497691107E+02  0.14471765241E+02  0.00000000000E+00 0. -1.
         -4    1    3    3    0  502  0.13334576725E+03  0.16796515839E+03 -0.44285176219E+02  0.21898530752E+03  0.00000000000E+00 0.  1.
         13    1    5    5    0    0 -0.38909154861E+02  0.25073998939E+02 -0.36886036286E+02  0.59187899334E+02  0.00000000000E+00 0. -1.
        -13    1    5    5    0    0 -0.36649676477E+03 -0.29019564375E+02 -0.44504688163E+03  0.57725968207E+03  0.00000000000E+00 0.  1.
          1    1    6    6  503    0  0.71769060746E+02 -0.62190552832E+02 -0.35876452945E+01  0.95033331735E+02  0.00000000000E+00 0. -1.
         -1    1    6    6    0  503  0.20172029327E+03 -0.10684917026E+03  0.12324445281E+03  0.25941668614E+03  0.00000000000E+00 0.  1.
<mgrwt>
<rscale>  0 0.11595453E+04</rscale>
<asrwt>0</asrwt>
<pdfrwt beam="1">  1        1 0.63945468E-01 0.11595453E+04</pdfrwt>
<pdfrwt beam="2">  1       -2 0.12441679E+00 0.11595453E+04</pdfrwt>
<totfact> 0.23968202E+01</totfact>
</mgrwt>
</event>
<event>
12    5  0.5264288E-008  0.1831630E+04  0.7818608E-02  0.8689658E-01
         -2   -1    0    0    0  501 -0.00000000000E+00  0.00000000000E+00  0.85976354346E+03  0.85976354346E+03  0.00000000000E+00 0.  1.
          1   -1    0    0  501    0  0.00000000000E+00 -0.00000000000E+00 -0.97552033761E+03  0.97552033761E+03  0.00000000000E+00 0. -1.
        -24    2    1    2    0    0  0.63046197836E+03 -0.70312556896E+02 -0.33109997642E+03  0.71977794334E+03  0.77633314454E+02 0.  0.
        254    2    1    2    0    0 -0.63046197836E+03  0.70312556896E+02  0.21534318226E+03  0.11155059377E+04  0.89193870257E+03 0.  0.
         23    2    4    4    0    0 -0.56537495020E+03  0.26436916879E+03  0.46232815568E+03  0.78191336386E+03  0.90007184936E+02 0.  0.
         23    2    4    4    0    0 -0.65087028167E+02 -0.19405661189E+03 -0.24698497342E+03  0.33359257387E+03  0.91586780656E+02 0.  0.
          1    1    3    3  502    0  0.57590196803E+03 -0.43609635856E+02 -0.28860499866E+03  0.64564519852E+03  0.00000000000E+00 0. -1.
         -2    1    3    3    0  502  0.54560010334E+02 -0.26702921040E+02 -0.42494977758E+02  0.74132744819E+02  0.00000000000E+00 0.  1.
         13    1    5    5    0    0 -0.20273628354E+03  0.48156296168E+02  0.15469004122E+03  0.25951885939E+03  0.00000000000E+00 0.  1.
        -13    1    5    5    0    0 -0.36263866665E+03  0.21621287262E+03  0.30763811446E+03  0.52239450447E+03  0.00000000000E+00 0. -1.
          3    1    6    6  503    0 -0.43817913294E+01 -0.12200386529E+03 -0.94648137387E+02  0.15447463595E+03  0.00000000000E+00 0. -1.
         -3    1    6    6    0  503 -0.60705236838E+02 -0.72052746603E+02 -0.15233683603E+03  0.17911793792E+03  0.00000000000E+00 0.  1.
<mgrwt>
<rscale>  0 0.18316297E+04</rscale>
<asrwt>0</asrwt>
<pdfrwt beam="1">  1        1 0.15008005E+00 0.18316297E+04</pdfrwt>
<pdfrwt beam="2">  1       -2 0.13227131E+00 0.18316297E+04</pdfrwt>
<totfact> 0.54223817E+00</totfact>
</mgrwt>
</event>
<event>
12    5  0.5264288E-008  0.1105116E+04  0.7818608E-02  0.9200220E-01
          1   -1    0    0  501    0  0.00000000000E+00  0.00000000000E+00  0.15236054756E+04  0.15236054756E+04  0.00000000000E+00 0. -1.
         -2   -1    0    0    0  501 -0.00000000000E+00 -0.00000000000E+00 -0.20039324943E+03  0.20039324943E+03  0.00000000000E+00 0.  1.
        -24    2    1    2    0    0 -0.17727232286E+03 -0.49880007866E+02  0.31650343203E+03  0.37464229917E+03  0.79176626584E+02 0.  0.
        254    2    1    2    0    0  0.17727232286E+03  0.49880007866E+02  0.10067087941E+04  0.13493564258E+04  0.87942405936E+03 0.  0.
         23    2    4    4    0    0 -0.23087463433E+03  0.24964464073E+03  0.16591113769E+03  0.38929226462E+03  0.91631971813E+02 0.  0.
         23    2    4    4    0    0  0.40814695720E+03 -0.19976463286E+03  0.84079765643E+03  0.96006416123E+03  0.91063974293E+02 0.  0.
          1    1    3    3  502    0  0.59669600894E+01  0.22734289994E+00  0.31960796895E+02  0.32513825301E+02  0.00000000000E+00 0. -1.
         -2    1    3    3    0  502 -0.18323928295E+03 -0.50107350766E+02  0.28454263514E+03  0.34212847387E+03  0.00000000000E+00 0.  1.
         13    1    5    5    0    0 -0.20938357682E+03  0.18906723666E+03  0.10583690249E+03  0.30131271488E+03  0.00000000000E+00 0. -1.
        -13    1    5    5    0    0 -0.21491057512E+02  0.60577404067E+02  0.60074235202E+02  0.87979549735E+02  0.00000000000E+00 0.  1.
          2    1    6    6  503    0  0.35771597878E+03 -0.19908282420E+03  0.78137351407E+03  0.88212202152E+03  0.00000000000E+00 0. -1.
         -2    1    6    6    0  503  0.50430978422E+02 -0.68180866094E+00  0.59424142362E+02  0.77942139714E+02  0.00000000000E+00 0.  1.
<mgrwt>
<rscale>  0 0.11051158E+04</rscale>
<asrwt>0</asrwt>
<pdfrwt beam="1">  1        1 0.23440083E+00 0.11051158E+04</pdfrwt>
<pdfrwt beam="2">  1       -2 0.30829732E-01 0.11051158E+04</pdfrwt>
<totfact> 0.53656459E+01</totfact>
</mgrwt>
</event>
<event>
12    5  0.5264288E-008  0.2809086E+04  0.7818608E-02  0.8300453E-01
          1   -1    0    0  501    0  0.00000000000E+00  0.00000000000E+00  0.40533957960E+04  0.40533957960E+04  0.00000000000E+00 0. -1.
         -2   -1    0    0    0  501 -0.00000000000E+00 -0.00000000000E+00 -0.48668846510E+03  0.48668846510E+03  0.00000000000E+00 0.  1.
        -24    2    1    2    0    0  0.58647726222E+03 -0.57513205070E+03  0.60929581672E+02  0.82748549280E+03  0.79292950684E+02 0.  0.
        254    2    1    2    0    0 -0.58647726222E+03  0.57513205070E+03  0.35057777493E+04  0.37125987683E+04  0.90453277035E+03 0.  0.
         23    2    4    4    0    0 -0.71820476545E+02  0.57703989927E+03  0.26093884830E+04  0.26749978449E+04  0.92585035772E+02 0.  0.
         23    2    4    4    0    0 -0.51465678568E+03 -0.19078485742E+01  0.89638926628E+03  0.10376009235E+04  0.90701227752E+02 0.  0.
          3    1    3    3  502    0  0.12049120615E+02 -0.25429430235E+02  0.12921852370E+02  0.30964681467E+02  0.00000000000E+00 0. -1.
         -4    1    3    3    0  502  0.57442814161E+03 -0.54970262046E+03  0.48007729302E+02  0.79652081133E+03  0.00000000000E+00 0.  1.
         13    1    5    5    0    0 -0.67598102892E+01  0.24448631445E+01  0.81296403033E+02  0.81613586718E+02  0.00000000000E+00 0. -1.
        -13    1    5    5    0    0 -0.65060666255E+02  0.57459503613E+03  0.25280920800E+04  0.25933842582E+04  0.00000000000E+00 0.  1.
          1    1    6    6  503    0 -0.31335205386E+02 -0.21847834438E+02  0.52956578907E+02  0.65296418093E+02  0.00000000000E+00 0. -1.
         -1    1    6    6    0  503 -0.48332158029E+03  0.19939985864E+02  0.84343268738E+03  0.97230450536E+03  0.00000000000E+00 0.  1.
<mgrwt>
<rscale>  0 0.28090860E+04</rscale>
<asrwt>0</asrwt>
<pdfrwt beam="1">  1        1 0.62359933E+00 0.28090860E+04</pdfrwt>
<pdfrwt beam="2">  1       -2 0.74875151E-01 0.28090860E+04</pdfrwt>
<totfact> 0.10499771E-01</totfact>
</mgrwt>
</event>
<event>
12    5  0.5264288E-008  0.2611440E+04  0.7818608E-02  0.8364326E-01
          1   -1    0    0  501    0  0.00000000000E+00  0.00000000000E+00  0.26323861831E+04  0.26323861831E+04  0.00000000000E+00 0. -1.
         -2   -1    0    0    0  501 -0.00000000000E+00 -0.00000000000E+00 -0.64766521081E+03  0.64766521081E+03  0.00000000000E+00 0.  1.
        -24    2    1    2    0    0 -0.25672994703E+02 -0.10619810734E+04  0.32637970766E+03  0.11143408923E+04  0.82273979245E+02 0.  0.
        254    2    1    2    0    0  0.25672994703E+02  0.10619810734E+04  0.16583412646E+04  0.21657105016E+04  0.90096799262E+03 0.  0.
         23    2    4    4    0    0 -0.10059584277E+03 -0.12842832540E+03  0.28331927917E+03  0.34031021186E+03  0.94487395994E+02 0.  0.
         23    2    4    4    0    0  0.12626883747E+03  0.11904093988E+04  0.13750219854E+04  0.18254002897E+04  0.91555453624E+02 0.  0.
          3    1    3    3  502    0  0.18992402467E+02 -0.43597139143E+03  0.16288889373E+03  0.46579454397E+03  0.00000000000E+00 0. -1.
         -4    1    3    3    0  502 -0.44665397171E+02 -0.62600968202E+03  0.16349081392E+03  0.64854634832E+03  0.00000000000E+00 0.  1.
         13    1    5    5    0    0  0.53698437683E+01  0.11074330478E+02  0.28891445764E+02  0.31403688572E+02  0.00000000000E+00 0. -1.
        -13    1    5    5    0    0 -0.10596568654E+03 -0.13950265587E+03  0.25442783341E+03  0.30890652329E+03  0.00000000000E+00 0.  1.
          4    1    6    6  503    0  0.65519457218E+02  0.32853104624E+03  0.42680271815E+03  0.54257350455E+03  0.00000000000E+00 0. -1.
         -4    1    6    6    0  503  0.60749380256E+02  0.86187835261E+03  0.94821926727E+03  0.12828267852E+04  0.00000000000E+00 0.  1.
<mgrwt>
<rscale>  0 0.26114402E+04</rscale>
<asrwt>0</asrwt>
<pdfrwt beam="1">  1        1 0.40498248E+00 0.26114402E+04</pdfrwt>
<pdfrwt beam="2">  1       -2 0.99640803E-01 0.26114402E+04</pdfrwt>
<totfact> 0.70564396E-01</totfact>
</mgrwt>
</event>
<event>
12    5  0.5264288E-008  0.2108916E+04  0.7818608E-02  0.8557326E-01
         -2   -1    0    0    0  501 -0.00000000000E+00  0.00000000000E+00  0.31290966384E+03  0.31290966384E+03  0.00000000000E+00 0.  1.
          1   -1    0    0  501    0  0.00000000000E+00 -0.00000000000E+00 -0.35533632298E+04  0.35533632298E+04  0.00000000000E+00 0. -1.
        -24    2    1    2    0    0 -0.58340422837E+03 -0.46131100393E+03 -0.54002408446E+03  0.92276928987E+03  0.81907353103E+02 0.  0.
        254    2    1    2    0    0  0.58340422837E+03  0.46131100393E+03 -0.27004294815E+04  0.29435036037E+04  0.90483465056E+03 0.  0.
         23    2    4    4    0    0  0.78266243598E+03  0.37867280291E+03 -0.16387791739E+04  0.18571980087E+04  0.87370947526E+02 0.  0.
         23    2    4    4    0    0 -0.19925820760E+03  0.82638201020E+02 -0.10616503076E+04  0.10863055950E+04  0.80159619697E+02 0.  0.
          3    1    3    3  502    0 -0.21123246148E+03 -0.16156911231E+03 -0.24213885410E+03  0.35965949939E+03  0.00000000000E+00 0. -1.
         -4    1    3    3    0  502 -0.37217176690E+03 -0.29974189161E+03 -0.29788523036E+03  0.56310979048E+03  0.00000000000E+00 0.  1.
         13    1    5    5    0    0  0.59100589474E+02  0.36814996357E+02 -0.89002134934E+02  0.11300267101E+03  0.00000000000E+00 0.  1.
        -13    1    5    5    0    0  0.72356184650E+03  0.34185780655E+03 -0.15497770389E+04  0.17441953377E+04  0.00000000000E+00 0. -1.
          3    1    6    6  503    0 -0.27869648368E+02 -0.16120004566E+02 -0.16146589585E+03  0.16464448782E+03  0.00000000000E+00 0.  1.
         -3    1    6    6    0  503 -0.17138855924E+03  0.98758205586E+02 -0.90018441174E+03  0.92166110721E+03  0.00000000000E+00 0. -1.
<mgrwt>
<rscale>  0 0.21089160E+04</rscale>
<asrwt>0</asrwt>
<pdfrwt beam="1">  1        1 0.54667126E+00 0.21089160E+04</pdfrwt>
<pdfrwt beam="2">  1       -2 0.48139949E-01 0.21089160E+04</pdfrwt>
<totfact> 0.75114200E-01</totfact>
</mgrwt>
</event>
<event>
12    5  0.5264288E-008  0.2002633E+04  0.7818608E-02  0.8605391E-01
          1   -1    0    0  501    0  0.00000000000E+00  0.00000000000E+00  0.18860554563E+04  0.18860554563E+04  0.00000000000E+00 0. -1.
         -4   -1    0    0    0  501 -0.00000000000E+00 -0.00000000000E+00 -0.53160384601E+03  0.53160384601E+03  0.00000000000E+00 0.  1.
        -24    2    1    2    0    0  0.76327275167E+03  0.20085344115E+03  0.40552079430E+03  0.89083126837E+03  0.78777127572E+02 0.  0.
        254    2    1    2    0    0 -0.76327275167E+03 -0.20085344115E+03  0.94893081598E+03  0.15268280339E+04  0.89878070374E+03 0.  0.
         23    2    4    4    0    0 -0.61031760088E+03 -0.29988071906E+03  0.15265284346E+03  0.70417551258E+03  0.10071862933E+03 0.  0.
         23    2    4    4    0    0 -0.15295515079E+03  0.99027277909E+02  0.79627797252E+03  0.82265252135E+03  0.97451944299E+02 0.  0.
          3    1    3    3  502    0  0.33968510104E+02  0.23522547640E+02  0.33203468868E+02  0.53006039948E+02  0.00000000000E+00 0. -1.
         -4    1    3    3    0  502  0.72930424156E+03  0.17733089351E+03  0.37231732544E+03  0.83782522842E+03  0.00000000000E+00 0.  1.
         13    1    5    5    0    0 -0.83383675554E+02 -0.68078272663E+02 -0.35145416217E+01  0.10770255596E+03  0.00000000000E+00 0. -1.
        -13    1    5    5    0    0 -0.52693392532E+03 -0.23180244639E+03  0.15616738508E+03  0.59647295662E+03  0.00000000000E+00 0.  1.
          1    1    6    6  503    0  0.94738724458E+01  0.20013769458E+02  0.47673708142E+02  0.52565080377E+02  0.00000000000E+00 0. -1.
         -1    1    6    6    0  503 -0.16242902323E+03  0.79013508451E+02  0.74860426438E+03  0.77008744098E+03  0.00000000000E+00 0.  1.
<mgrwt>
<rscale>  0 0.20026326E+04</rscale>
<asrwt>0</asrwt>
<pdfrwt beam="1">  1        1 0.29016237E+00 0.20026326E+04</pdfrwt>
<pdfrwt beam="2">  1       -4 0.81785208E-01 0.20026326E+04</pdfrwt>
<totfact> 0.21439874E+00</totfact>
</mgrwt>
</event>
<event>
12    5  0.5264288E-008  0.2455075E+04  0.7818608E-02  0.8419168E-01
         -2   -1    0    0    0  501 -0.00000000000E+00  0.00000000000E+00  0.38710572824E+03  0.38710572824E+03  0.00000000000E+00 0.  1.
          1   -1    0    0  501    0  0.00000000000E+00 -0.00000000000E+00 -0.38926001550E+04  0.38926001550E+04  0.00000000000E+00 0. -1.
        -24    2    1    2    0    0  0.73282952688E+03  0.50654932159E+03 -0.51382656244E+03  0.10314724934E+04  0.79287059062E+02 0.  0.
        254    2    1    2    0    0 -0.73282952688E+03 -0.50654932159E+03 -0.29916678643E+04  0.32482333898E+04  0.89850554457E+03 0.  0.
         23    2    4    4    0    0 -0.51966344875E+03  0.12683076087E+03 -0.90691941989E+03  0.10570681738E+04  0.93563604502E+02 0.  0.
         23    2    4    4    0    0 -0.21316607813E+03 -0.63338008246E+03 -0.20847484444E+04  0.21911652160E+04  0.91754135901E+02 0.  0.
          1    1    3    3  502    0  0.55939132177E+02  0.51039003318E+02 -0.67729942008E+02  0.10159483950E+03  0.00000000000E+00 0. -1.
         -2    1    3    3    0  502  0.67689039470E+03  0.45551031827E+03 -0.44609662043E+03  0.92987765392E+03  0.00000000000E+00 0.  1.
         13    1    5    5    0    0 -0.71892763451E+02  0.26785472947E+02 -0.76578779584E+02  0.10839898745E+03  0.00000000000E+00 0. -1.
        -13    1    5    5    0    0 -0.44777068530E+03  0.10004528792E+03 -0.83034064030E+03  0.94866918638E+03  0.00000000000E+00 0.  1.
          3    1    6    6  503    0 -0.12006354878E+02 -0.74262182228E+01 -0.83368168378E+02  0.84555028078E+02  0.00000000000E+00 0. -1.
         -3    1    6    6    0  503 -0.20115972325E+03 -0.62595386424E+03 -0.20013802760E+04  0.21066101879E+04  0.00000000000E+00 0.  1.
<mgrwt>
<rscale>  0 0.24550746E+04</rscale>
<asrwt>0</asrwt>
<pdfrwt beam="1">  1        1 0.59886156E+00 0.24550746E+04</pdfrwt>
<pdfrwt beam="2">  1       -2 0.59554728E-01 0.24550746E+04</pdfrwt>
<totfact> 0.24603697E-01</totfact>
</mgrwt>
</event>
<event>
12    5  0.5264288E-008  0.2230409E+04  0.7818608E-02  0.8505877E-01
          1   -1    0    0  501    0  0.00000000000E+00  0.00000000000E+00  0.15040640192E+04  0.15040640192E+04  0.00000000000E+00 0. -1.
         -2   -1    0    0    0  501 -0.00000000000E+00 -0.00000000000E+00 -0.82688007918E+03  0.82688007918E+03  0.00000000000E+00 0.  1.
        -24    2    1    2    0    0 -0.24870547061E+03  0.30178975020E+03 -0.59275875931E+03  0.71499799208E+03  0.83232911114E+02 0.  0.
        254    2    1    2    0    0  0.24870547061E+03 -0.30178975020E+03  0.12699426994E+04  0.16159461064E+04  0.91956288230E+03 0.  0.
         23    2    4    4    0    0  0.35559084742E+03 -0.26914751913E+03  0.14028159414E+03  0.47697356896E+03  0.94549574364E+02 0.  0.
         23    2    4    4    0    0 -0.10688537681E+03 -0.32642231067E+02  0.11296611052E+04  0.11389725374E+04  0.92920553235E+02 0.  0.
          3    1    3    3  502    0 -0.23516084298E+02  0.42603863604E+02 -0.34673300815E+02  0.59752265264E+02  0.00000000000E+00 0. -1.
         -4    1    3    3    0  502 -0.22518938632E+03  0.25918588659E+03 -0.55808545850E+03  0.65524572681E+03  0.00000000000E+00 0.  1.
         13    1    5    5    0    0  0.11588385910E+03 -0.65606084696E+02  0.13194351372E+01  0.13317270012E+03  0.00000000000E+00 0.  1.
        -13    1    5    5    0    0  0.23970698832E+03 -0.20354143443E+03  0.13896215900E+03  0.34380086884E+03  0.00000000000E+00 0. -1.
          4    1    6    6  503    0 -0.23828775786E+02 -0.13623907546E+02  0.60661583459E+02  0.66582648790E+02  0.00000000000E+00 0. -1.
         -4    1    6    6    0  503 -0.83056601022E+02 -0.19018323521E+02  0.10689995218E+04  0.10723898886E+04  0.00000000000E+00 0.  1.
<mgrwt>
<rscale>  0 0.22304086E+04</rscale>
<asrwt>0</asrwt>
<pdfrwt beam="1">  1        1 0.23139446E+00 0.22304086E+04</pdfrwt>
<pdfrwt beam="2">  1       -2 0.12721232E+00 0.22304086E+04</pdfrwt>
<totfact> 0.23803757E+00</totfact>
</mgrwt>
</event>
<event>
12    5  0.5264288E-008  0.1501403E+04  0.7818608E-02  0.8883520E-01
          1   -1    0    0  501    0  0.00000000000E+00  0.00000000000E+00  0.86293989639E+03  0.86293989639E+03  0.00000000000E+00 0. -1.
         -2   -1    0    0    0  501 -0.00000000000E+00 -0.00000000000E+00 -0.65306178362E+03  0.65306178362E+03  0.00000000000E+00 0.  1.
        -24    2    1    2    0    0 -0.22604856587E+02 -0.74896522142E+02  0.54124303255E+03  0.55333606953E+03  0.84358265680E+02 0.  0.
        254    2    1    2    0    0  0.22604856587E+02  0.74896522142E+02 -0.33136491978E+03  0.96266561048E+03  0.90044538922E+03 0.  0.
         23    2    4    4    0    0  0.11210712529E+03  0.30894607522E+02 -0.62353672556E+03  0.64073607112E+03  0.90676239429E+02 0.  0.
         23    2    4    4    0    0 -0.89502268702E+02  0.44001914621E+02  0.29217180578E+03  0.32192953935E+03  0.91254806034E+02 0.  0.
          1    1    3    3  502    0  0.16621560659E+01 -0.51737729508E+02  0.48569279095E+03  0.48844348967E+03  0.00000000000E+00 0. -1.
         -2    1    3    3    0  502 -0.24267012653E+02 -0.23158792635E+02  0.55550241599E+02  0.64892579862E+02  0.00000000000E+00 0.  1.
         13    1    5    5    0    0  0.11431645052E+03  0.49410658816E+00 -0.43596305690E+03  0.45070198799E+03  0.00000000000E+00 0. -1.
        -13    1    5    5    0    0 -0.22093252257E+01  0.30400500933E+02 -0.18757366866E+03  0.19003408313E+03  0.00000000000E+00 0.  1.
          1    1    6    6  503    0 -0.83769889721E+02  0.38302627898E+02  0.29803443838E+03  0.31194392475E+03  0.00000000000E+00 0. -1.
         -1    1    6    6    0  503 -0.57323789815E+01  0.56992867229E+01 -0.58626326044E+01  0.99856146026E+01  0.00000000000E+00 0.  1.
<mgrwt>
<rscale>  0 0.15014034E+04</rscale>
<asrwt>0</asrwt>
<pdfrwt beam="1">  1        1 0.13275998E+00 0.15014034E+04</pdfrwt>
<pdfrwt beam="2">  1       -2 0.10047104E+00 0.15014034E+04</pdfrwt>
<totfact> 0.13522244E+01</totfact>
</mgrwt>
</event>
<event>
12    5  0.5264288E-008  0.1380172E+04  0.7818608E-02  0.8968297E-01
          1   -1    0    0  501    0  0.00000000000E+00  0.00000000000E+00  0.61293075212E+03  0.61293075212E+03  0.00000000000E+00 0. -1.
         -2   -1    0    0    0  501 -0.00000000000E+00 -0.00000000000E+00 -0.77695364134E+03  0.77695364134E+03  0.00000000000E+00 0.  1.
        -24    2    1    2    0    0 -0.39744885813E+02  0.34192702165E+03  0.13593044319E+03  0.37963957231E+03  0.84589452050E+02 0.  0.
        254    2    1    2    0    0  0.39744885813E+02 -0.34192702165E+03 -0.29995333241E+03  0.10102448211E+04  0.90118192000E+03 0.  0.
         23    2    4    4    0    0  0.38847461629E+03  0.24337475928E+02 -0.29355009195E+03  0.49646601871E+03  0.93819033331E+02 0.  0.
         23    2    4    4    0    0 -0.34872973048E+03 -0.36626449758E+03 -0.64032404535E+01  0.51377880243E+03  0.90363428630E+02 0.  0.
          3    1    3    3  502    0 -0.17837161902E+02  0.20278898611E+03  0.12381308920E+03  0.23826711541E+03  0.00000000000E+00 0. -1.
         -4    1    3    3    0  502 -0.21907723912E+02  0.13913803554E+03  0.12117353988E+02  0.14137245690E+03  0.00000000000E+00 0.  1.
         13    1    5    5    0    0  0.38078257760E+03  0.30583851748E+02 -0.29904301819E+03  0.48513654791E+03  0.00000000000E+00 0.  1.
        -13    1    5    5    0    0  0.76920386894E+01 -0.62463758195E+01  0.54929262335E+01  0.11329470803E+02  0.00000000000E+00 0. -1.
          1    1    6    6  503    0 -0.22402306174E+02 -0.21120393180E+02 -0.23109653260E+02  0.38496628473E+02  0.00000000000E+00 0. -1.
         -1    1    6    6    0  503 -0.32632742430E+03 -0.34514410440E+03  0.16706412806E+02  0.47528217396E+03  0.00000000000E+00 0.  1.
<mgrwt>
<rscale>  0 0.13801721E+04</rscale>
<asrwt>0</asrwt>
<pdfrwt beam="1">  1        1 0.94297039E-01 0.13801721E+04</pdfrwt>
<pdfrwt beam="2">  1       -2 0.11953133E+00 0.13801721E+04</pdfrwt>
<totfact> 0.15212174E+01</totfact>
</mgrwt>
</event>
<event>
12    5  0.5264288E-008  0.2483658E+04  0.7818608E-02  0.8408831E-01
         -4   -1    0    0    0  501 -0.00000000000E+00  0.00000000000E+00  0.83596875216E+03  0.83596875216E+03  0.00000000000E+00 0.  1.
          1   -1    0    0  501    0  0.00000000000E+00 -0.00000000000E+00 -0.18447336406E+04  0.18447336406E+04  0.00000000000E+00 0. -1.
        -24    2    1    2    0    0 -0.19850325010E+03 -0.89063101710E+03 -0.10629999560E+04  0.14032214655E+04  0.80214872061E+02 0.  0.
        254    2    1    2    0    0  0.19850325010E+03  0.89063101710E+03  0.54235067609E+02  0.12774809273E+04  0.89240625730E+03 0.  0.
         23    2    4    4    0    0  0.34860433352E+03  0.50689771625E+03 -0.33478789056E+03  0.70525702699E+03  0.82669621818E+02 0.  0.
         23    2    4    4    0    0 -0.15010108343E+03  0.38373330085E+03  0.38902295817E+03  0.57222390028E+03  0.79496846751E+02 0.  0.
          1    1    3    3  502    0 -0.17006038719E+03 -0.78491427238E+03 -0.97193908019E+03  0.12608237489E+04  0.00000000000E+00 0. -1.
         -2    1    3    3    0  502 -0.28442862913E+02 -0.10571674472E+03 -0.91060875856E+02  0.14239771654E+03  0.00000000000E+00 0.  1.
         13    1    5    5    0    0  0.18953872143E+03  0.33349886564E+03 -0.23351228475E+03  0.44908173804E+03  0.00000000000E+00 0. -1.
        -13    1    5    5    0    0  0.15906561209E+03  0.17339885061E+03 -0.10127560580E+03  0.25617528896E+03  0.00000000000E+00 0.  1.
          3    1    6    6  503    0 -0.40281863254E+02  0.13540538613E+03  0.18405120999E+03  0.23201744546E+03  0.00000000000E+00 0. -1.
         -3    1    6    6    0  503 -0.10981922017E+03  0.24832791472E+03  0.20497174818E+03  0.34020645482E+03  0.00000000000E+00 0.  1.
<mgrwt>
<rscale>  0 0.24836583E+04</rscale>
<asrwt>0</asrwt>
<pdfrwt beam="1">  1        1 0.28380517E+00 0.24836583E+04</pdfrwt>
<pdfrwt beam="2">  1       -4 0.12861058E+00 0.24836583E+04</pdfrwt>
<totfact> 0.73611901E-01</totfact>
</mgrwt>
</event>
<event>
12    5  0.5264288E-008  0.1915168E+04  0.7818608E-02  0.8647343E-01
          1   -1    0    0  501    0  0.00000000000E+00  0.00000000000E+00  0.15960042678E+04  0.15960042678E+04  0.00000000000E+00 0. -1.
         -2   -1    0    0    0  501 -0.00000000000E+00 -0.00000000000E+00 -0.57453945525E+03  0.57453945525E+03  0.00000000000E+00 0.  1.
        -24    2    1    2    0    0  0.11484099280E+03  0.31731307433E+03  0.11447466555E+04  0.11961016644E+04  0.79613099366E+02 0.  0.
        254    2    1    2    0    0 -0.11484099280E+03 -0.31731307433E+03 -0.12328184296E+03  0.97444205862E+03  0.90579405609E+03 0.  0.
         23    2    4    4    0    0  0.62660831282E+02  0.23862495023E+03 -0.25790640549E+03  0.36856854669E+03  0.91971805266E+02 0.  0.
         23    2    4    4    0    0 -0.17750182408E+03 -0.55593802456E+03  0.13462456253E+03  0.60587351194E+03  0.91569399516E+02 0.  0.
          1    1    3    3  502    0  0.11587182787E+03  0.31723665124E+03  0.11458517637E+04  0.11945884805E+04  0.00000000000E+00 0. -1.
         -2    1    3    3    0  502 -0.10308350753E+01  0.76423084419E-01 -0.11051081976E+01  0.15131839177E+01  0.00000000000E+00 0.  1.
         13    1    5    5    0    0  0.67087283639E+02  0.17359494745E+03 -0.13659467480E+03  0.23085496440E+03  0.00000000000E+00 0.  1.
        -13    1    5    5    0    0 -0.44264523572E+01  0.65030002782E+02 -0.12131173069E+03  0.13771358228E+03  0.00000000000E+00 0. -1.
          2    1    6    6  503    0 -0.86112864378E+01  0.10690524877E+01  0.21244743880E+01  0.89336733072E+01  0.00000000000E+00 0. -1.
         -2    1    6    6    0  503 -0.16889053764E+03 -0.55700707705E+03  0.13250008814E+03  0.59693983863E+03  0.00000000000E+00 0.  1.
<mgrwt>
<rscale>  0 0.19151683E+04</rscale>
<asrwt>0</asrwt>
<pdfrwt beam="1">  1        1 0.24553912E+00 0.19151683E+04</pdfrwt>
<pdfrwt beam="2">  1       -2 0.88390686E-01 0.19151683E+04</pdfrwt>
<totfact> 0.50741212E+00</totfact>
</mgrwt>
</event>
<event>
12    5  0.5264288E-008  0.1844244E+04  0.7818608E-02  0.8683119E-01
         -2   -1    0    0    0  501 -0.00000000000E+00  0.00000000000E+00  0.55604116360E+03  0.55604116360E+03  0.00000000000E+00 0.  1.
          1   -1    0    0  501    0  0.00000000000E+00 -0.00000000000E+00 -0.15292186744E+04  0.15292186744E+04  0.00000000000E+00 0. -1.
        -24    2    1    2    0    0 -0.25852061190E+03  0.31825835606E+03  0.26358350900E+03  0.49387482857E+03  0.79465666138E+02 0.  0.
        254    2    1    2    0    0  0.25852061190E+03 -0.31825835606E+03 -0.12367610198E+04  0.15913850095E+04  0.91367780983E+03 0.  0.
         23    2    4    4    0    0  0.53313579652E+03  0.39257048832E+02 -0.68681831048E+03  0.87490585480E+03  0.89252281463E+02 0.  0.
         23    2    4    4    0    0 -0.27461518462E+03 -0.35751540489E+03 -0.54994270936E+03  0.71647915466E+03  0.87604972045E+02 0.  0.
          3    1    3    3  502    0 -0.10499014374E+03  0.18217986985E+03  0.15888933949E+03  0.26354934541E+03  0.00000000000E+00 0. -1.
         -4    1    3    3    0  502 -0.15353046816E+03  0.13607848621E+03  0.10469416951E+03  0.23032548316E+03  0.00000000000E+00 0.  1.
         13    1    5    5    0    0  0.45072855219E+03  0.31367280690E+02 -0.52137910629E+03  0.68991036123E+03  0.00000000000E+00 0.  1.
        -13    1    5    5    0    0  0.82407244326E+02  0.78897681423E+01 -0.16543920419E+03  0.18499549357E+03  0.00000000000E+00 0. -1.
          4    1    6    6  503    0  0.46246253787E+01  0.10636057116E+01 -0.50763548004E+01  0.69489420103E+01  0.00000000000E+00 0. -1.
         -4    1    6    6    0  503 -0.27923980999E+03 -0.35857901061E+03 -0.54486635456E+03  0.70953021265E+03  0.00000000000E+00 0.  1.
<mgrwt>
<rscale>  0 0.18442435E+04</rscale>
<asrwt>0</asrwt>
<pdfrwt beam="1">  1        1 0.23526441E+00 0.18442435E+04</pdfrwt>
<pdfrwt beam="2">  1       -2 0.85544794E-01 0.18442435E+04</pdfrwt>
<totfact> 0.61169448E+00</totfact>
</mgrwt>
</event>
<event>
12    5  0.5264288E-008  0.1851921E+04  0.7818608E-02  0.8679165E-01
          1   -1    0    0  501    0  0.00000000000E+00  0.00000000000E+00  0.31183267481E+04  0.31183267481E+04  0.00000000000E+00 0. -1.
         -4   -1    0    0    0  501 -0.00000000000E+00 -0.00000000000E+00 -0.27495616950E+03  0.27495616950E+03  0.00000000000E+00 0.  1.
        -24    2    1    2    0    0  0.17760053555E+03  0.59007234311E+03  0.17109735991E+04  0.18203151876E+04  0.79933752751E+02 0.  0.
        254    2    1    2    0    0 -0.17760053555E+03 -0.59007234311E+03  0.11323969795E+04  0.15729677301E+04  0.90120876623E+03 0.  0.
         23    2    4    4    0    0 -0.41905966735E+03 -0.46487014005E+03  0.11199565666E+04  0.12858001471E+04  0.85229426868E+02 0.  0.
         23    2    4    4    0    0  0.24145913180E+03 -0.12520220305E+03  0.12440412883E+02  0.28716758299E+03  0.91281722517E+02 0.  0.
          1    1    3    3  502    0  0.13914710809E+03  0.51858469167E+03  0.14161393443E+04  0.15145106941E+04  0.00000000000E+00 0. -1.
         -2    1    3    3    0  502  0.38453427459E+02  0.71487651442E+02  0.29483425479E+03  0.30580449341E+03  0.00000000000E+00 0.  1.
         13    1    5    5    0    0 -0.21160328807E+03 -0.27857894480E+03  0.56051692862E+03  0.66072793741E+03  0.00000000000E+00 0. -1.
        -13    1    5    5    0    0 -0.20745637928E+03 -0.18629119525E+03  0.55943963801E+03  0.62507220968E+03  0.00000000000E+00 0.  1.
          4    1    6    6  503    0 -0.53440665940E+01 -0.12818619698E+02 -0.64737495178E+01  0.15322711625E+02  0.00000000000E+00 0. -1.
         -4    1    6    6    0  503  0.24680319840E+03 -0.11238358336E+03  0.18914162401E+02  0.27184487136E+03  0.00000000000E+00 0.  1.
<mgrwt>
<rscale>  0 0.18519214E+04</rscale>
<asrwt>0</asrwt>
<pdfrwt beam="1">  1        1 0.47974255E+00 0.18519214E+04</pdfrwt>
<pdfrwt beam="2">  1       -4 0.42300951E-01 0.18519214E+04</pdfrwt>
<totfact> 0.12519658E+00</totfact>
</mgrwt>
</event>
<event>
12    5  0.5264288E-008  0.2009381E+04  0.7818608E-02  0.8602247E-01
          1   -1    0    0  501    0  0.00000000000E+00  0.00000000000E+00  0.95625046266E+03  0.95625046266E+03  0.00000000000E+00 0. -1.
         -2   -1    0    0    0  501 -0.00000000000E+00 -0.00000000000E+00 -0.10555844757E+04  0.10555844757E+04  0.00000000000E+00 0.  1.
        -24    2    1    2    0    0 -0.73151940124E+03 -0.98650017104E+02 -0.34401333094E+03  0.81786416663E+03  0.75525908872E+02 0.  0.
        254    2    1    2    0    0  0.73151940124E+03  0.98650017104E+02  0.24467931785E+03  0.11939707718E+04  0.90600539457E+03 0.  0.
         23    2    4    4    0    0  0.88370185613E+03 -0.49005606012E+02  0.32839875974E+03  0.94843008830E+03  0.91342033336E+02 0.  0.
         23    2    4    4    0    0 -0.15218245488E+03  0.14765562312E+03 -0.83719441882E+02  0.24554068348E+03  0.91211839585E+02 0.  0.
          1    1    3    3  502    0 -0.12940026440E+03 -0.49207986567E+01 -0.89853230066E+02  0.15761423045E+03  0.00000000000E+00 0. -1.
         -2    1    3    3    0  502 -0.60211913684E+03 -0.93729218448E+02 -0.25416010088E+03  0.66024993617E+03  0.00000000000E+00 0.  1.
         13    1    5    5    0    0  0.43027565076E+01 -0.44567538962E+01 -0.38626455584E+01  0.73004383132E+01  0.00000000000E+00 0.  1.
        -13    1    5    5    0    0  0.87939909962E+03 -0.44548852115E+02  0.33226140529E+03  0.94112964999E+03  0.00000000000E+00 0. -1.
          3    1    6    6  503    0 -0.14042368354E+03  0.90577365168E+02 -0.84514072303E+02  0.18725837337E+03  0.00000000000E+00 0. -1.
         -3    1    6    6    0  503 -0.11758771344E+02  0.57078257948E+02  0.79463042055E+00  0.58282310107E+02  0.00000000000E+00 0.  1.
<mgrwt>
<rscale>  0 0.20093811E+04</rscale>
<asrwt>0</asrwt>
<pdfrwt beam="1">  1        1 0.14711545E+00 0.20093811E+04</pdfrwt>
<pdfrwt beam="2">  1       -2 0.16239761E+00 0.20093811E+04</pdfrwt>
<totfact> 0.32191584E+00</totfact>
</mgrwt>
</event>
<event>
12    5  0.5264288E-008  0.2324597E+04  0.7818608E-02  0.8468285E-01
          1   -1    0    0  501    0  0.00000000000E+00  0.00000000000E+00  0.14073319300E+04  0.14073319300E+04  0.00000000000E+00 0. -1.
         -2   -1    0    0    0  501 -0.00000000000E+00 -0.00000000000E+00 -0.95992862389E+03  0.95992862389E+03  0.00000000000E+00 0.  1.
        -24    2    1    2    0    0  0.46319271759E+03 -0.59626712190E+03  0.84060615141E+03  0.11326508252E+04  0.78722396744E+02 0.  0.
        254    2    1    2    0    0 -0.46319271759E+03  0.59626712190E+03 -0.39320284535E+03  0.12346097286E+04  0.89418718967E+03 0.  0.
         23    2    4    4    0    0 -0.28841715673E+03 -0.19179768376E+03 -0.98091614491E+02  0.37140824866E+03  0.91385527032E+02 0.  0.
         23    2    4    4    0    0 -0.17477556087E+03  0.78806480567E+03 -0.29511123085E+03  0.86320147998E+03  0.80209237928E+02 0.  0.
          3    1    3    3  502    0  0.13895785202E+03 -0.21810971798E+03  0.24551002430E+03  0.35658982844E+03  0.00000000000E+00 0. -1.
         -4    1    3    3    0  502  0.32423486557E+03 -0.37815740393E+03  0.59509612710E+03  0.77606099676E+03  0.00000000000E+00 0.  1.
         13    1    5    5    0    0 -0.23517950857E+03 -0.15331191659E+03 -0.11531096587E+03  0.30349722218E+03  0.00000000000E+00 0.  1.
        -13    1    5    5    0    0 -0.53237648156E+02 -0.38485767176E+02  0.17219351383E+02  0.67911026486E+02  0.00000000000E+00 0. -1.
          2    1    6    6  503    0 -0.13584773787E+03  0.49044639884E+03 -0.21557559616E+03  0.55268898639E+03  0.00000000000E+00 0. -1.
         -2    1    6    6    0  503 -0.38927822997E+02  0.29761840683E+03 -0.79535634696E+02  0.31051249358E+03  0.00000000000E+00 0.  1.
<mgrwt>
<rscale>  0 0.23245973E+04</rscale>
<asrwt>0</asrwt>
<pdfrwt beam="1">  1        1 0.21651261E+00 0.23245973E+04</pdfrwt>
<pdfrwt beam="2">  1       -2 0.14768133E+00 0.23245973E+04</pdfrwt>
<totfact> 0.18769661E+00</totfact>
</mgrwt>
</event>
<event>
12    5  0.5264288E-008  0.3305986E+04  0.7818608E-02  0.8161374E-01
          1   -1    0    0  501    0  0.00000000000E+00  0.00000000000E+00  0.18326566595E+04  0.18326566595E+04  0.00000000000E+00 0. -1.
         -2   -1    0    0    0  501 -0.00000000000E+00 -0.00000000000E+00 -0.14909429333E+04  0.14909429333E+04  0.00000000000E+00 0.  1.
        -24    2    1    2    0    0  0.10812251856E+04  0.10843787473E+04  0.15121089051E+03  0.15408734763E+04  0.80629813388E+02 0.  0.
        254    2    1    2    0    0 -0.10812251856E+04 -0.10843787473E+04  0.19050283568E+03  0.17827261165E+04  0.89269026348E+03 0.  0.
         23    2    4    4    0    0 -0.14464293997E+03  0.94642351979E+01  0.29007469354E+03  0.33628152047E+03  0.89054934424E+02 0.  0.
         23    2    4    4    0    0 -0.93658224566E+03 -0.10938429825E+04 -0.99571857856E+02  0.14464445961E+04  0.92782764207E+02 0.  0.
          1    1    3    3  502    0  0.10290282984E+04  0.10230287328E+04  0.12609382828E+03  0.14564980881E+04  0.00000000000E+00 0. -1.
         -2    1    3    3    0  502  0.52196887191E+02  0.61350014566E+02  0.25117062231E+02  0.84375388206E+02  0.00000000000E+00 0.  1.
         13    1    5    5    0    0 -0.40179687793E+02  0.41153277202E+02  0.13396900210E+03  0.14579332310E+03  0.00000000000E+00 0. -1.
        -13    1    5    5    0    0 -0.10446325217E+03 -0.31689042004E+02  0.15610569144E+03  0.19048819737E+03  0.00000000000E+00 0.  1.
          3    1    6    6  503    0 -0.19117422158E+02 -0.22693305106E+02 -0.15766180501E+02  0.33601106741E+02  0.00000000000E+00 0. -1.
         -3    1    6    6    0  503 -0.91746482350E+03 -0.10711496774E+04 -0.83805677355E+02  0.14128434893E+04  0.00000000000E+00 0.  1.
<mgrwt>
<rscale>  0 0.33059864E+04</rscale>
<asrwt>0</asrwt>
<pdfrwt beam="1">  1        1 0.28194718E+00 0.33059864E+04</pdfrwt>
<pdfrwt beam="2">  1       -2 0.22937584E+00 0.33059864E+04</pdfrwt>
<totfact> 0.24340701E-01</totfact>
</mgrwt>
</event>
<event>
12    5  0.5264288E-008  0.1272910E+04  0.7818608E-02  0.9051328E-01
          1   -1    0    0  501    0  0.00000000000E+00  0.00000000000E+00  0.60519437780E+03  0.60519437780E+03  0.00000000000E+00 0. -1.
         -2   -1    0    0    0  501 -0.00000000000E+00 -0.00000000000E+00 -0.66933048173E+03  0.66933048173E+03  0.00000000000E+00 0.  1.
        -24    2    1    2    0    0 -0.33966006237E+02 -0.61214288769E+02 -0.39386843758E+03  0.40982645449E+03  0.89019649207E+02 0.  0.
        254    2    1    2    0    0  0.33966006237E+02  0.61214288769E+02  0.32973233365E+03  0.86469840504E+03  0.79629080184E+03 0.  0.
         23    2    4    4    0    0  0.38931180325E+03  0.13732039140E+03  0.17901585022E+03  0.45941509804E+03  0.92709156134E+02 0.  0.
         23    2    4    4    0    0 -0.35534579701E+03 -0.76106102631E+02  0.15071648342E+03  0.40528330701E+03  0.97346423938E+02 0.  0.
          1    1    3    3  502    0 -0.93169090071E+01  0.19740180420E+02 -0.15247735996E+03  0.15403189545E+03  0.00000000000E+00 0. -1.
         -2    1    3    3    0  502 -0.24649097230E+02 -0.80954469189E+02 -0.24139107763E+03  0.25579455904E+03  0.00000000000E+00 0.  1.
         13    1    5    5    0    0  0.12963163353E+02  0.12195506358E+02 -0.96251687595E+01  0.20234076532E+02  0.00000000000E+00 0. -1.
        -13    1    5    5    0    0  0.37634863989E+03  0.12512488504E+03  0.18864101898E+03  0.43918102150E+03  0.00000000000E+00 0.  1.
          2    1    6    6  503    0 -0.69089400674E+02 -0.17168231695E+02  0.74929001988E+02  0.10335593260E+03  0.00000000000E+00 0. -1.
         -2    1    6    6    0  503 -0.28625639633E+03 -0.58937870936E+02  0.75787481435E+02  0.30192737441E+03  0.00000000000E+00 0.  1.
<mgrwt>
<rscale>  0 0.12729101E+04</rscale>
<asrwt>0</asrwt>
<pdfrwt beam="1">  1        1 0.93106828E-01 0.12729101E+04</pdfrwt>
<pdfrwt beam="2">  1       -2 0.10297392E+00 0.12729101E+04</pdfrwt>
<totfact> 0.22447493E+01</totfact>
</mgrwt>
</event>
<event>
12    5  0.5264288E-008  0.1727867E+04  0.7818608E-02  0.8745628E-01
         -2   -1    0    0    0  501 -0.00000000000E+00  0.00000000000E+00  0.10273747971E+04  0.10273747971E+04  0.00000000000E+00 0.  1.
          1   -1    0    0  501    0  0.00000000000E+00 -0.00000000000E+00 -0.72649356153E+03  0.72649356153E+03  0.00000000000E+00 0. -1.
        -24    2    1    2    0    0  0.21185417820E+02 -0.26525294421E+03 -0.46295497173E+03  0.54004801466E+03  0.80725497470E+02 0.  0.
        254    2    1    2    0    0 -0.21185417820E+02  0.26525294421E+03  0.76383620734E+03  0.12138203440E+04  0.90504482185E+03 0.  0.
         23    2    4    4    0    0  0.13871487488E+03  0.32921198436E+03  0.90179458095E+03  0.97434656577E+03  0.92170585575E+02 0.  0.
         23    2    4    4    0    0 -0.15990029270E+03 -0.63959040149E+02 -0.13795837361E+03  0.23947377824E+03  0.93039320697E+02 0.  0.
          3    1    3    3  502    0  0.46840465560E+02 -0.10333874238E+03 -0.17100528749E+03  0.20522118127E+03  0.00000000000E+00 0. -1.
         -4    1    3    3    0  502 -0.25655047740E+02 -0.16191420183E+03 -0.29194968424E+03  0.33482683339E+03  0.00000000000E+00 0.  1.
         13    1    5    5    0    0  0.89504096335E+02  0.28561302956E+03  0.67874284864E+03  0.74180701028E+03  0.00000000000E+00 0.  1.
        -13    1    5    5    0    0  0.49210778548E+02  0.43598954802E+02  0.22305173231E+03  0.23253955549E+03  0.00000000000E+00 0. -1.
          3    1    6    6  503    0 -0.76871956412E+02 -0.26369271505E+02 -0.92929234582E+01  0.81798499917E+02  0.00000000000E+00 0. -1.
         -3    1    6    6    0  503 -0.83028336290E+02 -0.37589768644E+02 -0.12866545015E+03  0.15767527833E+03  0.00000000000E+00 0.  1.
<mgrwt>
<rscale>  0 0.17278671E+04</rscale>
<asrwt>0</asrwt>
<pdfrwt beam="1">  1        1 0.11176824E+00 0.17278671E+04</pdfrwt>
<pdfrwt beam="2">  1       -2 0.15805766E+00 0.17278671E+04</pdfrwt>
<totfact> 0.55687342E+00</totfact>
</mgrwt>
</event>
<event>
12    5  0.5264288E-008  0.2378324E+04  0.7818608E-02  0.8447663E-01
         -2   -1    0    0    0  501 -0.00000000000E+00  0.00000000000E+00  0.11674047669E+04  0.11674047669E+04  0.00000000000E+00 0.  1.
          1   -1    0    0  501    0  0.00000000000E+00 -0.00000000000E+00 -0.12113249731E+04  0.12113249731E+04  0.00000000000E+00 0. -1.
        -24    2    1    2    0    0  0.47706092517E+03 -0.68712776103E+03  0.55758864528E+03  0.10084949508E+04  0.80157857937E+02 0.  0.
        254    2    1    2    0    0 -0.47706092517E+03  0.68712776103E+03 -0.60150885151E+03  0.13702347892E+04  0.90332651507E+03 0.  0.
         23    2    4    4    0    0 -0.24810463877E+03  0.64707047333E+03  0.21068615342E+02  0.69912137251E+03  0.89837062025E+02 0.  0.
         23    2    4    4    0    0 -0.22895628640E+03  0.40057287701E+02 -0.62257746685E+03  0.67111341670E+03  0.93621303498E+02 0.  0.
          1    1    3    3  502    0  0.16842928109E+03 -0.30950215974E+03  0.24639547715E+03  0.42996597630E+03  0.00000000000E+00 0. -1.
         -2    1    3    3    0  502  0.30863164408E+03 -0.37762560129E+03  0.31119316813E+03  0.57852897453E+03  0.00000000000E+00 0.  1.
         13    1    5    5    0    0 -0.48425576672E+02  0.17023498665E+03 -0.30507133643E+02  0.17959864242E+03  0.00000000000E+00 0. -1.
        -13    1    5    5    0    0 -0.19967906210E+03  0.47683548668E+03  0.51575748985E+02  0.51952273009E+03  0.00000000000E+00 0.  1.
          2    1    6    6  503    0 -0.18916484950E+03  0.68804197502E+02 -0.51091096228E+03  0.54913328915E+03  0.00000000000E+00 0.  1.
         -2    1    6    6    0  503 -0.39791436893E+02 -0.28746909800E+02 -0.11166650457E+03  0.12198012755E+03  0.00000000000E+00 0. -1.
<mgrwt>
<rscale>  0 0.23783242E+04</rscale>
<asrwt>0</asrwt>
<pdfrwt beam="1">  1        1 0.18635769E+00 0.23783242E+04</pdfrwt>
<pdfrwt beam="2">  1       -2 0.17960073E+00 0.23783242E+04</pdfrwt>
<totfact> 0.15070166E+00</totfact>
</mgrwt>
</event>
<event>
12    5  0.5264288E-008  0.1040387E+04  0.7818608E-02  0.9265325E-01
         -2   -1    0    0    0  501 -0.00000000000E+00  0.00000000000E+00  0.61142172507E+03  0.61142172507E+03  0.00000000000E+00 0.  1.
          1   -1    0    0  501    0  0.00000000000E+00 -0.00000000000E+00 -0.44257716295E+03  0.44257716295E+03  0.00000000000E+00 0. -1.
        -24    2    1    2    0    0  0.14556517410E+02 -0.60189067002E+02  0.12420561943E+03  0.16038733078E+03  0.80389327609E+02 0.  0.
        254    2    1    2    0    0 -0.14556517410E+02  0.60189067002E+02  0.44638942697E+02  0.89361155724E+03  0.89034508144E+03 0.  0.
         23    2    4    4    0    0 -0.14340886748E+03 -0.21753024934E+03  0.35407921465E+03  0.44881978557E+03  0.90452180855E+02 0.  0.
         23    2    4    4    0    0  0.12885235008E+03  0.27771931634E+03 -0.30944027195E+03  0.44479177167E+03  0.91408377364E+02 0.  0.
          3    1    3    3  502    0 -0.46825123776E+01 -0.65506700413E+02  0.47301490146E+02  0.80935064658E+02  0.00000000000E+00 0. -1.
         -4    1    3    3    0  502  0.19239029787E+02  0.53176334108E+01  0.76904129280E+02  0.79452266126E+02  0.00000000000E+00 0.  1.
         13    1    5    5    0    0 -0.38890598853E+02 -0.10548003980E+03  0.21146958079E+03  0.23949509614E+03  0.00000000000E+00 0. -1.
        -13    1    5    5    0    0 -0.10451826863E+03 -0.11205020954E+03  0.14260963386E+03  0.20932468943E+03  0.00000000000E+00 0.  1.
          3    1    6    6  503    0  0.72067900900E+02  0.24174185875E+03 -0.24176061268E+03  0.34940106247E+03  0.00000000000E+00 0. -1.
         -3    1    6    6    0  503  0.56784449175E+02  0.35977457593E+02 -0.67679659274E+02  0.95390709203E+02  0.00000000000E+00 0.  1.
<mgrwt>
<rscale>  0 0.10403870E+04</rscale>
<asrwt>0</asrwt>
<pdfrwt beam="1">  1        1 0.68088794E-01 0.10403870E+04</pdfrwt>
<pdfrwt beam="2">  1       -2 0.94064881E-01 0.10403870E+04</pdfrwt>
<totfact> 0.43686319E+01</totfact>
</mgrwt>
</event>
<event>
12    5  0.5264288E-008  0.1392752E+04  0.7818608E-02  0.8959082E-01
          1   -1    0    0  501    0  0.00000000000E+00  0.00000000000E+00  0.40429491490E+03  0.40429491490E+03  0.00000000000E+00 0. -1.
         -2   -1    0    0    0  501 -0.00000000000E+00 -0.00000000000E+00 -0.11994698193E+04  0.11994698193E+04  0.00000000000E+00 0.  1.
        -24    2    1    2    0    0  0.15694116123E+02  0.32887026529E+03 -0.47465454702E+03  0.58302567252E+03  0.78867224765E+02 0.  0.
        254    2    1    2    0    0 -0.15694116123E+02 -0.32887026529E+03 -0.32052035735E+03  0.10207390616E+04  0.91146748479E+03 0.  0.
         23    2    4    4    0    0  0.26644180998E+03 -0.11438071980E+03  0.21494491345E+03  0.37199776805E+03  0.90037972273E+02 0.  0.
         23    2    4    4    0    0 -0.28213592611E+03 -0.21448954549E+03 -0.53546527080E+03  0.64874129360E+03  0.92389197744E+02 0.  0.
          1    1    3    3  502    0  0.12122206287E+02  0.37883959770E+02 -0.23623530900E+02  0.46262441627E+02  0.00000000000E+00 0. -1.
         -2    1    3    3    0  502  0.35719098354E+01  0.29098630552E+03 -0.45103101612E+03  0.53676323090E+03  0.00000000000E+00 0.  1.
         13    1    5    5    0    0  0.27305022165E+03 -0.11117963914E+03  0.20289855468E+03  0.35788987020E+03  0.00000000000E+00 0.  1.
        -13    1    5    5    0    0 -0.66084116680E+01 -0.32010806616E+01  0.12046358773E+02  0.14107897854E+02  0.00000000000E+00 0. -1.
          3    1    6    6  503    0 -0.49316565728E+02  0.49713716760E+00 -0.75324284194E+02  0.90033985749E+02  0.00000000000E+00 0. -1.
         -3    1    6    6    0  503 -0.23281936038E+03 -0.21498668265E+03 -0.46014098661E+03  0.55870730785E+03  0.00000000000E+00 0.  1.
<mgrwt>
<rscale>  0 0.13927520E+04</rscale>
<asrwt>0</asrwt>
<pdfrwt beam="1">  1        1 0.62199218E-01 0.13927520E+04</pdfrwt>
<pdfrwt beam="2">  1       -2 0.18453382E+00 0.13927520E+04</pdfrwt>
<totfact> 0.85019887E+00</totfact>
</mgrwt>
</event>
<event>
12    5  0.5264288E-008  0.3009243E+04  0.7818608E-02  0.8241096E-01
         -2   -1    0    0    0  501 -0.00000000000E+00  0.00000000000E+00  0.14254382392E+04  0.14254382392E+04  0.00000000000E+00 0.  1.
          1   -1    0    0  501    0  0.00000000000E+00 -0.00000000000E+00 -0.15882038604E+04  0.15882038604E+04  0.00000000000E+00 0. -1.
        -24    2    1    2    0    0  0.15126743914E+03 -0.28769759047E+03 -0.14071447631E+04  0.14464717442E+04  0.81070220406E+02 0.  0.
        254    2    1    2    0    0 -0.15126743914E+03  0.28769759047E+03  0.12443791419E+04  0.15671703554E+04  0.89548407705E+03 0.  0.
         23    2    4    4    0    0 -0.81206225296E+01 -0.29311673990E+02  0.12007790273E+04  0.12047125175E+04  0.92395122561E+02 0.  0.
         23    2    4    4    0    0 -0.14314681661E+03  0.31700926446E+03  0.43600114611E+02  0.36245783787E+03  0.92134843464E+02 0.  0.
          1    1    3    3  502    0  0.15072111294E+03 -0.23257421019E+03 -0.10970427682E+04  0.11315080434E+04  0.00000000000E+00 0. -1.
         -2    1    3    3    0  502  0.54632619929E+00 -0.55123380286E+02 -0.31010199496E+03  0.31496370077E+03  0.00000000000E+00 0.  1.
         13    1    5    5    0    0 -0.44777644488E+02 -0.16363747470E+02  0.37491236063E+03  0.37793132687E+03  0.00000000000E+00 0. -1.
        -13    1    5    5    0    0  0.36657021958E+02 -0.12947926520E+02  0.82586666670E+03  0.82678119066E+03  0.00000000000E+00 0.  1.
          3    1    6    6  503    0 -0.20975101818E+02  0.78864209800E+02  0.48173896034E+02  0.94764142706E+02  0.00000000000E+00 0. -1.
         -3    1    6    6    0  503 -0.12217171479E+03  0.23814505466E+03 -0.45737814229E+01  0.26769369517E+03  0.00000000000E+00 0.  1.
<mgrwt>
<rscale>  0 0.30092434E+04</rscale>
<asrwt>0</asrwt>
<pdfrwt beam="1">  1        1 0.24433906E+00 0.30092434E+04</pdfrwt>
<pdfrwt beam="2">  1       -2 0.21929819E+00 0.30092434E+04</pdfrwt>
<totfact> 0.42409872E-01</totfact>
</mgrwt>
</event>
<event>
12    5  0.5264288E-008  0.2166845E+04  0.7818608E-02  0.8532356E-01
          1   -1    0    0  501    0  0.00000000000E+00  0.00000000000E+00  0.85254365829E+03  0.85254365829E+03  0.00000000000E+00 0. -1.
         -2   -1    0    0    0  501 -0.00000000000E+00 -0.00000000000E+00 -0.13768266630E+04  0.13768266630E+04  0.00000000000E+00 0.  1.
        -24    2    1    2    0    0  0.35834998131E+03 -0.46414586773E+03 -0.91066619578E+03  0.10860563183E+04  0.79745286445E+02 0.  0.
        254    2    1    2    0    0 -0.35834998131E+03  0.46414586773E+03  0.38638319112E+03  0.11433140030E+04  0.90223547001E+03 0.  0.
         23    2    4    4    0    0  0.10268959285E+03  0.50494070652E+03 -0.14928232934E+02  0.52400898148E+03  0.94086614110E+02 0.  0.
         23    2    4    4    0    0 -0.46103957416E+03 -0.40794838786E+02  0.40131142405E+03  0.61930502148E+03  0.90918330027E+02 0.  0.
          1    1    3    3  502    0  0.13606178854E+03 -0.11639585475E+03 -0.27461803031E+03  0.32783512300E+03  0.00000000000E+00 0. -1.
         -2    1    3    3    0  502  0.22228819278E+03 -0.34775001298E+03 -0.63604816547E+03  0.75822119529E+03  0.00000000000E+00 0.  1.
         13    1    5    5    0    0  0.54517538188E+02  0.36461512527E+03  0.27514671609E+02  0.36969366873E+03  0.00000000000E+00 0. -1.
        -13    1    5    5    0    0  0.48172054662E+02  0.14032558125E+03 -0.42442904543E+02  0.15431531275E+03  0.00000000000E+00 0.  1.
          1    1    6    6  503    0 -0.16859152998E+03 -0.58420520967E+02  0.16231823050E+03  0.24121208346E+03  0.00000000000E+00 0. -1.
         -1    1    6    6    0  503 -0.29244804418E+03  0.17625682181E+02  0.23899319355E+03  0.37809293802E+03  0.00000000000E+00 0.  1.
<mgrwt>
<rscale>  0 0.21668455E+04</rscale>
<asrwt>0</asrwt>
<pdfrwt beam="1">  1        1 0.13116056E+00 0.21668455E+04</pdfrwt>
<pdfrwt beam="2">  1       -2 0.21181948E+00 0.21668455E+04</pdfrwt>
<totfact> 0.17795976E+00</totfact>
</mgrwt>
</event>
<event>
12    5  0.5264288E-008  0.1511200E+04  0.7818608E-02  0.8877039E-01
         -2   -1    0    0    0  501 -0.00000000000E+00  0.00000000000E+00  0.45816283168E+03  0.45816283168E+03  0.00000000000E+00 0.  1.
          1   -1    0    0  501    0  0.00000000000E+00 -0.00000000000E+00 -0.12461315525E+04  0.12461315525E+04  0.00000000000E+00 0. -1.
        -24    2    1    2    0    0 -0.17390608498E+03  0.56113456924E+02 -0.75129314437E+03  0.77726174129E+03  0.79387525868E+02 0.  0.
        254    2    1    2    0    0  0.17390608498E+03 -0.56113456924E+02 -0.36675576494E+02  0.92703264292E+03  0.90810372573E+03 0.  0.
         23    2    4    4    0    0 -0.23002477939E+03 -0.18712221296E+03  0.25646234000E+03  0.40249254982E+03  0.91110916535E+02 0.  0.
         23    2    4    4    0    0  0.40393086437E+03  0.13100875604E+03 -0.29313791649E+03  0.52454009310E+03  0.94281672866E+02 0.  0.
          1    1    3    3  502    0 -0.74873236021E+02  0.62248278662E+02 -0.43527947854E+03  0.44603707705E+03  0.00000000000E+00 0. -1.
         -2    1    3    3    0  502 -0.99032848960E+02 -0.61348217375E+01 -0.31601366583E+03  0.33122466424E+03  0.00000000000E+00 0.  1.
         13    1    5    5    0    0 -0.86711605309E+02 -0.12359155946E+03  0.10053889182E+03  0.18138865685E+03  0.00000000000E+00 0. -1.
        -13    1    5    5    0    0 -0.14331317408E+03 -0.63530653505E+02  0.15592344817E+03  0.22110389297E+03  0.00000000000E+00 0.  1.
          3    1    6    6  503    0  0.52474607103E+02  0.51150850932E+02 -0.34940612629E+02  0.81183990741E+02  0.00000000000E+00 0. -1.
         -3    1    6    6    0  503  0.35145625726E+03  0.79857905104E+02 -0.25819730386E+03  0.44335610236E+03  0.00000000000E+00 0.  1.
<mgrwt>
<rscale>  0 0.15111997E+04</rscale>
<asrwt>0</asrwt>
<pdfrwt beam="1">  1        1 0.19171255E+00 0.15111997E+04</pdfrwt>
<pdfrwt beam="2">  1       -2 0.70486589E-01 0.15111997E+04</pdfrwt>
<totfact> 0.15351322E+01</totfact>
</mgrwt>
</event>
<event>
12    5  0.5264288E-008  0.1751763E+04  0.7818608E-02  0.8732380E-01
          1   -1    0    0  501    0  0.00000000000E+00  0.00000000000E+00  0.16784249503E+04  0.16784249503E+04  0.00000000000E+00 0. -1.
         -2   -1    0    0    0  501 -0.00000000000E+00 -0.00000000000E+00 -0.45707652688E+03  0.45707652688E+03  0.00000000000E+00 0.  1.
        -24    2    1    2    0    0 -0.29546730584E+03  0.55703452358E+03  0.56061120119E+03  0.84738679421E+03  0.78683357946E+02 0.  0.
        254    2    1    2    0    0  0.29546730584E+03 -0.55703452358E+03  0.66073722223E+03  0.12881146830E+04  0.90833769622E+03 0.  0.
         23    2    4    4    0    0  0.32700319827E+03 -0.61646316267E+03  0.93221585333E+02  0.70958784035E+03  0.88694512710E+02 0.  0.
         23    2    4    4    0    0 -0.31535892428E+02  0.59428639093E+02  0.56751563690E+03  0.57852684263E+03  0.89961290919E+02 0.  0.
          3    1    3    3  502    0 -0.13840219232E+03  0.33450675585E+03  0.34392176954E+03  0.49933167345E+03  0.00000000000E+00 0. -1.
         -4    1    3    3    0  502 -0.15706511352E+03  0.22252776773E+03  0.21668943165E+03  0.34805512076E+03  0.00000000000E+00 0.  1.
         13    1    5    5    0    0  0.24408187511E+03 -0.40732262076E+03  0.29558774166E+02  0.47577452671E+03  0.00000000000E+00 0.  1.
        -13    1    5    5    0    0  0.82921323160E+02 -0.20914054191E+03  0.63662811167E+02  0.23381331363E+03  0.00000000000E+00 0. -1.
          4    1    6    6  503    0  0.22879088759E+02  0.46327328087E+02  0.35605569794E+03  0.35978512207E+03  0.00000000000E+00 0. -1.
         -4    1    6    6    0  503 -0.54414981187E+02  0.13101311005E+02  0.21145993896E+03  0.21874172056E+03  0.00000000000E+00 0.  1.
<mgrwt>
<rscale>  0 0.17517633E+04</rscale>
<asrwt>0</asrwt>
<pdfrwt beam="1">  1        1 0.25821922E+00 0.17517633E+04</pdfrwt>
<pdfrwt beam="2">  1       -2 0.70319466E-01 0.17517633E+04</pdfrwt>
<totfact> 0.75467966E+00</totfact>
</mgrwt>
</event>
<event>
12    5  0.5264288E-008  0.1157150E+04  0.7818608E-02  0.9151213E-01
         -2   -1    0    0    0  501 -0.00000000000E+00  0.00000000000E+00  0.21453565988E+03  0.21453565988E+03  0.00000000000E+00 0.  1.
          1   -1    0    0  501    0  0.00000000000E+00 -0.00000000000E+00 -0.15603420957E+04  0.15603420957E+04  0.00000000000E+00 0. -1.
        -24    2    1    2    0    0 -0.94559438641E+02 -0.18111832643E+03 -0.37195175452E+03  0.43187073733E+03  0.80117978416E+02 0.  0.
        254    2    1    2    0    0  0.94559438641E+02  0.18111832643E+03 -0.97385468125E+03  0.13430070182E+04  0.90195874358E+03 0.  0.
         23    2    4    4    0    0 -0.28247775502E+03 -0.98537746366E+02 -0.75541139742E+03  0.81755690833E+03  0.90827030511E+02 0.  0.
         23    2    4    4    0    0  0.37703719366E+03  0.27965607279E+03 -0.21844328384E+03  0.52545010987E+03  0.89530917840E+02 0.  0.
          3    1    3    3  502    0 -0.38094384009E+02 -0.41385513232E+02 -0.17534097727E+03  0.18414233926E+03  0.00000000000E+00 0. -1.
         -4    1    3    3    0  502 -0.56465054632E+02 -0.13973281320E+03 -0.19661077725E+03  0.24772839807E+03  0.00000000000E+00 0.  1.
         13    1    5    5    0    0 -0.83390981318E+02  0.12821227968E+02 -0.19221471299E+03  0.20991649659E+03  0.00000000000E+00 0.  1.
        -13    1    5    5    0    0 -0.19908677371E+03 -0.11135897433E+03 -0.56319668443E+03  0.60764041174E+03  0.00000000000E+00 0. -1.
          4    1    6    6  503    0  0.26802218888E+03  0.23274336603E+03 -0.19309455532E+03  0.40409265702E+03  0.00000000000E+00 0. -1.
         -4    1    6    6    0  503  0.10901500479E+03  0.46912706768E+02 -0.25348728512E+02  0.12135745285E+03  0.00000000000E+00 0.  1.
<mgrwt>
<rscale>  0 0.11571500E+04</rscale>
<asrwt>0</asrwt>
<pdfrwt beam="1">  1        1 0.24005264E+00 0.11571500E+04</pdfrwt>
<pdfrwt beam="2">  1       -2 0.33005485E-01 0.11571500E+04</pdfrwt>
<totfact> 0.44349717E+01</totfact>
</mgrwt>
</event>
<event>
12    5  0.6494252E-008  0.3137240E+04  0.7818608E-02  0.8205591E-01
         -2   -1    0    0    0  501 -0.00000000000E+00  0.00000000000E+00  0.11433424805E+04  0.11433424805E+04  0.00000000000E+00 0.  1.
          1   -1    0    0  501    0  0.00000000000E+00 -0.00000000000E+00 -0.21520832685E+04  0.21520832685E+04  0.00000000000E+00 0. -1.
        -24    2    1    2    0    0 -0.26521370006E+03  0.11889621550E+04  0.33498875411E+03  0.12657405603E+04  0.76892053858E+02 0.  0.
        254    2    1    2    0    0  0.26521370006E+03 -0.11889621550E+04 -0.13437295421E+04  0.20296851887E+04  0.91106726981E+03 0.  0.
         23    2    4    4    0    0  0.44531604596E+03 -0.55536323703E+03 -0.27137720729E+03  0.76785371467E+03  0.96015793843E+02 0.  0.
         23    2    4    4    0    0 -0.18010234590E+03 -0.63359891795E+03 -0.10723523348E+04  0.12618314740E+04  0.91622567985E+02 0.  0.
          1    1    3    3  502    0 -0.50215966377E+02  0.19819173737E+03  0.85856208418E+02  0.22174962585E+03  0.00000000000E+00 0. -1.
         -2    1    3    3    0  502 -0.21499773368E+03  0.99077041760E+03  0.24913254569E+03  0.10439909344E+04  0.00000000000E+00 0.  1.
         13    1    5    5    0    0  0.29943417867E+02 -0.62828046313E+02 -0.53238405105E+02  0.87625906302E+02  0.00000000000E+00 0.  1.
        -13    1    5    5    0    0  0.41537262809E+03 -0.49253519072E+03 -0.21813880218E+03  0.68022780837E+03  0.00000000000E+00 0. -1.
          3    1    6    6  503    0 -0.20890957915E+02 -0.17868798848E+03 -0.23900143912E+03  0.29914464270E+03  0.00000000000E+00 0. -1.
         -3    1    6    6    0  503 -0.15921138799E+03 -0.45491092946E+03 -0.83335089569E+03  0.96268683130E+03  0.00000000000E+00 0.  1.
<mgrwt>
<rscale>  0 0.31372397E+04</rscale>
<asrwt>0</asrwt>
<pdfrwt beam="1">  1        1 0.33108973E+00 0.31372397E+04</pdfrwt>
<pdfrwt beam="2">  1       -2 0.17589885E+00 0.31372397E+04</pdfrwt>
<totfact> 0.33642716E-01</totfact>
</mgrwt>
</event>
<event>
12    5  0.5264288E-008  0.1497663E+04  0.7818608E-02  0.8886008E-01
          1   -1    0    0  501    0  0.00000000000E+00  0.00000000000E+00  0.20848524085E+04  0.20848524085E+04  0.00000000000E+00 0. -1.
         -2   -1    0    0    0  501 -0.00000000000E+00 -0.00000000000E+00 -0.26896327754E+03  0.26896327754E+03  0.00000000000E+00 0.  1.
        -24    2    1    2    0    0 -0.38847062230E+03  0.10330895455E+03  0.18891147468E+03  0.45137336696E+03  0.80425161847E+02 0.  0.
        254    2    1    2    0    0  0.38847062230E+03 -0.10330895455E+03  0.16269776563E+04  0.19024423191E+04  0.90036010512E+03 0.  0.
         23    2    4    4    0    0 -0.22830790667E+03 -0.22662297378E+03  0.73903730131E+03  0.81045232026E+03  0.84701583202E+02 0.  0.
         23    2    4    4    0    0  0.61677852897E+03  0.12331401923E+03  0.88794035500E+03  0.10919899988E+04  0.91553166972E+02 0.  0.
          3    1    3    3  502    0 -0.67627878625E+02 -0.37203178268E+01  0.91464705950E+01  0.68344924145E+02  0.00000000000E+00 0. -1.
         -4    1    3    3    0  502 -0.32084274368E+03  0.10702927238E+03  0.17976500408E+03  0.38302844282E+03  0.00000000000E+00 0.  1.
         13    1    5    5    0    0 -0.88689303101E+02 -0.45064963719E+02  0.16873056248E+03  0.19587405687E+03  0.00000000000E+00 0. -1.
        -13    1    5    5    0    0 -0.13961860357E+03 -0.18155801006E+03  0.57030673883E+03  0.61457826339E+03  0.00000000000E+00 0.  1.
          3    1    6    6  503    0  0.98125069222E+02 -0.13759856311E+02  0.14424203338E+03  0.17499607724E+03  0.00000000000E+00 0. -1.
         -3    1    6    6    0  503  0.51865345975E+03  0.13707387554E+03  0.74369832163E+03  0.91699392160E+03  0.00000000000E+00 0.  1.
<mgrwt>
<rscale>  0 0.14976632E+04</rscale>
<asrwt>0</asrwt>
<pdfrwt beam="1">  1        1 0.32074652E+00 0.14976632E+04</pdfrwt>
<pdfrwt beam="2">  1       -2 0.41378967E-01 0.14976632E+04</pdfrwt>
<totfact> 0.12275562E+01</totfact>
</mgrwt>
</event>
<event>
12    5  0.5264288E-008  0.1505019E+04  0.7818608E-02  0.8881122E-01
         -2   -1    0    0    0  501 -0.00000000000E+00  0.00000000000E+00  0.23296352193E+03  0.23296352193E+03  0.00000000000E+00 0.  1.
          1   -1    0    0  501    0  0.00000000000E+00 -0.00000000000E+00 -0.24307271642E+04  0.24307271642E+04  0.00000000000E+00 0. -1.
        -24    2    1    2    0    0  0.13558496161E+03  0.31372765177E+02  0.98337647951E+02  0.18882137620E+03  0.81336872914E+02 0.  0.
        254    2    1    2    0    0 -0.13558496161E+03 -0.31372765177E+02 -0.22961012902E+04  0.24748693099E+04  0.91297833166E+03 0.  0.
         23    2    4    4    0    0 -0.19144140767E+03  0.20438551345E+02 -0.23405089840E+04  0.23501874853E+04  0.91276310189E+02 0.  0.
         23    2    4    4    0    0  0.55856446061E+02 -0.51811316523E+02  0.44407693846E+02  0.12468182459E+03  0.88142833086E+02 0.  0.
          3    1    3    3  502    0  0.11404664198E+03  0.40311756630E+02  0.42332184275E+02  0.12815493785E+03  0.00000000000E+00 0. -1.
         -4    1    3    3    0  502  0.21538319633E+02 -0.89389914529E+01  0.56005463676E+02  0.60666438353E+02  0.00000000000E+00 0.  1.
         13    1    5    5    0    0 -0.16093296139E+03 -0.88743368037E+01 -0.20829575231E+04  0.20891841027E+04  0.00000000000E+00 0.  1.
        -13    1    5    5    0    0 -0.30508446279E+02  0.29312888149E+02 -0.25755146094E+03  0.26100338262E+03  0.00000000000E+00 0. -1.
          1    1    6    6  503    0  0.36953176471E+02 -0.67172594799E+02  0.58594650601E+02  0.96493667266E+02  0.00000000000E+00 0.  1.
         -1    1    6    6    0  503  0.18903269589E+02  0.15361278277E+02 -0.14186956754E+02  0.28188157326E+02  0.00000000000E+00 0. -1.
<mgrwt>
<rscale>  0 0.15050193E+04</rscale>
<asrwt>0</asrwt>
<pdfrwt beam="1">  1        1 0.37395802E+00 0.15050193E+04</pdfrwt>
<pdfrwt beam="2">  1       -2 0.35840543E-01 0.15050193E+04</pdfrwt>
<totfact> 0.94238818E+00</totfact>
</mgrwt>
</event>
<event>
12    5  0.5264288E-008  0.2455565E+04  0.7818608E-02  0.8418989E-01
         -2   -1    0    0    0  501 -0.00000000000E+00  0.00000000000E+00  0.13612200327E+04  0.13612200327E+04  0.00000000000E+00 0.  1.
          1   -1    0    0  501    0  0.00000000000E+00 -0.00000000000E+00 -0.11074257657E+04  0.11074257657E+04  0.00000000000E+00 0. -1.
        -24    2    1    2    0    0  0.72240351023E+03 -0.77346414685E+03  0.17620075033E+03  0.10758386178E+04  0.79173284698E+02 0.  0.
        254    2    1    2    0    0 -0.72240351023E+03  0.77346414685E+03  0.77593516638E+02  0.13928071806E+04  0.90209615362E+03 0.  0.
         23    2    4    4    0    0 -0.27627973491E+03  0.32406077525E+03 -0.40211599252E+03  0.59251612644E+03  0.89622601318E+02 0.  0.
         23    2    4    4    0    0 -0.44612377532E+03  0.44940337160E+03  0.47970950916E+03  0.80029105414E+03  0.96719929980E+02 0.  0.
          3    1    3    3  502    0  0.11416137251E+03 -0.83700364754E+02  0.18095449913E+02  0.14270954888E+03  0.00000000000E+00 0. -1.
         -4    1    3    3    0  502  0.60824213772E+03 -0.68976378210E+03  0.15810530042E+03  0.93312906890E+03  0.00000000000E+00 0.  1.
         13    1    5    5    0    0 -0.13734614062E+03  0.18973705431E+03 -0.16443586968E+03  0.28618746890E+03  0.00000000000E+00 0. -1.
        -13    1    5    5    0    0 -0.13893359430E+03  0.13432372094E+03 -0.23768012284E+03  0.30632865753E+03  0.00000000000E+00 0.  1.
          2    1    6    6  503    0 -0.32966761398E+02  0.17561887621E+02  0.57429344690E+02  0.68508078979E+02  0.00000000000E+00 0. -1.
         -2    1    6    6    0  503 -0.41315701392E+03  0.43184148398E+03  0.42228016447E+03  0.73178297516E+03  0.00000000000E+00 0.  1.
<mgrwt>
<rscale>  0 0.24555652E+04</rscale>
<asrwt>0</asrwt>
<pdfrwt beam="1">  1        1 0.17037320E+00 0.24555652E+04</pdfrwt>
<pdfrwt beam="2">  1       -2 0.20941847E+00 0.24555652E+04</pdfrwt>
<totfact> 0.11309047E+00</totfact>
</mgrwt>
</event>
<event>
12    5  0.5264288E-008  0.1385950E+04  0.7818608E-02  0.8964052E-01
         -4   -1    0    0    0  501 -0.00000000000E+00  0.00000000000E+00  0.10718736165E+04  0.10718736165E+04  0.00000000000E+00 0.  1.
          1   -1    0    0  501    0  0.00000000000E+00 -0.00000000000E+00 -0.44801399778E+03  0.44801399778E+03  0.00000000000E+00 0. -1.
        -24    2    1    2    0    0  0.77418538469E+01  0.96365853735E+02  0.59450621430E+03  0.60749359854E+03  0.79148716698E+02 0.  0.
        254    2    1    2    0    0 -0.77418538469E+01 -0.96365853735E+02  0.29353404451E+02  0.91239401577E+03  0.90678272127E+03 0.  0.
         23    2    4    4    0    0 -0.11063176699E+03 -0.34028101829E+03  0.33448605310E+03  0.49814830119E+03  0.90775828200E+02 0.  0.
         23    2    4    4    0    0  0.10288991314E+03  0.24391516455E+03 -0.30513264864E+03  0.41424571458E+03  0.91720428791E+02 0.  0.
          1    1    3    3  502    0  0.28680072124E+02  0.44890741785E+02  0.14335133318E+03  0.15292916647E+03  0.00000000000E+00 0. -1.
         -2    1    3    3    0  502 -0.20938218277E+02  0.51475111951E+02  0.45115488112E+03  0.45456443206E+03  0.00000000000E+00 0.  1.
         13    1    5    5    0    0 -0.11932427112E+03 -0.33963563331E+03  0.32243420026E+03  0.48327472372E+03  0.00000000000E+00 0.  1.
        -13    1    5    5    0    0  0.86925041282E+01 -0.64538497742E+00  0.12051852840E+02  0.14873577467E+02  0.00000000000E+00 0. -1.
          1    1    6    6  503    0  0.30958178533E+02  0.59637779645E+02 -0.14472687942E+03  0.15956485579E+03  0.00000000000E+00 0. -1.
         -1    1    6    6    0  503  0.71931734608E+02  0.18427738491E+03 -0.16040576923E+03  0.25468085879E+03  0.00000000000E+00 0.  1.
<mgrwt>
<rscale>  0 0.13859500E+04</rscale>
<asrwt>0</asrwt>
<pdfrwt beam="1">  1        1 0.68925231E-01 0.13859500E+04</pdfrwt>
<pdfrwt beam="2">  1       -4 0.16490363E+00 0.13859500E+04</pdfrwt>
<totfact> 0.55321794E+00</totfact>
</mgrwt>
</event>
<event>
12    5  0.5264288E-008  0.1387131E+04  0.7818608E-02  0.8963187E-01
          1   -1    0    0  501    0  0.00000000000E+00  0.00000000000E+00  0.62962007856E+03  0.62962007856E+03  0.00000000000E+00 0. -1.
         -2   -1    0    0    0  501 -0.00000000000E+00 -0.00000000000E+00 -0.76400504031E+03  0.76400504031E+03  0.00000000000E+00 0.  1.
        -24    2    1    2    0    0  0.17516597352E+03  0.18596202519E+03  0.26626144779E+03  0.37749525865E+03  0.79639931159E+02 0.  0.
        254    2    1    2    0    0 -0.17516597352E+03 -0.18596202519E+03 -0.40064640954E+03  0.10161298602E+04  0.89818559010E+03 0.  0.
         23    2    4    4    0    0  0.84338720474E+02 -0.50032421495E+03 -0.20941555602E+03  0.55676374450E+03  0.93239756806E+02 0.  0.
         23    2    4    4    0    0 -0.25950469399E+03  0.31436218977E+03 -0.19123085352E+03  0.45936611572E+03  0.91003936031E+02 0.  0.
          3    1    3    3  502    0  0.16500583869E+03  0.19152298851E+03  0.26432227670E+03  0.36575162048E+03  0.00000000000E+00 0. -1.
         -4    1    3    3    0  502  0.10160134834E+02 -0.55609633195E+01  0.19391710876E+01  0.11743638167E+02  0.00000000000E+00 0.  1.
         13    1    5    5    0    0  0.70153572777E+02 -0.42932248526E+03 -0.14139261476E+03  0.45741796164E+03  0.00000000000E+00 0.  1.
        -13    1    5    5    0    0  0.14185147697E+02 -0.71001729694E+02 -0.68022941260E+02  0.99345782861E+02  0.00000000000E+00 0. -1.
          1    1    6    6  503    0  0.66124170876E+01  0.16397185458E+02 -0.38100269823E+01  0.18086128837E+02  0.00000000000E+00 0. -1.
         -1    1    6    6    0  503 -0.26611711108E+03  0.29796500431E+03 -0.18742082654E+03  0.44127998688E+03  0.00000000000E+00 0.  1.
<mgrwt>
<rscale>  0 0.13871307E+04</rscale>
<asrwt>0</asrwt>
<pdfrwt beam="1">  1        1 0.96864628E-01 0.13871307E+04</pdfrwt>
<pdfrwt beam="2">  1       -2 0.11753924E+00 0.13871307E+04</pdfrwt>
<totfact> 0.15240078E+01</totfact>
</mgrwt>
</event>
<event>
12    5  0.5264288E-008  0.1279007E+04  0.7818608E-02  0.9046381E-01
          1   -1    0    0  501    0  0.00000000000E+00  0.00000000000E+00  0.14917798277E+04  0.14917798277E+04  0.00000000000E+00 0. -1.
         -2   -1    0    0    0  501 -0.00000000000E+00 -0.00000000000E+00 -0.27414539597E+03  0.27414539597E+03  0.00000000000E+00 0.  1.
        -24    2    1    2    0    0  0.29866328730E+03  0.23656081583E+02  0.15252814064E+03  0.34557062736E+03  0.79967839966E+02 0.  0.
        254    2    1    2    0    0 -0.29866328730E+03 -0.23656081583E+02  0.10651062911E+04  0.14203545963E+04  0.89061574125E+03 0.  0.
         23    2    4    4    0    0 -0.52318359517E+03  0.15914439469E+03  0.94181400058E+03  0.10929830068E+04  0.92467447789E+02 0.  0.
         23    2    4    4    0    0  0.22452030786E+03 -0.18280047627E+03  0.12329229050E+03  0.32737158948E+03  0.90254007850E+02 0.  0.
          3    1    3    3  502    0  0.26790385830E+02 -0.13786169050E+02  0.37233387935E+02  0.47896851745E+02  0.00000000000E+00 0. -1.
         -4    1    3    3    0  502  0.27187290147E+03  0.37442250633E+02  0.11529475270E+03  0.29767377561E+03  0.00000000000E+00 0.  1.
         13    1    5    5    0    0 -0.54855652379E+02  0.33367138490E+02  0.16717751774E+03  0.17908330734E+03  0.00000000000E+00 0. -1.
        -13    1    5    5    0    0 -0.46832794279E+03  0.12577725620E+03  0.77463648284E+03  0.91389969949E+03  0.00000000000E+00 0.  1.
          4    1    6    6  503    0  0.16787508303E+02 -0.59116859820E+02  0.27335042519E+02  0.67259409003E+02  0.00000000000E+00 0. -1.
         -4    1    6    6    0  503  0.20773279956E+03 -0.12368361645E+03  0.95957247986E+02  0.26011218048E+03  0.00000000000E+00 0.  1.
<mgrwt>
<rscale>  0 0.12790068E+04</rscale>
<asrwt>0</asrwt>
<pdfrwt beam="1">  1        1 0.22950458E+00 0.12790068E+04</pdfrwt>
<pdfrwt beam="2">  1       -2 0.42176216E-01 0.12790068E+04</pdfrwt>
<totfact> 0.30491417E+01</totfact>
</mgrwt>
</event>
<event>
12    5  0.5264288E-008  0.2053681E+04  0.7818608E-02  0.8581926E-01
         -2   -1    0    0    0  501 -0.00000000000E+00  0.00000000000E+00  0.32970226749E+03  0.32970226749E+03  0.00000000000E+00 0.  1.
          1   -1    0    0  501    0  0.00000000000E+00 -0.00000000000E+00 -0.31980416300E+04  0.31980416300E+04  0.00000000000E+00 0. -1.
        -24    2    1    2    0    0  0.65929080742E+03  0.47563546856E+03 -0.10269688229E+04  0.13122065336E+04  0.79545935540E+02 0.  0.
        254    2    1    2    0    0 -0.65929080742E+03 -0.47563546856E+03 -0.18413705396E+04  0.22155373639E+04  0.92577906600E+03 0.  0.
         23    2    4    4    0    0 -0.62044330420E+03  0.95273332778E+02 -0.11544398756E+04  0.13169692829E+04  0.87462930637E+02 0.  0.
         23    2    4    4    0    0 -0.38847503224E+02 -0.57090880134E+03 -0.68693066404E+03  0.89856808097E+03  0.90027057001E+02 0.  0.
          1    1    3    3  502    0  0.12854365701E+03  0.56989136306E+02 -0.18903323597E+03  0.23559456216E+03  0.00000000000E+00 0. -1.
         -4    1    3    3    0  502  0.53074715041E+03  0.41864633226E+03 -0.83793558697E+03  0.10766119715E+04  0.00000000000E+00 0.  1.
         13    1    5    5    0    0 -0.23026029546E+03  0.63064824346E+02 -0.37151064822E+03  0.44160744725E+03  0.00000000000E+00 0. -1.
        -13    1    5    5    0    0 -0.39018300874E+03  0.32208508432E+02 -0.78292922736E+03  0.87536183569E+03  0.00000000000E+00 0.  1.
          1    1    6    6  503    0 -0.22612255930E+02 -0.28438397098E+03 -0.41211050621E+03  0.50121914009E+03  0.00000000000E+00 0. -1.
         -1    1    6    6    0  503 -0.16235247295E+02 -0.28652483036E+03 -0.27482015783E+03  0.39734894088E+03  0.00000000000E+00 0.  1.
<mgrwt>
<rscale>  0 0.20536812E+04</rscale>
<asrwt>0</asrwt>
<pdfrwt beam="1">  1        1 0.49200643E+00 0.20536812E+04</pdfrwt>
<pdfrwt beam="2">  1       -2 0.50723423E-01 0.20536812E+04</pdfrwt>
<totfact> 0.12746307E+00</totfact>
</mgrwt>
</event>
<event>
12    5  0.5264288E-008  0.1835410E+04  0.7818608E-02  0.8687692E-01
         -2   -1    0    0    0  501 -0.00000000000E+00  0.00000000000E+00  0.18213082180E+04  0.18213082180E+04  0.00000000000E+00 0.  1.
          1   -1    0    0  501    0  0.00000000000E+00 -0.00000000000E+00 -0.46240544854E+03  0.46240544854E+03  0.00000000000E+00 0. -1.
        -24    2    1    2    0    0  0.28000176015E+03 -0.19636470606E+03  0.12767249745E+04  0.13244826049E+04  0.85249203105E+02 0.  0.
        254    2    1    2    0    0 -0.28000176015E+03  0.19636470606E+03  0.82177794904E+02  0.95923106161E+03  0.89241859915E+03 0.  0.
         23    2    4    4    0    0 -0.44402254057E+03  0.60495444177E+02  0.37078802992E+03  0.58894268693E+03  0.92487891412E+02 0.  0.
         23    2    4    4    0    0  0.16402078042E+03  0.13586926188E+03 -0.28861023501E+03  0.37028837468E+03  0.91947484639E+02 0.  0.
          1    1    3    3  502    0  0.84769935333E+02 -0.64816957777E+02  0.56028027828E+03  0.57035179511E+03  0.00000000000E+00 0. -1.
         -2    1    3    3    0  502  0.19523182482E+03 -0.13154774828E+03  0.71644469623E+03  0.75413080978E+03  0.00000000000E+00 0.  1.
         13    1    5    5    0    0 -0.21504491553E+02  0.25762045068E+02  0.29898045015E+02  0.44944623914E+02  0.00000000000E+00 0. -1.
        -13    1    5    5    0    0 -0.42251804902E+03  0.34733399109E+02  0.34088998490E+03  0.54399806302E+03  0.00000000000E+00 0.  1.
          2    1    6    6  503    0  0.14660961583E+03  0.14787683093E+03 -0.27572203437E+03  0.34552073283E+03  0.00000000000E+00 0.  1.
         -2    1    6    6    0  503  0.17411164595E+02 -0.12007569043E+02 -0.12888200645E+02  0.24767641849E+02  0.00000000000E+00 0. -1.
<mgrwt>
<rscale>  0 0.18354104E+04</rscale>
<asrwt>0</asrwt>
<pdfrwt beam="1">  1        1 0.71139301E-01 0.18354104E+04</pdfrwt>
<pdfrwt beam="2">  1       -2 0.28020126E+00 0.18354104E+04</pdfrwt>
<totfact> 0.17070555E+00</totfact>
</mgrwt>
</event>
<event>
12    5  0.5264288E-008  0.1527882E+04  0.7818608E-02  0.8866120E-01
         -2   -1    0    0    0  501 -0.00000000000E+00  0.00000000000E+00  0.63890977337E+03  0.63890977337E+03  0.00000000000E+00 0.  1.
          1   -1    0    0  501    0  0.00000000000E+00 -0.00000000000E+00 -0.91344045198E+03  0.91344045198E+03  0.00000000000E+00 0. -1.
        -24    2    1    2    0    0  0.18234956417E+03  0.44264243520E+03 -0.30361452454E+02  0.48654382517E+03  0.81359615414E+02 0.  0.
        254    2    1    2    0    0 -0.18234956417E+03 -0.44264243520E+03 -0.24416922615E+03  0.10658064002E+04  0.92040261988E+03 0.  0.
         23    2    4    4    0    0 -0.10203753415E+03  0.25792378251E+03  0.50692168585E+02  0.29621239332E+03  0.90751033271E+02 0.  0.
         23    2    4    4    0    0 -0.80312030017E+02 -0.70056621771E+03 -0.29486139474E+03  0.76959400686E+03  0.89936898581E+02 0.  0.
          1    1    3    3  502    0  0.28014443032E+02  0.65208781415E+02  0.24542020688E+02  0.75095305922E+02  0.00000000000E+00 0. -1.
         -2    1    3    3    0  502  0.15433512114E+03  0.37743365378E+03 -0.54903473142E+02  0.41144851924E+03  0.00000000000E+00 0.  1.
         13    1    5    5    0    0 -0.88504536277E+01  0.52470570420E+02 -0.24270042470E+02  0.58485265248E+02  0.00000000000E+00 0.  1.
        -13    1    5    5    0    0 -0.93187080526E+02  0.20545321209E+03  0.74962211055E+02  0.23772712807E+03  0.00000000000E+00 0. -1.
          4    1    6    6  503    0 -0.37463589388E+02 -0.21010372813E+03 -0.47604031765E+02  0.21866239033E+03  0.00000000000E+00 0.  1.
         -4    1    6    6    0  503 -0.42848440629E+02 -0.49046248958E+03 -0.24725736297E+03  0.55093161653E+03  0.00000000000E+00 0. -1.
<mgrwt>
<rscale>  0 0.15278822E+04</rscale>
<asrwt>0</asrwt>
<pdfrwt beam="1">  1        1 0.14052930E+00 0.15278822E+04</pdfrwt>
<pdfrwt beam="2">  1       -2 0.98293812E-01 0.15278822E+04</pdfrwt>
<totfact> 0.12911191E+01</totfact>
</mgrwt>
</event>
<event>
12    5  0.5264288E-008  0.1357022E+04  0.7818608E-02  0.8985530E-01
          3   -1    0    0  501    0  0.00000000000E+00  0.00000000000E+00  0.51130704979E+03  0.51130704979E+03  0.00000000000E+00 0. -1.
         -4   -1    0    0    0  501 -0.00000000000E+00 -0.00000000000E+00 -0.90039223780E+03  0.90039223780E+03  0.00000000000E+00 0.  1.
        -24    2    1    2    0    0 -0.34445243229E+03  0.25770492170E+02  0.15215698725E+02  0.35482042737E+03  0.79714627349E+02 0.  0.
        254    2    1    2    0    0  0.34445243229E+03 -0.25770492170E+02 -0.40430088674E+03  0.10568788602E+04  0.91335760893E+03 0.  0.
         23    2    4    4    0    0 -0.23560660340E+03 -0.11027032909E+03 -0.37253765300E+03  0.46265410493E+03  0.87146433418E+02 0.  0.
         23    2    4    4    0    0  0.58005903570E+03  0.84499836916E+02 -0.31763233737E+02  0.59422475529E+03  0.92116499346E+02 0.  0.
          3    1    3    3  502    0 -0.14798683767E+03  0.45029923577E+02  0.27158498570E+02  0.15705216390E+03  0.00000000000E+00 0. -1.
         -4    1    3    3    0  502 -0.19646559462E+03 -0.19259431407E+02 -0.11942799844E+02  0.19776826347E+03  0.00000000000E+00 0.  1.
         13    1    5    5    0    0 -0.30177152889E+02 -0.45618740270E+02 -0.11189515195E+03  0.12454820372E+03  0.00000000000E+00 0. -1.
        -13    1    5    5    0    0 -0.20542945052E+03 -0.64651588816E+02 -0.26064250105E+03  0.33810590120E+03  0.00000000000E+00 0.  1.
          3    1    6    6  503    0  0.31359024805E+03  0.82524662387E+02  0.10398796888E+02  0.32443381228E+03  0.00000000000E+00 0. -1.
         -3    1    6    6    0  503  0.26646878765E+03  0.19751745284E+01 -0.42162030625E+02  0.26979094301E+03  0.00000000000E+00 0.  1.
<mgrwt>
<rscale>  0 0.13570216E+04</rscale>
<asrwt>0</asrwt>
<pdfrwt beam="1">  1        3 0.78662624E-01 0.13570216E+04</pdfrwt>
<pdfrwt beam="2">  1       -4 0.13852188E+00 0.13570216E+04</pdfrwt>
<totfact> 0.12396077E+00</totfact>
</mgrwt>
</event>
<event>
12    5  0.5264288E-008  0.2473407E+04  0.7818608E-02  0.8412521E-01
          1   -1    0    0  501    0  0.00000000000E+00  0.00000000000E+00  0.11214544149E+04  0.11214544149E+04  0.00000000000E+00 0. -1.
         -2   -1    0    0    0  501 -0.00000000000E+00 -0.00000000000E+00 -0.13637960927E+04  0.13637960927E+04  0.00000000000E+00 0.  1.
        -24    2    1    2    0    0  0.56973146259E+03 -0.87052085755E+03 -0.35979001026E+03  0.11036086816E+04  0.78120213178E+02 0.  0.
        254    2    1    2    0    0 -0.56973146259E+03  0.87052085755E+03  0.11744833248E+03  0.13816418260E+04  0.90152067186E+03 0.  0.
         23    2    4    4    0    0 -0.50464268998E+03  0.10200377947E+04 -0.33447310514E+02  0.11421561753E+04  0.90888167409E+02 0.  0.
         23    2    4    4    0    0 -0.65088772610E+02 -0.14951693717E+03  0.15089564299E+03  0.23948565075E+03  0.89398092932E+02 0.  0.
          3    1    3    3  502    0  0.32156654908E+03 -0.45280311725E+03 -0.15719440185E+03  0.57718782771E+03  0.00000000000E+00 0. -1.
         -4    1    3    3    0  502  0.24816491350E+03 -0.41771774030E+03 -0.20259560841E+03  0.52642085388E+03  0.00000000000E+00 0.  1.
         13    1    5    5    0    0 -0.25201955382E+03  0.60436903753E+03 -0.34908641124E+02  0.65573958418E+03  0.00000000000E+00 0.  1.
        -13    1    5    5    0    0 -0.25262313615E+03  0.41566875720E+03  0.14613306098E+01  0.48641659112E+03  0.00000000000E+00 0. -1.
          3    1    6    6  503    0  0.17154243050E+02 -0.94701696191E+01  0.34490002643E+02  0.39667523865E+02  0.00000000000E+00 0. -1.
         -3    1    6    6    0  503 -0.82243015660E+02 -0.14004676756E+03  0.11640564035E+03  0.19981812689E+03  0.00000000000E+00 0.  1.
<mgrwt>
<rscale>  0 0.24734067E+04</rscale>
<asrwt>0</asrwt>
<pdfrwt beam="1">  1        1 0.17253145E+00 0.24734067E+04</pdfrwt>
<pdfrwt beam="2">  1       -2 0.20981478E+00 0.24734067E+04</pdfrwt>
<totfact> 0.10957167E+00</totfact>
</mgrwt>
</event>
<event>
12    5  0.5264288E-008  0.1903326E+04  0.7818608E-02  0.8653202E-01
         -2   -1    0    0    0  501 -0.00000000000E+00  0.00000000000E+00  0.32242336291E+03  0.32242336291E+03  0.00000000000E+00 0.  1.
          1   -1    0    0  501    0  0.00000000000E+00 -0.00000000000E+00 -0.28089239866E+04  0.28089239866E+04  0.00000000000E+00 0. -1.
        -24    2    1    2    0    0  0.30101769826E+03 -0.37463601422E+03 -0.18458130244E+04  0.19098757741E+04  0.98162893775E+02 0.  0.
        254    2    1    2    0    0 -0.30101769826E+03  0.37463601422E+03 -0.64068759929E+03  0.12214715754E+04  0.92225181583E+03 0.  0.
         23    2    4    4    0    0 -0.21919904152E+03 -0.15270977992E+03  0.10414562793E+03  0.30067893345E+03  0.90515261234E+02 0.  0.
         23    2    4    4    0    0 -0.81818656733E+02  0.52734579414E+03 -0.74483322722E+03  0.92079264195E+03  0.91075100331E+02 0.  0.
          3    1    3    3  502    0  0.29020124975E+03 -0.31407540133E+03 -0.16572686812E+04  0.17115488906E+04  0.00000000000E+00 0. -1.
         -4    1    3    3    0  502  0.10816448507E+02 -0.60560612890E+02 -0.18854434321E+03  0.19832688358E+03  0.00000000000E+00 0.  1.
         13    1    5    5    0    0 -0.19085691305E+03 -0.11273187136E+03  0.11611246095E+03  0.25023377004E+03  0.00000000000E+00 0.  1.
        -13    1    5    5    0    0 -0.28342128471E+02 -0.39977908564E+02 -0.11966833018E+02  0.50445163414E+02  0.00000000000E+00 0. -1.
          3    1    6    6  503    0 -0.48747219963E+02  0.48585354652E+03 -0.66954963167E+03  0.82868973047E+03  0.00000000000E+00 0. -1.
         -3    1    6    6    0  503 -0.33071436770E+02  0.41492247618E+02 -0.75283595554E+02  0.92102911474E+02  0.00000000000E+00 0.  1.
<mgrwt>
<rscale>  0 0.19033263E+04</rscale>
<asrwt>0</asrwt>
<pdfrwt beam="1">  1        1 0.43214216E+00 0.19033263E+04</pdfrwt>
<pdfrwt beam="2">  1       -2 0.49603594E-01 0.19033263E+04</pdfrwt>
<totfact> 0.25997182E+00</totfact>
</mgrwt>
</event>
<event>
12    5  0.5264288E-008  0.1881655E+04  0.7818608E-02  0.8664042E-01
          1   -1    0    0  501    0  0.00000000000E+00  0.00000000000E+00  0.11576957273E+04  0.11576957273E+04  0.00000000000E+00 0. -1.
         -2   -1    0    0    0  501 -0.00000000000E+00 -0.00000000000E+00 -0.76458479396E+03  0.76458479396E+03  0.00000000000E+00 0.  1.
        -24    2    1    2    0    0  0.33026362089E+03 -0.39355256914E+03 -0.36941460169E+03  0.63780285781E+03  0.79797578436E+02 0.  0.
        254    2    1    2    0    0 -0.33026362089E+03  0.39355256914E+03  0.76252553501E+03  0.12844776634E+04  0.89692808648E+03 0.  0.
         23    2    4    4    0    0  0.80073016782E+01 -0.56349758624E+02 -0.16342087708E+03  0.19695339556E+03  0.94047034942E+02 0.  0.
         23    2    4    4    0    0 -0.33827092257E+03  0.44990232777E+03  0.92594641209E+03  0.10875242679E+04  0.92157221867E+02 0.  0.
          3    1    3    3  502    0  0.75214513519E+02 -0.98384770932E+02 -0.49745681493E+02  0.13345942838E+03  0.00000000000E+00 0. -1.
         -4    1    3    3    0  502  0.25504910737E+03 -0.29516779821E+03 -0.31966892020E+03  0.50434342943E+03  0.00000000000E+00 0.  1.
         13    1    5    5    0    0  0.30982415711E+02  0.15344809247E+02 -0.54693118615E+02  0.64704794861E+02  0.00000000000E+00 0. -1.
        -13    1    5    5    0    0 -0.22975114033E+02 -0.71694567871E+02 -0.10872775846E+03  0.13224860070E+03  0.00000000000E+00 0.  1.
          4    1    6    6  503    0 -0.16844672032E+03  0.16322767771E+03  0.43455041950E+03  0.49381336500E+03  0.00000000000E+00 0. -1.
         -4    1    6    6    0  503 -0.16982420225E+03  0.28667465005E+03  0.49139599259E+03  0.59371090287E+03  0.00000000000E+00 0.  1.
<mgrwt>
<rscale>  0 0.18816552E+04</rscale>
<asrwt>0</asrwt>
<pdfrwt beam="1">  1        1 0.17810704E+00 0.18816552E+04</pdfrwt>
<pdfrwt beam="2">  1       -2 0.11762843E+00 0.18816552E+04</pdfrwt>
<totfact> 0.52640798E+00</totfact>
</mgrwt>
</event>
<event>
12    5  0.5264288E-008  0.2305954E+04  0.7818608E-02  0.8475577E-01
          1   -1    0    0  501    0  0.00000000000E+00  0.00000000000E+00  0.16770370841E+04  0.16770370841E+04  0.00000000000E+00 0. -1.
         -2   -1    0    0    0  501 -0.00000000000E+00 -0.00000000000E+00 -0.79268108220E+03  0.79268108220E+03  0.00000000000E+00 0.  1.
        -24    2    1    2    0    0 -0.51275392337E+03  0.64754316701E+03 -0.17842372437E+03  0.84941573999E+03  0.86274763723E+02 0.  0.
        254    2    1    2    0    0  0.51275392337E+03 -0.64754316701E+03  0.10627797262E+04  0.16203024263E+04  0.90202575738E+03 0.  0.
         23    2    4    4    0    0  0.32276332015E+03  0.44320196733E+02  0.34687672516E+01  0.33770886433E+03  0.88852709740E+02 0.  0.
         23    2    4    4    0    0  0.18999060322E+03 -0.69186336374E+03  0.10593109590E+04  0.12825935619E+04  0.90195309702E+02 0.  0.
          3    1    3    3  502    0 -0.18984018448E+03  0.30577012163E+03 -0.64941333240E+02  0.36572125955E+03  0.00000000000E+00 0. -1.
         -2    1    3    3    0  502 -0.32291373889E+03  0.34177304538E+03 -0.11348239113E+03  0.48369448044E+03  0.00000000000E+00 0.  1.
         13    1    5    5    0    0  0.16304808687E+03  0.66335952139E+02 -0.67947536411E+01  0.17615704884E+03  0.00000000000E+00 0.  1.
        -13    1    5    5    0    0  0.15971523328E+03 -0.22015755406E+02  0.10263520893E+02  0.16155181549E+03  0.00000000000E+00 0. -1.
          4    1    6    6  503    0  0.23307577809E+02 -0.59482486910E+02  0.14519802973E+03  0.15863126196E+03  0.00000000000E+00 0. -1.
         -4    1    6    6    0  503  0.16668302541E+03 -0.63238087683E+03  0.91411292925E+03  0.11239623000E+04  0.00000000000E+00 0.  1.
<mgrwt>
<rscale>  0 0.23059537E+04</rscale>
<asrwt>0</asrwt>
<pdfrwt beam="1">  1        1 0.25800570E+00 0.23059537E+04</pdfrwt>
<pdfrwt beam="2">  1       -2 0.12195094E+00 0.23059537E+04</pdfrwt>
<totfact> 0.19997732E+00</totfact>
</mgrwt>
</event>
<event>
12    5  0.5264288E-008  0.2308418E+04  0.7818608E-02  0.8474610E-01
          1   -1    0    0  501    0  0.00000000000E+00  0.00000000000E+00  0.19234706682E+04  0.19234706682E+04  0.00000000000E+00 0. -1.
         -2   -1    0    0    0  501 -0.00000000000E+00 -0.00000000000E+00 -0.69260114080E+03  0.69260114080E+03  0.00000000000E+00 0.  1.
        -24    2    1    2    0    0 -0.40698865962E+03 -0.45511340744E+03 -0.34231465313E+03  0.70362242325E+03  0.71674333349E+02 0.  0.
        254    2    1    2    0    0  0.40698865962E+03  0.45511340744E+03  0.15731841805E+04  0.19124493858E+04  0.89988121688E+03 0.  0.
         23    2    4    4    0    0 -0.13139018866E+02 -0.23061574545E+03  0.57915606491E+03  0.63060129359E+03  0.94233688724E+02 0.  0.
         23    2    4    4    0    0  0.42012767849E+03  0.68572915289E+03  0.99402811562E+03  0.12818480922E+04  0.91164134230E+02 0.  0.
          3    1    3    3  502    0 -0.29473216299E+03 -0.31994749161E+03 -0.27933603649E+03  0.51697395154E+03  0.00000000000E+00 0. -1.
         -4    1    3    3    0  502 -0.11225649663E+03 -0.13516591583E+03 -0.62978616637E+02  0.18664847171E+03  0.00000000000E+00 0.  1.
         13    1    5    5    0    0  0.14101189082E+02 -0.61394852626E+02  0.74117975217E+02  0.97270991116E+02  0.00000000000E+00 0. -1.
        -13    1    5    5    0    0 -0.27240207948E+02 -0.16922089282E+03  0.50503808969E+03  0.53333030247E+03  0.00000000000E+00 0.  1.
          2    1    6    6  503    0  0.96957215396E+02  0.14321504752E+03  0.15898347072E+03  0.23491912527E+03  0.00000000000E+00 0. -1.
         -2    1    6    6    0  503  0.32317046309E+03  0.54251410537E+03  0.83504464490E+03  0.10469289669E+04  0.00000000000E+00 0.  1.
<mgrwt>
<rscale>  0 0.23084176E+04</rscale>
<asrwt>0</asrwt>
<pdfrwt beam="1">  1        1 0.29591856E+00 0.23084176E+04</pdfrwt>
<pdfrwt beam="2">  1       -2 0.10655402E+00 0.23084176E+04</pdfrwt>
<totfact> 0.18908594E+00</totfact>
</mgrwt>
</event>
<event>
12    5  0.5264288E-008  0.1344721E+04  0.7818608E-02  0.8994834E-01
         -2   -1    0    0    0  501 -0.00000000000E+00  0.00000000000E+00  0.44640395225E+03  0.44640395225E+03  0.00000000000E+00 0.  1.
          1   -1    0    0  501    0  0.00000000000E+00 -0.00000000000E+00 -0.10126903488E+04  0.10126903488E+04  0.00000000000E+00 0. -1.
        -24    2    1    2    0    0 -0.21235445121E+03 -0.30294571280E+02  0.15452855997E+03  0.27652830902E+03  0.81096583449E+02 0.  0.
        254    2    1    2    0    0  0.21235445121E+03  0.30294571280E+02 -0.72081495656E+03  0.11825659921E+04  0.91262037561E+03 0.  0.
         23    2    4    4    0    0  0.61330453240E+02  0.42848801866E+02  0.20622732564E+03  0.23873616837E+03  0.94169017887E+02 0.  0.
         23    2    4    4    0    0  0.15102399797E+03 -0.12554230586E+02 -0.92704228220E+03  0.94382982369E+03  0.91877562151E+02 0.  0.
          1    1    3    3  502    0 -0.45599461855E+02 -0.13868439409E+02 -0.13375943971E+01  0.47680537873E+02  0.00000000000E+00 0. -1.
         -2    1    3    3    0  502 -0.16675498936E+03 -0.16426131871E+02  0.15586615437E+03  0.22884777115E+03  0.00000000000E+00 0.  1.
         13    1    5    5    0    0  0.68353550437E+02 -0.77501230869E+01  0.10867136554E+03  0.12861468794E+03  0.00000000000E+00 0.  1.
        -13    1    5    5    0    0 -0.70230971968E+01  0.50598924952E+02  0.97555960103E+02  0.11012148043E+03  0.00000000000E+00 0. -1.
          4    1    6    6  503    0  0.16243233094E+03 -0.18851589652E+02 -0.87726010775E+03  0.89237040583E+03  0.00000000000E+00 0. -1.
         -4    1    6    6    0  503 -0.11408332971E+02  0.62973590660E+01 -0.49782174457E+02  0.51459417856E+02  0.00000000000E+00 0.  1.
<mgrwt>
<rscale>  0 0.13447215E+04</rscale>
<asrwt>0</asrwt>
<pdfrwt beam="1">  1        1 0.15579851E+00 0.13447215E+04</pdfrwt>
<pdfrwt beam="2">  1       -2 0.68677531E-01 0.13447215E+04</pdfrwt>
<totfact> 0.24606821E+01</totfact>
</mgrwt>
</event>
<event>
12    5  0.5264288E-008  0.2304542E+04  0.7818608E-02  0.8476132E-01
         -2   -1    0    0    0  501 -0.00000000000E+00  0.00000000000E+00  0.56876988915E+03  0.56876988915E+03  0.00000000000E+00 0.  1.
          1   -1    0    0  501    0  0.00000000000E+00 -0.00000000000E+00 -0.23343862812E+04  0.23343862812E+04  0.00000000000E+00 0. -1.
        -24    2    1    2    0    0 -0.16028505088E+03  0.39334278571E+02 -0.19564676558E+04  0.19649643684E+04  0.77979469515E+02 0.  0.
        254    2    1    2    0    0  0.16028505088E+03 -0.39334278571E+02  0.19085126383E+03  0.93819180192E+03  0.90362667584E+03 0.  0.
         23    2    4    4    0    0 -0.76903468137E+01  0.17637386367E+03  0.48535429081E+03  0.52465887688E+03  0.92364864876E+02 0.  0.
         23    2    4    4    0    0  0.16797539769E+03 -0.21570814224E+03 -0.29450302698E+03  0.41353292504E+03  0.97630478516E+02 0.  0.
          1    1    3    3  502    0 -0.13338015747E+03  0.10759184864E+00 -0.15482722544E+04  0.15540068377E+04  0.00000000000E+00 0. -1.
         -2    1    3    3    0  502 -0.26904893408E+02  0.39226686722E+02 -0.40819540148E+03  0.41095753069E+03  0.00000000000E+00 0.  1.
         13    1    5    5    0    0 -0.22764561054E+02  0.18179589709E+03  0.44763778853E+03  0.48368126195E+03  0.00000000000E+00 0. -1.
        -13    1    5    5    0    0  0.15074214240E+02 -0.54220334240E+01  0.37716502277E+02  0.40977614931E+02  0.00000000000E+00 0.  1.
          3    1    6    6  503    0  0.88374688465E+02 -0.18406378417E+03 -0.19658682087E+03  0.28343595457E+03  0.00000000000E+00 0. -1.
         -3    1    6    6    0  503  0.79600709225E+02 -0.31644358072E+02 -0.97916206106E+02  0.13009697047E+03  0.00000000000E+00 0.  1.
<mgrwt>
<rscale>  0 0.23045421E+04</rscale>
<asrwt>0</asrwt>
<pdfrwt beam="1">  1        1 0.35913635E+00 0.23045421E+04</pdfrwt>
<pdfrwt beam="2">  1       -2 0.87503060E-01 0.23045421E+04</pdfrwt>
<totfact> 0.15779655E+00</totfact>
</mgrwt>
</event>
<event>
12    5  0.5264288E-008  0.1300923E+04  0.7818608E-02  0.9028833E-01
          1   -1    0    0  501    0  0.00000000000E+00  0.00000000000E+00  0.44833768333E+03  0.44833768333E+03  0.00000000000E+00 0. -1.
         -2   -1    0    0    0  501 -0.00000000000E+00 -0.00000000000E+00 -0.94370914328E+03  0.94370914328E+03  0.00000000000E+00 0.  1.
        -24    2    1    2    0    0 -0.28338235592E+03  0.15233666844E+03 -0.52324474742E+02  0.33527368280E+03  0.78476566707E+02 0.  0.
        254    2    1    2    0    0  0.28338235592E+03 -0.15233666844E+03 -0.44304698521E+03  0.10567731438E+04  0.90386217211E+03 0.  0.
         23    2    4    4    0    0 -0.22383395661E+03 -0.34794913754E+02 -0.46881682542E+03  0.52783791170E+03  0.86667866431E+02 0.  0.
         23    2    4    4    0    0  0.50721631253E+03 -0.11754175469E+03  0.25769840210E+02  0.52893523212E+03  0.89576466325E+02 0.  0.
          3    1    3    3  502    0 -0.24080104469E+03  0.14613037772E+03 -0.21798175604E+02  0.28251440826E+03  0.00000000000E+00 0. -1.
         -4    1    3    3    0  502 -0.42581311237E+02  0.62062907214E+01 -0.30526299138E+02  0.52759274542E+02  0.00000000000E+00 0.  1.
         13    1    5    5    0    0 -0.18870371933E+03 -0.10912392324E+02 -0.30687276983E+03  0.36041513683E+03  0.00000000000E+00 0. -1.
        -13    1    5    5    0    0 -0.35130237275E+02 -0.23882521430E+02 -0.16194405560E+03  0.16742277487E+03  0.00000000000E+00 0.  1.
          2    1    6    6  503    0  0.11535891615E+03 -0.43153638495E+02 -0.28455180045E+02  0.12641049530E+03  0.00000000000E+00 0. -1.
         -2    1    6    6    0  503  0.39185739637E+03 -0.74388116192E+02  0.54225020255E+02  0.40252473681E+03  0.00000000000E+00 0.  1.
<mgrwt>
<rscale>  0 0.13009233E+04</rscale>
<asrwt>0</asrwt>
<pdfrwt beam="1">  1        1 0.68975029E-01 0.13009233E+04</pdfrwt>
<pdfrwt beam="2">  1       -2 0.14518602E+00 0.13009233E+04</pdfrwt>
<totfact> 0.14420472E+01</totfact>
</mgrwt>
</event>
<event>
12    5  0.5264288E-008  0.1883558E+04  0.7818608E-02  0.8663084E-01
         -2   -1    0    0    0  501 -0.00000000000E+00  0.00000000000E+00  0.32625190618E+03  0.32625190618E+03  0.00000000000E+00 0.  1.
          3   -1    0    0  501    0  0.00000000000E+00 -0.00000000000E+00 -0.27185964948E+04  0.27185964948E+04  0.00000000000E+00 0. -1.
        -24    2    1    2    0    0 -0.15124972005E+03  0.61980084915E+03 -0.14737902952E+04  0.16078755923E+04  0.78590810164E+02 0.  0.
        254    2    1    2    0    0  0.15124972005E+03 -0.61980084915E+03 -0.91855429336E+03  0.14369728087E+04  0.90228559372E+03 0.  0.
         23    2    4    4    0    0 -0.10710689467E+03  0.18127881332E+02 -0.69225225598E+03  0.70604638284E+03  0.86532085686E+02 0.  0.
         23    2    4    4    0    0  0.25835661472E+03 -0.63792873048E+03 -0.22630203738E+03  0.73092642584E+03  0.96641721436E+02 0.  0.
          3    1    3    3  502    0 -0.64228070084E+02  0.19445488955E+03 -0.39328380155E+03  0.44340737209E+03  0.00000000000E+00 0. -1.
         -4    1    3    3    0  502 -0.87021649967E+02  0.42534595960E+03 -0.10805064937E+04  0.11644682202E+04  0.00000000000E+00 0.  1.
         13    1    5    5    0    0 -0.10964098611E+03  0.30649655132E+02 -0.47629723095E+03  0.48971379336E+03  0.00000000000E+00 0.  1.
        -13    1    5    5    0    0  0.25340914415E+01 -0.12521773800E+02 -0.21595502502E+03  0.21633258948E+03  0.00000000000E+00 0. -1.
          2    1    6    6  503    0  0.17712143280E+03 -0.32109783198E+03 -0.97960189754E+02  0.37956819998E+03  0.00000000000E+00 0. -1.
         -2    1    6    6    0  503  0.81235181927E+02 -0.31683089850E+03 -0.12834184763E+03  0.35135822586E+03  0.00000000000E+00 0.  1.
<mgrwt>
<rscale>  0 0.18835576E+04</rscale>
<asrwt>0</asrwt>
<pdfrwt beam="1">  1        3 0.41824561E+00 0.18835576E+04</pdfrwt>
<pdfrwt beam="2">  1       -2 0.50192601E-01 0.18835576E+04</pdfrwt>
<totfact> 0.12793057E-01</totfact>
</mgrwt>
</event>
<event>
12    5  0.5264288E-008  0.1614031E+04  0.7818608E-02  0.8811974E-01
          3   -1    0    0  501    0  0.00000000000E+00  0.00000000000E+00  0.13001513206E+04  0.13001513206E+04  0.00000000000E+00 0. -1.
         -4   -1    0    0    0  501 -0.00000000000E+00 -0.00000000000E+00 -0.50092168834E+03  0.50092168834E+03  0.00000000000E+00 0.  1.
        -24    2    1    2    0    0  0.41014411647E+03  0.36277561887E+03  0.30049568766E+03  0.62967810085E+03  0.79827980406E+02 0.  0.
        254    2    1    2    0    0 -0.41014411647E+03 -0.36277561887E+03  0.49873394459E+03  0.11713949081E+04  0.90752748567E+03 0.  0.
         23    2    4    4    0    0  0.26362061043E+03 -0.15692695725E+03  0.33572443355E+02  0.32233118184E+03  0.92996697161E+02 0.  0.
         23    2    4    4    0    0 -0.67376472690E+03 -0.20584866162E+03  0.46516150124E+03  0.84906372624E+03  0.90561637940E+02 0.  0.
          3    1    3    3  502    0  0.34585322836E+03  0.26862103511E+03  0.25626209379E+03  0.50738740306E+03  0.00000000000E+00 0. -1.
         -4    1    3    3    0  502  0.64290888110E+02  0.94154583765E+02  0.44233593872E+02  0.12229069779E+03  0.00000000000E+00 0.  1.
         13    1    5    5    0    0  0.20945086272E+03 -0.14273724973E+03 -0.63781085443E+01  0.25354342157E+03  0.00000000000E+00 0. -1.
        -13    1    5    5    0    0  0.54169747706E+02 -0.14189707522E+02  0.39950551899E+02  0.68787760272E+02  0.00000000000E+00 0.  1.
          1    1    6    6  503    0 -0.15524692231E+03 -0.71929006261E+02  0.15087570612E+03  0.22812029179E+03  0.00000000000E+00 0. -1.
         -1    1    6    6    0  503 -0.51851780459E+03 -0.13391965536E+03  0.31428579512E+03  0.62094343445E+03  0.00000000000E+00 0.  1.
<mgrwt>
<rscale>  0 0.16140310E+04</rscale>
<asrwt>0</asrwt>
<pdfrwt beam="1">  1        3 0.20002328E+00 0.16140310E+04</pdfrwt>
<pdfrwt beam="2">  1       -4 0.77064876E-01 0.16140310E+04</pdfrwt>
<totfact> 0.48828551E-01</totfact>
</mgrwt>
</event>
<event>
12    5  0.5264288E-008  0.9532569E+03  0.7818608E-02  0.9361352E-01
          1   -1    0    0  501    0  0.00000000000E+00  0.00000000000E+00  0.57435185154E+03  0.57435185154E+03  0.00000000000E+00 0. -1.
         -2   -1    0    0    0  501 -0.00000000000E+00 -0.00000000000E+00 -0.39553226974E+03  0.39553226974E+03  0.00000000000E+00 0.  1.
        -24    2    1    2    0    0 -0.52447314756E+02  0.13710149340E+01  0.62371938992E+02  0.11459881221E+03  0.80560713004E+02 0.  0.
        254    2    1    2    0    0  0.52447314756E+02 -0.13710149340E+01  0.11644764281E+03  0.85528530907E+03  0.84569516132E+03 0.  0.
         23    2    4    4    0    0  0.31367501721E+01  0.22902416926E+03  0.40379462302E+03  0.47291819490E+03  0.90219799244E+02 0.  0.
         23    2    4    4    0    0  0.49310564583E+02 -0.23039518420E+03 -0.28734698021E+03  0.38236711417E+03  0.90126856592E+02 0.  0.
          1    1    3    3  502    0 -0.23253495344E+02  0.33535120563E+02  0.58033660234E+02  0.70945296370E+02  0.00000000000E+00 0. -1.
         -2    1    3    3    0  502 -0.29193819411E+02 -0.32164105629E+02  0.43382787578E+01  0.43653515841E+02  0.00000000000E+00 0.  1.
         13    1    5    5    0    0 -0.39682908804E+02  0.90997019269E+02  0.19741970754E+03  0.22097450462E+03  0.00000000000E+00 0. -1.
        -13    1    5    5    0    0  0.42819658976E+02  0.13802715000E+03  0.20637491548E+03  0.25194369027E+03  0.00000000000E+00 0.  1.
          1    1    6    6  503    0  0.46555465014E+02 -0.10838183482E+03 -0.82589755844E+02  0.14399687917E+03  0.00000000000E+00 0. -1.
         -1    1    6    6    0  503  0.27550995690E+01 -0.12201334938E+03 -0.20475722437E+03  0.23837023500E+03  0.00000000000E+00 0.  1.
<mgrwt>
<rscale>  0 0.95325693E+03</rscale>
<asrwt>0</asrwt>
<pdfrwt beam="1">  1        1 0.88361824E-01 0.95325693E+03</pdfrwt>
<pdfrwt beam="2">  1       -2 0.60851118E-01 0.95325693E+03</pdfrwt>
<totfact> 0.80703349E+01</totfact>
</mgrwt>
</event>
<event>
12    5  0.5264288E-008  0.3210235E+04  0.7818608E-02  0.8186119E-01
          1   -1    0    0  501    0  0.00000000000E+00  0.00000000000E+00  0.13323442228E+04  0.13323442228E+04  0.00000000000E+00 0. -1.
         -2   -1    0    0    0  501 -0.00000000000E+00 -0.00000000000E+00 -0.19337357515E+04  0.19337357515E+04  0.00000000000E+00 0.  1.
        -24    2    1    2    0    0 -0.97109034710E+03  0.83375386305E+03  0.47446305112E+03  0.13670681235E+04  0.74820458749E+02 0.  0.
        254    2    1    2    0    0  0.97109034710E+03 -0.83375386305E+03 -0.10758545798E+04  0.18990118509E+04  0.90034491522E+03 0.  0.
         23    2    4    4    0    0  0.77380300680E+03 -0.10126010583E+04 -0.81617465754E+03  0.15160814414E+04  0.90718623481E+02 0.  0.
         23    2    4    4    0    0  0.19728734031E+03  0.17884719526E+03 -0.25967992230E+03  0.38293040949E+03  0.91068230298E+02 0.  0.
          1    1    3    3  502    0 -0.74797995184E+03  0.60123126643E+03  0.36507327053E+03  0.10267577791E+04  0.00000000000E+00 0. -1.
         -2    1    3    3    0  502 -0.22311039526E+03  0.23252259662E+03  0.10938978059E+03  0.34031034441E+03  0.00000000000E+00 0.  1.
         13    1    5    5    0    0  0.51306185918E+03 -0.70895253608E+03 -0.60150014597E+03  0.10619079976E+04  0.00000000000E+00 0.  1.
        -13    1    5    5    0    0  0.26074114762E+03 -0.30364852223E+03 -0.21467451157E+03  0.45417344377E+03  0.00000000000E+00 0. -1.
          2    1    6    6  503    0  0.16398358178E+02  0.15285418697E+02 -0.71396283333E+02  0.74833010426E+02  0.00000000000E+00 0. -1.
         -2    1    6    6    0  503  0.18088898213E+03  0.16356177656E+03 -0.18828363897E+03  0.30809739906E+03  0.00000000000E+00 0.  1.
<mgrwt>
<rscale>  0 0.32102347E+04</rscale>
<asrwt>0</asrwt>
<pdfrwt beam="1">  1        1 0.20497604E+00 0.32102347E+04</pdfrwt>
<pdfrwt beam="2">  1       -2 0.29749781E+00 0.32102347E+04</pdfrwt>
<totfact> 0.20725982E-01</totfact>
</mgrwt>
</event>
<event>
12    5  0.5264288E-008  0.1863909E+04  0.7818608E-02  0.8673033E-01
         -2   -1    0    0    0  501 -0.00000000000E+00  0.00000000000E+00  0.24837741685E+03  0.24837741685E+03  0.00000000000E+00 0.  1.
          1   -1    0    0  501    0  0.00000000000E+00 -0.00000000000E+00 -0.34968520401E+04  0.34968520401E+04  0.00000000000E+00 0. -1.
        -24    2    1    2    0    0  0.27434773761E+03 -0.29257531096E+03 -0.24251256430E+04  0.24594526802E+04  0.82499140574E+02 0.  0.
        254    2    1    2    0    0 -0.27434773761E+03  0.29257531096E+03 -0.82334898027E+03  0.12857767768E+04  0.90246960204E+03 0.  0.
         23    2    4    4    0    0 -0.52368153862E+03  0.38988884653E+03 -0.38209724690E+03  0.76180501195E+03  0.89960566889E+02 0.  0.
         23    2    4    4    0    0  0.24933380101E+03 -0.97313535576E+02 -0.44125173337E+03  0.52397176480E+03  0.90587248410E+02 0.  0.
          1    1    3    3  502    0  0.27021284757E+03 -0.28089351406E+03 -0.23999345499E+04  0.24313786198E+04  0.00000000000E+00 0. -1.
         -2    1    3    3    0  502  0.41348900433E+01 -0.11681796900E+02 -0.25191093101E+02  0.28074060378E+02  0.00000000000E+00 0.  1.
         13    1    5    5    0    0 -0.51834419854E+03  0.39464130067E+03 -0.38059208189E+03  0.75450168797E+03  0.00000000000E+00 0.  1.
        -13    1    5    5    0    0 -0.53373400859E+01 -0.47524541327E+01 -0.15051650145E+01  0.73033239828E+01  0.00000000000E+00 0. -1.
          2    1    6    6  503    0  0.11834296373E+03 -0.12522241420E+02 -0.13294600582E+03  0.17842786794E+03  0.00000000000E+00 0. -1.
         -2    1    6    6    0  503  0.13099083728E+03 -0.84791294156E+02 -0.30830572755E+03  0.34554389686E+03  0.00000000000E+00 0.  1.
<mgrwt>
<rscale>  0 0.18639089E+04</rscale>
<asrwt>0</asrwt>
<pdfrwt beam="1">  1        1 0.53797720E+00 0.18639089E+04</pdfrwt>
<pdfrwt beam="2">  1       -2 0.38211913E-01 0.18639089E+04</pdfrwt>
<totfact> 0.13476282E+00</totfact>
</mgrwt>
</event>
<event>
12    5  0.5264288E-008  0.1228921E+04  0.7818608E-02  0.9087912E-01
         -2   -1    0    0    0  501 -0.00000000000E+00  0.00000000000E+00  0.42401504609E+03  0.42401504609E+03  0.00000000000E+00 0.  1.
          1   -1    0    0  501    0  0.00000000000E+00 -0.00000000000E+00 -0.89044343583E+03  0.89044343583E+03  0.00000000000E+00 0. -1.
        -24    2    1    2    0    0 -0.31242714058E+03 -0.81522540716E+02 -0.14655838389E+03  0.36345555989E+03  0.79774314828E+02 0.  0.
        254    2    1    2    0    0  0.31242714058E+03  0.81522540716E+02 -0.31987000585E+03  0.95100292203E+03  0.83536404894E+03 0.  0.
         23    2    4    4    0    0  0.14212529255E+03  0.12383978964E+03  0.26177453162E+03  0.33512627439E+03  0.90817520862E+02 0.  0.
         23    2    4    4    0    0  0.17030184803E+03 -0.42317248924E+02 -0.58164453748E+03  0.61587664765E+03  0.10099607984E+03 0.  0.
          1    1    3    3  502    0 -0.18751032027E+03 -0.54780153740E+02 -0.12997376846E+03  0.23463624174E+03  0.00000000000E+00 0. -1.
         -2    1    3    3    0  502 -0.12491682031E+03 -0.26742386977E+02 -0.16584615435E+02  0.12881931815E+03  0.00000000000E+00 0.  1.
         13    1    5    5    0    0  0.10774151732E+03  0.34109588922E+02  0.14759874662E+03  0.18589537008E+03  0.00000000000E+00 0. -1.
        -13    1    5    5    0    0  0.34383775227E+02  0.89730200719E+02  0.11417578500E+03  0.14923090431E+03  0.00000000000E+00 0.  1.
          1    1    6    6  503    0  0.18969531984E+02  0.73223391627E+01 -0.21722108453E+03  0.21817071151E+03  0.00000000000E+00 0. -1.
         -1    1    6    6    0  503  0.15133231605E+03 -0.49639588087E+02 -0.36442345294E+03  0.39770593614E+03  0.00000000000E+00 0.  1.
<mgrwt>
<rscale>  0 0.12289205E+04</rscale>
<asrwt>0</asrwt>
<pdfrwt beam="1">  1        1 0.13699130E+00 0.12289205E+04</pdfrwt>
<pdfrwt beam="2">  1       -2 0.65233085E-01 0.12289205E+04</pdfrwt>
<totfact> 0.34751793E+01</totfact>
</mgrwt>
</event>
<event>
12    5  0.5264288E-008  0.2743228E+04  0.7818608E-02  0.8321114E-01
         -2   -1    0    0    0  501 -0.00000000000E+00  0.00000000000E+00  0.10180574325E+04  0.10180574325E+04  0.00000000000E+00 0.  1.
          1   -1    0    0  501    0  0.00000000000E+00 -0.00000000000E+00 -0.18479562329E+04  0.18479562329E+04  0.00000000000E+00 0. -1.
        -24    2    1    2    0    0 -0.15748755850E+03  0.11237013251E+04  0.10455192915E+03  0.11425229423E+04  0.83189954948E+02 0.  0.
        254    2    1    2    0    0  0.15748755850E+03 -0.11237013251E+04 -0.93445072960E+03  0.17234907231E+04  0.89984171240E+03 0.  0.
         23    2    4    4    0    0  0.56587012835E+02 -0.80146197189E+03 -0.94805852365E+02  0.81388931160E+03  0.88793465352E+02 0.  0.
         23    2    4    4    0    0  0.10090054567E+03 -0.32223935323E+03 -0.83964487723E+03  0.90960141148E+03  0.91389753399E+02 0.  0.
          3    1    3    3  502    0 -0.34021351396E+01  0.22779083613E+02 -0.97473561526E+01  0.25009440731E+02  0.00000000000E+00 0. -1.
         -4    1    3    3    0  502 -0.15408542337E+03  0.11009222415E+04  0.11429928530E+03  0.11175135016E+04  0.00000000000E+00 0.  1.
         13    1    5    5    0    0 -0.31381901848E+01 -0.13292820386E+03 -0.46866890249E+02  0.14098319410E+03  0.00000000000E+00 0. -1.
        -13    1    5    5    0    0  0.59725203020E+02 -0.66853376804E+03 -0.47938962116E+02  0.67290611750E+03  0.00000000000E+00 0.  1.
          1    1    6    6  503    0  0.29822013302E+02 -0.97229092790E+02 -0.15457174757E+03  0.18502776578E+03  0.00000000000E+00 0. -1.
         -1    1    6    6    0  503  0.71078532368E+02 -0.22501026044E+03 -0.68507312966E+03  0.72457364570E+03  0.00000000000E+00 0.  1.
<mgrwt>
<rscale>  0 0.27432284E+04</rscale>
<asrwt>0</asrwt>
<pdfrwt beam="1">  1        1 0.28430096E+00 0.27432284E+04</pdfrwt>
<pdfrwt beam="2">  1       -2 0.15662422E+00 0.27432284E+04</pdfrwt>
<totfact> 0.77120850E-01</totfact>
</mgrwt>
</event>
<event>
12    5  0.5264288E-008  0.1397815E+04  0.7818608E-02  0.8955402E-01
         -2   -1    0    0    0  501 -0.00000000000E+00  0.00000000000E+00  0.11308766439E+04  0.11308766439E+04  0.00000000000E+00 0.  1.
          1   -1    0    0  501    0  0.00000000000E+00 -0.00000000000E+00 -0.43194065802E+03  0.43194065802E+03  0.00000000000E+00 0. -1.
        -24    2    1    2    0    0 -0.22375850651E+03 -0.32752891656E+03  0.13388159355E+03  0.42629564592E+03  0.80378082977E+02 0.  0.
        254    2    1    2    0    0  0.22375850651E+03  0.32752891656E+03  0.56505439231E+03  0.11365216560E+04  0.90280227505E+03 0.  0.
         23    2    4    4    0    0 -0.27302883443E+03  0.26478375558E+03  0.20927627797E+02  0.39124972595E+03  0.89348759368E+02 0.  0.
         23    2    4    4    0    0  0.49678734094E+03  0.62745160980E+02  0.54412676452E+03  0.74527193004E+03  0.92853090941E+02 0.  0.
          3    1    3    3  502    0 -0.15330326924E+03 -0.19001011544E+03  0.45686701305E+02  0.24838077825E+03  0.00000000000E+00 0. -1.
         -4    1    3    3    0  502 -0.70455237268E+02 -0.13751880112E+03  0.88194892241E+02  0.17791486767E+03  0.00000000000E+00 0.  1.
         13    1    5    5    0    0 -0.27125736611E+03  0.25198026591E+03  0.35306243741E+02  0.37191550644E+03  0.00000000000E+00 0.  1.
        -13    1    5    5    0    0 -0.17714683142E+01  0.12803489667E+02 -0.14378615944E+02  0.19334219511E+02  0.00000000000E+00 0. -1.
          1    1    6    6  503    0  0.24638088090E+03  0.16339695749E+02  0.33244227668E+03  0.41411156885E+03  0.00000000000E+00 0. -1.
         -1    1    6    6    0  503  0.25040646004E+03  0.46405465231E+02  0.21168448783E+03  0.33116036119E+03  0.00000000000E+00 0.  1.
<mgrwt>
<rscale>  0 0.13978149E+04</rscale>
<asrwt>0</asrwt>
<pdfrwt beam="1">  1        1 0.66452409E-01 0.13978149E+04</pdfrwt>
<pdfrwt beam="2">  1       -2 0.17398102E+00 0.13978149E+04</pdfrwt>
<totfact> 0.92052511E+00</totfact>
</mgrwt>
</event>
<event>
12    5  0.5264288E-008  0.1107044E+04  0.7818608E-02  0.9198354E-01
         -2   -1    0    0    0  501 -0.00000000000E+00  0.00000000000E+00  0.34536392379E+03  0.34536392379E+03  0.00000000000E+00 0.  1.
          1   -1    0    0  501    0  0.00000000000E+00 -0.00000000000E+00 -0.88714077762E+03  0.88714077762E+03  0.00000000000E+00 0. -1.
        -24    2    1    2    0    0 -0.15481985391E+03  0.49230359368E+02 -0.51754538987E+02  0.19114105890E+03  0.86391878343E+02 0.  0.
        254    2    1    2    0    0  0.15481985391E+03 -0.49230359368E+02 -0.49002231485E+03  0.10413636425E+04  0.90439126016E+03 0.  0.
         23    2    4    4    0    0 -0.10069629912E+03 -0.40461764367E+03 -0.78905551779E+02  0.43403089571E+03  0.91112842658E+02 0.  0.
         23    2    4    4    0    0  0.25551615303E+03  0.35538728431E+03 -0.41111676307E+03  0.60733274681E+03  0.90815451128E+02 0.  0.
          3    1    3    3  502    0 -0.41578713042E+02  0.42769927001E+02 -0.49789989151E+02  0.77698771248E+02  0.00000000000E+00 0. -1.
         -4    1    3    3    0  502 -0.11324114087E+03  0.64604323672E+01 -0.19645498355E+01  0.11344228765E+03  0.00000000000E+00 0.  1.
         13    1    5    5    0    0 -0.66787057959E+02 -0.24585329119E+03 -0.29125461365E+01  0.25477997336E+03  0.00000000000E+00 0.  1.
        -13    1    5    5    0    0 -0.33909241161E+02 -0.15876435248E+03 -0.75993005642E+02  0.17925092235E+03  0.00000000000E+00 0. -1.
          2    1    6    6  503    0  0.70008639441E+02  0.70594714871E+02 -0.49511536262E+02  0.11106851753E+03  0.00000000000E+00 0. -1.
         -2    1    6    6    0  503  0.18550751359E+03  0.28479256943E+03 -0.36160522681E+03  0.49626422927E+03  0.00000000000E+00 0.  1.
<mgrwt>
<rscale>  0 0.11070437E+04</rscale>
<asrwt>0</asrwt>
<pdfrwt beam="1">  1        1 0.13648320E+00 0.11070437E+04</pdfrwt>
<pdfrwt beam="2">  1       -2 0.53132911E-01 0.11070437E+04</pdfrwt>
<totfact> 0.54363525E+01</totfact>
</mgrwt>
</event>
<event>
12    5  0.5264288E-008  0.1224261E+04  0.7818608E-02  0.9091882E-01
          1   -1    0    0  501    0  0.00000000000E+00  0.00000000000E+00  0.18084984604E+04  0.18084984604E+04  0.00000000000E+00 0. -1.
         -2   -1    0    0    0  501 -0.00000000000E+00 -0.00000000000E+00 -0.20719060879E+03  0.20719060879E+03  0.00000000000E+00 0.  1.
        -24    2    1    2    0    0 -0.31722344429E+01 -0.20233218131E+03  0.92486839030E+02  0.24050714414E+03  0.91331792531E+02 0.  0.
        254    2    1    2    0    0  0.31722344429E+01  0.20233218131E+03  0.15088210126E+04  0.17751819250E+04  0.91311644622E+03 0.  0.
         23    2    4    4    0    0  0.81822876082E+02 -0.24587609316E+03  0.98329216135E+02  0.29058490465E+03  0.87297856929E+02 0.  0.
         23    2    4    4    0    0 -0.78650641639E+02  0.44820827447E+03  0.14104917964E+04  0.14845970204E+04  0.86398057914E+02 0.  0.
          3    1    3    3  502    0  0.54164909558E+01 -0.87518920772E+01  0.37787130028E+02  0.39163773885E+02  0.00000000000E+00 0. -1.
         -4    1    3    3    0  502 -0.85887253987E+01 -0.19358028923E+03  0.54699709002E+02  0.20134337026E+03  0.00000000000E+00 0.  1.
         13    1    5    5    0    0  0.74164128472E+02 -0.24964390563E+03  0.10390448968E+03  0.28038997940E+03  0.00000000000E+00 0.  1.
        -13    1    5    5    0    0  0.76587476099E+01  0.37678124673E+01 -0.55752735476E+01  0.10194925251E+02  0.00000000000E+00 0. -1.
          1    1    6    6  503    0 -0.82028533425E+01  0.24054876714E+03  0.65041553722E+03  0.69352099264E+03  0.00000000000E+00 0. -1.
         -1    1    6    6    0  503 -0.70447788296E+02  0.20765950733E+03  0.76007625923E+03  0.79107602776E+03  0.00000000000E+00 0.  1.
<mgrwt>
<rscale>  0 0.12242612E+04</rscale>
<asrwt>0</asrwt>
<pdfrwt beam="1">  1        1 0.27823052E+00 0.12242612E+04</pdfrwt>
<pdfrwt beam="2">  1       -2 0.31875479E-01 0.12242612E+04</pdfrwt>
<totfact> 0.31927940E+01</totfact>
</mgrwt>
</event>
<event>
12    5  0.5264288E-008  0.1340352E+04  0.7818608E-02  0.8998164E-01
          1   -1    0    0  501    0  0.00000000000E+00  0.00000000000E+00  0.11611220792E+04  0.11611220792E+04  0.00000000000E+00 0. -1.
         -2   -1    0    0    0  501 -0.00000000000E+00 -0.00000000000E+00 -0.38681164243E+03  0.38681164243E+03  0.00000000000E+00 0.  1.
        -24    2    1    2    0    0  0.81973982292E+02  0.14663495559E+01 -0.19804302732E+03  0.22904033968E+03  0.80725166917E+02 0.  0.
        254    2    1    2    0    0 -0.81973982292E+02 -0.14663495559E+01  0.97235346405E+03  0.13188933819E+04  0.88729172758E+03 0.  0.
         23    2    4    4    0    0  0.18612035840E+03 -0.35157361973E+03  0.28791927645E+03  0.49935269671E+03  0.90613509225E+02 0.  0.
         23    2    4    4    0    0 -0.26809434069E+03  0.35010727017E+03  0.68443418760E+03  0.81954068520E+03  0.93525939758E+02 0.  0.
          1    1    3    3  502    0  0.70846037009E+02  0.92226655840E+01 -0.69125023344E+02  0.99410700494E+02  0.00000000000E+00 0. -1.
         -2    1    3    3    0  502  0.11127945283E+02 -0.77563160281E+01 -0.12891800398E+03  0.12962963918E+03  0.00000000000E+00 0.  1.
         13    1    5    5    0    0  0.82835032801E+02 -0.14831710324E+03  0.17865084539E+03  0.24652734195E+03  0.00000000000E+00 0. -1.
        -13    1    5    5    0    0  0.10328532560E+03 -0.20325651649E+03  0.10926843107E+03  0.25282535475E+03  0.00000000000E+00 0.  1.
          4    1    6    6  503    0 -0.56860749471E+02  0.10043638580E+03  0.11533430796E+03  0.16316438035E+03  0.00000000000E+00 0. -1.
         -4    1    6    6    0  503 -0.21123359122E+03  0.24967088438E+03  0.56909987964E+03  0.65637630485E+03  0.00000000000E+00 0.  1.
<mgrwt>
<rscale>  0 0.13403515E+04</rscale>
<asrwt>0</asrwt>
<pdfrwt beam="1">  1        1 0.17863416E+00 0.13403515E+04</pdfrwt>
<pdfrwt beam="2">  1       -2 0.59509484E-01 0.13403515E+04</pdfrwt>
<totfact> 0.25838203E+01</totfact>
</mgrwt>
</event>
<event>
12    5  0.5264288E-008  0.1472013E+04  0.7818608E-02  0.8903280E-01
         -2   -1    0    0    0  501 -0.00000000000E+00  0.00000000000E+00  0.25546555908E+03  0.25546555908E+03  0.00000000000E+00 0.  1.
          1   -1    0    0  501    0  0.00000000000E+00 -0.00000000000E+00 -0.21204642390E+04  0.21204642390E+04  0.00000000000E+00 0. -1.
        -24    2    1    2    0    0 -0.41651291933E+03  0.34106000717E+02 -0.24505474874E+03  0.49077573069E+03  0.78503227319E+02 0.  0.
        254    2    1    2    0    0  0.41651291933E+03 -0.34106000717E+02 -0.16199439312E+04  0.18851540674E+04  0.86887357329E+03 0.  0.
         23    2    4    4    0    0  0.23365348775E+03 -0.34266068635E+03 -0.13804923867E+04  0.14442309221E+04  0.89629394185E+02 0.  0.
         23    2    4    4    0    0  0.18285943158E+03  0.30855468564E+03 -0.23945154448E+03  0.44092314529E+03  0.91829255442E+02 0.  0.
          1    1    3    3  502    0 -0.18562687443E+03  0.48532436078E+01 -0.15261178274E+03  0.24035649922E+03  0.00000000000E+00 0. -1.
         -2    1    3    3    0  502 -0.23088604491E+03  0.29252757109E+02 -0.92442965994E+02  0.25041923148E+03  0.00000000000E+00 0.  1.
         13    1    5    5    0    0  0.38247536705E+02 -0.20277252246E+02 -0.91157048769E+02  0.10091406524E+03  0.00000000000E+00 0.  1.
        -13    1    5    5    0    0  0.19540595105E+03 -0.32238343411E+03 -0.12893353379E+04  0.13433168568E+04  0.00000000000E+00 0. -1.
          4    1    6    6  503    0  0.12172671281E+03  0.14177584501E+03 -0.16134003740E+03  0.24687727823E+03  0.00000000000E+00 0. -1.
         -4    1    6    6    0  503  0.61132718768E+02  0.16677884063E+03 -0.78111507087E+02  0.19404586706E+03  0.00000000000E+00 0.  1.
<mgrwt>
<rscale>  0 0.14720130E+04</rscale>
<asrwt>0</asrwt>
<pdfrwt beam="1">  1        1 0.32622525E+00 0.14720130E+04</pdfrwt>
<pdfrwt beam="2">  1       -2 0.39302396E-01 0.14720130E+04</pdfrwt>
<totfact> 0.12874039E+01</totfact>
</mgrwt>
</event>
<event>
12    5  0.5264288E-008  0.1394369E+04  0.7818608E-02  0.8957905E-01
          1   -1    0    0  501    0  0.00000000000E+00  0.00000000000E+00  0.61518596881E+03  0.61518596881E+03  0.00000000000E+00 0. -1.
         -2   -1    0    0    0  501 -0.00000000000E+00 -0.00000000000E+00 -0.79011215189E+03  0.79011215189E+03  0.00000000000E+00 0.  1.
        -24    2    1    2    0    0 -0.33560312653E+02 -0.36190738160E+02 -0.45220966897E+03  0.46166415665E+03  0.78766393245E+02 0.  0.
        254    2    1    2    0    0  0.33560312653E+02  0.36190738160E+02  0.27728348590E+03  0.94363396405E+03  0.90062359643E+03 0.  0.
         23    2    4    4    0    0 -0.23417393099E+03 -0.23189036212E+02  0.51247557641E+03  0.57099456207E+03  0.89601407070E+02 0.  0.
         23    2    4    4    0    0  0.26773424364E+03  0.59379774372E+02 -0.23519209051E+03  0.37263940198E+03  0.91308387596E+02 0.  0.
          3    1    3    3  502    0 -0.24360632790E+02 -0.16631234244E+00 -0.34118515769E+02  0.41923039108E+02  0.00000000000E+00 0. -1.
         -4    1    3    3    0  502 -0.91996798630E+01 -0.36024425817E+02 -0.41809115320E+03  0.41974111754E+03  0.00000000000E+00 0.  1.
         13    1    5    5    0    0 -0.52966553127E+02 -0.20020468954E+02  0.55047204347E+02  0.78971321590E+02  0.00000000000E+00 0. -1.
        -13    1    5    5    0    0 -0.18120737786E+03 -0.31685672578E+01  0.45742837206E+03  0.49202324048E+03  0.00000000000E+00 0.  1.
          4    1    6    6  503    0  0.33492928288E+02  0.48578815075E+01  0.32149019488E+01  0.33995747566E+02  0.00000000000E+00 0. -1.
         -4    1    6    6    0  503  0.23424131535E+03  0.54521892864E+02 -0.23840699246E+03  0.33864365441E+03  0.00000000000E+00 0.  1.
<mgrwt>
<rscale>  0 0.13943685E+04</rscale>
<asrwt>0</asrwt>
<pdfrwt beam="1">  1        1 0.94643995E-01 0.13943685E+04</pdfrwt>
<pdfrwt beam="2">  1       -2 0.12155572E+00 0.13943685E+04</pdfrwt>
<totfact> 0.14494840E+01</totfact>
</mgrwt>
</event>
<event>
12    5  0.5264288E-008  0.1183273E+04  0.7818608E-02  0.9127625E-01
          1   -1    0    0  501    0  0.00000000000E+00  0.00000000000E+00  0.16860432176E+04  0.16860432176E+04  0.00000000000E+00 0. -1.
         -2   -1    0    0    0  501 -0.00000000000E+00 -0.00000000000E+00 -0.20760662748E+03  0.20760662748E+03  0.00000000000E+00 0.  1.
        -24    2    1    2    0    0  0.13107215348E+02 -0.18566742850E+03  0.76257873719E+02  0.21690120048E+03  0.81158328992E+02 0.  0.
        254    2    1    2    0    0 -0.13107215348E+02  0.18566742850E+03  0.14021787164E+04  0.16767486446E+04  0.90040916885E+03 0.  0.
         23    2    4    4    0    0  0.23995961369E+03  0.73769817346E+02  0.13546799615E+04  0.13807582748E+04  0.91175726121E+02 0.  0.
         23    2    4    4    0    0 -0.25306682904E+03  0.11189761116E+03  0.47498754897E+02  0.29599036985E+03  0.93756450369E+02 0.  0.
          3    1    3    3  502    0  0.19944740764E+02 -0.12526113332E+02 -0.71250799539E+01  0.24606157028E+02  0.00000000000E+00 0. -1.
         -2    1    3    3    0  502 -0.68375254168E+01 -0.17314131517E+03  0.83382953673E+02  0.19229504345E+03  0.00000000000E+00 0.  1.
         13    1    5    5    0    0  0.16432566870E+03  0.55852124321E+02  0.68762428927E+03  0.70918936003E+03  0.00000000000E+00 0. -1.
        -13    1    5    5    0    0  0.75633944994E+02  0.17917693024E+02  0.66705567225E+03  0.67156891474E+03  0.00000000000E+00 0.  1.
          3    1    6    6  503    0 -0.15892536373E+03  0.64876372742E+02  0.74844206219E+02  0.18726417217E+03  0.00000000000E+00 0. -1.
         -3    1    6    6    0  503 -0.94141465313E+02  0.47021238417E+02 -0.27345451322E+02  0.10872619768E+03  0.00000000000E+00 0.  1.
<mgrwt>
<rscale>  0 0.11832730E+04</rscale>
<asrwt>0</asrwt>
<pdfrwt beam="1">  1        1 0.25939126E+00 0.11832730E+04</pdfrwt>
<pdfrwt beam="2">  1       -2 0.31939482E-01 0.11832730E+04</pdfrwt>
<totfact> 0.38639796E+01</totfact>
</mgrwt>
</event>
<event>
12    5  0.5264288E-008  0.1579645E+04  0.7818608E-02  0.8833151E-01
          1   -1    0    0  501    0  0.00000000000E+00  0.00000000000E+00  0.15733386305E+04  0.15733386305E+04  0.00000000000E+00 0. -1.
         -2   -1    0    0    0  501 -0.00000000000E+00 -0.00000000000E+00 -0.39649415308E+03  0.39649415308E+03  0.00000000000E+00 0.  1.
        -24    2    1    2    0    0 -0.43679371729E+03 -0.46455080078E+02  0.25982016603E+02  0.44697785990E+03  0.78532261672E+02 0.  0.
        254    2    1    2    0    0  0.43679371729E+03  0.46455080078E+02  0.11508624608E+04  0.15228549237E+04  0.89535238255E+03 0.  0.
         23    2    4    4    0    0  0.56607254513E+02  0.41558031048E+03  0.70177164996E+03  0.82254667725E+03  0.90488738737E+02 0.  0.
         23    2    4    4    0    0  0.38018646278E+03 -0.36912523040E+03  0.44909081086E+03  0.70030824644E+03  0.89184647988E+02 0.  0.
          3    1    3    3  502    0 -0.87335843093E+02 -0.37871249929E+02 -0.92592587627E+01  0.95642641812E+02  0.00000000000E+00 0. -1.
         -4    1    3    3    0  502 -0.34945787420E+03 -0.85838301490E+01  0.35241275365E+02  0.35133521809E+03  0.00000000000E+00 0.  1.
         13    1    5    5    0    0 -0.21273069094E+01  0.23877809273E+03  0.44886164572E+03  0.50842529442E+03  0.00000000000E+00 0. -1.
        -13    1    5    5    0    0  0.58734561422E+02  0.17680221775E+03  0.25291000424E+03  0.31412138283E+03  0.00000000000E+00 0.  1.
          2    1    6    6  503    0  0.31535536243E+03 -0.34690032088E+03  0.39108996870E+03  0.61052452928E+03  0.00000000000E+00 0.  1.
         -2    1    6    6    0  503  0.64831100345E+02 -0.22224909524E+02  0.58000842163E+02  0.89783717159E+02  0.00000000000E+00 0. -1.
<mgrwt>
<rscale>  0 0.15796450E+04</rscale>
<asrwt>0</asrwt>
<pdfrwt beam="1">  1        1 0.24205209E+00 0.15796450E+04</pdfrwt>
<pdfrwt beam="2">  1       -2 0.60999101E-01 0.15796450E+04</pdfrwt>
<totfact> 0.12277998E+01</totfact>
</mgrwt>
</event>
<event>
12    5  0.5264288E-008  0.1345544E+04  0.7818608E-02  0.8994208E-01
         -2   -1    0    0    0  501 -0.00000000000E+00  0.00000000000E+00  0.29706593049E+03  0.29706593049E+03  0.00000000000E+00 0.  1.
          1   -1    0    0  501    0  0.00000000000E+00 -0.00000000000E+00 -0.15236429389E+04  0.15236429389E+04  0.00000000000E+00 0. -1.
        -24    2    1    2    0    0 -0.36219020009E+03 -0.63455744412E+02 -0.43305917035E+03  0.57376140149E+03  0.80333855124E+02 0.  0.
        254    2    1    2    0    0  0.36219020009E+03  0.63455744412E+02 -0.79351783807E+03  0.12469474679E+04  0.88881891062E+03 0.  0.
         23    2    4    4    0    0  0.30210439724E+03  0.32154835237E+03 -0.84875815744E+03  0.96099805060E+03  0.92013225652E+02 0.  0.
         23    2    4    4    0    0  0.60085802848E+02 -0.25809260795E+03  0.55240319369E+02  0.28594941732E+03  0.92160069419E+02 0.  0.
          1    1    3    3  502    0 -0.14156114003E+03 -0.30299581424E+02 -0.11316271927E+03  0.18374825723E+03  0.00000000000E+00 0. -1.
         -2    1    3    3    0  502 -0.22062906006E+03 -0.33156162989E+02 -0.31989645108E+03  0.39001314426E+03  0.00000000000E+00 0.  1.
         13    1    5    5    0    0  0.96734535584E+02  0.16926134886E+03 -0.35880643835E+03  0.40834915795E+03  0.00000000000E+00 0. -1.
        -13    1    5    5    0    0  0.20536986166E+03  0.15228700350E+03 -0.48995171909E+03  0.55264889266E+03  0.00000000000E+00 0.  1.
          4    1    6    6  503    0  0.57731481095E+02 -0.25189197856E+03  0.30360148172E+02  0.26020036773E+03  0.00000000000E+00 0. -1.
         -4    1    6    6    0  503  0.23543217531E+01 -0.62006293998E+01  0.24880171197E+02  0.25749049587E+02  0.00000000000E+00 0.  1.
<mgrwt>
<rscale>  0 0.13455444E+04</rscale>
<asrwt>0</asrwt>
<pdfrwt beam="1">  1        1 0.23440660E+00 0.13455444E+04</pdfrwt>
<pdfrwt beam="2">  1       -2 0.45702452E-01 0.13455444E+04</pdfrwt>
<totfact> 0.24571468E+01</totfact>
</mgrwt>
</event>
<event>
12    5  0.5264288E-008  0.2292427E+04  0.7818608E-02  0.8480913E-01
         -2   -1    0    0    0  501 -0.00000000000E+00  0.00000000000E+00  0.10051545984E+04  0.10051545984E+04  0.00000000000E+00 0.  1.
          1   -1    0    0  501    0  0.00000000000E+00 -0.00000000000E+00 -0.13070680758E+04  0.13070680758E+04  0.00000000000E+00 0. -1.
        -24    2    1    2    0    0  0.88592224949E+03 -0.35861607898E+03  0.22570024308E+02  0.95917722757E+03  0.77767754476E+02 0.  0.
        254    2    1    2    0    0 -0.88592224949E+03  0.35861607898E+03 -0.32448350169E+03  0.13530454467E+04  0.90109861485E+03 0.  0.
         23    2    4    4    0    0 -0.12473914713E+03  0.43357688487E+03 -0.35832749442E+03  0.58273714947E+03  0.87379758505E+02 0.  0.
         23    2    4    4    0    0 -0.76118310236E+03 -0.74960805892E+02  0.33843992732E+02  0.77030829722E+03  0.84915364808E+02 0.  0.
          1    1    3    3  502    0  0.41939034117E+03 -0.18627824008E+03  0.46554705327E+02  0.46125392311E+03  0.00000000000E+00 0. -1.
         -2    1    3    3    0  502  0.46653190832E+03 -0.17233783889E+03 -0.23984681019E+02  0.49792330445E+03  0.00000000000E+00 0.  1.
         13    1    5    5    0    0 -0.74709801169E+02  0.28089808042E+03 -0.17632546075E+03  0.33996463652E+03  0.00000000000E+00 0. -1.
        -13    1    5    5    0    0 -0.50029345961E+02  0.15267880445E+03 -0.18200203367E+03  0.24277251295E+03  0.00000000000E+00 0.  1.
          4    1    6    6  503    0 -0.72765901040E+02 -0.24551767809E+02 -0.15282055825E+02  0.78302023517E+02  0.00000000000E+00 0. -1.
         -4    1    6    6    0  503 -0.68841720132E+03 -0.50409038083E+02  0.49126048558E+02  0.69200627370E+03  0.00000000000E+00 0.  1.
<mgrwt>
<rscale>  0 0.22924271E+04</rscale>
<asrwt>0</asrwt>
<pdfrwt beam="1">  1        1 0.20108740E+00 0.22924271E+04</pdfrwt>
<pdfrwt beam="2">  1       -2 0.15463917E+00 0.22924271E+04</pdfrwt>
<totfact> 0.19605179E+00</totfact>
</mgrwt>
</event>
<event>
12    5  0.5264288E-008  0.1270453E+04  0.7818608E-02  0.9053330E-01
          1   -1    0    0  501    0  0.00000000000E+00  0.00000000000E+00  0.12891433004E+04  0.12891433004E+04  0.00000000000E+00 0. -1.
         -2   -1    0    0    0  501 -0.00000000000E+00 -0.00000000000E+00 -0.31300841079E+03  0.31300841079E+03  0.00000000000E+00 0.  1.
        -24    2    1    2    0    0  0.20424066905E+01  0.25918935800E+03  0.55937483642E+02  0.27704070574E+03  0.80244973921E+02 0.  0.
        254    2    1    2    0    0 -0.20424066905E+01 -0.25918935800E+03  0.92019740601E+03  0.13251110055E+04  0.91759065824E+03 0.  0.
         23    2    4    4    0    0 -0.33574838977E+03 -0.46902964057E+02  0.36747344309E+02  0.35295432977E+03  0.91101714161E+02 0.  0.
         23    2    4    4    0    0  0.33370598308E+03 -0.21228639394E+03  0.88345006170E+03  0.97215667571E+03  0.90440004518E+02 0.  0.
          3    1    3    3  502    0 -0.75791361760E+01  0.15059610835E+03  0.71564933894E+02  0.16690767184E+03  0.00000000000E+00 0. -1.
         -4    1    3    3    0  502  0.96215428665E+01  0.10859324964E+03 -0.15627450253E+02  0.11013303390E+03  0.00000000000E+00 0.  1.
         13    1    5    5    0    0 -0.43361283432E+02  0.24803405386E+02  0.36047519954E+01  0.50083970056E+02  0.00000000000E+00 0. -1.
        -13    1    5    5    0    0 -0.29238710633E+03 -0.71706369443E+02  0.33142592314E+02  0.30287035972E+03  0.00000000000E+00 0.  1.
          3    1    6    6  503    0  0.31765027251E+03 -0.20494541773E+03  0.87373241262E+03  0.95200454239E+03  0.00000000000E+00 0.  1.
         -3    1    6    6    0  503  0.16055710568E+02 -0.73409762127E+01  0.97176490780E+01  0.20152133317E+02  0.00000000000E+00 0. -1.
<mgrwt>
<rscale>  0 0.12704530E+04</rscale>
<asrwt>0</asrwt>
<pdfrwt beam="1">  1        1 0.19832974E+00 0.12704530E+04</pdfrwt>
<pdfrwt beam="2">  1       -2 0.48155141E-01 0.12704530E+04</pdfrwt>
<totfact> 0.32490604E+01</totfact>
</mgrwt>
</event>
<event>
12    5  0.5264288E-008  0.2183839E+04  0.7818608E-02  0.8525185E-01
         -2   -1    0    0    0  501 -0.00000000000E+00  0.00000000000E+00  0.79977534273E+03  0.79977534273E+03  0.00000000000E+00 0.  1.
          1   -1    0    0  501    0  0.00000000000E+00 -0.00000000000E+00 -0.14907791912E+04  0.14907791912E+04  0.00000000000E+00 0. -1.
        -24    2    1    2    0    0 -0.88077084600E+03  0.19104571577E+02 -0.60612631477E+02  0.88629311441E+03  0.75626223861E+02 0.  0.
        254    2    1    2    0    0  0.88077084600E+03 -0.19104571577E+02 -0.63039121696E+03  0.14042614195E+04  0.89355177805E+03 0.  0.
         23    2    4    4    0    0  0.71957282731E+03  0.12208532810E+03 -0.82283987918E+03  0.11030131312E+04  0.82961555785E+02 0.  0.
         23    2    4    4    0    0  0.16119801869E+03 -0.14118989968E+03  0.19244866222E+03  0.30124828827E+03  0.88287341088E+02 0.  0.
          1    1    3    3  502    0 -0.13053444656E+03 -0.23462391749E+02 -0.32933720300E+01  0.13266714689E+03  0.00000000000E+00 0. -1.
         -2    1    3    3    0  502 -0.75023639944E+03  0.42566963326E+02 -0.57319259447E+02  0.75362596752E+03  0.00000000000E+00 0.  1.
         13    1    5    5    0    0  0.65781038664E+02  0.12889364809E+02 -0.11616986612E+03  0.13412202864E+03  0.00000000000E+00 0. -1.
        -13    1    5    5    0    0  0.65379178865E+03  0.10919596329E+03 -0.70667001307E+03  0.96889110259E+03  0.00000000000E+00 0.  1.
          3    1    6    6  503    0  0.73214685857E+02 -0.12421739958E+02  0.78785057668E+02  0.10826714719E+03  0.00000000000E+00 0. -1.
         -3    1    6    6    0  503  0.87983332832E+02 -0.12876815972E+03  0.11366360455E+03  0.19298114109E+03  0.00000000000E+00 0.  1.
<mgrwt>
<rscale>  0 0.21838392E+04</rscale>
<asrwt>0</asrwt>
<pdfrwt beam="1">  1        1 0.22935064E+00 0.21838392E+04</pdfrwt>
<pdfrwt beam="2">  1       -2 0.12304236E+00 0.21838392E+04</pdfrwt>
<totfact> 0.26543885E+00</totfact>
</mgrwt>
</event>
<event>
12    5  0.5264288E-008  0.1328273E+04  0.7818608E-02  0.9007440E-01
          1   -1    0    0  501    0  0.00000000000E+00  0.00000000000E+00  0.52734513101E+03  0.52734513101E+03  0.00000000000E+00 0. -1.
         -2   -1    0    0    0  501 -0.00000000000E+00 -0.00000000000E+00 -0.83641159137E+03  0.83641159137E+03  0.00000000000E+00 0.  1.
        -24    2    1    2    0    0  0.34678390504E+03 -0.97638882678E+01 -0.14538472088E+03  0.38456979899E+03  0.80017516356E+02 0.  0.
        254    2    1    2    0    0 -0.34678390504E+03  0.97638882678E+01 -0.16368173948E+03  0.97918692339E+03  0.90092225458E+03 0.  0.
         23    2    4    4    0    0  0.13596517377E+03 -0.23268555463E+03 -0.30092012499E+03  0.41426396648E+03  0.91829279034E+02 0.  0.
         23    2    4    4    0    0 -0.48274907882E+03  0.24244944289E+03  0.13723838551E+03  0.56492295691E+03  0.92060671987E+02 0.  0.
          3    1    3    3  502    0  0.13806884155E+02  0.12381748694E+02 -0.22009421159E+02  0.28781111350E+02  0.00000000000E+00 0. -1.
         -4    1    3    3    0  502  0.33297702089E+03 -0.22145636961E+02 -0.12337529972E+03  0.35578868764E+03  0.00000000000E+00 0.  1.
         13    1    5    5    0    0  0.12790669784E+03 -0.13343287342E+03 -0.20450476146E+03  0.27565676578E+03  0.00000000000E+00 0.  1.
        -13    1    5    5    0    0  0.80584759358E+01 -0.99252681203E+02 -0.96415363536E+02  0.13860720070E+03  0.00000000000E+00 0. -1.
          3    1    6    6  503    0 -0.31690803347E+01  0.15600480124E+02  0.11673265661E+02  0.19740394663E+02  0.00000000000E+00 0. -1.
         -3    1    6    6    0  503 -0.47957999848E+03  0.22684896277E+03  0.12556511985E+03  0.54518256225E+03  0.00000000000E+00 0.  1.
<mgrwt>
<rscale>  0 0.13282734E+04</rscale>
<asrwt>0</asrwt>
<pdfrwt beam="1">  1        1 0.81130020E-01 0.13282734E+04</pdfrwt>
<pdfrwt beam="2">  1       -2 0.12867871E+00 0.13282734E+04</pdfrwt>
<totfact> 0.15722489E+01</totfact>
</mgrwt>
</event>
<event>
12    5  0.5264288E-008  0.1422931E+04  0.7818608E-02  0.8937385E-01
          1   -1    0    0  501    0  0.00000000000E+00  0.00000000000E+00  0.14073422808E+04  0.14073422808E+04  0.00000000000E+00 0. -1.
         -2   -1    0    0    0  501 -0.00000000000E+00 -0.00000000000E+00 -0.35967310438E+03  0.35967310438E+03  0.00000000000E+00 0.  1.
        -24    2    1    2    0    0 -0.21859829382E+03  0.28827210221E+03  0.60099445127E+03  0.70602963573E+03  0.79984355278E+02 0.  0.
        254    2    1    2    0    0  0.21859829382E+03 -0.28827210221E+03  0.44667472518E+03  0.10609857495E+04  0.89178833337E+03 0.  0.
         23    2    4    4    0    0  0.85003860165E+02 -0.59667196690E+03  0.23894806409E+03  0.65496940486E+03  0.92981996328E+02 0.  0.
         23    2    4    4    0    0  0.13359443365E+03  0.30839986469E+03  0.20772666109E+03  0.40601634463E+03  0.93493086044E+02 0.  0.
          1    1    3    3  502    0 -0.18090570676E+03  0.22975231464E+03  0.41705881510E+03  0.50936338313E+03  0.00000000000E+00 0. -1.
         -2    1    3    3    0  502 -0.37692587061E+02  0.58519787577E+02  0.18393563617E+03  0.19666625260E+03  0.00000000000E+00 0.  1.
         13    1    5    5    0    0  0.43554694265E+02 -0.16910559558E+03  0.11032404251E+03  0.20655533933E+03  0.00000000000E+00 0. -1.
        -13    1    5    5    0    0  0.41449165901E+02 -0.42756637133E+03  0.12862402158E+03  0.44841406554E+03  0.00000000000E+00 0.  1.
          1    1    6    6  503    0 -0.51091154430E+01  0.10118290308E+02 -0.68695541120E+01  0.13254193037E+02  0.00000000000E+00 0. -1.
         -1    1    6    6    0  503  0.13870354910E+03  0.29828157438E+03  0.21459621520E+03  0.39276215160E+03  0.00000000000E+00 0.  1.
<mgrwt>
<rscale>  0 0.14229310E+04</rscale>
<asrwt>0</asrwt>
<pdfrwt beam="1">  1        1 0.21651419E+00 0.14229310E+04</pdfrwt>
<pdfrwt beam="2">  1       -2 0.55334324E-01 0.14229310E+04</pdfrwt>
<totfact> 0.19902244E+01</totfact>
</mgrwt>
</event>
<event>
12    5  0.5264288E-008  0.2227220E+04  0.7818608E-02  0.8507183E-01
         -2   -1    0    0    0  501 -0.00000000000E+00  0.00000000000E+00  0.85465543213E+03  0.85465543213E+03  0.00000000000E+00 0.  1.
          1   -1    0    0  501    0  0.00000000000E+00 -0.00000000000E+00 -0.14510265179E+04  0.14510265179E+04  0.00000000000E+00 0. -1.
        -24    2    1    2    0    0 -0.53160767238E+03  0.30380056592E+03  0.47676544055E+03  0.78015236244E+03  0.80193030457E+02 0.  0.
        254    2    1    2    0    0  0.53160767238E+03 -0.30380056592E+03 -0.10731365264E+04  0.15255295876E+04  0.89482792609E+03 0.  0.
         23    2    4    4    0    0  0.35741138582E+03 -0.36882249622E+03 -0.99823034647E+02  0.53045379018E+03  0.87427986565E+02 0.  0.
         23    2    4    4    0    0  0.17419628657E+03  0.65021930308E+02 -0.97331349172E+03  0.99507579745E+03  0.90909250465E+02 0.  0.
          3    1    3    3  502    0 -0.17713675428E+03  0.10755232609E+03  0.21008419374E+03  0.29509371566E+03  0.00000000000E+00 0. -1.
         -4    1    3    3    0  502 -0.35447091810E+03  0.19624823983E+03  0.26668124681E+03  0.48505864679E+03  0.00000000000E+00 0.  1.
         13    1    5    5    0    0  0.15728855121E+03 -0.21290461960E+03 -0.24598908343E+02  0.26584426207E+03  0.00000000000E+00 0. -1.
        -13    1    5    5    0    0  0.20012283461E+03 -0.15591787663E+03 -0.75224126304E+02  0.26460952810E+03  0.00000000000E+00 0.  1.
          2    1    6    6  503    0  0.18397744512E+03  0.68646492830E+02 -0.91458325023E+03  0.93542640699E+03  0.00000000000E+00 0. -1.
         -2    1    6    6    0  503 -0.97811585551E+01 -0.36245625225E+01 -0.58730241494E+02  0.59649390459E+02  0.00000000000E+00 0.  1.
<mgrwt>
<rscale>  0 0.22272204E+04</rscale>
<asrwt>0</asrwt>
<pdfrwt beam="1">  1        1 0.22323485E+00 0.22272204E+04</pdfrwt>
<pdfrwt beam="2">  1       -2 0.13148545E+00 0.22272204E+04</pdfrwt>
<totfact> 0.23839727E+00</totfact>
</mgrwt>
</event>
<event>
12    5  0.5264288E-008  0.2052040E+04  0.7818608E-02  0.8582669E-01
         -2   -1    0    0    0  501 -0.00000000000E+00  0.00000000000E+00  0.19805745703E+04  0.19805745703E+04  0.00000000000E+00 0.  1.
          1   -1    0    0  501    0  0.00000000000E+00 -0.00000000000E+00 -0.53152111429E+03  0.53152111429E+03  0.00000000000E+00 0. -1.
        -24    2    1    2    0    0  0.49148304083E+03 -0.17301919935E+03  0.13131837720E+04  0.14151073343E+04  0.81153716654E+02 0.  0.
        254    2    1    2    0    0 -0.49148304083E+03  0.17301919935E+03  0.13586968402E+03  0.10969883503E+04  0.95573618062E+03 0.  0.
         23    2    4    4    0    0 -0.43764615096E+03 -0.33193026324E+03 -0.23688341523E+02  0.55729647186E+03  0.91139272072E+02 0.  0.
         23    2    4    4    0    0 -0.53836889865E+02  0.50494946259E+03  0.15955802554E+03  0.53969187846E+03  0.89085294393E+02 0.  0.
          3    1    3    3  502    0  0.97944139732E+02 -0.39140496224E+02  0.18760512984E+03  0.21522248418E+03  0.00000000000E+00 0. -1.
         -4    1    3    3    0  502  0.39353890110E+03 -0.13387870312E+03  0.11255786421E+04  0.11998848501E+04  0.00000000000E+00 0.  1.
         13    1    5    5    0    0 -0.17159291276E+03 -0.12502739278E+03 -0.53490354092E+02  0.21894564311E+03  0.00000000000E+00 0.  1.
        -13    1    5    5    0    0 -0.26605323820E+03 -0.20690287047E+03  0.29802012569E+02  0.33835082875E+03  0.00000000000E+00 0. -1.
          3    1    6    6  503    0  0.10397413676E+02  0.76713432234E+02 -0.21810277563E+01  0.77445553638E+02  0.00000000000E+00 0. -1.
         -3    1    6    6    0  503 -0.64234303541E+02  0.42823603036E+03  0.16173905330E+03  0.46224632482E+03  0.00000000000E+00 0.  1.
<mgrwt>
<rscale>  0 0.20520402E+04</rscale>
<asrwt>0</asrwt>
<pdfrwt beam="1">  1        1 0.81772480E-01 0.20520402E+04</pdfrwt>
<pdfrwt beam="2">  1       -2 0.30470378E+00 0.20520402E+04</pdfrwt>
<totfact> 0.97988099E-01</totfact>
</mgrwt>
</event>
<event>
12    5  0.5264288E-008  0.2389862E+04  0.7818608E-02  0.8443309E-01
         -2   -1    0    0    0  501 -0.00000000000E+00  0.00000000000E+00  0.92722483061E+03  0.92722483061E+03  0.00000000000E+00 0.  1.
          1   -1    0    0  501    0  0.00000000000E+00 -0.00000000000E+00 -0.15399291446E+04  0.15399291446E+04  0.00000000000E+00 0. -1.
        -24    2    1    2    0    0 -0.46361823607E+02  0.63859498496E+03 -0.10853772363E+04  0.12624285758E+04  0.75691415769E+02 0.  0.
        254    2    1    2    0    0  0.46361823607E+02 -0.63859498496E+03  0.47267292237E+03  0.12047253993E+04  0.90442834032E+03 0.  0.
         23    2    4    4    0    0  0.44922778362E+03 -0.33417079576E+03  0.38086557832E+03  0.68399420566E+03  0.96507835511E+02 0.  0.
         23    2    4    4    0    0 -0.40286596002E+03 -0.30442418921E+03  0.91807344047E+02  0.52073119368E+03  0.88075643268E+02 0.  0.
          1    1    3    3  502    0 -0.28974376982E+02  0.42725528852E+03 -0.65370103699E+03  0.78148041681E+03  0.00000000000E+00 0. -1.
         -2    1    3    3    0  502 -0.17387446624E+02  0.21133969645E+03 -0.43167619932E+03  0.48094815901E+03  0.00000000000E+00 0.  1.
         13    1    5    5    0    0  0.33712180867E+03 -0.24914403990E+03  0.33303374990E+03  0.53538336272E+03  0.00000000000E+00 0.  1.
        -13    1    5    5    0    0  0.11210597495E+03 -0.85026755854E+02  0.47831828419E+02  0.14861084295E+03  0.00000000000E+00 0. -1.
          2    1    6    6  503    0 -0.13964554997E+03 -0.58444827081E+02  0.12939550422E+02  0.15193455632E+03  0.00000000000E+00 0. -1.
         -2    1    6    6    0  503 -0.26322041004E+03 -0.24597936213E+03  0.78867793626E+02  0.36879663736E+03  0.00000000000E+00 0.  1.
<mgrwt>
<rscale>  0 0.23898624E+04</rscale>
<asrwt>0</asrwt>
<pdfrwt beam="1">  1        1 0.23691217E+00 0.23898624E+04</pdfrwt>
<pdfrwt beam="2">  1       -2 0.14264998E+00 0.23898624E+04</pdfrwt>
<totfact> 0.16534291E+00</totfact>
</mgrwt>
</event>
<event>
12    5  0.5264288E-008  0.1772450E+04  0.7818608E-02  0.8721089E-01
          1   -1    0    0  501    0  0.00000000000E+00  0.00000000000E+00  0.19595277866E+04  0.19595277866E+04  0.00000000000E+00 0. -1.
         -2   -1    0    0    0  501 -0.00000000000E+00 -0.00000000000E+00 -0.40080794982E+03  0.40080794982E+03  0.00000000000E+00 0.  1.
        -24    2    1    2    0    0 -0.27781092806E+03  0.14904484733E+01 -0.21154317147E+03  0.36104736941E+03  0.91779934483E+02 0.  0.
        254    2    1    2    0    0  0.27781092806E+03 -0.14904484733E+01  0.17702630082E+04  0.19992883670E+04  0.88664633475E+03 0.  0.
         23    2    4    4    0    0  0.29656874307E+03 -0.79962295054E+02  0.18327806629E+04  0.18606214920E+04  0.92089034504E+02 0.  0.
         23    2    4    4    0    0 -0.18757815011E+02  0.78471846581E+02 -0.62517654704E+02  0.13866687495E+03  0.93863511163E+02 0.  0.
          3    1    3    3  502    0 -0.96693930207E+02 -0.19656150356E+02 -0.28565627704E+02  0.10272329566E+03  0.00000000000E+00 0. -1.
         -4    1    3    3    0  502 -0.18111699785E+03  0.21146598830E+02 -0.18297754376E+03  0.25832407374E+03  0.00000000000E+00 0.  1.
         13    1    5    5    0    0  0.83329248279E+02 -0.33287545720E+02  0.80049367759E+03  0.80550726389E+03  0.00000000000E+00 0. -1.
        -13    1    5    5    0    0  0.21323949479E+03 -0.46674749334E+02  0.10322869853E+04  0.10551142281E+04  0.00000000000E+00 0.  1.
          2    1    6    6  503    0 -0.42145925544E+02  0.27944630439E+00 -0.22208329639E+02  0.47639973085E+02  0.00000000000E+00 0.  1.
         -2    1    6    6    0  503  0.23388110532E+02  0.78192400276E+02 -0.40309325065E+02  0.91026901861E+02  0.00000000000E+00 0. -1.
<mgrwt>
<rscale>  0 0.17724495E+04</rscale>
<asrwt>0</asrwt>
<pdfrwt beam="1">  1        1 0.30146581E+00 0.17724495E+04</pdfrwt>
<pdfrwt beam="2">  1       -2 0.61662763E-01 0.17724495E+04</pdfrwt>
<totfact> 0.64436941E+00</totfact>
</mgrwt>
</event>
<event>
12    5  0.5264288E-008  0.1561877E+04  0.7818608E-02  0.8844317E-01
         -2   -1    0    0    0  501 -0.00000000000E+00  0.00000000000E+00  0.84252103419E+03  0.84252103419E+03  0.00000000000E+00 0.  1.
          1   -1    0    0  501    0  0.00000000000E+00 -0.00000000000E+00 -0.72385750139E+03  0.72385750139E+03  0.00000000000E+00 0. -1.
        -24    2    1    2    0    0 -0.17342967791E+03  0.47947494735E+03  0.15208764159E+03  0.53816912798E+03  0.80754450435E+02 0.  0.
        254    2    1    2    0    0  0.17342967791E+03 -0.47947494735E+03 -0.33424108790E+02  0.10282094076E+04  0.89225743848E+03 0.  0.
         23    2    4    4    0    0  0.49142021633E+03 -0.46687189174E+03 -0.97533415327E+02  0.69102751778E+03  0.92428734222E+02 0.  0.
         23    2    4    4    0    0 -0.31799053842E+03 -0.12603055617E+02  0.64109306537E+02  0.33718188983E+03  0.91130697972E+02 0.  0.
          3    1    3    3  502    0 -0.23679427858E+02  0.46534135265E+02 -0.81517081299E+01  0.52844975106E+02  0.00000000000E+00 0. -1.
         -4    1    3    3    0  502 -0.14975025005E+03  0.43294081209E+03  0.16023934972E+03  0.48532415287E+03  0.00000000000E+00 0.  1.
         13    1    5    5    0    0  0.18003116584E+03 -0.11780323916E+03 -0.49703942889E+02  0.22081509407E+03  0.00000000000E+00 0. -1.
        -13    1    5    5    0    0  0.31138905049E+03 -0.34906865257E+03 -0.47829472438E+02  0.47021242371E+03  0.00000000000E+00 0.  1.
          4    1    6    6  503    0 -0.54758268750E+02 -0.32976510005E+02 -0.54495445848E+01  0.64153064968E+02  0.00000000000E+00 0. -1.
         -4    1    6    6    0  503 -0.26323226967E+03  0.20373454388E+02  0.69558851122E+02  0.27302882486E+03  0.00000000000E+00 0.  1.
<mgrwt>
<rscale>  0 0.15618773E+04</rscale>
<asrwt>0</asrwt>
<pdfrwt beam="1">  1        1 0.11136269E+00 0.15618773E+04</pdfrwt>
<pdfrwt beam="2">  1       -2 0.12961862E+00 0.15618773E+04</pdfrwt>
<totfact> 0.95415474E+00</totfact>
</mgrwt>
</event>
<event>
12    5  0.5264288E-008  0.2302481E+04  0.7818608E-02  0.8476944E-01
          1   -1    0    0  501    0  0.00000000000E+00  0.00000000000E+00  0.98159554971E+03  0.98159554971E+03  0.00000000000E+00 0. -1.
         -2   -1    0    0    0  501 -0.00000000000E+00 -0.00000000000E+00 -0.13502039701E+04  0.13502039701E+04  0.00000000000E+00 0.  1.
        -24    2    1    2    0    0 -0.73429066049E+02  0.89503532127E+03  0.23653741746E+03  0.93209017048E+03  0.79762660277E+02 0.  0.
        254    2    1    2    0    0  0.73429066049E+02 -0.89503532127E+03 -0.60514583785E+03  0.13997093493E+04  0.88685101538E+03 0.  0.
         23    2    4    4    0    0  0.41078855500E+03 -0.65148423877E+03 -0.17739340212E+03  0.79639939033E+03  0.98003160745E+02 0.  0.
         23    2    4    4    0    0 -0.33735948896E+03 -0.24355108250E+03 -0.42775243572E+03  0.60330995900E+03  0.88781787447E+02 0.  0.
          3    1    3    3  502    0 -0.76848735853E+02  0.62284718542E+03  0.13775671025E+03  0.64251167757E+03  0.00000000000E+00 0. -1.
         -4    1    3    3    0  502  0.34196698042E+01  0.27218813585E+03  0.98780707207E+02  0.28957849291E+03  0.00000000000E+00 0.  1.
         13    1    5    5    0    0  0.36768965197E+03 -0.51699711557E+03 -0.13144713849E+03  0.64788891632E+03  0.00000000000E+00 0.  1.
        -13    1    5    5    0    0  0.43098903034E+02 -0.13448712320E+03 -0.45946263632E+02  0.14851047401E+03  0.00000000000E+00 0. -1.
          3    1    6    6  503    0 -0.10509822757E+03 -0.74443555782E+02 -0.77553025411E+02  0.15033945652E+03  0.00000000000E+00 0. -1.
         -3    1    6    6    0  503 -0.23226126139E+03 -0.16910752672E+03 -0.35019941031E+03  0.45297050248E+03  0.00000000000E+00 0.  1.
<mgrwt>
<rscale>  0 0.23024806E+04</rscale>
<asrwt>0</asrwt>
<pdfrwt beam="1">  1        1 0.15101470E+00 0.23024806E+04</pdfrwt>
<pdfrwt beam="2">  1       -2 0.20772369E+00 0.23024806E+04</pdfrwt>
<totfact> 0.14679870E+00</totfact>
</mgrwt>
</event>
<event>
12    5  0.5264288E-008  0.1513707E+04  0.7818608E-02  0.8875389E-01
         -2   -1    0    0    0  501 -0.00000000000E+00  0.00000000000E+00  0.52818531673E+03  0.52818531673E+03  0.00000000000E+00 0.  1.
          1   -1    0    0  501    0  0.00000000000E+00 -0.00000000000E+00 -0.10845193165E+04  0.10845193165E+04  0.00000000000E+00 0. -1.
        -24    2    1    2    0    0 -0.15306696586E+03 -0.44128454782E+03 -0.40096016552E+02  0.47560837914E+03  0.80212789403E+02 0.  0.
        254    2    1    2    0    0  0.15306696586E+03  0.44128454782E+03 -0.51623798324E+03  0.11370962541E+04  0.89906878913E+03 0.  0.
         23    2    4    4    0    0 -0.96673193408E+01  0.26033590628E+03  0.22195328022E+03  0.35450990496E+03  0.92443349979E+02 0.  0.
         23    2    4    4    0    0  0.16273428520E+03  0.18094864155E+03 -0.73819126346E+03  0.78258634915E+03  0.91050502347E+02 0.  0.
          3    1    3    3  502    0 -0.58474358478E+01 -0.12061232607E+03 -0.17729365726E+02  0.12204858096E+03  0.00000000000E+00 0. -1.
         -4    1    3    3    0  502 -0.14721953001E+03 -0.32067222175E+03 -0.22366650826E+02  0.35355979818E+03  0.00000000000E+00 0.  1.
         13    1    5    5    0    0 -0.23674357799E+02  0.26079324418E+03  0.21523361575E+03  0.33896769872E+03  0.00000000000E+00 0. -1.
        -13    1    5    5    0    0  0.14007038458E+02 -0.45733789883E+00  0.67196644651E+01  0.15542206241E+02  0.00000000000E+00 0.  1.
          3    1    6    6  503    0  0.16045323848E+03  0.19043647290E+03 -0.72133761101E+03  0.76311155214E+03  0.00000000000E+00 0. -1.
         -3    1    6    6    0  503  0.22810467171E+01 -0.94878313527E+01 -0.16853652447E+02  0.19474797013E+02  0.00000000000E+00 0.  1.
<mgrwt>
<rscale>  0 0.15137069E+04</rscale>
<asrwt>0</asrwt>
<pdfrwt beam="1">  1        1 0.16684913E+00 0.15137069E+04</pdfrwt>
<pdfrwt beam="2">  1       -2 0.81259279E-01 0.15137069E+04</pdfrwt>
<totfact> 0.14727517E+01</totfact>
</mgrwt>
</event>
<event>
12    5  0.5264288E-008  0.2526363E+04  0.7818608E-02  0.8393653E-01
          1   -1    0    0  501    0  0.00000000000E+00  0.00000000000E+00  0.85240751776E+03  0.85240751776E+03  0.00000000000E+00 0. -1.
         -2   -1    0    0    0  501 -0.00000000000E+00 -0.00000000000E+00 -0.18719069999E+04  0.18719069999E+04  0.00000000000E+00 0.  1.
        -24    2    1    2    0    0 -0.60161547578E+03 -0.35812987135E+03  0.47155127331E+03  0.84798310131E+03  0.80725159001E+02 0.  0.
        254    2    1    2    0    0  0.60161547578E+03  0.35812987135E+03 -0.14910507555E+04  0.18763314164E+04  0.89843700016E+03 0.  0.
         23    2    4    4    0    0 -0.14931389540E+03  0.15942699415E+03 -0.79361563722E+03  0.82842571118E+03  0.93550913912E+02 0.  0.
         23    2    4    4    0    0  0.75092937118E+03  0.19870287720E+03 -0.69743511828E+03  0.10479057052E+04  0.91174935761E+02 0.  0.
          1    1    3    3  502    0 -0.14789251775E+03 -0.11352905450E+03  0.16003042303E+03  0.24570465872E+03  0.00000000000E+00 0. -1.
         -2    1    3    3    0  502 -0.45372295803E+03 -0.24460081685E+03  0.31152085028E+03  0.60227844259E+03  0.00000000000E+00 0.  1.
         13    1    5    5    0    0 -0.73235091296E+02  0.62527752175E+02 -0.51296922666E+03  0.52192961776E+03  0.00000000000E+00 0.  1.
        -13    1    5    5    0    0 -0.76078804103E+02  0.96899241979E+02 -0.28064641055E+03  0.30649609343E+03  0.00000000000E+00 0. -1.
          3    1    6    6  503    0  0.24187375171E+03  0.67819265304E+02 -0.28417712598E+03  0.37928749444E+03  0.00000000000E+00 0. -1.
         -3    1    6    6    0  503  0.50905561947E+03  0.13088361189E+03 -0.41325799230E+03  0.66861821077E+03  0.00000000000E+00 0.  1.
<mgrwt>
<rscale>  0 0.25263631E+04</rscale>
<asrwt>0</asrwt>
<pdfrwt beam="1">  1        1 0.13113962E+00 0.25263631E+04</pdfrwt>
<pdfrwt beam="2">  1       -2 0.28798569E+00 0.25263631E+04</pdfrwt>
<totfact> 0.58325200E-01</totfact>
</mgrwt>
</event>
<event>
12    5  0.5264288E-008  0.2233866E+04  0.7818608E-02  0.8504463E-01
          1   -1    0    0  501    0  0.00000000000E+00  0.00000000000E+00  0.19365610196E+04  0.19365610196E+04  0.00000000000E+00 0. -1.
         -2   -1    0    0    0  501 -0.00000000000E+00 -0.00000000000E+00 -0.64420358822E+03  0.64420358822E+03  0.00000000000E+00 0.  1.
        -24    2    1    2    0    0  0.36521817355E+03 -0.17969280688E+03  0.15162074853E+04  0.15718718014E+04  0.78879670265E+02 0.  0.
        254    2    1    2    0    0 -0.36521817355E+03  0.17969280688E+03 -0.22385005391E+03  0.10088928064E+04  0.89559032438E+03 0.  0.
         23    2    4    4    0    0 -0.65154772653E+03  0.81288521254E+02 -0.10552318155E+03  0.67115167888E+03  0.90482985090E+02 0.  0.
         23    2    4    4    0    0  0.28632955297E+03  0.98404285622E+02 -0.11832687236E+03  0.33774112756E+03  0.91650445655E+02 0.  0.
          1    1    3    3  502    0  0.33331844897E+03 -0.13484335285E+03  0.13176738659E+04  0.13658507733E+04  0.00000000000E+00 0. -1.
         -2    1    3    3    0  502  0.31899724586E+02 -0.44849454021E+02  0.19853361944E+03  0.20602102806E+03  0.00000000000E+00 0.  1.
         13    1    5    5    0    0 -0.13642932874E+03  0.31442078764E+02 -0.57675304685E+02  0.15141996839E+03  0.00000000000E+00 0.  1.
        -13    1    5    5    0    0 -0.51511839779E+03  0.49846442489E+02 -0.47847876870E+02  0.51973171049E+03  0.00000000000E+00 0. -1.
          2    1    6    6  503    0  0.14080690397E+03  0.90823588170E+02 -0.86574593762E+02  0.18860187872E+03  0.00000000000E+00 0. -1.
         -2    1    6    6    0  503  0.14552264901E+03  0.75806974523E+01 -0.31752278595E+02  0.14913924884E+03  0.00000000000E+00 0.  1.
<mgrwt>
<rscale>  0 0.22338662E+04</rscale>
<asrwt>0</asrwt>
<pdfrwt beam="1">  1        1 0.29793246E+00 0.22338662E+04</pdfrwt>
<pdfrwt beam="2">  1       -2 0.99108245E-01 0.22338662E+04</pdfrwt>
<totfact> 0.22168395E+00</totfact>
</mgrwt>
</event>
<event>
12    5  0.5264288E-008  0.2687369E+04  0.7818608E-02  0.8339115E-01
          1   -1    0    0  501    0  0.00000000000E+00  0.00000000000E+00  0.19979863560E+04  0.19979863560E+04  0.00000000000E+00 0. -1.
         -2   -1    0    0    0  501 -0.00000000000E+00 -0.00000000000E+00 -0.90365355482E+03  0.90365355482E+03  0.00000000000E+00 0.  1.
        -24    2    1    2    0    0 -0.81438569100E+03  0.69634056971E+03 -0.87605611558E+02  0.10780992255E+04  0.80678089473E+02 0.  0.
        254    2    1    2    0    0  0.81438569100E+03 -0.69634056971E+03  0.11819384127E+04  0.18235406853E+04  0.88329382242E+03 0.  0.
         23    2    4    4    0    0  0.35671038505E+03 -0.42554203914E+02 -0.28127300064E+02  0.37115583773E+03  0.88951401325E+02 0.  0.
         23    2    4    4    0    0  0.45767530595E+03 -0.65378636580E+03  0.12100657128E+04  0.14523848476E+04  0.90881342483E+02 0.  0.
          3    1    3    3  502    0 -0.11245529830E+03  0.93239395735E+02  0.15651731220E+02  0.14691751333E+03  0.00000000000E+00 0. -1.
         -4    1    3    3    0  502 -0.70193039271E+03  0.60310117398E+03 -0.10325734278E+03  0.93118171218E+03  0.00000000000E+00 0.  1.
         13    1    5    5    0    0  0.22867200456E+03  0.64725796277E+01  0.95708258944E+01  0.22896371037E+03  0.00000000000E+00 0. -1.
        -13    1    5    5    0    0  0.12803838049E+03 -0.49026783542E+02 -0.37698125958E+02  0.14219212736E+03  0.00000000000E+00 0.  1.
          4    1    6    6  503    0  0.23979667809E+03 -0.40591859208E+03  0.66420815678E+03  0.81452122486E+03  0.00000000000E+00 0. -1.
         -4    1    6    6    0  503  0.21787862786E+03 -0.24786777372E+03  0.54585755598E+03  0.63786362269E+03  0.00000000000E+00 0.  1.
<mgrwt>
<rscale>  0 0.26873686E+04</rscale>
<asrwt>0</asrwt>
<pdfrwt beam="1">  1        1 0.30738252E+00 0.26873686E+04</pdfrwt>
<pdfrwt beam="2">  1       -2 0.13902362E+00 0.26873686E+04</pdfrwt>
<totfact> 0.83999342E-01</totfact>
</mgrwt>
</event>
<event>
12    5  0.5264288E-008  0.1108298E+04  0.7818608E-02  0.9197141E-01
         -2   -1    0    0    0  501 -0.00000000000E+00  0.00000000000E+00  0.11097629759E+03  0.11097629759E+03  0.00000000000E+00 0.  1.
          1   -1    0    0  501    0  0.00000000000E+00 -0.00000000000E+00 -0.27670882267E+04  0.27670882267E+04  0.00000000000E+00 0. -1.
        -24    2    1    2    0    0 -0.45457647809E+02  0.16673554234E+03 -0.23985753491E+03  0.30641462515E+03  0.80567652498E+02 0.  0.
        254    2    1    2    0    0  0.45457647809E+02 -0.16673554234E+03 -0.24162543942E+04  0.25716498992E+04  0.86326749471E+03 0.  0.
         23    2    4    4    0    0  0.44287484362E+03 -0.71535156345E+02 -0.13954890469E+04  0.14684118201E+04  0.87110204320E+02 0.  0.
         23    2    4    4    0    0 -0.39741719581E+03 -0.95200385991E+02 -0.10207653473E+04  0.11032380791E+04  0.90381545457E+02 0.  0.
          3    1    3    3  502    0 -0.50201541373E+02  0.10912138762E+03 -0.20856259925E+03  0.24067827031E+03  0.00000000000E+00 0. -1.
         -4    1    3    3    0  502  0.47438935642E+01  0.57614154716E+02 -0.31294935661E+02  0.65736354841E+02  0.00000000000E+00 0.  1.
         13    1    5    5    0    0  0.27216679145E+03 -0.58493774409E+02 -0.73074799008E+03  0.78197756299E+03  0.00000000000E+00 0.  1.
        -13    1    5    5    0    0  0.17070805218E+03 -0.13041381936E+02 -0.66474105681E+03  0.68643425711E+03  0.00000000000E+00 0. -1.
          4    1    6    6  503    0 -0.50205282356E+02  0.14860530571E+02 -0.96452663600E+02  0.10974753783E+03  0.00000000000E+00 0. -1.
         -4    1    6    6    0  503 -0.34721191346E+03 -0.11006091656E+03 -0.92431268372E+03  0.99349054122E+03  0.00000000000E+00 0.  1.
<mgrwt>
<rscale>  0 0.11082982E+04</rscale>
<asrwt>0</asrwt>
<pdfrwt beam="1">  1        1 0.42570588E+00 0.11082982E+04</pdfrwt>
<pdfrwt beam="2">  1       -2 0.17073277E-01 0.11082982E+04</pdfrwt>
<totfact> 0.21928051E+01</totfact>
</mgrwt>
</event>
<event>
12    5  0.5264288E-008  0.2086917E+04  0.7818608E-02  0.8567028E-01
          1   -1    0    0  501    0  0.00000000000E+00  0.00000000000E+00  0.16456574974E+04  0.16456574974E+04  0.00000000000E+00 0. -1.
         -2   -1    0    0    0  501 -0.00000000000E+00 -0.00000000000E+00 -0.66162367330E+03  0.66162367330E+03  0.00000000000E+00 0.  1.
        -24    2    1    2    0    0  0.51158138157E+03  0.22035929945E+03  0.10926994822E+04  0.12291724092E+04  0.81233750666E+02 0.  0.
        254    2    1    2    0    0 -0.51158138157E+03 -0.22035929945E+03 -0.10866565819E+03  0.10781087615E+04  0.91664417602E+03 0.  0.
         23    2    4    4    0    0 -0.24063403010E+02  0.29370957087E+03 -0.18437915520E+03  0.35984192641E+03  0.92984836115E+02 0.  0.
         23    2    4    4    0    0 -0.48751797856E+03 -0.51406887032E+03  0.75713497009E+02  0.71826683504E+03  0.90742106236E+02 0.  0.
          1    1    3    3  502    0  0.49900281146E+03  0.21750462955E+03  0.10282770712E+04  0.11634714457E+04  0.00000000000E+00 0. -1.
         -2    1    3    3    0  502  0.12578570114E+02  0.28546698943E+01  0.64422411050E+02  0.65700963553E+02  0.00000000000E+00 0.  1.
         13    1    5    5    0    0  0.14837911941E+02  0.24839770151E+03 -0.15624588752E+03  0.29382709050E+03  0.00000000000E+00 0. -1.
        -13    1    5    5    0    0 -0.38901314951E+02  0.45311869355E+02 -0.28133267679E+02  0.66014835906E+02  0.00000000000E+00 0.  1.
          3    1    6    6  503    0 -0.35126250474E+03 -0.30862404827E+03  0.42347632644E+02  0.46949704195E+03  0.00000000000E+00 0. -1.
         -3    1    6    6    0  503 -0.13625547382E+03 -0.20544482205E+03  0.33365864364E+02  0.24876979310E+03  0.00000000000E+00 0.  1.
<mgrwt>
<rscale>  0 0.20869173E+04</rscale>
<asrwt>0</asrwt>
<pdfrwt beam="1">  1        1 0.25317807E+00 0.20869173E+04</pdfrwt>
<pdfrwt beam="2">  1       -2 0.10178826E+00 0.20869173E+04</pdfrwt>
<totfact> 0.33233623E+00</totfact>
</mgrwt>
</event>
<event>
12    5  0.5264288E-008  0.1676599E+04  0.7818608E-02  0.8774824E-01
         -2   -1    0    0    0  501 -0.00000000000E+00  0.00000000000E+00  0.33971016782E+03  0.33971016782E+03  0.00000000000E+00 0.  1.
          1   -1    0    0  501    0  0.00000000000E+00 -0.00000000000E+00 -0.20686646592E+04  0.20686646592E+04  0.00000000000E+00 0. -1.
        -24    2    1    2    0    0  0.31060069239E+03  0.19293853196E+03 -0.12883154471E+04  0.13414504393E+04  0.77682190329E+02 0.  0.
        254    2    1    2    0    0 -0.31060069239E+03 -0.19293853196E+03 -0.44063904429E+03  0.10669243877E+04  0.90025930403E+03 0.  0.
         23    2    4    4    0    0  0.24229949970E+03  0.15517358672E+03 -0.21064411610E+03  0.36832509621E+03  0.92220080661E+02 0.  0.
         23    2    4    4    0    0 -0.55290019209E+03 -0.34811211867E+03 -0.22999492819E+03  0.69859929150E+03  0.90899029171E+02 0.  0.
          3    1    3    3  502    0  0.31393509450E+03  0.19095289154E+03 -0.12485856712E+04  0.13015315704E+04  0.00000000000E+00 0. -1.
         -4    1    3    3    0  502 -0.33344021122E+01  0.19856404162E+01 -0.39729775874E+02  0.39918868925E+02  0.00000000000E+00 0.  1.
         13    1    5    5    0    0 -0.83001129770E+01  0.75696602224E+01 -0.63337744011E+01  0.12896058680E+02  0.00000000000E+00 0.  1.
        -13    1    5    5    0    0  0.25059961268E+03  0.14760392650E+03 -0.20431034170E+03  0.35542903753E+03  0.00000000000E+00 0. -1.
          3    1    6    6  503    0 -0.37002285296E+03 -0.25901391388E+03 -0.19595035971E+03  0.49234303363E+03  0.00000000000E+00 0. -1.
         -3    1    6    6    0  503 -0.18287733913E+03 -0.89098204796E+02 -0.34044568480E+02  0.20625625786E+03  0.00000000000E+00 0.  1.
<mgrwt>
<rscale>  0 0.16765994E+04</rscale>
<asrwt>0</asrwt>
<pdfrwt beam="1">  1        1 0.31825610E+00 0.16765994E+04</pdfrwt>
<pdfrwt beam="2">  1       -2 0.52263104E-01 0.16765994E+04</pdfrwt>
<totfact> 0.77464968E+00</totfact>
</mgrwt>
</event>
<event>
12    5  0.5264288E-008  0.1372488E+04  0.7818608E-02  0.8973978E-01
         -2   -1    0    0    0  501 -0.00000000000E+00  0.00000000000E+00  0.19372501874E+03  0.19372501874E+03  0.00000000000E+00 0.  1.
          1   -1    0    0  501    0  0.00000000000E+00 -0.00000000000E+00 -0.24309228861E+04  0.24309228861E+04  0.00000000000E+00 0. -1.
        -24    2    1    2    0    0 -0.69878839981E+02  0.35008499621E+03 -0.34312415121E+03  0.50042723690E+03  0.72461572148E+02 0.  0.
        254    2    1    2    0    0  0.69878839981E+02 -0.35008499621E+03 -0.18940737162E+04  0.21242206679E+04  0.89294772917E+03 0.  0.
         23    2    4    4    0    0 -0.31729964098E+03 -0.43148883514E+03 -0.90894625275E+03  0.10588537602E+04  0.90146093517E+02 0.  0.
         23    2    4    4    0    0  0.38717848096E+03  0.81403838928E+02 -0.98512746340E+03  0.10653669077E+04  0.89424648461E+02 0.  0.
          1    1    3    3  502    0 -0.56256604968E+01  0.48631735159E+02 -0.86337817692E+02  0.99251763130E+02  0.00000000000E+00 0. -1.
         -2    1    3    3    0  502 -0.64253179484E+02  0.30145326105E+03 -0.25678633352E+03  0.40117547377E+03  0.00000000000E+00 0.  1.
         13    1    5    5    0    0 -0.31911971499E+01 -0.42595336361E+02 -0.84667261969E+02  0.94831912710E+02  0.00000000000E+00 0. -1.
        -13    1    5    5    0    0 -0.31410844383E+03 -0.38889349878E+03 -0.82427899079E+03  0.96402184754E+03  0.00000000000E+00 0.  1.
          3    1    6    6  503    0  0.13893307195E+03 -0.10673334753E+02 -0.38448147108E+03  0.40895271140E+03  0.00000000000E+00 0. -1.
         -3    1    6    6    0  503  0.24824540901E+03  0.92077173681E+02 -0.60064599232E+03  0.65641419629E+03  0.00000000000E+00 0.  1.
<mgrwt>
<rscale>  0 0.13724876E+04</rscale>
<asrwt>0</asrwt>
<pdfrwt beam="1">  1        1 0.37398817E+00 0.13724876E+04</pdfrwt>
<pdfrwt beam="2">  1       -2 0.29803846E-01 0.13724876E+04</pdfrwt>
<totfact> 0.13515218E+01</totfact>
</mgrwt>
</event>
<event>
12    5  0.5264288E-008  0.1179969E+04  0.7818608E-02  0.9130572E-01
          3   -1    0    0  501    0  0.00000000000E+00  0.00000000000E+00  0.39534440976E+03  0.39534440976E+03  0.00000000000E+00 0. -1.
         -4   -1    0    0    0  501 -0.00000000000E+00 -0.00000000000E+00 -0.88045257354E+03  0.88045257354E+03  0.00000000000E+00 0.  1.
        -24    2    1    2    0    0  0.13643708497E+03 -0.19650620843E+02  0.98914211774E+02  0.18952778685E+03  0.84472099788E+02 0.  0.
        254    2    1    2    0    0 -0.13643708497E+03  0.19650620843E+02 -0.58402237555E+03  0.10862691965E+04  0.90548186452E+03 0.  0.
         23    2    4    4    0    0 -0.90312855126E+02 -0.11978235943E+03 -0.79403544148E+03  0.81267517957E+03  0.86281166697E+02 0.  0.
         23    2    4    4    0    0 -0.46124229840E+02  0.13943298027E+03  0.21001306593E+03  0.27359401688E+03  0.95808129327E+02 0.  0.
          3    1    3    3  502    0  0.14180074438E+03 -0.14599888193E+02  0.68352708352E+02  0.15809079854E+03  0.00000000000E+00 0. -1.
         -4    1    3    3    0  502 -0.53636594168E+01 -0.50507326499E+01  0.30561503421E+02  0.31436988310E+02  0.00000000000E+00 0.  1.
         13    1    5    5    0    0 -0.12356064317E+02 -0.75892617568E+02 -0.25760302330E+03  0.26883392520E+03  0.00000000000E+00 0. -1.
        -13    1    5    5    0    0 -0.77956790808E+02 -0.43889741863E+02 -0.53643241819E+03  0.54384125437E+03  0.00000000000E+00 0.  1.
          3    1    6    6  503    0 -0.48943124170E+02  0.11850528522E+03  0.10284558812E+03  0.16436589374E+03  0.00000000000E+00 0. -1.
         -3    1    6    6    0  503  0.28188943302E+01  0.20927695057E+02  0.10716747781E+03  0.10922812315E+03  0.00000000000E+00 0.  1.
<mgrwt>
<rscale>  0 0.11799695E+04</rscale>
<asrwt>0</asrwt>
<pdfrwt beam="1">  1        3 0.60822217E-01 0.11799695E+04</pdfrwt>
<pdfrwt beam="2">  1       -4 0.13545424E+00 0.11799695E+04</pdfrwt>
<totfact> 0.23197006E+00</totfact>
</mgrwt>
</event>
<event>
12    5  0.5264288E-008  0.1353145E+04  0.7818608E-02  0.8988451E-01
          1   -1    0    0  501    0  0.00000000000E+00  0.00000000000E+00  0.12948565832E+04  0.12948565832E+04  0.00000000000E+00 0. -1.
         -2   -1    0    0    0  501 -0.00000000000E+00 -0.00000000000E+00 -0.35351424302E+03  0.35351424302E+03  0.00000000000E+00 0.  1.
        -24    2    1    2    0    0 -0.28585667878E+03  0.18166209423E+03  0.49352392468E+02  0.35148827141E+03  0.79957420021E+02 0.  0.
        254    2    1    2    0    0  0.28585667878E+03 -0.18166209423E+03  0.89198994770E+03  0.12968825548E+04  0.87837528247E+03 0.  0.
         23    2    4    4    0    0  0.33356873670E+03 -0.48000365565E+03  0.40677080843E+03  0.71801364544E+03  0.91703287325E+02 0.  0.
         23    2    4    4    0    0 -0.47712057916E+02  0.29834156142E+03  0.48521913927E+03  0.57886890936E+03  0.91473894471E+02 0.  0.
          1    1    3    3  502    0 -0.76240952267E+02  0.75336019874E+02 -0.13913000656E+02  0.10808223850E+03  0.00000000000E+00 0. -1.
         -2    1    3    3    0  502 -0.20961572651E+03  0.10632607436E+03  0.63265393124E+02  0.24340603291E+03  0.00000000000E+00 0.  1.
         13    1    5    5    0    0  0.14189254282E+03 -0.12939123598E+03  0.13685526024E+03  0.23580701413E+03  0.00000000000E+00 0. -1.
        -13    1    5    5    0    0  0.19167619388E+03 -0.35061241967E+03  0.26991554819E+03  0.48220663131E+03  0.00000000000E+00 0.  1.
          1    1    6    6  503    0 -0.71556162376E+02  0.26478307057E+03  0.42905384231E+03  0.50923232265E+03  0.00000000000E+00 0. -1.
         -1    1    6    6    0  503  0.23844104460E+02  0.33558490854E+02  0.56165296957E+02  0.69636586707E+02  0.00000000000E+00 0.  1.
<mgrwt>
<rscale>  0 0.13531448E+04</rscale>
<asrwt>0</asrwt>
<pdfrwt beam="1">  1        1 0.19920870E+00 0.13531448E+04</pdfrwt>
<pdfrwt beam="2">  1       -2 0.54386807E-01 0.13531448E+04</pdfrwt>
<totfact> 0.24919077E+01</totfact>
</mgrwt>
</event>
<event>
12    5  0.5264288E-008  0.2514219E+04  0.7818608E-02  0.8397937E-01
          1   -1    0    0  501    0  0.00000000000E+00  0.00000000000E+00  0.13274126721E+04  0.13274126721E+04  0.00000000000E+00 0. -1.
         -2   -1    0    0    0  501 -0.00000000000E+00 -0.00000000000E+00 -0.11905300306E+04  0.11905300306E+04  0.00000000000E+00 0.  1.
        -24    2    1    2    0    0 -0.73869165233E+02 -0.40851105561E+03 -0.95719046367E+03  0.10461010951E+04  0.75999876679E+02 0.  0.
        254    2    1    2    0    0  0.73869165233E+02  0.40851105561E+03  0.10940731052E+04  0.14718416076E+04  0.89273950410E+03 0.  0.
         23    2    4    4    0    0  0.36091704740E+01  0.38261793368E+03  0.12302346818E+04  0.12913685693E+04  0.88010796755E+02 0.  0.
         23    2    4    4    0    0  0.70259994759E+02  0.25893121927E+02 -0.13616157657E+03  0.18047303826E+03  0.91780291891E+02 0.  0.
          1    1    3    3  502    0 -0.17859495363E+02 -0.11875593219E+02 -0.46589674383E+02  0.51289268352E+02  0.00000000000E+00 0. -1.
         -2    1    3    3    0  502 -0.56009669869E+02 -0.39663546239E+03 -0.91060078929E+03  0.99481182673E+03  0.00000000000E+00 0.  1.
         13    1    5    5    0    0  0.32893027154E+02  0.15718605073E+03  0.41356218583E+03  0.44364748092E+03  0.00000000000E+00 0. -1.
        -13    1    5    5    0    0 -0.29283856680E+02  0.22543188295E+03  0.81667249592E+03  0.84772108840E+03  0.00000000000E+00 0.  1.
          3    1    6    6  503    0  0.24688838565E+02 -0.28312760781E+02 -0.85536520440E+02  0.93421879138E+02  0.00000000000E+00 0. -1.
         -3    1    6    6    0  503  0.45571156193E+02  0.54205882708E+02 -0.50625056127E+02  0.87051159124E+02  0.00000000000E+00 0.  1.
<mgrwt>
<rscale>  0 0.25142193E+04</rscale>
<asrwt>0</asrwt>
<pdfrwt beam="1">  1        1 0.20421733E+00 0.25142193E+04</pdfrwt>
<pdfrwt beam="2">  1       -2 0.18315847E+00 0.25142193E+04</pdfrwt>
<totfact> 0.11615678E+00</totfact>
</mgrwt>
</event>
<event>
12    5  0.5264288E-008  0.2504739E+04  0.7818608E-02  0.8401299E-01
          1   -1    0    0  501    0  0.00000000000E+00  0.00000000000E+00  0.16136871476E+04  0.16136871476E+04  0.00000000000E+00 0. -1.
         -2   -1    0    0    0  501 -0.00000000000E+00 -0.00000000000E+00 -0.97195351009E+03  0.97195351009E+03  0.00000000000E+00 0.  1.
        -24    2    1    2    0    0 -0.42506770094E+03 -0.99501179259E+03  0.38624279950E+03  0.11521695347E+04  0.87063876998E+02 0.  0.
        254    2    1    2    0    0  0.42506770094E+03  0.99501179259E+03  0.25549083799E+03  0.14334711230E+04  0.90489384704E+03 0.  0.
         23    2    4    4    0    0  0.10796439504E+03  0.10141300429E+04  0.13410906273E+02  0.10240887343E+04  0.91988198792E+02 0.  0.
         23    2    4    4    0    0  0.31710330590E+03 -0.19118250340E+02  0.24207993171E+03  0.40938238872E+03  0.89840039759E+02 0.  0.
          3    1    3    3  502    0 -0.31298951281E+03 -0.69183805744E+03  0.23176778083E+03  0.79392609044E+03  0.00000000000E+00 0. -1.
         -4    1    3    3    0  502 -0.11207818813E+03 -0.30317373515E+03  0.15447501867E+03  0.35824344423E+03  0.00000000000E+00 0.  1.
         13    1    5    5    0    0  0.19999378312E+02  0.55566036627E+03  0.31442145366E+02  0.55690845413E+03  0.00000000000E+00 0. -1.
        -13    1    5    5    0    0  0.87965016725E+02  0.45846967666E+03 -0.18031239093E+02  0.46718028015E+03  0.00000000000E+00 0.  1.
          4    1    6    6  503    0  0.17158225123E+01  0.12132017867E+02  0.36702914536E+01  0.12790658458E+02  0.00000000000E+00 0.  1.
         -4    1    6    6    0  503  0.31538748339E+03 -0.31250268208E+02  0.23840964026E+03  0.39659173026E+03  0.00000000000E+00 0. -1.
<mgrwt>
<rscale>  0 0.25047386E+04</rscale>
<asrwt>0</asrwt>
<pdfrwt beam="1">  1        1 0.24825956E+00 0.25047386E+04</pdfrwt>
<pdfrwt beam="2">  1       -2 0.14953131E+00 0.25047386E+04</pdfrwt>
<totfact> 0.12867532E+00</totfact>
</mgrwt>
</event>
<event>
12    5  0.5264288E-008  0.2193425E+04  0.7818608E-02  0.8521170E-01
          1   -1    0    0  501    0  0.00000000000E+00  0.00000000000E+00  0.11336555923E+04  0.11336555923E+04  0.00000000000E+00 0. -1.
         -2   -1    0    0    0  501 -0.00000000000E+00 -0.00000000000E+00 -0.10609735328E+04  0.10609735328E+04  0.00000000000E+00 0.  1.
        -24    2    1    2    0    0 -0.17379618972E+03 -0.37914600585E+03 -0.78115419059E+03  0.88912314454E+03  0.79882960435E+02 0.  0.
        254    2    1    2    0    0  0.17379618972E+03  0.37914600585E+03  0.85383625005E+03  0.13055059805E+04  0.89518306170E+03 0.  0.
         23    2    4    4    0    0  0.43769901628E+03 -0.57571783615E+02  0.27477140641E+03  0.52813995272E+03  0.92398835249E+02 0.  0.
         23    2    4    4    0    0 -0.26390282656E+03  0.43671778947E+03  0.57906484364E+03  0.77736602780E+03  0.92815507990E+02 0.  0.
          3    1    3    3  502    0 -0.10513686526E+02 -0.11755178716E+02 -0.79977778102E+01  0.17682937565E+02  0.00000000000E+00 0. -1.
         -4    1    3    3    0  502 -0.16328250320E+03 -0.36739082714E+03 -0.77315641278E+03  0.87144020698E+03  0.00000000000E+00 0.  1.
         13    1    5    5    0    0  0.24520120887E+03 -0.70670934089E+02  0.18588148662E+03  0.31570546530E+03  0.00000000000E+00 0.  1.
        -13    1    5    5    0    0  0.19249780742E+03  0.13099150474E+02  0.88889919783E+02  0.21243448741E+03  0.00000000000E+00 0. -1.
          2    1    6    6  503    0 -0.83713653467E+02  0.83051188847E+02  0.17445197767E+03  0.21056820334E+03  0.00000000000E+00 0. -1.
         -2    1    6    6    0  503 -0.18018917310E+03  0.35366660062E+03  0.40461286597E+03  0.56679782446E+03  0.00000000000E+00 0.  1.
<mgrwt>
<rscale>  0 0.21934252E+04</rscale>
<asrwt>0</asrwt>
<pdfrwt beam="1">  1        1 0.17440855E+00 0.21934252E+04</pdfrwt>
<pdfrwt beam="2">  1       -2 0.16322670E+00 0.21934252E+04</pdfrwt>
<totfact> 0.22828628E+00</totfact>
</mgrwt>
</event>
<event>
12    5  0.5264288E-008  0.1556474E+04  0.7818608E-02  0.8847743E-01
         -2   -1    0    0    0  501 -0.00000000000E+00  0.00000000000E+00  0.94401283651E+03  0.94401283651E+03  0.00000000000E+00 0.  1.
          1   -1    0    0  501    0  0.00000000000E+00 -0.00000000000E+00 -0.64157279554E+03  0.64157279554E+03  0.00000000000E+00 0. -1.
        -24    2    1    2    0    0 -0.45418169143E+03 -0.12520361310E+03  0.98663400650E+02  0.48648107918E+03  0.70515389886E+02 0.  0.
        254    2    1    2    0    0  0.45418169143E+03  0.12520361310E+03  0.20377664032E+03  0.10991045529E+04  0.97187907964E+03 0.  0.
         23    2    4    4    0    0  0.49826154389E+03  0.24126956194E+03 -0.25472691662E+03  0.61560620360E+03  0.87233182992E+02 0.  0.
         23    2    4    4    0    0 -0.44079852467E+02 -0.11606594885E+03  0.45850355694E+03  0.48349834927E+03  0.90170971745E+02 0.  0.
          1    1    3    3  502    0 -0.40405451444E+03 -0.11196107000E+03  0.64054292717E+02  0.42414417861E+03  0.00000000000E+00 0. -1.
         -2    1    3    3    0  502 -0.50127176990E+02 -0.13242543095E+02  0.34609107933E+02  0.62336900569E+02  0.00000000000E+00 0.  1.
         13    1    5    5    0    0  0.24918608188E+03  0.11740448668E+03 -0.78952096246E+02  0.28655008358E+03  0.00000000000E+00 0. -1.
        -13    1    5    5    0    0  0.24907546201E+03  0.12386507526E+03 -0.17577482037E+03  0.32905612002E+03  0.00000000000E+00 0.  1.
          1    1    6    6  503    0 -0.52366012191E+02 -0.23143493666E+02  0.22190214500E+03  0.22916889512E+03  0.00000000000E+00 0. -1.
         -1    1    6    6    0  503  0.82861597249E+01 -0.92922455181E+02  0.23660141194E+03  0.25432945416E+03  0.00000000000E+00 0.  1.
<mgrwt>
<rscale>  0 0.15564742E+04</rscale>
<asrwt>0</asrwt>
<pdfrwt beam="1">  1        1 0.98703507E-01 0.15564742E+04</pdfrwt>
<pdfrwt beam="2">  1       -2 0.14523274E+00 0.15564742E+04</pdfrwt>
<totfact> 0.85352809E+00</totfact>
</mgrwt>
</event>
<event>
12    5  0.5264288E-008  0.1482842E+04  0.7818608E-02  0.8895944E-01
         -2   -1    0    0    0  501 -0.00000000000E+00  0.00000000000E+00  0.30374316936E+03  0.30374316936E+03  0.00000000000E+00 0.  1.
          1   -1    0    0  501    0  0.00000000000E+00 -0.00000000000E+00 -0.18097683171E+04  0.18097683171E+04  0.00000000000E+00 0. -1.
        -24    2    1    2    0    0 -0.65307976686E+02  0.45121151546E+03 -0.38993743596E+03  0.60540221915E+03  0.81263026597E+02 0.  0.
        254    2    1    2    0    0  0.65307976686E+02 -0.45121151546E+03 -0.11160877117E+04  0.15081092673E+04  0.90602694121E+03 0.  0.
         23    2    4    4    0    0  0.22094136661E+03 -0.50514413993E+03 -0.11828759074E+04  0.13084977461E+04  0.94790556196E+02 0.  0.
         23    2    4    4    0    0 -0.15563338992E+03  0.53932624474E+02  0.66788195681E+02  0.19961152118E+03  0.90849415331E+02 0.  0.
          1    1    3    3  502    0  0.60776905485E+01  0.73180360754E+02 -0.98015001774E+02  0.12247140113E+03  0.00000000000E+00 0. -1.
         -2    1    3    3    0  502 -0.71385667235E+02  0.37803115470E+03 -0.29192243418E+03  0.48293081802E+03  0.00000000000E+00 0.  1.
         13    1    5    5    0    0  0.11719946805E+03 -0.15862643127E+03 -0.44408368760E+03  0.48590984925E+03  0.00000000000E+00 0. -1.
        -13    1    5    5    0    0  0.10374189856E+03 -0.34651770866E+03 -0.73879221982E+03  0.82258789683E+03  0.00000000000E+00 0.  1.
          3    1    6    6  503    0 -0.66832437487E+02 -0.17463072878E+02  0.48034151952E+02  0.84135684276E+02  0.00000000000E+00 0. -1.
         -3    1    6    6    0  503 -0.88800952435E+02  0.71395697351E+02  0.18754043729E+02  0.11547583691E+03  0.00000000000E+00 0.  1.
<mgrwt>
<rscale>  0 0.14828415E+04</rscale>
<asrwt>0</asrwt>
<pdfrwt beam="1">  1        1 0.27842590E+00 0.14828415E+04</pdfrwt>
<pdfrwt beam="2">  1       -2 0.46729718E-01 0.14828415E+04</pdfrwt>
<totfact> 0.14813998E+01</totfact>
</mgrwt>
</event>
<event>
12    5  0.5264288E-008  0.1898683E+04  0.7818608E-02  0.8655512E-01
         -2   -1    0    0    0  501 -0.00000000000E+00  0.00000000000E+00  0.58297159710E+03  0.58297159710E+03  0.00000000000E+00 0.  1.
          1   -1    0    0  501    0  0.00000000000E+00 -0.00000000000E+00 -0.15459580184E+04  0.15459580184E+04  0.00000000000E+00 0. -1.
        -24    2    1    2    0    0 -0.54737921684E+03  0.44665078981E+03 -0.63369636875E+03  0.95227392540E+03  0.78317342702E+02 0.  0.
        254    2    1    2    0    0  0.54737921684E+03 -0.44665078981E+03 -0.32929005255E+03  0.11766556901E+04  0.88145660088E+03 0.  0.
         23    2    4    4    0    0  0.15323166896E+03  0.13807936560E+03 -0.40330924977E+03  0.46162162897E+03  0.88827483423E+02 0.  0.
         23    2    4    4    0    0  0.39414754788E+03 -0.58473015541E+03  0.74019197224E+02  0.71503406111E+03  0.92375445031E+02 0.  0.
          1    1    3    3  502    0 -0.48000239347E+03  0.37839356523E+03 -0.51199287066E+03  0.79732094389E+03  0.00000000000E+00 0. -1.
         -2    1    3    3    0  502 -0.67376823361E+02  0.68257224582E+02 -0.12170349809E+03  0.15495298152E+03  0.00000000000E+00 0.  1.
         13    1    5    5    0    0  0.65082642795E+01 -0.39803168553E+01 -0.72148695613E+02  0.72550911123E+02  0.00000000000E+00 0. -1.
        -13    1    5    5    0    0  0.14672340468E+03  0.14205968246E+03 -0.33116055416E+03  0.38907071785E+03  0.00000000000E+00 0.  1.
          1    1    6    6  503    0  0.24868191126E+03 -0.29807269317E+03  0.63964141161E+02  0.39342271764E+03  0.00000000000E+00 0. -1.
         -1    1    6    6    0  503  0.14546563662E+03 -0.28665746224E+03  0.10055056063E+02  0.32161134347E+03  0.00000000000E+00 0.  1.
<mgrwt>
<rscale>  0 0.18986833E+04</rscale>
<asrwt>0</asrwt>
<pdfrwt beam="1">  1        1 0.23783970E+00 0.18986833E+04</pdfrwt>
<pdfrwt beam="2">  1       -2 0.89687937E-01 0.18986833E+04</pdfrwt>
<totfact> 0.53191806E+00</totfact>
</mgrwt>
</event>
<event>
12    5  0.5264288E-008  0.1670465E+04  0.7818608E-02  0.8778391E-01
          1   -1    0    0  501    0  0.00000000000E+00  0.00000000000E+00  0.12319047120E+04  0.12319047120E+04  0.00000000000E+00 0. -1.
         -2   -1    0    0    0  501 -0.00000000000E+00 -0.00000000000E+00 -0.56628861733E+03  0.56628861733E+03  0.00000000000E+00 0.  1.
        -24    2    1    2    0    0 -0.44735951889E+03 -0.36418795491E+03  0.11983802033E+03  0.59478499890E+03  0.81514649907E+02 0.  0.
        254    2    1    2    0    0  0.44735951889E+03  0.36418795491E+03  0.54577807430E+03  0.12034083304E+04  0.90418720277E+03 0.  0.
         23    2    4    4    0    0 -0.16669552533E+03 -0.16121869977E+03  0.19972859949E+03  0.31936228733E+03  0.91224392543E+02 0.  0.
         23    2    4    4    0    0  0.61405504422E+03  0.52540665468E+03  0.34604947481E+03  0.88404604307E+03  0.93120444207E+02 0.  0.
          1    1    3    3  502    0 -0.19706337843E+03 -0.12369177059E+03  0.76806718470E+02  0.24501612443E+03  0.00000000000E+00 0. -1.
         -2    1    3    3    0  502 -0.25029614046E+03 -0.24049618432E+03  0.43031301858E+02  0.34976887446E+03  0.00000000000E+00 0.  1.
         13    1    5    5    0    0 -0.11081670485E+03 -0.15001683934E+03  0.17959360589E+03  0.25891940336E+03  0.00000000000E+00 0.  1.
        -13    1    5    5    0    0 -0.55878820483E+02 -0.11201860426E+02  0.20134993600E+02  0.60442883972E+02  0.00000000000E+00 0. -1.
          3    1    6    6  503    0  0.18843500509E+03  0.20366068180E+03  0.85903381018E+02  0.29045621929E+03  0.00000000000E+00 0. -1.
         -3    1    6    6    0  503  0.42562003914E+03  0.32174597289E+03  0.26014609380E+03  0.59358982378E+03  0.00000000000E+00 0.  1.
<mgrwt>
<rscale>  0 0.16704653E+04</rscale>
<asrwt>0</asrwt>
<pdfrwt beam="1">  1        1 0.18952380E+00 0.16704653E+04</pdfrwt>
<pdfrwt beam="2">  1       -2 0.87121326E-01 0.16704653E+04</pdfrwt>
<totfact> 0.96520921E+00</totfact>
</mgrwt>
</event>
<event>
12    5  0.5264288E-008  0.3091859E+04  0.7818608E-02  0.8217976E-01
          1   -1    0    0  501    0  0.00000000000E+00  0.00000000000E+00  0.12485487314E+04  0.12485487314E+04  0.00000000000E+00 0. -1.
         -2   -1    0    0    0  501 -0.00000000000E+00 -0.00000000000E+00 -0.19141407602E+04  0.19141407602E+04  0.00000000000E+00 0.  1.
        -24    2    1    2    0    0 -0.20878184012E+03 -0.73333258621E+03  0.90498307329E+03  0.11863152558E+04  0.83564252694E+02 0.  0.
        254    2    1    2    0    0  0.20878184012E+03  0.73333258621E+03 -0.15705751022E+04  0.19763742359E+04  0.92627340992E+03 0.  0.
         23    2    4    4    0    0  0.56244118528E+03  0.53547216429E+03 -0.10812767890E+04  0.13343180942E+04  0.90414360055E+02 0.  0.
         23    2    4    4    0    0 -0.35365934516E+03  0.19786042193E+03 -0.48929831321E+03  0.64205614169E+03  0.92733870796E+02 0.  0.
          3    1    3    3  502    0 -0.18243128019E+03 -0.50042280835E+03  0.62646690414E+03  0.82229249120E+03  0.00000000000E+00 0. -1.
         -4    1    3    3    0  502 -0.26350559932E+02 -0.23290977786E+03  0.27851616915E+03  0.36402276455E+03  0.00000000000E+00 0.  1.
         13    1    5    5    0    0  0.43472772799E+03  0.39495418893E+03 -0.87603800066E+03  0.10547130356E+04  0.00000000000E+00 0. -1.
        -13    1    5    5    0    0  0.12771345729E+03  0.14051797536E+03 -0.20523878830E+03  0.27960505860E+03  0.00000000000E+00 0.  1.
          2    1    6    6  503    0 -0.29254719186E+03  0.12559377100E+03 -0.40630011062E+03  0.51617577884E+03  0.00000000000E+00 0. -1.
         -2    1    6    6    0  503 -0.61112153304E+02  0.72266650926E+02 -0.82998202586E+02  0.12588036285E+03  0.00000000000E+00 0.  1.
<mgrwt>
<rscale>  0 0.30918590E+04</rscale>
<asrwt>0</asrwt>
<pdfrwt beam="1">  1        1 0.19208442E+00 0.30918590E+04</pdfrwt>
<pdfrwt beam="2">  1       -2 0.29448319E+00 0.30918590E+04</pdfrwt>
<totfact> 0.25082400E-01</totfact>
</mgrwt>
</event>
<event>
12    5  0.5264288E-008  0.1884374E+04  0.7818608E-02  0.8662674E-01
          1   -1    0    0  501    0  0.00000000000E+00  0.00000000000E+00  0.68758723587E+03  0.68758723587E+03  0.00000000000E+00 0. -1.
         -2   -1    0    0    0  501 -0.00000000000E+00 -0.00000000000E+00 -0.12910603848E+04  0.12910603848E+04  0.00000000000E+00 0.  1.
        -24    2    1    2    0    0 -0.56198149748E+03 -0.26553972528E+03 -0.61317121724E+03  0.87681983022E+03  0.80619624181E+02 0.  0.
        254    2    1    2    0    0  0.56198149748E+03  0.26553972528E+03  0.96980682808E+01  0.11018277905E+04  0.90972296780E+03 0.  0.
         23    2    4    4    0    0  0.28371161290E+03 -0.10902487245E+03 -0.37457434356E+03  0.49088316276E+03  0.91003508318E+02 0.  0.
         23    2    4    4    0    0  0.27826988458E+03  0.37456459773E+03  0.38427241184E+03  0.61094462772E+03  0.88630046245E+02 0.  0.
          1    1    3    3  502    0 -0.19599297129E+03 -0.66916283912E+02 -0.16269411370E+03  0.26336364305E+03  0.00000000000E+00 0. -1.
         -2    1    3    3    0  502 -0.36598852619E+03 -0.19862344136E+03 -0.45047710354E+03  0.61345618717E+03  0.00000000000E+00 0.  1.
         13    1    5    5    0    0  0.20243289846E+03 -0.45050700240E+02 -0.29392083921E+03  0.35971947916E+03  0.00000000000E+00 0. -1.
        -13    1    5    5    0    0  0.81278714441E+02 -0.63974172210E+02 -0.80653504352E+02  0.13116368360E+03  0.00000000000E+00 0.  1.
          2    1    6    6  503    0  0.15061268414E+03  0.24633866234E+03  0.19097638933E+03  0.34617755338E+03  0.00000000000E+00 0. -1.
         -2    1    6    6    0  503  0.12765720045E+03  0.12822593539E+03  0.19329602251E+03  0.26476707434E+03  0.00000000000E+00 0.  1.
<mgrwt>
<rscale>  0 0.18843743E+04</rscale>
<asrwt>0</asrwt>
<pdfrwt beam="1">  1        1 0.10578265E+00 0.18843743E+04</pdfrwt>
<pdfrwt beam="2">  1       -2 0.19862467E+00 0.18843743E+04</pdfrwt>
<totfact> 0.31171583E+00</totfact>
</mgrwt>
</event>
<event>
12    5  0.5264288E-008  0.1432846E+04  0.7818608E-02  0.8930380E-01
         -2   -1    0    0    0  501 -0.00000000000E+00  0.00000000000E+00  0.10478732526E+04  0.10478732526E+04  0.00000000000E+00 0.  1.
          1   -1    0    0  501    0  0.00000000000E+00 -0.00000000000E+00 -0.48981323677E+03  0.48981323677E+03  0.00000000000E+00 0. -1.
        -24    2    1    2    0    0  0.18332092993E+03 -0.25909269149E+01 -0.24833787116E+03  0.31881027004E+03  0.79718340290E+02 0.  0.
        254    2    1    2    0    0 -0.18332092993E+03  0.25909269149E+01  0.80639788701E+03  0.12188762193E+04  0.89541521634E+03 0.  0.
         23    2    4    4    0    0 -0.13775975910E+03  0.41323052974E+03  0.60352797952E+03  0.74963697805E+03  0.89288044372E+02 0.  0.
         23    2    4    4    0    0 -0.45561170833E+02 -0.41063960283E+03  0.20286990749E+03  0.46923924129E+03  0.91260958280E+02 0.  0.
          1    1    3    3  502    0  0.15153498481E+03  0.12415318130E+02 -0.23755209330E+03  0.28204253008E+03  0.00000000000E+00 0. -1.
         -2    1    3    3    0  502  0.31785945120E+02 -0.15006245044E+02 -0.10785777862E+02  0.36767739957E+02  0.00000000000E+00 0.  1.
         13    1    5    5    0    0 -0.10099364614E+03  0.38571235784E+03  0.54242241613E+03  0.67319820044E+03  0.00000000000E+00 0. -1.
        -13    1    5    5    0    0 -0.36766112952E+02  0.27518171898E+02  0.61105563390E+02  0.76438777616E+02  0.00000000000E+00 0.  1.
          2    1    6    6  503    0 -0.73640067618E+02 -0.30954162946E+03  0.15096472730E+03  0.35217783692E+03  0.00000000000E+00 0. -1.
         -2    1    6    6    0  503  0.28078896785E+02 -0.10109797336E+03  0.51905180191E+02  0.11706140437E+03  0.00000000000E+00 0.  1.
<mgrwt>
<rscale>  0 0.14328464E+04</rscale>
<asrwt>0</asrwt>
<pdfrwt beam="1">  1        1 0.75355883E-01 0.14328464E+04</pdfrwt>
<pdfrwt beam="2">  1       -2 0.16121127E+00 0.14328464E+04</pdfrwt>
<totfact> 0.95605670E+00</totfact>
</mgrwt>
</event>
<event>
12    5  0.5264288E-008  0.1968868E+04  0.7818608E-02  0.8621316E-01
         -2   -1    0    0    0  501 -0.00000000000E+00  0.00000000000E+00  0.60051580751E+03  0.60051580751E+03  0.00000000000E+00 0.  1.
          1   -1    0    0  501    0  0.00000000000E+00 -0.00000000000E+00 -0.16137959281E+04  0.16137959281E+04  0.00000000000E+00 0. -1.
        -24    2    1    2    0    0  0.22287384786E+03 -0.71069819395E+03 -0.14520943773E+03  0.76297090234E+03  0.79209482104E+02 0.  0.
        254    2    1    2    0    0 -0.22287384786E+03  0.71069819395E+03 -0.86807068289E+03  0.14513408333E+04  0.89335257820E+03 0.  0.
         23    2    4    4    0    0  0.13931541785E+03  0.75622378518E+03 -0.68538524906E+03  0.10340078650E+04  0.90200478773E+02 0.  0.
         23    2    4    4    0    0 -0.36218926571E+03 -0.45525591224E+02 -0.18268543383E+03  0.41733296829E+03  0.86828538117E+02 0.  0.
          1    1    3    3  502    0  0.22310198865E+03 -0.64514835150E+03 -0.12211705185E+03  0.69347203774E+03  0.00000000000E+00 0. -1.
         -2    1    3    3    0  502 -0.22814078481E+00 -0.65549842458E+02 -0.23092385874E+02  0.69498864594E+02  0.00000000000E+00 0.  1.
         13    1    5    5    0    0  0.11061646858E+03  0.62107969230E+03 -0.60549716290E+03  0.87441569153E+03  0.00000000000E+00 0. -1.
        -13    1    5    5    0    0  0.28698949273E+02  0.13514409288E+03 -0.79888086155E+02  0.15959217349E+03  0.00000000000E+00 0.  1.
          3    1    6    6  503    0 -0.22960304125E+03 -0.27286738049E+02 -0.67807525934E+02  0.24095639273E+03  0.00000000000E+00 0. -1.
         -3    1    6    6    0  503 -0.13258622446E+03 -0.18238853175E+02 -0.11487790789E+03  0.17637657555E+03  0.00000000000E+00 0.  1.
<mgrwt>
<rscale>  0 0.19688677E+04</rscale>
<asrwt>0</asrwt>
<pdfrwt beam="1">  1        1 0.24827629E+00 0.19688677E+04</pdfrwt>
<pdfrwt beam="2">  1       -2 0.92387049E-01 0.19688677E+04</pdfrwt>
<totfact> 0.44338291E+00</totfact>
</mgrwt>
</event>
<event>
12    5  0.5264288E-008  0.1337203E+04  0.7818608E-02  0.9000572E-01
         -2   -1    0    0    0  501 -0.00000000000E+00  0.00000000000E+00  0.16782695312E+03  0.16782695312E+03  0.00000000000E+00 0.  1.
          1   -1    0    0  501    0  0.00000000000E+00 -0.00000000000E+00 -0.26636254553E+04  0.26636254553E+04  0.00000000000E+00 0. -1.
        -24    2    1    2    0    0 -0.11027544093E+03 -0.30261040342E+03 -0.35457239162E+03  0.48355025241E+03  0.66072207292E+02 0.  0.
        254    2    1    2    0    0  0.11027544093E+03  0.30261040342E+03 -0.21412261106E+04  0.23479021561E+04  0.90777835874E+03 0.  0.
         23    2    4    4    0    0  0.98311301003E+02  0.54112632721E+03 -0.75565588340E+03  0.93896969601E+03  0.90362945976E+02 0.  0.
         23    2    4    4    0    0  0.11964139928E+02 -0.23851592380E+03 -0.13855702272E+04  0.14089324600E+04  0.90845120581E+02 0.  0.
          3    1    3    3  502    0 -0.74321732235E+02 -0.22112017494E+03 -0.29631271657E+03  0.37711944745E+03  0.00000000000E+00 0. -1.
         -4    1    3    3    0  502 -0.35953708696E+02 -0.81490228477E+02 -0.58259675055E+02  0.10643080496E+03  0.00000000000E+00 0.  1.
         13    1    5    5    0    0  0.26119748827E+02  0.36842930524E+03 -0.52528022425E+03  0.64213838713E+03  0.00000000000E+00 0. -1.
        -13    1    5    5    0    0  0.72191552176E+02  0.17269702197E+03 -0.23037565915E+03  0.29683130888E+03  0.00000000000E+00 0.  1.
          3    1    6    6  503    0  0.39734786296E+02 -0.20024792047E+03 -0.12102607652E+04  0.12273586284E+04  0.00000000000E+00 0. -1.
         -3    1    6    6    0  503 -0.27770646368E+02 -0.38268003326E+02 -0.17530946200E+03  0.18157383167E+03  0.00000000000E+00 0.  1.
<mgrwt>
<rscale>  0 0.13372033E+04</rscale>
<asrwt>0</asrwt>
<pdfrwt beam="1">  1        1 0.40978854E+00 0.13372033E+04</pdfrwt>
<pdfrwt beam="2">  1       -2 0.25819531E-01 0.13372033E+04</pdfrwt>
<totfact> 0.12184264E+01</totfact>
</mgrwt>
</event>
<event>
12    5  0.5264288E-008  0.2889269E+04  0.7818608E-02  0.8276077E-01
         -2   -1    0    0    0  501 -0.00000000000E+00  0.00000000000E+00  0.31520067977E+04  0.31520067977E+04  0.00000000000E+00 0.  1.
          1   -1    0    0  501    0  0.00000000000E+00 -0.00000000000E+00 -0.66210807195E+03  0.66210807195E+03  0.00000000000E+00 0. -1.
        -24    2    1    2    0    0  0.11934601030E+04  0.50154060133E+03  0.13290046246E+04  0.18570615596E+04  0.80835336609E+02 0.  0.
        254    2    1    2    0    0 -0.11934601030E+04 -0.50154060133E+03  0.11608941012E+04  0.19570533101E+04  0.89804930378E+03 0.  0.
         23    2    4    4    0    0 -0.99494891133E+03 -0.51190561063E+03  0.12845380562E+04  0.17058691330E+04  0.89335271142E+02 0.  0.
         23    2    4    4    0    0 -0.19851119170E+03  0.10365009291E+02 -0.12364395500E+03  0.25118417711E+03  0.91057874860E+02 0.  0.
          1    1    3    3  502    0  0.10220025193E+04  0.42163795379E+03  0.11727403153E+04  0.16117033104E+04  0.00000000000E+00 0. -1.
         -2    1    3    3    0  502  0.17145758373E+03  0.79902647547E+02  0.15626430922E+03  0.24535824918E+03  0.00000000000E+00 0.  1.
         13    1    5    5    0    0 -0.39932928584E+02 -0.38442246546E+02  0.81135493523E+02  0.98261963211E+02  0.00000000000E+00 0.  1.
        -13    1    5    5    0    0 -0.95501598275E+03 -0.47346336408E+03  0.12034025627E+04  0.16076071698E+04  0.00000000000E+00 0. -1.
          1    1    6    6  503    0 -0.17789242696E+03 -0.39423296966E+01 -0.13527970884E+03  0.22352149148E+03  0.00000000000E+00 0. -1.
         -1    1    6    6    0  503 -0.20618764743E+02  0.14307338988E+02  0.11635753840E+02  0.27662685623E+02  0.00000000000E+00 0.  1.
<mgrwt>
<rscale>  0 0.28892692E+04</rscale>
<asrwt>0</asrwt>
<pdfrwt beam="1">  1        1 0.10186278E+00 0.28892692E+04</pdfrwt>
<pdfrwt beam="2">  1       -2 0.48492411E+00 0.28892692E+04</pdfrwt>
<totfact> 0.45713635E-02</totfact>
</mgrwt>
</event>
<event>
12    5  0.5264288E-008  0.1586105E+04  0.7818608E-02  0.8829130E-01
         -2   -1    0    0    0  501 -0.00000000000E+00  0.00000000000E+00  0.19994501759E+04  0.19994501759E+04  0.00000000000E+00 0.  1.
          1   -1    0    0  501    0  0.00000000000E+00 -0.00000000000E+00 -0.31455263059E+03  0.31455263059E+03  0.00000000000E+00 0. -1.
        -24    2    1    2    0    0 -0.15627785601E+03 -0.23829490562E+03 -0.89495633431E+02  0.30774959051E+03  0.74115529641E+02 0.  0.
        254    2    1    2    0    0  0.15627785601E+03  0.23829490562E+03  0.17743931787E+04  0.20062532159E+04  0.89183719565E+03 0.  0.
         23    2    4    4    0    0 -0.29307944685E+03  0.18887480084E+03  0.32503356962E+03  0.48543033603E+03  0.91796172075E+02 0.  0.
         23    2    4    4    0    0  0.44935730287E+03  0.49420104783E+02  0.14493596091E+04  0.15208228799E+04  0.88851692220E+02 0.  0.
          1    1    3    3  502    0 -0.16355800255E+03 -0.22466407905E+03 -0.90512451531E+02  0.29226301937E+03  0.00000000000E+00 0. -1.
         -2    1    3    3    0  502  0.72801465350E+01 -0.13630826573E+02  0.10168180994E+01  0.15486571140E+02  0.00000000000E+00 0.  1.
         13    1    5    5    0    0 -0.86802407742E+02  0.12276335477E+02  0.97904150404E+02  0.13141761324E+03  0.00000000000E+00 0. -1.
        -13    1    5    5    0    0 -0.20627703911E+03  0.17659846536E+03  0.22712941921E+03  0.35401272280E+03  0.00000000000E+00 0.  1.
          3    1    6    6  503    0  0.88208002273E+02  0.45859985224E+02  0.32803585295E+03  0.34277005518E+03  0.00000000000E+00 0. -1.
         -3    1    6    6    0  503  0.36114930059E+03  0.35601195589E+01  0.11213237561E+04  0.11780528247E+04  0.00000000000E+00 0.  1.
<mgrwt>
<rscale>  0 0.15861051E+04</rscale>
<asrwt>0</asrwt>
<pdfrwt beam="1">  1        1 0.48392714E-01 0.15861051E+04</pdfrwt>
<pdfrwt beam="2">  1       -2 0.30760771E+00 0.15861051E+04</pdfrwt>
<totfact> 0.19809263E+00</totfact>
</mgrwt>
</event>
<event>
12    5  0.5264288E-008  0.2023240E+04  0.7818608E-02  0.8595831E-01
         -2   -1    0    0    0  501 -0.00000000000E+00  0.00000000000E+00  0.14197502388E+04  0.14197502388E+04  0.00000000000E+00 0.  1.
          1   -1    0    0  501    0  0.00000000000E+00 -0.00000000000E+00 -0.72081372092E+03  0.72081372092E+03  0.00000000000E+00 0. -1.
        -24    2    1    2    0    0  0.43695882687E+03  0.11496666760E+03 -0.42471081022E+03  0.62556042959E+03  0.82439236482E+02 0.  0.
        254    2    1    2    0    0 -0.43695882687E+03 -0.11496666760E+03  0.11236473281E+04  0.15150035302E+04  0.91022086734E+03 0.  0.
         23    2    4    4    0    0  0.23320146407E+03  0.12994528920E+03  0.44015747599E+03  0.52278399646E+03  0.91081294742E+02 0.  0.
         23    2    4    4    0    0 -0.67016029094E+03 -0.24491195680E+03  0.68348985216E+03  0.99221953371E+03  0.90799465504E+02 0.  0.
          1    1    3    3  502    0  0.24744495740E+03  0.10653170340E+03 -0.25792508003E+03  0.37296562533E+03  0.00000000000E+00 0. -1.
         -2    1    3    3    0  502  0.18951386947E+03  0.84349642012E+01 -0.16678573020E+03  0.25259480426E+03  0.00000000000E+00 0.  1.
         13    1    5    5    0    0  0.19193937640E+03  0.61838996285E+02  0.33260204046E+03  0.38895874202E+03  0.00000000000E+00 0.  1.
        -13    1    5    5    0    0  0.41262087672E+02  0.68106292915E+02  0.10755543553E+03  0.13382525444E+03  0.00000000000E+00 0. -1.
          3    1    6    6  503    0 -0.56310187851E+02 -0.13653836104E+02  0.93296147061E+02  0.10982456716E+03  0.00000000000E+00 0. -1.
         -3    1    6    6    0  503 -0.61385010309E+03 -0.23125812069E+03  0.59019370510E+03  0.88239496655E+03  0.00000000000E+00 0.  1.
<mgrwt>
<rscale>  0 0.20232404E+04</rscale>
<asrwt>0</asrwt>
<pdfrwt beam="1">  1        1 0.11089442E+00 0.20232404E+04</pdfrwt>
<pdfrwt beam="2">  1       -2 0.21842311E+00 0.20232404E+04</pdfrwt>
<totfact> 0.21356117E+00</totfact>
</mgrwt>
</event>
<event>
12    5  0.5264288E-008  0.1040248E+04  0.7818608E-02  0.9265471E-01
          1   -1    0    0  501    0  0.00000000000E+00  0.00000000000E+00  0.89534643433E+03  0.89534643433E+03  0.00000000000E+00 0. -1.
         -2   -1    0    0    0  501 -0.00000000000E+00 -0.00000000000E+00 -0.30214995967E+03  0.30214995967E+03  0.00000000000E+00 0.  1.
        -24    2    1    2    0    0  0.11206050684E+03  0.47055772583E+02  0.86961065845E+02  0.16933955477E+03  0.79635764019E+02 0.  0.
        254    2    1    2    0    0 -0.11206050684E+03 -0.47055772583E+02  0.50623540881E+03  0.10281568392E+04  0.88660047033E+03 0.  0.
         23    2    4    4    0    0  0.19905088726E+03  0.33067487513E+03  0.19781468540E+03  0.44342515644E+03  0.92347662857E+02 0.  0.
         23    2    4    4    0    0 -0.31111139410E+03 -0.37773064772E+03  0.30842072341E+03  0.58473168279E+03  0.85539794623E+02 0.  0.
          3    1    3    3  502    0  0.11468730422E+03  0.53661312742E+02  0.95230450308E+02  0.15843469601E+03  0.00000000000E+00 0. -1.
         -4    1    3    3    0  502 -0.26267973753E+01 -0.66055401593E+01 -0.82693844632E+01  0.10904858763E+02  0.00000000000E+00 0.  1.
         13    1    5    5    0    0  0.12321324350E+03  0.27887088992E+03  0.14707556627E+03  0.33849918584E+03  0.00000000000E+00 0. -1.
        -13    1    5    5    0    0  0.75837643765E+02  0.51803985211E+02  0.50739119138E+02  0.10492597060E+03  0.00000000000E+00 0.  1.
          2    1    6    6  503    0 -0.18734455094E+03 -0.22005895477E+03  0.13207064606E+03  0.31775238771E+03  0.00000000000E+00 0. -1.
         -2    1    6    6    0  503 -0.12376684316E+03 -0.15767169295E+03  0.17635007735E+03  0.26697929508E+03  0.00000000000E+00 0.  1.
<mgrwt>
<rscale>  0 0.10402478E+04</rscale>
<asrwt>0</asrwt>
<pdfrwt beam="1">  1        1 0.13774560E+00 0.10402478E+04</pdfrwt>
<pdfrwt beam="2">  1       -2 0.46484609E-01 0.10402478E+04</pdfrwt>
<totfact> 0.70596703E+01</totfact>
</mgrwt>
</event>
<event>
12    5  0.5264288E-008  0.1752550E+04  0.7818608E-02  0.8731948E-01
         -2   -1    0    0    0  501 -0.00000000000E+00  0.00000000000E+00  0.63463316877E+03  0.63463316877E+03  0.00000000000E+00 0.  1.
          1   -1    0    0  501    0  0.00000000000E+00 -0.00000000000E+00 -0.12099238956E+04  0.12099238956E+04  0.00000000000E+00 0. -1.
        -24    2    1    2    0    0  0.25824058476E+03  0.42661241228E+03 -0.63711437664E+03  0.81297304532E+03  0.79524169729E+02 0.  0.
        254    2    1    2    0    0 -0.25824058476E+03 -0.42661241228E+03  0.61823649798E+02  0.10315840191E+04  0.90092012675E+03 0.  0.
         23    2    4    4    0    0 -0.13535436287E+03 -0.68444362311E+03  0.14843921586E+03  0.71942738048E+03  0.93582467431E+02 0.  0.
         23    2    4    4    0    0 -0.12288622188E+03  0.25783121083E+03 -0.86615566060E+02  0.31215663858E+03  0.91441532784E+02 0.  0.
          3    1    3    3  502    0  0.23840763102E+03  0.38430639630E+03 -0.60859365377E+03  0.75823204903E+03  0.00000000000E+00 0. -1.
         -4    1    3    3    0  502  0.19832953736E+02  0.42306015982E+02 -0.28520722871E+02  0.54740996294E+02  0.00000000000E+00 0.  1.
         13    1    5    5    0    0 -0.11622826469E+03 -0.66176063196E+03  0.15382129658E+03  0.68927290300E+03  0.00000000000E+00 0. -1.
        -13    1    5    5    0    0 -0.19126098179E+02 -0.22682991146E+02 -0.53820807226E+01  0.30154477475E+02  0.00000000000E+00 0.  1.
          3    1    6    6  503    0 -0.53895782588E+02  0.17073315061E+03 -0.14349963337E+02  0.17961204177E+03  0.00000000000E+00 0. -1.
         -3    1    6    6    0  503 -0.68990439295E+02  0.87098060219E+02 -0.72265602723E+02  0.13254459682E+03  0.00000000000E+00 0.  1.
<mgrwt>
<rscale>  0 0.17525500E+04</rscale>
<asrwt>0</asrwt>
<pdfrwt beam="1">  1        1 0.18614214E+00 0.17525500E+04</pdfrwt>
<pdfrwt beam="2">  1       -2 0.97635872E-01 0.17525500E+04</pdfrwt>
<totfact> 0.76328001E+00</totfact>
</mgrwt>
</event>
<event>
12    5  0.5264288E-008  0.1110338E+04  0.7818608E-02  0.9195174E-01
          1   -1    0    0  501    0  0.00000000000E+00  0.00000000000E+00  0.87520977107E+03  0.87520977107E+03  0.00000000000E+00 0. -1.
         -4   -1    0    0    0  501 -0.00000000000E+00 -0.00000000000E+00 -0.35215844720E+03  0.35215844720E+03  0.00000000000E+00 0.  1.
        -24    2    1    2    0    0  0.11977793672E+03  0.74170132627E+02 -0.20554265272E+02  0.16359026802E+03  0.80568823188E+02 0.  0.
        254    2    1    2    0    0 -0.11977793672E+03 -0.74170132627E+02  0.54360558914E+03  0.10637779503E+04  0.90347580388E+03 0.  0.
         23    2    4    4    0    0 -0.27195257827E+03 -0.42911238939E+03  0.32909200258E+03  0.61283447243E+03  0.95754356986E+02 0.  0.
         23    2    4    4    0    0  0.15217464155E+03  0.35494225676E+03  0.21451358656E+03  0.45094347782E+03  0.90514165776E+02 0.  0.
          3    1    3    3  502    0  0.50966799602E+02  0.45714725876E+02 -0.48664781288E+02  0.83998284277E+02  0.00000000000E+00 0. -1.
         -4    1    3    3    0  502  0.68811137119E+02  0.28455406751E+02  0.28110516017E+02  0.79591983740E+02  0.00000000000E+00 0.  1.
         13    1    5    5    0    0 -0.49776483154E+01 -0.57603020380E+02  0.53363097296E+02  0.78679762917E+02  0.00000000000E+00 0. -1.
        -13    1    5    5    0    0 -0.26697492996E+03 -0.37150936901E+03  0.27572890528E+03  0.53415470951E+03  0.00000000000E+00 0.  1.
          3    1    6    6  503    0 -0.96451096191E+01  0.45089804148E+02  0.15200230686E+02  0.48550649744E+02  0.00000000000E+00 0. -1.
         -3    1    6    6    0  503  0.16181975117E+03  0.30985245261E+03  0.19931335588E+03  0.40239282808E+03  0.00000000000E+00 0.  1.
<mgrwt>
<rscale>  0 0.11103378E+04</rscale>
<asrwt>0</asrwt>
<pdfrwt beam="1">  1        1 0.13464766E+00 0.11103378E+04</pdfrwt>
<pdfrwt beam="2">  1       -4 0.54178223E-01 0.11103378E+04</pdfrwt>
<totfact> 0.30118083E+01</totfact>
</mgrwt>
</event>
<event>
12    5  0.5264288E-008  0.2134013E+04  0.7818608E-02  0.8546406E-01
         -2   -1    0    0    0  501 -0.00000000000E+00  0.00000000000E+00  0.19713986738E+04  0.19713986738E+04  0.00000000000E+00 0.  1.
          1   -1    0    0  501    0  0.00000000000E+00 -0.00000000000E+00 -0.57751042078E+03  0.57751042078E+03  0.00000000000E+00 0. -1.
        -24    2    1    2    0    0 -0.48416617643E+03  0.25229100364E+03 -0.23460075521E+03  0.59958663611E+03  0.79993643132E+02 0.  0.
        254    2    1    2    0    0  0.48416617643E+03 -0.25229100364E+03  0.16284890082E+04  0.19493224584E+04  0.92185354596E+03 0.  0.
         23    2    4    4    0    0  0.65040643806E+03 -0.20752289337E+03  0.63478625500E+03  0.93686331033E+03  0.93085910686E+02 0.  0.
         23    2    4    4    0    0 -0.16624026164E+03 -0.44768110279E+02  0.99370275319E+03  0.10124591481E+04  0.89377606578E+02 0.  0.
          3    1    3    3  502    0 -0.44084462679E+03  0.21376188530E+03 -0.23054289269E+03  0.54146851612E+03  0.00000000000E+00 0. -1.
         -4    1    3    3    0  502 -0.43321549636E+02  0.38529118346E+02 -0.40578625231E+01  0.58118119994E+02  0.00000000000E+00 0.  1.
         13    1    5    5    0    0  0.47170106292E+03 -0.10869159252E+03  0.46615930760E+03  0.67202697499E+03  0.00000000000E+00 0. -1.
        -13    1    5    5    0    0  0.17870537514E+03 -0.98831300845E+02  0.16862694739E+03  0.26483633534E+03  0.00000000000E+00 0.  1.
          1    1    6    6  503    0 -0.17314588043E+03 -0.51886324786E+02  0.88284652152E+03  0.90116017842E+03  0.00000000000E+00 0. -1.
         -1    1    6    6    0  503  0.69056187915E+01  0.71182145063E+01  0.11085623167E+03  0.11129896966E+03  0.00000000000E+00 0.  1.
<mgrwt>
<rscale>  0 0.21340134E+04</rscale>
<asrwt>0</asrwt>
<pdfrwt beam="1">  1        1 0.88847758E-01 0.21340134E+04</pdfrwt>
<pdfrwt beam="2">  1       -2 0.30329210E+00 0.21340134E+04</pdfrwt>
<totfact> 0.88243125E-01</totfact>
</mgrwt>
</event>
<event>
12    5  0.5264288E-008  0.1832241E+04  0.7818608E-02  0.8689339E-01
         -2   -1    0    0    0  501 -0.00000000000E+00  0.00000000000E+00  0.17738152403E+04  0.17738152403E+04  0.00000000000E+00 0.  1.
          1   -1    0    0  501    0  0.00000000000E+00 -0.00000000000E+00 -0.47314792479E+03  0.47314792479E+03  0.00000000000E+00 0. -1.
        -24    2    1    2    0    0  0.37916067643E+03 -0.32405277809E+03  0.10878653362E+04  0.11995437491E+04  0.81738575343E+02 0.  0.
        254    2    1    2    0    0 -0.37916067643E+03  0.32405277809E+03  0.21280197922E+03  0.10474194159E+04  0.89611926045E+03 0.  0.
         23    2    4    4    0    0 -0.50311512851E+03 -0.14523799779E+03  0.10132575183E+03  0.54117428296E+03  0.91563027578E+02 0.  0.
         23    2    4    4    0    0  0.12395445207E+03  0.46929077588E+03  0.11147622739E+03  0.50624513296E+03  0.90877097550E+02 0.  0.
          3    1    3    3  502    0  0.10511383873E+03 -0.12563885965E+03  0.29330913258E+03  0.33595280829E+03  0.00000000000E+00 0. -1.
         -4    1    3    3    0  502  0.27404683770E+03 -0.19841391844E+03  0.79455620367E+03  0.86359094082E+03  0.00000000000E+00 0.  1.
         13    1    5    5    0    0 -0.49535053376E+03 -0.14502410961E+03  0.11182081206E+03  0.52811744686E+03  0.00000000000E+00 0. -1.
        -13    1    5    5    0    0 -0.77645947433E+01 -0.21388818222E+00 -0.10495060232E+02  0.13056836101E+02  0.00000000000E+00 0.  1.
          3    1    6    6  503    0  0.11779852847E+03  0.41330260772E+03  0.68036392965E+02  0.43511434087E+03  0.00000000000E+00 0. -1.
         -3    1    6    6    0  503  0.61559236011E+01  0.55988168162E+02  0.43439834428E+02  0.71130792099E+02  0.00000000000E+00 0.  1.
<mgrwt>
<rscale>  0 0.18322413E+04</rscale>
<asrwt>0</asrwt>
<pdfrwt beam="1">  1        1 0.72791989E-01 0.18322413E+04</pdfrwt>
<pdfrwt beam="2">  1       -2 0.27289465E+00 0.18322413E+04</pdfrwt>
<totfact> 0.18333276E+00</totfact>
</mgrwt>
</event>
<event>
12    5  0.5264288E-008  0.2018907E+04  0.7818608E-02  0.8597832E-01
          1   -1    0    0  501    0  0.00000000000E+00  0.00000000000E+00  0.13454300534E+04  0.13454300534E+04  0.00000000000E+00 0. -1.
         -2   -1    0    0    0  501 -0.00000000000E+00 -0.00000000000E+00 -0.75737581412E+03  0.75737581412E+03  0.00000000000E+00 0.  1.
        -24    2    1    2    0    0 -0.14995359499E+03 -0.37326600814E+03  0.96436224800E+03  0.10482091154E+04  0.83271908061E+02 0.  0.
        254    2    1    2    0    0  0.14995359499E+03  0.37326600814E+03 -0.37630800877E+03  0.10545967521E+04  0.89930695462E+03 0.  0.
         23    2    4    4    0    0  0.42119403055E+02 -0.11411070814E+03  0.22149206366E+03  0.27019996905E+03  0.95676492326E+02 0.  0.
         23    2    4    4    0    0  0.10783419193E+03  0.48737671629E+03 -0.59780007243E+03  0.78439678306E+03  0.93536678081E+02 0.  0.
          3    1    3    3  502    0 -0.69686522983E+02 -0.27603018857E+03  0.67214447452E+03  0.72995004700E+03  0.00000000000E+00 0. -1.
         -4    1    3    3    0  502 -0.80267072005E+02 -0.97235819577E+02  0.29221777349E+03  0.31825906837E+03  0.00000000000E+00 0.  1.
         13    1    5    5    0    0  0.22849757525E+00  0.14114061225E+02  0.47214342112E+01  0.14884585195E+02  0.00000000000E+00 0.  1.
        -13    1    5    5    0    0  0.41890905479E+02 -0.12822476937E+03  0.21677062945E+03  0.25531538386E+03  0.00000000000E+00 0. -1.
          2    1    6    6  503    0  0.11147075340E+03  0.44777096488E+03 -0.57906443396E+03  0.74043243076E+03  0.00000000000E+00 0. -1.
         -2    1    6    6    0  503 -0.36365614663E+01  0.39605751405E+02 -0.18735638475E+02  0.43964352295E+02  0.00000000000E+00 0.  1.
<mgrwt>
<rscale>  0 0.20189068E+04</rscale>
<asrwt>0</asrwt>
<pdfrwt beam="1">  1        1 0.20698924E+00 0.20189068E+04</pdfrwt>
<pdfrwt beam="2">  1       -2 0.11651936E+00 0.20189068E+04</pdfrwt>
<totfact> 0.38962511E+00</totfact>
</mgrwt>
</event>
<event>
12    5  0.5264288E-008  0.1443275E+04  0.7818608E-02  0.8923076E-01
         -2   -1    0    0    0  501 -0.00000000000E+00  0.00000000000E+00  0.25377788014E+03  0.25377788014E+03  0.00000000000E+00 0.  1.
          1   -1    0    0  501    0  0.00000000000E+00 -0.00000000000E+00 -0.20520323751E+04  0.20520323751E+04  0.00000000000E+00 0. -1.
        -24    2    1    2    0    0  0.20482920062E+03  0.52243346760E+02 -0.11775328211E+04  0.11990136289E+04  0.79785769104E+02 0.  0.
        254    2    1    2    0    0 -0.20482920062E+03 -0.52243346760E+02 -0.62072167392E+03  0.11067966263E+04  0.89163838348E+03 0.  0.
         23    2    4    4    0    0 -0.46551988191E+03 -0.26308556670E+03 -0.50074596471E+03  0.73835394629E+03  0.92180545546E+02 0.  0.
         23    2    4    4    0    0  0.26069068129E+03  0.21084221994E+03 -0.11997570921E+03  0.36844268005E+03  0.94560904495E+02 0.  0.
          1    1    3    3  502    0  0.52001233265E+02  0.48823575204E+02 -0.44733700994E+03  0.45298815682E+03  0.00000000000E+00 0. -1.
         -2    1    3    3    0  502  0.15282796735E+03  0.34197715553E+01 -0.73019581112E+03  0.74602547210E+03  0.00000000000E+00 0.  1.
         13    1    5    5    0    0 -0.36708442723E+03 -0.20621694817E+03 -0.33847344689E+03  0.54022280652E+03  0.00000000000E+00 0.  1.
        -13    1    5    5    0    0 -0.98435454674E+02 -0.56868618529E+02 -0.16227251782E+03  0.19813113978E+03  0.00000000000E+00 0. -1.
          4    1    6    6  503    0  0.12785800727E+03  0.15907641637E+03 -0.88464663345E+02  0.22243869476E+03  0.00000000000E+00 0.  1.
         -4    1    6    6    0  503  0.13283267402E+03  0.51765803571E+02 -0.31511045863E+02  0.14600398528E+03  0.00000000000E+00 0. -1.
<mgrwt>
<rscale>  0 0.14432746E+04</rscale>
<asrwt>0</asrwt>
<pdfrwt beam="1">  1        1 0.31569730E+00 0.14432746E+04</pdfrwt>
<pdfrwt beam="2">  1       -2 0.39042749E-01 0.14432746E+04</pdfrwt>
<totfact> 0.14547179E+01</totfact>
</mgrwt>
</event>
<event>
12    5  0.5264288E-008  0.1235925E+04  0.7818608E-02  0.9081980E-01
         -2   -1    0    0    0  501 -0.00000000000E+00  0.00000000000E+00  0.92058515687E+03  0.92058515687E+03  0.00000000000E+00 0.  1.
          1   -1    0    0  501    0  0.00000000000E+00 -0.00000000000E+00 -0.41482032790E+03  0.41482032790E+03  0.00000000000E+00 0. -1.
        -24    2    1    2    0    0  0.11207162761E+03 -0.10610524120E+03  0.30217044085E+03  0.34843271794E+03  0.79246524733E+02 0.  0.
        254    2    1    2    0    0 -0.11207162761E+03  0.10610524120E+03  0.20359438812E+03  0.98697276683E+03  0.95333425181E+03 0.  0.
         23    2    4    4    0    0  0.21957420941E+03  0.10900097187E+03 -0.28706108421E+03  0.38781809494E+03  0.88908736301E+02 0.  0.
         23    2    4    4    0    0 -0.33164583702E+03 -0.28957306692E+01  0.49065547233E+03  0.59915467189E+03  0.90808490021E+02 0.  0.
          1    1    3    3  502    0  0.73967343393E+02 -0.66313656253E+02  0.10863429885E+03  0.14720760776E+03  0.00000000000E+00 0. -1.
         -2    1    3    3    0  502  0.38104284212E+02 -0.39791584943E+02  0.19353614200E+03  0.20122511019E+03  0.00000000000E+00 0.  1.
         13    1    5    5    0    0  0.16594823135E+03  0.85297653737E+02 -0.26723046320E+03  0.32592426372E+03  0.00000000000E+00 0.  1.
        -13    1    5    5    0    0  0.53625978066E+02  0.23703318128E+02 -0.19830621012E+02  0.61893831223E+02  0.00000000000E+00 0. -1.
          2    1    6    6  503    0 -0.10514972529E+03  0.22546837427E+02  0.22320756163E+03  0.24776287086E+03  0.00000000000E+00 0. -1.
         -2    1    6    6    0  503 -0.22649611173E+03 -0.25442568096E+02  0.26744791069E+03  0.35139180103E+03  0.00000000000E+00 0.  1.
<mgrwt>
<rscale>  0 0.12359247E+04</rscale>
<asrwt>0</asrwt>
<pdfrwt beam="1">  1        1 0.63818512E-01 0.12359247E+04</pdfrwt>
<pdfrwt beam="2">  1       -2 0.14162849E+00 0.12359247E+04</pdfrwt>
<totfact> 0.17164677E+01</totfact>
</mgrwt>
</event>
<event>
12    5  0.5264288E-008  0.1817824E+04  0.7818608E-02  0.8696878E-01
         -2   -1    0    0    0  501 -0.00000000000E+00  0.00000000000E+00  0.19611131776E+04  0.19611131776E+04  0.00000000000E+00 0.  1.
          1   -1    0    0  501    0  0.00000000000E+00 -0.00000000000E+00 -0.42125105393E+03  0.42125105393E+03  0.00000000000E+00 0. -1.
        -24    2    1    2    0    0 -0.16251755462E+03  0.67795544492E+03  0.54810998796E+03  0.89030960265E+03  0.78683472374E+02 0.  0.
        254    2    1    2    0    0  0.16251755462E+03 -0.67795544492E+03  0.99175213574E+03  0.14920546289E+04  0.86983859194E+03 0.  0.
         23    2    4    4    0    0 -0.47120075580E+02  0.79500230484E+02  0.59137794291E+03  0.60568340816E+03  0.92649508319E+02 0.  0.
         23    2    4    4    0    0  0.20963763020E+03 -0.75745567540E+03  0.40037419284E+03  0.88637122075E+03  0.87563750985E+02 0.  0.
          3    1    3    3  502    0 -0.37411113519E+02  0.12401364360E+03  0.66038854708E+02  0.14539637390E+03  0.00000000000E+00 0. -1.
         -4    1    3    3    0  502 -0.12510644110E+03  0.55394180132E+03  0.48207113325E+03  0.74491322875E+03  0.00000000000E+00 0.  1.
         13    1    5    5    0    0 -0.20294673097E+02  0.78037265188E+02  0.23804654803E+03  0.25133214586E+03  0.00000000000E+00 0.  1.
        -13    1    5    5    0    0 -0.26825402482E+02  0.14629652953E+01  0.35333139488E+03  0.35435126230E+03  0.00000000000E+00 0. -1.
          3    1    6    6  503    0 -0.34820703838E+01 -0.53899812152E+02  0.13565380473E+02  0.55689623015E+02  0.00000000000E+00 0. -1.
         -3    1    6    6    0  503  0.21311970058E+03 -0.70355586325E+03  0.38680881236E+03  0.83068159773E+03  0.00000000000E+00 0.  1.
<mgrwt>
<rscale>  0 0.18178240E+04</rscale>
<asrwt>0</asrwt>
<pdfrwt beam="1">  1        1 0.64807856E-01 0.18178240E+04</pdfrwt>
<pdfrwt beam="2">  1       -2 0.30170971E+00 0.18178240E+04</pdfrwt>
<totfact> 0.14338485E+00</totfact>
</mgrwt>
</event>
<event>
12    5  0.5264288E-008  0.2023977E+04  0.7818608E-02  0.8595492E-01
         -4   -1    0    0    0  501 -0.00000000000E+00  0.00000000000E+00  0.10949931542E+04  0.10949931542E+04  0.00000000000E+00 0.  1.
          1   -1    0    0  501    0  0.00000000000E+00 -0.00000000000E+00 -0.93527556015E+03  0.93527556015E+03  0.00000000000E+00 0. -1.
        -24    2    1    2    0    0 -0.29208668283E+03 -0.86540378948E+02  0.80338061565E+03  0.86287918908E+03  0.79600338435E+02 0.  0.
        254    2    1    2    0    0  0.29208668283E+03  0.86540378948E+02 -0.64366302156E+03  0.11673895253E+04  0.92503640523E+03 0.  0.
         23    2    4    4    0    0  0.18018200235E+03  0.47321185959E+03 -0.52982978209E+03  0.73855274987E+03  0.91353972637E+02 0.  0.
         23    2    4    4    0    0  0.11190468048E+03 -0.38667148064E+03 -0.11383323947E+03  0.42883677544E+03  0.94368861937E+02 0.  0.
          1    1    3    3  502    0 -0.80493259777E+02 -0.55048975186E+02  0.31375828532E+03  0.32856326049E+03  0.00000000000E+00 0. -1.
         -2    1    3    3    0  502 -0.21159342305E+03 -0.31491403762E+02  0.48962233033E+03  0.53431592859E+03  0.00000000000E+00 0.  1.
         13    1    5    5    0    0  0.23692546938E+02  0.17821700243E+03 -0.20545982034E+03  0.27301350609E+03  0.00000000000E+00 0.  1.
        -13    1    5    5    0    0  0.15648945541E+03  0.29499485716E+03 -0.32436996175E+03  0.46553924378E+03  0.00000000000E+00 0. -1.
          4    1    6    6  503    0  0.11779802510E+02 -0.20955521955E+03 -0.52891169299E+02  0.21644775254E+03  0.00000000000E+00 0. -1.
         -4    1    6    6    0  503  0.10012487797E+03 -0.17711626109E+03 -0.60942070168E+02  0.21238902290E+03  0.00000000000E+00 0.  1.
<mgrwt>
<rscale>  0 0.20239766E+04</rscale>
<asrwt>0</asrwt>
<pdfrwt beam="1">  1        1 0.14388855E+00 0.20239766E+04</pdfrwt>
<pdfrwt beam="2">  1       -4 0.16846048E+00 0.20239766E+04</pdfrwt>
<totfact> 0.16540201E+00</totfact>
</mgrwt>
</event>
<event>
12    5  0.5264288E-008  0.1493659E+04  0.7818608E-02  0.8888681E-01
          1   -1    0    0  501    0  0.00000000000E+00  0.00000000000E+00  0.10468848379E+04  0.10468848379E+04  0.00000000000E+00 0. -1.
         -2   -1    0    0    0  501 -0.00000000000E+00 -0.00000000000E+00 -0.53277518793E+03  0.53277518793E+03  0.00000000000E+00 0.  1.
        -24    2    1    2    0    0  0.38739484636E+03  0.12318779494E+03 -0.96979836669E+02  0.42531520498E+03  0.78980599269E+02 0.  0.
        254    2    1    2    0    0 -0.38739484636E+03 -0.12318779494E+03  0.61108948663E+03  0.11543448208E+04  0.89097228068E+03 0.  0.
         23    2    4    4    0    0 -0.62778078847E+01 -0.65824459866E+01  0.72445832700E+03  0.73007018410E+03  0.89888078698E+02 0.  0.
         23    2    4    4    0    0 -0.38111703847E+03 -0.11660534895E+03 -0.11336884037E+03  0.42427463674E+03  0.91156288858E+02 0.  0.
          3    1    3    3  502    0  0.53953315216E+02  0.36841317596E+02 -0.38832849817E+02  0.76001533734E+02  0.00000000000E+00 0. -1.
         -4    1    3    3    0  502  0.33344153114E+03  0.86346477342E+02 -0.58146986851E+02  0.34931367125E+03  0.00000000000E+00 0.  1.
         13    1    5    5    0    0 -0.36753844901E+02  0.26206428165E+02  0.32765465978E+03  0.33074944908E+03  0.00000000000E+00 0.  1.
        -13    1    5    5    0    0  0.30476037016E+02 -0.32788874151E+02  0.39680366722E+03  0.39932073502E+03  0.00000000000E+00 0. -1.
          3    1    6    6  503    0 -0.29357538851E+03 -0.54905498906E+02 -0.60075082560E+02  0.30464756374E+03  0.00000000000E+00 0. -1.
         -3    1    6    6    0  503 -0.87541649967E+02 -0.61699850045E+02 -0.53293757808E+02  0.11962707300E+03  0.00000000000E+00 0.  1.
<mgrwt>
<rscale>  0 0.14936590E+04</rscale>
<asrwt>0</asrwt>
<pdfrwt beam="1">  1        1 0.16105921E+00 0.14936590E+04</pdfrwt>
<pdfrwt beam="2">  1       -2 0.81965414E-01 0.14936590E+04</pdfrwt>
<totfact> 0.15453393E+01</totfact>
</mgrwt>
</event>
<event>
12    5  0.5264288E-008  0.1086323E+04  0.7818608E-02  0.9218626E-01
         -2   -1    0    0    0  501 -0.00000000000E+00  0.00000000000E+00  0.18276314281E+03  0.18276314281E+03  0.00000000000E+00 0.  1.
          1   -1    0    0  501    0  0.00000000000E+00 -0.00000000000E+00 -0.16142437607E+04  0.16142437607E+04  0.00000000000E+00 0. -1.
        -24    2    1    2    0    0  0.47080891427E+02 -0.50233477593E+02 -0.48195889919E+03  0.49537705625E+03  0.91509752187E+02 0.  0.
        254    2    1    2    0    0 -0.47080891427E+02  0.50233477593E+02 -0.94952171872E+03  0.13016298473E+04  0.88764224347E+03 0.  0.
         23    2    4    4    0    0  0.28635531700E+02 -0.32597606111E+03 -0.81888492165E+03  0.88642784015E+03  0.90007859583E+02 0.  0.
         23    2    4    4    0    0 -0.75716423127E+02  0.37620953871E+03 -0.13063679706E+03  0.41520200713E+03  0.89778283735E+02 0.  0.
          3    1    3    3  502    0  0.34980889231E+02 -0.19176985226E+02 -0.43993545703E+03  0.44174045064E+03  0.00000000000E+00 0. -1.
         -4    1    3    3    0  502  0.12100002196E+02 -0.31056492367E+02 -0.42023442152E+02  0.53636605612E+02  0.00000000000E+00 0.  1.
         13    1    5    5    0    0 -0.17584005453E+02 -0.18996483261E+02 -0.10160318119E+03  0.10484879614E+03  0.00000000000E+00 0.  1.
        -13    1    5    5    0    0  0.46219537153E+02 -0.30697957785E+03 -0.71728174046E+03  0.78157904401E+03  0.00000000000E+00 0. -1.
          1    1    6    6  503    0 -0.48920806281E+00  0.59776245881E+02 -0.55088624207E+02  0.81290807680E+02  0.00000000000E+00 0.  1.
         -1    1    6    6    0  503 -0.75227215064E+02  0.31643329282E+03 -0.75548172857E+02  0.33391119945E+03  0.00000000000E+00 0. -1.
<mgrwt>
<rscale>  0 0.10863227E+04</rscale>
<asrwt>0</asrwt>
<pdfrwt beam="1">  1        1 0.24834520E+00 0.10863227E+04</pdfrwt>
<pdfrwt beam="2">  1       -2 0.28117406E-01 0.10863227E+04</pdfrwt>
<totfact> 0.55258026E+01</totfact>
</mgrwt>
</event>
<event>
12    5  0.5264288E-008  0.1767340E+04  0.7818608E-02  0.8723863E-01
         -2   -1    0    0    0  501 -0.00000000000E+00  0.00000000000E+00  0.28547935920E+03  0.28547935920E+03  0.00000000000E+00 0.  1.
          1   -1    0    0  501    0  0.00000000000E+00 -0.00000000000E+00 -0.27353036564E+04  0.27353036564E+04  0.00000000000E+00 0. -1.
        -24    2    1    2    0    0 -0.25852197280E+03  0.32600441173E+03 -0.17898886323E+04  0.18393643054E+04  0.80294738630E+02 0.  0.
        254    2    1    2    0    0  0.25852197280E+03 -0.32600441173E+03 -0.65993566498E+03  0.11814187103E+04  0.88719930127E+03 0.  0.
         23    2    4    4    0    0  0.32968635777E+03  0.11455311857E+03  0.22132076396E+02  0.36119499183E+03  0.90313242881E+02 0.  0.
         23    2    4    4    0    0 -0.71164384973E+02 -0.44055753031E+03 -0.68206774137E+03  0.82022371844E+03  0.91625527401E+02 0.  0.
          3    1    3    3  502    0 -0.23494762236E+03  0.26144631613E+03 -0.13991842653E+04  0.14426611417E+04  0.00000000000E+00 0. -1.
         -4    1    3    3    0  502 -0.23574350438E+02  0.64558095608E+02 -0.39070436700E+03  0.39670316371E+03  0.00000000000E+00 0.  1.
         13    1    5    5    0    0  0.23814910285E+03  0.56209301290E+02 -0.18261471815E+02  0.24537310792E+03  0.00000000000E+00 0. -1.
        -13    1    5    5    0    0  0.91537254924E+02  0.58343817282E+02  0.40393548210E+02  0.11582188390E+03  0.00000000000E+00 0.  1.
          1    1    6    6  503    0 -0.48540985263E+02 -0.40355232222E+03 -0.57019868767E+03  0.70024084960E+03  0.00000000000E+00 0. -1.
         -1    1    6    6    0  503 -0.22623399710E+02 -0.37005208083E+02 -0.11186905370E+03  0.11998286884E+03  0.00000000000E+00 0.  1.
<mgrwt>
<rscale>  0 0.17673401E+04</rscale>
<asrwt>0</asrwt>
<pdfrwt beam="1">  1        1 0.42081596E+00 0.17673401E+04</pdfrwt>
<pdfrwt beam="2">  1       -2 0.43919900E-01 0.17673401E+04</pdfrwt>
<totfact> 0.37934645E+00</totfact>
</mgrwt>
</event>
<event>
12    5  0.5264288E-008  0.1425841E+04  0.7818608E-02  0.8935323E-01
          1   -1    0    0  501    0  0.00000000000E+00  0.00000000000E+00  0.67019441674E+03  0.67019441674E+03  0.00000000000E+00 0. -1.
         -2   -1    0    0    0  501 -0.00000000000E+00 -0.00000000000E+00 -0.75837058620E+03  0.75837058620E+03  0.00000000000E+00 0.  1.
        -24    2    1    2    0    0 -0.11927250600E+03 -0.21847609394E+02 -0.41957760869E+03  0.44381999752E+03  0.78914965384E+02 0.  0.
        254    2    1    2    0    0  0.11927250600E+03  0.21847609394E+02  0.33140143923E+03  0.98474500543E+03  0.91934355007E+03 0.  0.
         23    2    4    4    0    0 -0.31000389531E+03 -0.10063122561E+03  0.39855448312E+03  0.52422012671E+03  0.98650932883E+02 0.  0.
         23    2    4    4    0    0  0.42927640131E+03  0.12247883500E+03 -0.67153043883E+02  0.46052487872E+03  0.91073261027E+02 0.  0.
          3    1    3    3  502    0 -0.10328887664E+02 -0.20353757913E+02 -0.22440645791E+02  0.32008498326E+02  0.00000000000E+00 0. -1.
         -4    1    3    3    0  502 -0.10894361833E+03 -0.14938514810E+01 -0.39713696290E+03  0.41181149919E+03  0.00000000000E+00 0.  1.
         13    1    5    5    0    0 -0.46042441325E+02  0.32134080771E+01  0.11143557576E+03  0.12061558747E+03  0.00000000000E+00 0. -1.
        -13    1    5    5    0    0 -0.26396145399E+03 -0.10384463368E+03  0.28711890735E+03  0.40360453924E+03  0.00000000000E+00 0.  1.
          1    1    6    6  503    0  0.82269196916E+02 -0.95739719103E+01 -0.26809208010E+02  0.87055242998E+02  0.00000000000E+00 0. -1.
         -1    1    6    6    0  503  0.34700720439E+03  0.13205280691E+03 -0.40343835873E+02  0.37346963572E+03  0.00000000000E+00 0.  1.
<mgrwt>
<rscale>  0 0.14258411E+04</rscale>
<asrwt>0</asrwt>
<pdfrwt beam="1">  1        1 0.10310683E+00 0.14258411E+04</pdfrwt>
<pdfrwt beam="2">  1       -2 0.11667240E+00 0.14258411E+04</pdfrwt>
<totfact> 0.14106014E+01</totfact>
</mgrwt>
</event>
<event>
12    5  0.5264288E-008  0.1429812E+04  0.7818608E-02  0.8932517E-01
         -2   -1    0    0    0  501 -0.00000000000E+00  0.00000000000E+00  0.38705012854E+03  0.38705012854E+03  0.00000000000E+00 0.  1.
          1   -1    0    0  501    0  0.00000000000E+00 -0.00000000000E+00 -0.13204772570E+04  0.13204772570E+04  0.00000000000E+00 0. -1.
        -24    2    1    2    0    0 -0.27209997144E+03  0.27823054762E+02 -0.67729473464E+03  0.73476793301E+03  0.79644466056E+02 0.  0.
        254    2    1    2    0    0  0.27209997144E+03 -0.27823054762E+02 -0.25613239377E+03  0.97275945248E+03  0.89768849408E+03 0.  0.
         23    2    4    4    0    0  0.53314492101E+02  0.40095362052E+03  0.10288242449E+02  0.41503300982E+03  0.92413800022E+02 0.  0.
         23    2    4    4    0    0  0.21878547934E+03 -0.42877667528E+03 -0.26642063622E+03  0.55772644265E+03  0.91445646116E+02 0.  0.
          3    1    3    3  502    0 -0.27606093170E+03  0.24040723439E+02 -0.64491111841E+03  0.70192445822E+03  0.00000000000E+00 0. -1.
         -4    1    3    3    0  502  0.39609602551E+01  0.37823313234E+01 -0.32383616233E+02  0.32843474797E+02  0.00000000000E+00 0.  1.
         13    1    5    5    0    0  0.39843289253E+01  0.27161533591E+03 -0.23137569134E+02  0.27262815828E+03  0.00000000000E+00 0. -1.
        -13    1    5    5    0    0  0.49330163176E+02  0.12933828461E+03  0.33425811583E+02  0.14240485155E+03  0.00000000000E+00 0.  1.
          1    1    6    6  503    0  0.91762453595E+02 -0.13042995471E+03 -0.47196139264E+02  0.16631234631E+03  0.00000000000E+00 0. -1.
         -1    1    6    6    0  503  0.12702302575E+03 -0.29834672057E+03 -0.21922449696E+03  0.39141409634E+03  0.00000000000E+00 0.  1.
<mgrwt>
<rscale>  0 0.14298124E+04</rscale>
<asrwt>0</asrwt>
<pdfrwt beam="1">  1        1 0.20315035E+00 0.14298124E+04</pdfrwt>
<pdfrwt beam="2">  1       -2 0.59546173E-01 0.14298124E+04</pdfrwt>
<totfact> 0.19642386E+01</totfact>
</mgrwt>
</event>
<event>
12    5  0.5264288E-008  0.1291600E+04  0.7818608E-02  0.9036253E-01
         -2   -1    0    0    0  501 -0.00000000000E+00  0.00000000000E+00  0.23596231927E+03  0.23596231927E+03  0.00000000000E+00 0.  1.
          1   -1    0    0  501    0  0.00000000000E+00 -0.00000000000E+00 -0.17674754766E+04  0.17674754766E+04  0.00000000000E+00 0. -1.
        -24    2    1    2    0    0  0.50423765141E+01 -0.13732210670E+03  0.60643332414E+02  0.16843472295E+03  0.76222408650E+02 0.  0.
        254    2    1    2    0    0 -0.50423765141E+01  0.13732210670E+03 -0.15921564897E+04  0.18350030729E+04  0.90188203401E+03 0.  0.
         23    2    4    4    0    0  0.61198603555E+02  0.41371855985E+03 -0.33857093686E+03  0.54619006010E+03  0.93728259472E+02 0.  0.
         23    2    4    4    0    0 -0.66240980069E+02 -0.27639645315E+03 -0.12535855529E+04  0.12888130128E+04  0.93698329126E+02 0.  0.
          1    1    3    3  502    0  0.73530724282E+01 -0.51543316258E+02  0.64068642386E+02  0.82556478015E+02  0.00000000000E+00 0. -1.
         -2    1    3    3    0  502 -0.23106959141E+01 -0.85778790438E+02 -0.34253099726E+01  0.85878244935E+02  0.00000000000E+00 0.  1.
         13    1    5    5    0    0  0.81425554889E+02  0.24864890929E+03 -0.19224317751E+03  0.32467497652E+03  0.00000000000E+00 0.  1.
        -13    1    5    5    0    0 -0.20226951333E+02  0.16506965056E+03 -0.14632775934E+03  0.22151508357E+03  0.00000000000E+00 0. -1.
          1    1    6    6  503    0 -0.18155889032E+02  0.56144516026E+00 -0.77654775227E+02  0.79750960137E+02  0.00000000000E+00 0. -1.
         -1    1    6    6    0  503 -0.48085091037E+02 -0.27695789831E+03 -0.11759307776E+04  0.12090620527E+04  0.00000000000E+00 0.  1.
<mgrwt>
<rscale>  0 0.12916000E+04</rscale>
<asrwt>0</asrwt>
<pdfrwt beam="1">  1        1 0.27191930E+00 0.12916000E+04</pdfrwt>
<pdfrwt beam="2">  1       -2 0.36301896E-01 0.12916000E+04</pdfrwt>
<totfact> 0.26430373E+01</totfact>
</mgrwt>
</event>
<event>
12    5  0.5264288E-008  0.2803783E+04  0.7818608E-02  0.8302095E-01
         -2   -1    0    0    0  501 -0.00000000000E+00  0.00000000000E+00  0.10272647105E+04  0.10272647105E+04  0.00000000000E+00 0.  1.
          1   -1    0    0  501    0  0.00000000000E+00 -0.00000000000E+00 -0.19131381437E+04  0.19131381437E+04  0.00000000000E+00 0. -1.
        -24    2    1    2    0    0 -0.32546017940E+02  0.10998493776E+04 -0.10298599872E+04  0.15092031132E+04  0.79715412655E+02 0.  0.
        254    2    1    2    0    0  0.32546017940E+02 -0.10998493776E+04  0.14398655408E+03  0.14311997409E+04  0.90381008740E+03 0.  0.
         23    2    4    4    0    0  0.37509194471E+03 -0.15941761529E+03  0.27474245109E+02  0.42020758282E+03  0.98547630432E+02 0.  0.
         23    2    4    4    0    0 -0.34254592677E+03 -0.94043176228E+03  0.11651230897E+03  0.10109921581E+04  0.82343270403E+02 0.  0.
          3    1    3    3  502    0 -0.39199483789E+02  0.47198380532E+03 -0.40150062185E+03  0.62089295483E+03  0.00000000000E+00 0. -1.
         -4    1    3    3    0  502  0.66534658499E+01  0.62786557224E+03 -0.62835936539E+03  0.88831015838E+03  0.00000000000E+00 0.  1.
         13    1    5    5    0    0  0.78697236426E+02 -0.26440815717E+02  0.45832495238E+02  0.94831373377E+02  0.00000000000E+00 0.  1.
        -13    1    5    5    0    0  0.29639470828E+03 -0.13297679957E+03 -0.18358250129E+02  0.32537620944E+03  0.00000000000E+00 0. -1.
          4    1    6    6  503    0 -0.33817261133E+03 -0.91950523144E+03  0.12564697557E+03  0.98774376646E+03  0.00000000000E+00 0. -1.
         -4    1    6    6    0  503 -0.43733154450E+01 -0.20926530836E+02 -0.91346666045E+01  0.23248391661E+02  0.00000000000E+00 0.  1.
<mgrwt>
<rscale>  0 0.28037827E+04</rscale>
<asrwt>0</asrwt>
<pdfrwt beam="1">  1        1 0.29432894E+00 0.28037827E+04</pdfrwt>
<pdfrwt beam="2">  1       -2 0.15804073E+00 0.28037827E+04</pdfrwt>
<totfact> 0.67628841E-01</totfact>
</mgrwt>
</event>
<event>
12    5  0.5264288E-008  0.1658058E+04  0.7818608E-02  0.8785654E-01
          1   -1    0    0  501    0  0.00000000000E+00  0.00000000000E+00  0.17197779067E+04  0.17197779067E+04  0.00000000000E+00 0. -1.
         -2   -1    0    0    0  501 -0.00000000000E+00 -0.00000000000E+00 -0.39963810367E+03  0.39963810367E+03  0.00000000000E+00 0.  1.
        -24    2    1    2    0    0 -0.32011325356E+02 -0.36120471806E+02  0.12030959979E+04  0.12070312501E+04  0.84587499734E+02 0.  0.
        254    2    1    2    0    0  0.32011325356E+02  0.36120471806E+02  0.11704380513E+03  0.91238476027E+03  0.90355812487E+03 0.  0.
         23    2    4    4    0    0  0.23944959383E+03  0.39308189715E+03  0.13829065328E+03  0.48911972813E+03  0.90908293375E+02 0.  0.
         23    2    4    4    0    0 -0.20743826847E+03 -0.35696142535E+03 -0.21246848154E+02  0.42326503214E+03  0.90828214050E+02 0.  0.
          3    1    3    3  502    0 -0.18953877568E+02 -0.27698317278E+02  0.11698727785E+04  0.11703541191E+04  0.00000000000E+00 0. -1.
         -4    1    3    3    0  502 -0.13057447788E+02 -0.84221545280E+01  0.33223219390E+02  0.36677130971E+02  0.00000000000E+00 0.  1.
         13    1    5    5    0    0  0.87221896245E+02  0.18431072645E+03  0.19792402986E+02  0.20486542481E+03  0.00000000000E+00 0. -1.
        -13    1    5    5    0    0  0.15222769758E+03  0.20877117071E+03  0.11849825029E+03  0.28425430331E+03  0.00000000000E+00 0.  1.
          2    1    6    6  503    0 -0.36920081264E+02 -0.14881454155E+03  0.32447557858E+00  0.15332633650E+03  0.00000000000E+00 0. -1.
         -2    1    6    6    0  503 -0.17051818721E+03 -0.20814688379E+03 -0.21571323733E+02  0.26993869565E+03  0.00000000000E+00 0.  1.
<mgrwt>
<rscale>  0 0.16580576E+04</rscale>
<asrwt>0</asrwt>
<pdfrwt beam="1">  1        1 0.26458121E+00 0.16580576E+04</pdfrwt>
<pdfrwt beam="2">  1       -2 0.61482786E-01 0.16580576E+04</pdfrwt>
<totfact> 0.95236733E+00</totfact>
</mgrwt>
</event>
<event>
12    5  0.5264288E-008  0.2112911E+04  0.7818608E-02  0.8555577E-01
          1   -1    0    0  501    0  0.00000000000E+00  0.00000000000E+00  0.19159147681E+04  0.19159147681E+04  0.00000000000E+00 0. -1.
         -2   -1    0    0    0  501 -0.00000000000E+00 -0.00000000000E+00 -0.58254074896E+03  0.58254074896E+03  0.00000000000E+00 0.  1.
        -24    2    1    2    0    0 -0.60158073878E+03  0.36160553066E+01  0.12735524560E+04  0.14107376808E+04  0.79576910922E+02 0.  0.
        254    2    1    2    0    0  0.60158073878E+03 -0.36160553066E+01  0.59821563178E+02  0.10877178363E+04  0.90423393590E+03 0.  0.
         23    2    4    4    0    0 -0.19943823423E+03 -0.15083158591E+03 -0.55105824237E+01  0.26554473300E+03  0.89206850211E+02 0.  0.
         23    2    4    4    0    0  0.80101897301E+03  0.14721553060E+03  0.65332145601E+02  0.82217310329E+03  0.91632499408E+02 0.  0.
          1    1    3    3  502    0 -0.21412333865E+03  0.29631385654E+02  0.39749129934E+03  0.45246674598E+03  0.00000000000E+00 0. -1.
         -2    1    3    3    0  502 -0.38745740013E+03 -0.26015330347E+02  0.87606115662E+03  0.95827093479E+03  0.00000000000E+00 0.  1.
         13    1    5    5    0    0 -0.12144173463E+03 -0.13845632178E+03  0.12333891748E+02  0.18458161565E+03  0.00000000000E+00 0.  1.
        -13    1    5    5    0    0 -0.77996499603E+02 -0.12375264128E+02 -0.17844474172E+02  0.80963117350E+02  0.00000000000E+00 0. -1.
          2    1    6    6  503    0  0.10150355933E+03 -0.86239368958E+00 -0.15186820982E+02  0.10263700995E+03  0.00000000000E+00 0. -1.
         -2    1    6    6    0  503  0.69951541368E+03  0.14807792429E+03  0.80518966583E+02  0.71953609334E+03  0.00000000000E+00 0.  1.
<mgrwt>
<rscale>  0 0.21129112E+04</rscale>
<asrwt>0</asrwt>
<pdfrwt beam="1">  1        1 0.29475612E+00 0.21129112E+04</pdfrwt>
<pdfrwt beam="2">  1       -2 0.89621655E-01 0.21129112E+04</pdfrwt>
<totfact> 0.29259544E+00</totfact>
</mgrwt>
</event>
<event>
12    5  0.5264288E-008  0.1453667E+04  0.7818608E-02  0.8915862E-01
         -2   -1    0    0    0  501 -0.00000000000E+00  0.00000000000E+00  0.29680612192E+03  0.29680612192E+03  0.00000000000E+00 0.  1.
          1   -1    0    0  501    0  0.00000000000E+00 -0.00000000000E+00 -0.17799054003E+04  0.17799054003E+04  0.00000000000E+00 0. -1.
        -24    2    1    2    0    0  0.22371021493E+03 -0.31104667753E+03 -0.13524883077E+03  0.41442875081E+03  0.81625041537E+02 0.  0.
        254    2    1    2    0    0 -0.22371021493E+03  0.31104667753E+03 -0.13478504476E+04  0.16622827714E+04  0.89425213846E+03 0.  0.
         23    2    4    4    0    0  0.24418203049E+03  0.37698705553E+03 -0.44336051528E+03  0.63775885066E+03  0.91780722575E+02 0.  0.
         23    2    4    4    0    0 -0.46789224542E+03 -0.65940378001E+02 -0.90448993233E+03  0.10245239207E+04  0.90972192014E+02 0.  0.
          3    1    3    3  502    0  0.23765029967E+02 -0.54260799025E+02 -0.51211606058E+02  0.78304786285E+02  0.00000000000E+00 0. -1.
         -4    1    3    3    0  502  0.19994518496E+03 -0.25678587850E+03 -0.84037224709E+02  0.33612396452E+03  0.00000000000E+00 0.  1.
         13    1    5    5    0    0  0.23507608415E+03  0.36043539226E+03 -0.38853716799E+03  0.57977199677E+03  0.00000000000E+00 0.  1.
        -13    1    5    5    0    0  0.91059463373E+01  0.16551663270E+02 -0.54823347288E+02  0.57986853885E+02  0.00000000000E+00 0. -1.
          4    1    6    6  503    0 -0.10201698081E+03 -0.53232245160E+02 -0.21166123183E+03  0.24091827112E+03  0.00000000000E+00 0. -1.
         -4    1    6    6    0  503 -0.36587526461E+03 -0.12708132841E+02 -0.69282870049E+03  0.78360564962E+03  0.00000000000E+00 0.  1.
<mgrwt>
<rscale>  0 0.14536668E+04</rscale>
<asrwt>0</asrwt>
<pdfrwt beam="1">  1        1 0.27383161E+00 0.14536668E+04</pdfrwt>
<pdfrwt beam="2">  1       -2 0.45662479E-01 0.14536668E+04</pdfrwt>
<totfact> 0.16299388E+01</totfact>
</mgrwt>
</event>
<event>
12    5  0.5264288E-008  0.1838196E+04  0.7818608E-02  0.8686247E-01
         -2   -1    0    0    0  501 -0.00000000000E+00  0.00000000000E+00  0.74644396761E+03  0.74644396761E+03  0.00000000000E+00 0.  1.
          1   -1    0    0  501    0  0.00000000000E+00 -0.00000000000E+00 -0.11316877686E+04  0.11316877686E+04  0.00000000000E+00 0. -1.
        -24    2    1    2    0    0  0.34317613044E+03 -0.34481299336E+03  0.36355473615E+03  0.61259951662E+03  0.80251259806E+02 0.  0.
        254    2    1    2    0    0 -0.34317613044E+03  0.34481299336E+03 -0.74879853718E+03  0.12655322196E+04  0.89677572044E+03 0.  0.
         23    2    4    4    0    0 -0.30918498623E+03 -0.65033981557E+02  0.76870494019E+02  0.33847020858E+03  0.93958686567E+02 0.  0.
         23    2    4    4    0    0 -0.33991144209E+02  0.40984697492E+03 -0.82566903120E+03  0.92706201106E+03  0.92653561874E+02 0.  0.
          3    1    3    3  502    0  0.22303753895E+03 -0.18475935118E+03  0.24938618034E+03  0.38219789190E+03  0.00000000000E+00 0. -1.
         -4    1    3    3    0  502  0.12013859149E+03 -0.16005364218E+03  0.11416855581E+03  0.23040162472E+03  0.00000000000E+00 0.  1.
         13    1    5    5    0    0 -0.10117891214E+03  0.22971045855E+02  0.25685191333E+02  0.10688578139E+03  0.00000000000E+00 0. -1.
        -13    1    5    5    0    0 -0.20800607409E+03 -0.88005027411E+02  0.51185302686E+02  0.23158442719E+03  0.00000000000E+00 0.  1.
          3    1    6    6  503    0  0.21406183010E+02  0.19022483821E+03 -0.31824706492E+03  0.37138242833E+03  0.00000000000E+00 0. -1.
         -3    1    6    6    0  503 -0.55397327219E+02  0.21962213671E+03 -0.50742196628E+03  0.55567958272E+03  0.00000000000E+00 0.  1.
<mgrwt>
<rscale>  0 0.18381964E+04</rscale>
<asrwt>0</asrwt>
<pdfrwt beam="1">  1        1 0.17410581E+00 0.18381964E+04</pdfrwt>
<pdfrwt beam="2">  1       -2 0.11483753E+00 0.18381964E+04</pdfrwt>
<totfact> 0.58582929E+00</totfact>
</mgrwt>
</event>
<event>
12    5  0.5264288E-008  0.3389612E+04  0.7818608E-02  0.8140461E-01
         -2   -1    0    0    0  501 -0.00000000000E+00  0.00000000000E+00  0.24385122271E+04  0.24385122271E+04  0.00000000000E+00 0.  1.
          1   -1    0    0  501    0  0.00000000000E+00 -0.00000000000E+00 -0.11779180503E+04  0.11779180503E+04  0.00000000000E+00 0. -1.
        -24    2    1    2    0    0  0.14345967665E+02 -0.43896791496E+03  0.21946877583E+04  0.22396018941E+04  0.79143227015E+02 0.  0.
        254    2    1    2    0    0 -0.14345967665E+02  0.43896791496E+03 -0.93409358146E+03  0.13768283834E+04  0.91116789953E+03 0.  0.
         23    2    4    4    0    0  0.30589473323E+03  0.56995253477E+03 -0.61904395993E+03  0.90006059313E+03  0.92066102702E+02 0.  0.
         23    2    4    4    0    0 -0.32024070089E+03 -0.13098461981E+03 -0.31504962153E+03  0.47676779023E+03  0.91324611351E+02 0.  0.
          1    1    3    3  502    0  0.86520745606E+01 -0.44211611915E+01  0.89473871048E+02  0.89999881449E+02  0.00000000000E+00 0. -1.
         -2    1    3    3    0  502  0.56938931048E+01 -0.43454675377E+03  0.21052138872E+04  0.21496020126E+04  0.00000000000E+00 0.  1.
         13    1    5    5    0    0  0.27998905436E+03  0.55033041379E+03 -0.60565143495E+03  0.86491103332E+03  0.00000000000E+00 0.  1.
        -13    1    5    5    0    0  0.25905678866E+02  0.19622120985E+02 -0.13392524984E+02  0.35149559811E+02  0.00000000000E+00 0. -1.
          3    1    6    6  503    0 -0.32391268989E+02  0.88517918651E+01 -0.54872800056E+02  0.64331739538E+02  0.00000000000E+00 0. -1.
         -3    1    6    6    0  503 -0.28784943190E+03 -0.13983641167E+03 -0.26017682148E+03  0.41243605069E+03  0.00000000000E+00 0.  1.
<mgrwt>
<rscale>  0 0.33896121E+04</rscale>
<asrwt>0</asrwt>
<pdfrwt beam="1">  1        1 0.18121816E+00 0.33896121E+04</pdfrwt>
<pdfrwt beam="2">  1       -2 0.37515573E+00 0.33896121E+04</pdfrwt>
<totfact> 0.86196948E-02</totfact>
</mgrwt>
</event>
<event>
12    5  0.5264288E-008  0.2489371E+04  0.7818608E-02  0.8406782E-01
         -2   -1    0    0    0  501 -0.00000000000E+00  0.00000000000E+00  0.50315779712E+03  0.50315779712E+03  0.00000000000E+00 0.  1.
          1   -1    0    0  501    0  0.00000000000E+00 -0.00000000000E+00 -0.30790390567E+04  0.30790390567E+04  0.00000000000E+00 0. -1.
        -24    2    1    2    0    0 -0.68545222495E+03  0.59596190717E+03 -0.19413515266E+04  0.21448142228E+04  0.79793187278E+02 0.  0.
        254    2    1    2    0    0  0.68545222495E+03 -0.59596190717E+03 -0.63452973297E+03  0.14373826311E+04  0.91565577519E+03 0.  0.
         23    2    4    4    0    0 -0.12800153025E+02 -0.33949698068E+03 -0.58969881737E+03  0.68676714138E+03  0.92099769035E+02 0.  0.
         23    2    4    4    0    0  0.69825237797E+03 -0.25646492648E+03 -0.44830915602E+02  0.75061548971E+03  0.89906398736E+02 0.  0.
          1    1    3    3  502    0 -0.64623162979E+03  0.56444196991E+03 -0.17839816650E+04  0.19795960795E+04  0.00000000000E+00 0. -1.
         -2    1    3    3    0  502 -0.39220595154E+02  0.31519937260E+02 -0.15736986159E+03  0.16521814327E+03  0.00000000000E+00 0.  1.
         13    1    5    5    0    0 -0.25218122204E+02 -0.74574467296E+02 -0.20419781170E+03  0.21884709540E+03  0.00000000000E+00 0.  1.
        -13    1    5    5    0    0  0.12417969178E+02 -0.26492251339E+03 -0.38550100567E+03  0.46792004598E+03  0.00000000000E+00 0. -1.
          1    1    6    6  503    0  0.33163924085E+03 -0.76547485942E+02 -0.62577271988E+01  0.34041630810E+03  0.00000000000E+00 0. -1.
         -1    1    6    6    0  503  0.36661313713E+03 -0.17991744054E+03 -0.38573188403E+02  0.41019918161E+03  0.00000000000E+00 0.  1.
<mgrwt>
<rscale>  0 0.24893714E+04</rscale>
<asrwt>0</asrwt>
<pdfrwt beam="1">  1        1 0.47369832E+00 0.24893714E+04</pdfrwt>
<pdfrwt beam="2">  1       -2 0.77408892E-01 0.24893714E+04</pdfrwt>
<totfact> 0.60864888E-01</totfact>
</mgrwt>
</event>
<event>
12    5  0.5264288E-008  0.1878501E+04  0.7818608E-02  0.8665633E-01
         -2   -1    0    0    0  501 -0.00000000000E+00  0.00000000000E+00  0.47207896028E+03  0.47207896028E+03  0.00000000000E+00 0.  1.
          1   -1    0    0  501    0  0.00000000000E+00 -0.00000000000E+00 -0.18687367992E+04  0.18687367992E+04  0.00000000000E+00 0. -1.
        -24    2    1    2    0    0 -0.70464687901E+03  0.13878474899E+03 -0.41649662152E+03  0.83403085791E+03  0.79684412298E+02 0.  0.
        254    2    1    2    0    0  0.70464687901E+03 -0.13878474899E+03 -0.98016121737E+03  0.15067849016E+04  0.89100858406E+03 0.  0.
         23    2    4    4    0    0  0.41613571038E+02  0.20839653716E+03 -0.63825755153E+03  0.67895396442E+03  0.91896559847E+02 0.  0.
         23    2    4    4    0    0  0.66303330797E+03 -0.34718128615E+03 -0.34190366584E+03  0.82783093714E+03  0.90873157970E+02 0.  0.
          3    1    3    3  502    0 -0.42033954087E+03  0.60270937653E+02 -0.28283365467E+03  0.51020857671E+03  0.00000000000E+00 0. -1.
         -4    1    3    3    0  502 -0.28430733814E+03  0.78513811334E+02 -0.13366296686E+03  0.32382228120E+03  0.00000000000E+00 0.  1.
         13    1    5    5    0    0  0.47891455354E+02  0.16557191581E+03 -0.58743283993E+03  0.61219685741E+03  0.00000000000E+00 0.  1.
        -13    1    5    5    0    0 -0.62778843161E+01  0.42824621357E+02 -0.50824711605E+02  0.66757107004E+02  0.00000000000E+00 0. -1.
          2    1    6    6  503    0  0.59486410336E+02 -0.42548407976E+01 -0.31116911953E+02  0.67268112017E+02  0.00000000000E+00 0. -1.
         -2    1    6    6    0  503  0.60354689763E+03 -0.34292644535E+03 -0.31078675389E+03  0.76056282512E+03  0.00000000000E+00 0.  1.
<mgrwt>
<rscale>  0 0.18785008E+04</rscale>
<asrwt>0</asrwt>
<pdfrwt beam="1">  1        1 0.28749796E+00 0.18785008E+04</pdfrwt>
<pdfrwt beam="2">  1       -2 0.72627534E-01 0.18785008E+04</pdfrwt>
<totfact> 0.51621894E+00</totfact>
</mgrwt>
</event>
<event>
12    5  0.5264288E-008  0.1319025E+04  0.7818608E-02  0.9014613E-01
         -2   -1    0    0    0  501 -0.00000000000E+00  0.00000000000E+00  0.69040035878E+03  0.69040035878E+03  0.00000000000E+00 0.  1.
          1   -1    0    0  501    0  0.00000000000E+00 -0.00000000000E+00 -0.63000636141E+03  0.63000636141E+03  0.00000000000E+00 0. -1.
        -24    2    1    2    0    0  0.12833222466E+03 -0.11284537530E+02  0.27718239537E+03  0.31758495769E+03  0.86218468858E+02 0.  0.
        254    2    1    2    0    0 -0.12833222466E+03  0.11284537530E+02 -0.21678839800E+03  0.10028217625E+04  0.97059660888E+03 0.  0.
         23    2    4    4    0    0 -0.40619366006E+03  0.14763743670E+03 -0.42931583478E+03  0.61610942662E+03  0.92133801585E+02 0.  0.
         23    2    4    4    0    0  0.27786143539E+03 -0.13635289917E+03  0.21252743678E+03  0.38671233588E+03  0.92625206873E+02 0.  0.
          1    1    3    3  502    0  0.87450499285E+02  0.17568565697E-01  0.89353564419E+02  0.12502659560E+03  0.00000000000E+00 0. -1.
         -2    1    3    3    0  502  0.40881725378E+02 -0.11302106096E+02  0.18782883095E+03  0.19255836209E+03  0.00000000000E+00 0.  1.
         13    1    5    5    0    0 -0.29974061920E+03  0.89674799191E+02 -0.25410055360E+03  0.40305471061E+03  0.00000000000E+00 0.  1.
        -13    1    5    5    0    0 -0.10645304086E+03  0.57962637507E+02 -0.17521528118E+03  0.21305471601E+03  0.00000000000E+00 0. -1.
          2    1    6    6  503    0  0.86872487394E+02 -0.16510536219E+02  0.21036698041E+02  0.90895376873E+02  0.00000000000E+00 0. -1.
         -2    1    6    6    0  503  0.19098894800E+03 -0.11984236295E+03  0.19149073873E+03  0.29581695901E+03  0.00000000000E+00 0.  1.
<mgrwt>
<rscale>  0 0.13190248E+04</rscale>
<asrwt>0</asrwt>
<pdfrwt beam="1">  1        1 0.96924056E-01 0.13190248E+04</pdfrwt>
<pdfrwt beam="2">  1       -2 0.10621544E+00 0.13190248E+04</pdfrwt>
<totfact> 0.19584302E+01</totfact>
</mgrwt>
</event>
<event>
12    5  0.5264288E-008  0.1407311E+04  0.7818608E-02  0.8948543E-01
          1   -1    0    0  501    0  0.00000000000E+00  0.00000000000E+00  0.11694610575E+04  0.11694610575E+04  0.00000000000E+00 0. -1.
         -2   -1    0    0    0  501 -0.00000000000E+00 -0.00000000000E+00 -0.42338399004E+03  0.42338399004E+03  0.00000000000E+00 0.  1.
        -24    2    1    2    0    0 -0.21412466582E+03  0.17545936108E+03  0.57889233902E+03  0.64679767106E+03  0.81212851262E+02 0.  0.
        254    2    1    2    0    0  0.21412466582E+03 -0.17545936108E+03  0.16718472846E+03  0.94604737650E+03  0.88905542304E+03 0.  0.
         23    2    4    4    0    0  0.33055971815E+03 -0.47814445096E+03  0.16024849953E+03  0.60970929648E+03  0.90410183997E+02 0.  0.
         23    2    4    4    0    0 -0.11643505233E+03  0.30268508988E+03  0.69362289294E+01  0.33633808001E+03  0.88880862673E+02 0.  0.
          1    1    3    3  502    0 -0.14801722767E+03  0.15799486487E+03  0.48003831871E+03  0.52660066886E+03  0.00000000000E+00 0. -1.
         -2    1    3    3    0  502 -0.66107438151E+02  0.17464496207E+02  0.98854020309E+02  0.12019700220E+03  0.00000000000E+00 0.  1.
         13    1    5    5    0    0  0.91652830782E+02 -0.70953852666E+02  0.24376132088E+02  0.11844360014E+03  0.00000000000E+00 0.  1.
        -13    1    5    5    0    0  0.23890688737E+03 -0.40719059829E+03  0.13587236744E+03  0.49126569634E+03  0.00000000000E+00 0. -1.
          2    1    6    6  503    0  0.93057029377E+01  0.71384042361E+02  0.12206970045E+02  0.73015667693E+02  0.00000000000E+00 0. -1.
         -2    1    6    6    0  503 -0.12574075527E+03  0.23130104751E+03 -0.52707411153E+01  0.26332241232E+03  0.00000000000E+00 0.  1.
<mgrwt>
<rscale>  0 0.14073110E+04</rscale>
<asrwt>0</asrwt>
<pdfrwt beam="1">  1        1 0.17991708E+00 0.14073110E+04</pdfrwt>
<pdfrwt beam="2">  1       -2 0.65135999E-01 0.14073110E+04</pdfrwt>
<totfact> 0.20901202E+01</totfact>
</mgrwt>
</event>
<event>
12    5  0.5264288E-008  0.1728682E+04  0.7818608E-02  0.8745173E-01
          1   -1    0    0  501    0  0.00000000000E+00  0.00000000000E+00  0.99394699174E+03  0.99394699174E+03  0.00000000000E+00 0. -1.
         -2   -1    0    0    0  501 -0.00000000000E+00 -0.00000000000E+00 -0.75163508192E+03  0.75163508192E+03  0.00000000000E+00 0.  1.
        -24    2    1    2    0    0 -0.18565266463E+02  0.29213910499E+03 -0.47478605460E+03  0.56370300493E+03  0.81543573287E+02 0.  0.
        254    2    1    2    0    0  0.18565266463E+02 -0.29213910499E+03  0.71709796442E+03  0.11818790687E+04  0.89270303952E+03 0.  0.
         23    2    4    4    0    0  0.41436669504E+03 -0.12954477504E+02  0.45960390525E+03  0.62602364129E+03  0.93820431078E+02 0.  0.
         23    2    4    4    0    0 -0.39580142857E+03 -0.27918462748E+03  0.25749405916E+03  0.55585542745E+03  0.89828940977E+02 0.  0.
          1    1    3    3  502    0 -0.13518686031E+02  0.37852073464E+02 -0.12444879583E+03  0.13077858051E+03  0.00000000000E+00 0. -1.
         -2    1    3    3    0  502 -0.50465804318E+01  0.25428703152E+03 -0.35033725877E+03  0.43292442441E+03  0.00000000000E+00 0.  1.
         13    1    5    5    0    0  0.17357411421E+03 -0.75262447723E+01  0.12625581949E+03  0.21476766386E+03  0.00000000000E+00 0.  1.
        -13    1    5    5    0    0  0.24079258083E+03 -0.54282327315E+01  0.33334808576E+03  0.41125597743E+03  0.00000000000E+00 0. -1.
          2    1    6    6  503    0 -0.22700397956E+03 -0.16130892656E+03  0.97288144390E+02  0.29498535482E+03  0.00000000000E+00 0. -1.
         -2    1    6    6    0  503 -0.16879744902E+03 -0.11787570092E+03  0.16020591477E+03  0.26087007263E+03  0.00000000000E+00 0.  1.
<mgrwt>
<rscale>  0 0.17286821E+04</rscale>
<asrwt>0</asrwt>
<pdfrwt beam="1">  1        1 0.15291492E+00 0.17286821E+04</pdfrwt>
<pdfrwt beam="2">  1       -2 0.11563617E+00 0.17286821E+04</pdfrwt>
<totfact> 0.74055973E+00</totfact>
</mgrwt>
</event>
<event>
12    5  0.5264288E-008  0.2582362E+04  0.7818608E-02  0.8374217E-01
         -2   -1    0    0    0  501 -0.00000000000E+00  0.00000000000E+00  0.14320989212E+04  0.14320989212E+04  0.00000000000E+00 0.  1.
          1   -1    0    0  501    0  0.00000000000E+00 -0.00000000000E+00 -0.11641297518E+04  0.11641297518E+04  0.00000000000E+00 0. -1.
        -24    2    1    2    0    0  0.94670213102E+03 -0.43779097516E+03 -0.33016215394E+03  0.10967882131E+04  0.77662562647E+02 0.  0.
        254    2    1    2    0    0 -0.94670213102E+03  0.43779097516E+03  0.59813132336E+03  0.14994404600E+04  0.89591001235E+03 0.  0.
         23    2    4    4    0    0 -0.73825496002E+03  0.58900612992E+03  0.12997610157E+03  0.95758721869E+03  0.90171433012E+02 0.  0.
         23    2    4    4    0    0 -0.20844717100E+03 -0.15121515476E+03  0.46815522179E+03  0.54185324129E+03  0.90107587284E+02 0.  0.
          1    1    3    3  502    0  0.57004087614E+03 -0.24226881342E+03 -0.16133070102E+03  0.64005341458E+03  0.00000000000E+00 0. -1.
         -2    1    3    3    0  502  0.37666125488E+03 -0.19552216174E+03 -0.16883145292E+03  0.45673479849E+03  0.00000000000E+00 0.  1.
         13    1    5    5    0    0 -0.48561372738E+03  0.33942111750E+03  0.58754731359E+02  0.59538181504E+03  0.00000000000E+00 0. -1.
        -13    1    5    5    0    0 -0.25264123265E+03  0.24958501242E+03  0.71221370208E+02  0.36220540365E+03  0.00000000000E+00 0.  1.
          2    1    6    6  503    0 -0.19953641992E+03 -0.15883762121E+03  0.46389043924E+03  0.52937558728E+03  0.00000000000E+00 0. -1.
         -2    1    6    6    0  503 -0.89107510717E+01  0.76224664539E+01  0.42647825494E+01  0.12477654014E+02  0.00000000000E+00 0.  1.
<mgrwt>
<rscale>  0 0.25823625E+04</rscale>
<asrwt>0</asrwt>
<pdfrwt beam="1">  1        1 0.17909688E+00 0.25823625E+04</pdfrwt>
<pdfrwt beam="2">  1       -2 0.22032291E+00 0.25823625E+04</pdfrwt>
<totfact> 0.86450955E-01</totfact>
</mgrwt>
</event>
<event>
12    5  0.5264288E-008  0.1662509E+04  0.7818608E-02  0.8783041E-01
         -2   -1    0    0    0  501 -0.00000000000E+00  0.00000000000E+00  0.15754046605E+03  0.15754046605E+03  0.00000000000E+00 0.  1.
          1   -1    0    0  501    0  0.00000000000E+00 -0.00000000000E+00 -0.43860720684E+04  0.43860720684E+04  0.00000000000E+00 0. -1.
        -24    2    1    2    0    0  0.31561427753E+03  0.73105915445E+02 -0.28295257486E+04  0.28493227709E+04  0.86414371865E+02 0.  0.
        254    2    1    2    0    0 -0.31561427753E+03 -0.73105915445E+02 -0.13990058537E+04  0.16942897635E+04  0.89913490479E+03 0.  0.
         23    2    4    4    0    0  0.10006865849E+03 -0.38700628946E+03 -0.76784612137E+03  0.87048817221E+03  0.91511678795E+02 0.  0.
         23    2    4    4    0    0 -0.41568293602E+03  0.31390037402E+03 -0.63115973233E+03  0.82380159131E+03  0.94661005780E+02 0.  0.
          1    1    3    3  502    0  0.21790965151E+03  0.23147537150E+02 -0.21299006566E+04  0.21411439072E+04  0.00000000000E+00 0. -1.
         -2    1    3    3    0  502  0.97704626021E+02  0.49958378295E+02 -0.69962509207E+03  0.70817886368E+03  0.00000000000E+00 0.  1.
         13    1    5    5    0    0  0.63593750355E+01  0.21018930898E+01 -0.31855736330E+01  0.74167030933E+01  0.00000000000E+00 0.  1.
        -13    1    5    5    0    0  0.93709283458E+02 -0.38910818255E+03 -0.76466054773E+03  0.86307146911E+03  0.00000000000E+00 0. -1.
          4    1    6    6  503    0  0.75994021458E+00  0.91740685216E+01 -0.30811347559E+02  0.32157117109E+02  0.00000000000E+00 0.  1.
         -4    1    6    6    0  503 -0.41644287624E+03  0.30472630549E+03 -0.60034838477E+03  0.79164447420E+03  0.00000000000E+00 0. -1.
<mgrwt>
<rscale>  0 0.16625088E+04</rscale>
<asrwt>0</asrwt>
<pdfrwt beam="1">  1        1 0.67478044E+00 0.16625088E+04</pdfrwt>
<pdfrwt beam="2">  1       -2 0.24236990E-01 0.16625088E+04</pdfrwt>
<totfact> 0.54512854E-01</totfact>
</mgrwt>
</event>
<event>
12    5  0.5264288E-008  0.1336427E+04  0.7818608E-02  0.9001167E-01
          1   -1    0    0  501    0  0.00000000000E+00  0.00000000000E+00  0.14641562127E+04  0.14641562127E+04  0.00000000000E+00 0. -1.
         -2   -1    0    0    0  501 -0.00000000000E+00 -0.00000000000E+00 -0.30495991094E+03  0.30495991094E+03  0.00000000000E+00 0.  1.
        -24    2    1    2    0    0 -0.26734302844E+03 -0.23687600115E+03  0.29729836419E+03  0.47162688018E+03  0.80393171239E+02 0.  0.
        254    2    1    2    0    0  0.26734302844E+03  0.23687600115E+03  0.86189793761E+03  0.12974892435E+04  0.90168051290E+03 0.  0.
         23    2    4    4    0    0 -0.65660243771E+02 -0.19561187039E+03  0.67833988691E+03  0.71471583795E+03  0.89991418489E+02 0.  0.
         23    2    4    4    0    0  0.33300327221E+03  0.43248787154E+03  0.18355805071E+03  0.58277340554E+03  0.89411106123E+02 0.  0.
          3    1    3    3  502    0 -0.15935082853E+03 -0.99481706349E+02  0.18648117804E+03  0.26469704610E+03  0.00000000000E+00 0. -1.
         -4    1    3    3    0  502 -0.10799219990E+03 -0.13739429480E+03  0.11081718615E+03  0.20692983407E+03  0.00000000000E+00 0.  1.
         13    1    5    5    0    0  0.10591042784E+01 -0.52139405639E+01 -0.15357489671E+01  0.55376351421E+01  0.00000000000E+00 0.  1.
        -13    1    5    5    0    0 -0.66719348050E+02 -0.19039792982E+03  0.67987563587E+03  0.70917820281E+03  0.00000000000E+00 0. -1.
          4    1    6    6  503    0  0.22845539131E+03  0.23252814036E+03  0.87352728550E+02  0.33747844533E+03  0.00000000000E+00 0.  1.
         -4    1    6    6    0  503  0.10454788090E+03  0.19995973118E+03  0.96205322159E+02  0.24529496022E+03  0.00000000000E+00 0. -1.
<mgrwt>
<rscale>  0 0.13364265E+04</rscale>
<asrwt>0</asrwt>
<pdfrwt beam="1">  1        1 0.22525480E+00 0.13364265E+04</pdfrwt>
<pdfrwt beam="2">  1       -2 0.46916910E-01 0.13364265E+04</pdfrwt>
<totfact> 0.25648256E+01</totfact>
</mgrwt>
</event>
<event>
12    5  0.5264288E-008  0.2171605E+04  0.7818608E-02  0.8530340E-01
         -2   -1    0    0    0  501 -0.00000000000E+00  0.00000000000E+00  0.17616419566E+04  0.17616419566E+04  0.00000000000E+00 0.  1.
          1   -1    0    0  501    0  0.00000000000E+00 -0.00000000000E+00 -0.66924359442E+03  0.66924359442E+03  0.00000000000E+00 0. -1.
        -24    2    1    2    0    0  0.84172837649E+03 -0.30193177073E+03  0.34806711207E+03  0.96316638270E+03  0.82881314542E+02 0.  0.
        254    2    1    2    0    0 -0.84172837649E+03  0.30193177073E+03  0.74433125011E+03  0.14677191683E+04  0.89470726676E+03 0.  0.
         23    2    4    4    0    0 -0.65240204360E+03  0.71477283226E+02  0.23907428770E+01  0.66289077907E+03  0.93172103171E+02 0.  0.
         23    2    4    4    0    0 -0.18932633289E+03  0.23045448750E+03  0.74194050723E+03  0.80482838925E+03  0.91210135044E+02 0.  0.
          3    1    3    3  502    0  0.77231888195E+03 -0.27090973116E+03  0.29311372314E+03  0.86935849484E+03  0.00000000000E+00 0. -1.
         -4    1    3    3    0  502  0.69409494544E+02 -0.31022039570E+02  0.54953388921E+02  0.93807887865E+02  0.00000000000E+00 0.  1.
         13    1    5    5    0    0 -0.10210245355E+03  0.95186176113E+01  0.34475833811E+02  0.10818548063E+03  0.00000000000E+00 0. -1.
        -13    1    5    5    0    0 -0.55029959005E+03  0.61958665615E+02 -0.32085090934E+02  0.55470529843E+03  0.00000000000E+00 0.  1.
          3    1    6    6  503    0 -0.54380718068E+02  0.67624772265E+02  0.33696800197E+03  0.34796236388E+03  0.00000000000E+00 0. -1.
         -3    1    6    6    0  503 -0.13494561482E+03  0.16282971524E+03  0.40497250526E+03  0.45686602537E+03  0.00000000000E+00 0.  1.
<mgrwt>
<rscale>  0 0.21716055E+04</rscale>
<asrwt>0</asrwt>
<pdfrwt beam="1">  1        1 0.10296055E+00 0.21716055E+04</pdfrwt>
<pdfrwt beam="2">  1       -2 0.27102184E+00 0.21716055E+04</pdfrwt>
<totfact> 0.11155933E+00</totfact>
</mgrwt>
</event>
<event>
12    5  0.5264288E-008  0.1372376E+04  0.7818608E-02  0.8974061E-01
         -2   -1    0    0    0  501 -0.00000000000E+00  0.00000000000E+00  0.11218602695E+04  0.11218602695E+04  0.00000000000E+00 0.  1.
          1   -1    0    0  501    0  0.00000000000E+00 -0.00000000000E+00 -0.41970799903E+03  0.41970799903E+03  0.00000000000E+00 0. -1.
        -24    2    1    2    0    0  0.37278443464E+03  0.76427414309E+02  0.10954779768E+03  0.40401884161E+03  0.80131891441E+02 0.  0.
        254    2    1    2    0    0 -0.37278443464E+03 -0.76427414309E+02  0.59260447284E+03  0.11375494270E+04  0.89332483074E+03 0.  0.
         23    2    4    4    0    0 -0.50763740949E+03  0.23747693437E+03  0.53355773930E+03  0.77915654721E+03  0.91159366034E+02 0.  0.
         23    2    4    4    0    0  0.13485297485E+03 -0.31390434868E+03  0.59046733539E+02  0.35839287977E+03  0.90761636044E+02 0.  0.
          1    1    3    3  502    0  0.28296150678E+03  0.73695931858E+02  0.11449535890E+03  0.31401829867E+03  0.00000000000E+00 0. -1.
         -2    1    3    3    0  502  0.89822927867E+02  0.27314824515E+01 -0.49475612197E+01  0.90000542937E+02  0.00000000000E+00 0.  1.
         13    1    5    5    0    0 -0.12675165041E+03  0.63799956725E+02  0.84110721362E+02  0.16495765762E+03  0.00000000000E+00 0.  1.
        -13    1    5    5    0    0 -0.38088575908E+03  0.17367697765E+03  0.44944701794E+03  0.61419888959E+03  0.00000000000E+00 0. -1.
          4    1    6    6  503    0  0.11895037388E+03 -0.22674155366E+03  0.78241004060E+02  0.26773602357E+03  0.00000000000E+00 0. -1.
         -4    1    6    6    0  503  0.15902600969E+02 -0.87162795028E+02 -0.19194270522E+02  0.90656856197E+02  0.00000000000E+00 0.  1.
<mgrwt>
<rscale>  0 0.13723756E+04</rscale>
<asrwt>0</asrwt>
<pdfrwt beam="1">  1        1 0.64570462E-01 0.13723756E+04</pdfrwt>
<pdfrwt beam="2">  1       -2 0.17259389E+00 0.13723756E+04</pdfrwt>
<totfact> 0.98039476E+00</totfact>
</mgrwt>
</event>
<event>
12    5  0.5264288E-008  0.1161072E+04  0.7818608E-02  0.9147630E-01
          1   -1    0    0  501    0  0.00000000000E+00  0.00000000000E+00  0.12934584950E+04  0.12934584950E+04  0.00000000000E+00 0. -1.
         -2   -1    0    0    0  501 -0.00000000000E+00 -0.00000000000E+00 -0.26055873104E+03  0.26055873104E+03  0.00000000000E+00 0.  1.
        -24    2    1    2    0    0  0.30003924661E+01 -0.14174184781E+03 -0.15091976817E+02  0.16521063005E+03  0.83468741110E+02 0.  0.
        254    2    1    2    0    0 -0.30003924661E+01  0.14174184781E+03  0.10479917408E+04  0.13888065960E+04  0.90022070549E+03 0.  0.
         23    2    4    4    0    0  0.37878942233E+03 -0.24792892709E+02  0.81364167075E+03  0.90244281982E+03  0.91072282703E+02 0.  0.
         23    2    4    4    0    0 -0.38178981480E+03  0.16653474052E+03  0.23435007008E+03  0.48636377621E+03  0.90180291552E+02 0.  0.
          3    1    3    3  502    0  0.37328996170E+01  0.58062834534E+01 -0.16250890297E+02  0.17656129319E+02  0.00000000000E+00 0. -1.
         -4    1    3    3    0  502 -0.73250715089E+00 -0.14754813127E+03  0.11589134799E+01  0.14755450073E+03  0.00000000000E+00 0.  1.
         13    1    5    5    0    0  0.19429711338E+03 -0.73507914892E+01  0.31155888947E+03  0.36725242547E+03  0.00000000000E+00 0.  1.
        -13    1    5    5    0    0  0.18449230895E+03 -0.17442101219E+02  0.50208278128E+03  0.53519039436E+03  0.00000000000E+00 0. -1.
          3    1    6    6  503    0 -0.23247510959E+02  0.23832303258E+02 -0.28179699799E+01  0.33412069664E+02  0.00000000000E+00 0. -1.
         -3    1    6    6    0  503 -0.35854230384E+03  0.14270243726E+03  0.23716804006E+03  0.45295170655E+03  0.00000000000E+00 0.  1.
<mgrwt>
<rscale>  0 0.11610718E+04</rscale>
<asrwt>0</asrwt>
<pdfrwt beam="1">  1        1 0.19899361E+00 0.11610718E+04</pdfrwt>
<pdfrwt beam="2">  1       -2 0.40085959E-01 0.11610718E+04</pdfrwt>
<totfact> 0.46864996E+01</totfact>
</mgrwt>
</event>
<event>
12    5  0.5264288E-008  0.1225938E+04  0.7818608E-02  0.9090451E-01
         -2   -1    0    0    0  501 -0.00000000000E+00  0.00000000000E+00  0.14353433275E+04  0.14353433275E+04  0.00000000000E+00 0.  1.
          1   -1    0    0  501    0  0.00000000000E+00 -0.00000000000E+00 -0.26177088476E+03  0.26177088476E+03  0.00000000000E+00 0. -1.
        -24    2    1    2    0    0 -0.36992521641E+02  0.23351319912E+03  0.52546243582E+03  0.58290920214E+03  0.88178827753E+02 0.  0.
        254    2    1    2    0    0  0.36992521641E+02 -0.23351319912E+03  0.64811000688E+03  0.11142050101E+04  0.87493391903E+03 0.  0.
         23    2    4    4    0    0  0.14638175677E+03  0.76054959935E+02  0.73825950091E+03  0.76142619983E+03  0.86780132819E+02 0.  0.
         23    2    4    4    0    0 -0.10938923513E+03 -0.30956815906E+03 -0.90149494025E+02  0.35277881026E+03  0.92344506255E+02 0.  0.
          3    1    3    3  502    0  0.28888682333E+02  0.57739182133E+02  0.13989980217E+03  0.15407895303E+03  0.00000000000E+00 0. -1.
         -4    1    3    3    0  502 -0.65881203974E+02  0.17577401699E+03  0.38556263364E+03  0.42883024911E+03  0.00000000000E+00 0.  1.
         13    1    5    5    0    0  0.15733612808E+03  0.74045808107E+02  0.71151470691E+03  0.73245519798E+03  0.00000000000E+00 0. -1.
        -13    1    5    5    0    0 -0.10954371312E+02  0.20091518282E+01  0.26744794001E+02  0.28971001847E+02  0.00000000000E+00 0.  1.
          2    1    6    6  503    0 -0.12252847998E+03 -0.23271464742E+03 -0.73049214236E+02  0.27295699887E+03  0.00000000000E+00 0. -1.
         -2    1    6    6    0  503  0.13139244850E+02 -0.76853511634E+02 -0.17100279790E+02  0.79821811397E+02  0.00000000000E+00 0.  1.
<mgrwt>
<rscale>  0 0.12259382E+04</rscale>
<asrwt>0</asrwt>
<pdfrwt beam="1">  1        1 0.40272445E-01 0.12259382E+04</pdfrwt>
<pdfrwt beam="2">  1       -2 0.22082205E+00 0.12259382E+04</pdfrwt>
<totfact> 0.88178908E+00</totfact>
</mgrwt>
</event>
<event>
12    5  0.5264288E-008  0.1837912E+04  0.7818608E-02  0.8686394E-01
         -2   -1    0    0    0  501 -0.00000000000E+00  0.00000000000E+00  0.12885333042E+04  0.12885333042E+04  0.00000000000E+00 0.  1.
          1   -1    0    0  501    0  0.00000000000E+00 -0.00000000000E+00 -0.65538082840E+03  0.65538082840E+03  0.00000000000E+00 0. -1.
        -24    2    1    2    0    0  0.38187954291E+03 -0.35857166901E+02 -0.37586384362E+03  0.54231651091E+03  0.75603223174E+02 0.  0.
        254    2    1    2    0    0 -0.38187954291E+03  0.35857166901E+02  0.10090163194E+04  0.14015976217E+04  0.89400460766E+03 0.  0.
         23    2    4    4    0    0 -0.41557626394E+03 -0.29433110857E+03  0.26447008456E+03  0.58124846534E+03  0.92579264449E+02 0.  0.
         23    2    4    4    0    0  0.33696721029E+02  0.33018827547E+03  0.74454623487E+03  0.82034915634E+03  0.91999327116E+02 0.  0.
          1    1    3    3  502    0  0.32828789202E+03 -0.88723702527E+01 -0.33851584284E+03  0.47164036602E+03  0.00000000000E+00 0. -1.
         -2    1    3    3    0  502  0.53591650889E+02 -0.26984796648E+02 -0.37348000785E+02  0.70676144899E+02  0.00000000000E+00 0.  1.
         13    1    5    5    0    0 -0.30641964584E+03 -0.26333813840E+03  0.20185032331E+03  0.45164535591E+03  0.00000000000E+00 0.  1.
        -13    1    5    5    0    0 -0.10915661810E+03 -0.30992970177E+02  0.62619761255E+02  0.12960310943E+03  0.00000000000E+00 0. -1.
          4    1    6    6  503    0 -0.92920162938E+01  0.25962002923E+03  0.60050022373E+03  0.65428542690E+03  0.00000000000E+00 0.  1.
         -4    1    6    6    0  503  0.42988737323E+02  0.70568246240E+02  0.14404601113E+03  0.16606372945E+03  0.00000000000E+00 0. -1.
<mgrwt>
<rscale>  0 0.18379119E+04</rscale>
<asrwt>0</asrwt>
<pdfrwt beam="1">  1        1 0.10082782E+00 0.18379119E+04</pdfrwt>
<pdfrwt beam="2">  1       -2 0.19823589E+00 0.18379119E+04</pdfrwt>
<totfact> 0.33823710E+00</totfact>
</mgrwt>
</event>
<event>
12    5  0.5264288E-008  0.3321288E+04  0.7818608E-02  0.8157500E-01
         -2   -1    0    0    0  501 -0.00000000000E+00  0.00000000000E+00  0.17794533537E+04  0.17794533537E+04  0.00000000000E+00 0.  1.
          1   -1    0    0  501    0  0.00000000000E+00 -0.00000000000E+00 -0.15497674129E+04  0.15497674129E+04  0.00000000000E+00 0. -1.
        -24    2    1    2    0    0 -0.13228754587E+04 -0.75363839479E+03 -0.87263064584E+02  0.15270897813E+04  0.80112723966E+02 0.  0.
        254    2    1    2    0    0  0.13228754587E+04  0.75363839479E+03  0.31694900530E+03  0.18021309853E+04  0.91063115854E+03 0.  0.
         23    2    4    4    0    0  0.13219470134E+04  0.58291522640E+03  0.50684282212E+03  0.15334928258E+04  0.85886745348E+02 0.  0.
         23    2    4    4    0    0  0.92844526242E+00  0.17072316838E+03 -0.18989381682E+03  0.26863815948E+03  0.83423838496E+02 0.  0.
          1    1    3    3  502    0 -0.10563800153E+04 -0.62952959713E+03 -0.49886350842E+02  0.12307456676E+04  0.00000000000E+00 0. -1.
         -2    1    3    3    0  502 -0.26649544335E+03 -0.12410879765E+03 -0.37376713742E+02  0.29634411367E+03  0.00000000000E+00 0.  1.
         13    1    5    5    0    0  0.13209712990E+04  0.57779468083E+03  0.50305091210E+03  0.15270468513E+04  0.00000000000E+00 0.  1.
        -13    1    5    5    0    0  0.97571442880E+00  0.51205455737E+01  0.37919100194E+01  0.64459744968E+01  0.00000000000E+00 0. -1.
          4    1    6    6  503    0 -0.32408027448E+02  0.13513603459E+03 -0.15776719887E+03  0.21024394671E+03  0.00000000000E+00 0.  1.
         -4    1    6    6    0  503  0.33336472710E+02  0.35587133797E+02 -0.32126617941E+02  0.58394212770E+02  0.00000000000E+00 0. -1.
<mgrwt>
<rscale>  0 0.33212882E+04</rscale>
<asrwt>0</asrwt>
<pdfrwt beam="1">  1        1 0.23842576E+00 0.33212882E+04</pdfrwt>
<pdfrwt beam="2">  1       -2 0.27376205E+00 0.33212882E+04</pdfrwt>
<totfact> 0.20207429E-01</totfact>
</mgrwt>
</event>
<event>
12    5  0.5264288E-008  0.1856628E+04  0.7818608E-02  0.8676752E-01
          1   -1    0    0  501    0  0.00000000000E+00  0.00000000000E+00  0.25962191712E+04  0.25962191712E+04  0.00000000000E+00 0. -1.
         -2   -1    0    0    0  501 -0.00000000000E+00 -0.00000000000E+00 -0.33193145733E+03  0.33193145733E+03  0.00000000000E+00 0.  1.
        -24    2    1    2    0    0  0.32531774651E+03 -0.41444039268E+03  0.14324471794E+03  0.55180728755E+03  0.79873387901E+02 0.  0.
        254    2    1    2    0    0 -0.32531774651E+03  0.41444039268E+03  0.21210429959E+04  0.23763433410E+04  0.93305509399E+03 0.  0.
         23    2    4    4    0    0 -0.17496751459E+03  0.96677934076E+02 -0.49919866733E+01  0.21954491254E+03  0.90635504044E+02 0.  0.
         23    2    4    4    0    0 -0.15035023192E+03  0.31776245860E+03  0.21260349826E+04  0.21567984284E+04  0.90424230098E+02 0.  0.
          1    1    3    3  502    0  0.73882510769E+02 -0.10536616356E+03  0.83363278821E+00  0.12869090397E+03  0.00000000000E+00 0. -1.
         -2    1    3    3    0  502  0.25143523574E+03 -0.30907422911E+03  0.14241108516E+03  0.42311638358E+03  0.00000000000E+00 0.  1.
         13    1    5    5    0    0  0.44310338385E+01  0.11871689940E+02  0.15540344417E+02  0.20051767691E+02  0.00000000000E+00 0.  1.
        -13    1    5    5    0    0 -0.17939854843E+03  0.84806244136E+02 -0.20532331091E+02  0.19949314485E+03  0.00000000000E+00 0. -1.
          1    1    6    6  503    0 -0.13658250184E+03  0.30433258752E+03  0.18310452073E+04  0.18611823271E+04  0.00000000000E+00 0. -1.
         -1    1    6    6    0  503 -0.13767730080E+02  0.13429871076E+02  0.29498977532E+03  0.29561610134E+03  0.00000000000E+00 0.  1.
<mgrwt>
<rscale>  0 0.18566279E+04</rscale>
<asrwt>0</asrwt>
<pdfrwt beam="1">  1        1 0.39941832E+00 0.18566279E+04</pdfrwt>
<pdfrwt beam="2">  1       -2 0.51066380E-01 0.18566279E+04</pdfrwt>
<totfact> 0.34743574E+00</totfact>
</mgrwt>
</event>
<event>
12    5  0.5264288E-008  0.2039031E+04  0.7818608E-02  0.8588587E-01
          1   -1    0    0  501    0  0.00000000000E+00  0.00000000000E+00  0.81564737989E+03  0.81564737989E+03  0.00000000000E+00 0. -1.
         -2   -1    0    0    0  501 -0.00000000000E+00 -0.00000000000E+00 -0.12743401788E+04  0.12743401788E+04  0.00000000000E+00 0.  1.
        -24    2    1    2    0    0  0.85098693454E+02  0.52886804951E+03  0.44329720850E+03  0.69999754897E+03  0.80876152734E+02 0.  0.
        254    2    1    2    0    0 -0.85098693454E+02 -0.52886804951E+03 -0.90199000743E+03  0.13899900097E+04  0.91188982460E+03 0.  0.
         23    2    4    4    0    0 -0.18583975871E+03 -0.74453502251E+03 -0.52344567891E+03  0.93361430662E+03  0.93656174858E+02 0.  0.
         23    2    4    4    0    0  0.10074106526E+03  0.21566697300E+03 -0.37854432852E+03  0.45637570311E+03  0.91224822623E+02 0.  0.
          3    1    3    3  502    0  0.56957367800E+02  0.47220362942E+03  0.36623025332E+03  0.60028743768E+03  0.00000000000E+00 0. -1.
         -4    1    3    3    0  502  0.28141325654E+02  0.56664420089E+02  0.77066955183E+02  0.99710111296E+02  0.00000000000E+00 0.  1.
         13    1    5    5    0    0 -0.11841321269E+03 -0.42080688326E+03 -0.35130032054E+03  0.56081372767E+03  0.00000000000E+00 0.  1.
        -13    1    5    5    0    0 -0.67426546018E+02 -0.32372813925E+03 -0.17214535837E+03  0.37280057894E+03  0.00000000000E+00 0. -1.
          1    1    6    6  503    0  0.32671536610E+02  0.85431316759E+02 -0.22956765192E+03  0.24711787875E+03  0.00000000000E+00 0. -1.
         -1    1    6    6    0  503  0.68069528646E+02  0.13023565624E+03 -0.14897667660E+03  0.20925782436E+03  0.00000000000E+00 0.  1.
<mgrwt>
<rscale>  0 0.20390314E+04</rscale>
<asrwt>0</asrwt>
<pdfrwt beam="1">  1        1 0.12548421E+00 0.20390314E+04</pdfrwt>
<pdfrwt beam="2">  1       -2 0.19605234E+00 0.20390314E+04</pdfrwt>
<totfact> 0.24505611E+00</totfact>
</mgrwt>
</event>
<event>
12    5  0.5264288E-008  0.1651231E+04  0.7818608E-02  0.8789679E-01
          1   -1    0    0  501    0  0.00000000000E+00  0.00000000000E+00  0.29239717214E+04  0.29239717214E+04  0.00000000000E+00 0. -1.
         -2   -1    0    0    0  501 -0.00000000000E+00 -0.00000000000E+00 -0.23312157265E+03  0.23312157265E+03  0.00000000000E+00 0.  1.
        -24    2    1    2    0    0  0.15152454249E+03 -0.17432565754E+03 -0.62595816694E+02  0.25267104501E+03  0.81088216566E+02 0.  0.
        254    2    1    2    0    0 -0.15152454249E+03  0.17432565754E+03  0.27534459655E+04  0.29044222490E+04  0.89490490792E+03 0.  0.
         23    2    4    4    0    0 -0.14576328018E+03 -0.34350445738E+03  0.91443477468E+03  0.99171514486E+03  0.89809383227E+02 0.  0.
         23    2    4    4    0    0 -0.57612623127E+01  0.51783011492E+03  0.18390111908E+04  0.19127071042E+04  0.91132247523E+02 0.  0.
          1    1    3    3  502    0  0.10802978449E+03 -0.76452324743E+02 -0.83357404259E+01  0.13260798190E+03  0.00000000000E+00 0. -1.
         -2    1    3    3    0  502  0.43494757997E+02 -0.97873332798E+02 -0.54260076269E+02  0.12006306311E+03  0.00000000000E+00 0.  1.
         13    1    5    5    0    0 -0.10544117440E+03 -0.15560384305E+03  0.38388662093E+03  0.42743342752E+03  0.00000000000E+00 0.  1.
        -13    1    5    5    0    0 -0.40322105774E+02 -0.18790061433E+03  0.53054815375E+03  0.56428171734E+03  0.00000000000E+00 0. -1.
          2    1    6    6  503    0  0.17896740785E+02  0.41552026268E+03  0.15631994569E+04  0.16175815046E+04  0.00000000000E+00 0. -1.
         -2    1    6    6    0  503 -0.23658003098E+02  0.10230985224E+03  0.27581173387E+03  0.29512559956E+03  0.00000000000E+00 0.  1.
<mgrwt>
<rscale>  0 0.16512309E+04</rscale>
<asrwt>0</asrwt>
<pdfrwt beam="1">  1        1 0.44984178E+00 0.16512309E+04</pdfrwt>
<pdfrwt beam="2">  1       -2 0.35864859E-01 0.16512309E+04</pdfrwt>
<totfact> 0.41808432E+00</totfact>
</mgrwt>
</event>
<event>
12    5  0.5264288E-008  0.1237986E+04  0.7818608E-02  0.9080242E-01
         -2   -1    0    0    0  501 -0.00000000000E+00  0.00000000000E+00  0.76356460894E+03  0.76356460894E+03  0.00000000000E+00 0.  1.
          1   -1    0    0  501    0  0.00000000000E+00 -0.00000000000E+00 -0.50179445693E+03  0.50179445693E+03  0.00000000000E+00 0. -1.
        -24    2    1    2    0    0  0.22878700930E+02  0.13286467671E+03 -0.18423993955E+03  0.24184366694E+03  0.79796908706E+02 0.  0.
        254    2    1    2    0    0 -0.22878700930E+02 -0.13286467671E+03  0.44601009156E+03  0.10235153989E+04  0.91130802301E+03 0.  0.
         23    2    4    4    0    0  0.18271801853E+03 -0.22429372109E+03 -0.17946837803E+03  0.35253151699E+03  0.91520621402E+02 0.  0.
         23    2    4    4    0    0 -0.20559671946E+03  0.91429044383E+02  0.62547846959E+03  0.67098388194E+03  0.91470064480E+02 0.  0.
          3    1    3    3  502    0  0.35835767386E+02  0.13652007847E+03 -0.17753016108E+03  0.22680143770E+03  0.00000000000E+00 0. -1.
         -4    1    3    3    0  502 -0.12957066456E+02 -0.36554017655E+01 -0.67097784674E+01  0.15042229233E+02  0.00000000000E+00 0.  1.
         13    1    5    5    0    0  0.18347772598E+03 -0.18228551995E+03 -0.16987744604E+03  0.30943566922E+03  0.00000000000E+00 0. -1.
        -13    1    5    5    0    0 -0.75970744849E+00 -0.42008201140E+02 -0.95909319934E+01  0.43095847769E+02  0.00000000000E+00 0.  1.
          2    1    6    6  503    0 -0.15461701114E+03  0.10780967290E+03  0.46253808377E+03  0.49947054432E+03  0.00000000000E+00 0. -1.
         -2    1    6    6    0  503 -0.50979708321E+02 -0.16380628522E+02  0.16294038582E+03  0.17151333762E+03  0.00000000000E+00 0.  1.
<mgrwt>
<rscale>  0 0.12379862E+04</rscale>
<asrwt>0</asrwt>
<pdfrwt beam="1">  1        1 0.77199147E-01 0.12379862E+04</pdfrwt>
<pdfrwt beam="2">  1       -2 0.11747148E+00 0.12379862E+04</pdfrwt>
<totfact> 0.21301576E+01</totfact>
</mgrwt>
</event>
<event>
12    5  0.5264288E-008  0.1444296E+04  0.7818608E-02  0.8922364E-01
          1   -1    0    0  501    0  0.00000000000E+00  0.00000000000E+00  0.18112360720E+04  0.18112360720E+04  0.00000000000E+00 0. -1.
         -2   -1    0    0    0  501 -0.00000000000E+00 -0.00000000000E+00 -0.28792370567E+03  0.28792370567E+03  0.00000000000E+00 0.  1.
        -24    2    1    2    0    0 -0.41695307876E+03 -0.12549332490E+03  0.41637882404E+03  0.60782768630E+03  0.80527800441E+02 0.  0.
        254    2    1    2    0    0  0.41695307876E+03  0.12549332490E+03  0.11069335423E+04  0.14913320914E+04  0.89953937947E+03 0.  0.
         23    2    4    4    0    0  0.59161666386E+03  0.19687605818E+03  0.38325977737E+03  0.73763988746E+03  0.91946111315E+02 0.  0.
         23    2    4    4    0    0 -0.17466358510E+03 -0.71382733281E+02  0.72367376491E+03  0.75369220390E+03  0.93516616814E+02 0.  0.
          3    1    3    3  502    0 -0.34804678712E+03 -0.12529143918E+03  0.37830394383E+03  0.52910148806E+03  0.00000000000E+00 0. -1.
         -4    1    3    3    0  502 -0.68906291640E+02 -0.20188571546E+00  0.38074880209E+02  0.78726198233E+02  0.00000000000E+00 0.  1.
         13    1    5    5    0    0  0.42939408120E+03  0.15403087681E+03  0.32464903798E+03  0.55991230192E+03  0.00000000000E+00 0. -1.
        -13    1    5    5    0    0  0.16222258266E+03  0.42845181373E+02  0.58610739393E+02  0.17772758554E+03  0.00000000000E+00 0.  1.
          4    1    6    6  503    0 -0.67919191885E+02 -0.49811012778E+02  0.17374424109E+03  0.19308344034E+03  0.00000000000E+00 0. -1.
         -4    1    6    6    0  503 -0.10674439322E+03 -0.21571720504E+02  0.54992952382E+03  0.56060876356E+03  0.00000000000E+00 0.  1.
<mgrwt>
<rscale>  0 0.14442961E+04</rscale>
<asrwt>0</asrwt>
<pdfrwt beam="1">  1        1 0.27865170E+00 0.14442961E+04</pdfrwt>
<pdfrwt beam="2">  1       -2 0.44295956E-01 0.14442961E+04</pdfrwt>
<totfact> 0.16506390E+01</totfact>
</mgrwt>
</event>
<event>
12    5  0.5264288E-008  0.2416968E+04  0.7818608E-02  0.8433178E-01
         -2   -1    0    0    0  501 -0.00000000000E+00  0.00000000000E+00  0.85551964457E+03  0.85551964457E+03  0.00000000000E+00 0.  1.
          1   -1    0    0  501    0  0.00000000000E+00 -0.00000000000E+00 -0.17070712909E+04  0.17070712909E+04  0.00000000000E+00 0. -1.
        -24    2    1    2    0    0  0.32478246297E+03 -0.45233509588E+03 -0.12981010207E+04  0.14147541353E+04  0.79826789514E+02 0.  0.
        254    2    1    2    0    0 -0.32478246297E+03  0.45233509588E+03  0.44654937430E+03  0.11478368002E+04  0.89890616248E+03 0.  0.
         23    2    4    4    0    0  0.39069272980E+02 -0.22910565510E+03  0.10577282238E+01  0.25055624620E+03  0.93602908242E+02 0.  0.
         23    2    4    4    0    0 -0.36385173595E+03  0.68144075098E+03  0.44549164608E+03  0.89728055399E+03  0.99498758698E+02 0.  0.
          1    1    3    3  502    0  0.11155775370E+03 -0.21568860059E+03 -0.60730090684E+03  0.65404976590E+03  0.00000000000E+00 0. -1.
         -4    1    3    3    0  502  0.21322470927E+03 -0.23664649530E+03 -0.69080011382E+03  0.76070436941E+03  0.00000000000E+00 0.  1.
         13    1    5    5    0    0  0.65110546953E+02 -0.18927138562E+03 -0.13981783683E+02  0.20064528654E+03  0.00000000000E+00 0.  1.
        -13    1    5    5    0    0 -0.26041273973E+02 -0.39834269483E+02  0.15039511906E+02  0.49910959656E+02  0.00000000000E+00 0. -1.
          4    1    6    6  503    0 -0.95494237796E+01  0.31356230588E+00 -0.14398996813E+00  0.95556553387E+01  0.00000000000E+00 0. -1.
         -4    1    6    6    0  503 -0.35430231217E+03  0.68112718868E+03  0.44563563605E+03  0.88772489865E+03  0.00000000000E+00 0.  1.
<mgrwt>
<rscale>  0 0.24169675E+04</rscale>
<asrwt>0</asrwt>
<pdfrwt beam="1">  1        1 0.26262635E+00 0.24169675E+04</pdfrwt>
<pdfrwt beam="2">  1       -2 0.13161841E+00 0.24169675E+04</pdfrwt>
<totfact> 0.15591431E+00</totfact>
</mgrwt>
</event>
<event>
12    5  0.5264288E-008  0.1765503E+04  0.7818608E-02  0.8724863E-01
         -2   -1    0    0    0  501 -0.00000000000E+00  0.00000000000E+00  0.20139061805E+04  0.20139061805E+04  0.00000000000E+00 0.  1.
          1   -1    0    0  501    0  0.00000000000E+00 -0.00000000000E+00 -0.38693468859E+03  0.38693468859E+03  0.00000000000E+00 0. -1.
        -24    2    1    2    0    0 -0.11947323259E+03  0.52347585084E+03  0.11054519831E+03  0.55441365618E+03  0.82785515441E+02 0.  0.
        254    2    1    2    0    0  0.11947323259E+03 -0.52347585084E+03  0.15164262936E+04  0.18464272129E+04  0.90633543954E+03 0.  0.
         23    2    4    4    0    0  0.53429584754E+02 -0.20492376827E+03  0.14891244953E+04  0.15068053909E+04  0.90123537690E+02 0.  0.
         23    2    4    4    0    0  0.66043647839E+02 -0.31855208257E+03  0.27301798294E+02  0.33962182206E+03  0.93597014392E+02 0.  0.
          3    1    3    3  502    0 -0.90217928625E+02  0.44789712514E+03  0.12114299134E+03  0.47268037161E+03  0.00000000000E+00 0. -1.
         -4    1    3    3    0  502 -0.29255303968E+02  0.75578725702E+02 -0.10597793036E+02  0.81733284568E+02  0.00000000000E+00 0.  1.
         13    1    5    5    0    0  0.48580736631E+02 -0.17612560639E+03  0.98270852816E+03  0.99954808214E+03  0.00000000000E+00 0. -1.
        -13    1    5    5    0    0  0.48488481225E+01 -0.28798161882E+02  0.50641596718E+03  0.50725730874E+03  0.00000000000E+00 0.  1.
          2    1    6    6  503    0  0.70430084582E+02 -0.14034366134E+03 -0.10573249452E+02  0.15738022016E+03  0.00000000000E+00 0. -1.
         -2    1    6    6    0  503 -0.43864367431E+01 -0.17820842122E+03  0.37875047746E+02  0.18224160190E+03  0.00000000000E+00 0.  1.
<mgrwt>
<rscale>  0 0.17655029E+04</rscale>
<asrwt>0</asrwt>
<pdfrwt beam="1">  1        1 0.59528415E-01 0.17655029E+04</pdfrwt>
<pdfrwt beam="2">  1       -2 0.30983172E+00 0.17655029E+04</pdfrwt>
<totfact> 0.14388881E+00</totfact>
</mgrwt>
</event>
<event>
12    5  0.5264288E-008  0.1720192E+04  0.7818608E-02  0.8749931E-01
         -2   -1    0    0    0  501 -0.00000000000E+00  0.00000000000E+00  0.12302756627E+04  0.12302756627E+04  0.00000000000E+00 0.  1.
          1   -1    0    0  501    0  0.00000000000E+00 -0.00000000000E+00 -0.60130028548E+03  0.60130028548E+03  0.00000000000E+00 0. -1.
        -24    2    1    2    0    0 -0.36497338436E+03 -0.25731774952E+03 -0.23143595122E+03  0.50883382779E+03  0.77014734161E+02 0.  0.
        254    2    1    2    0    0  0.36497338436E+03  0.25731774952E+03  0.86041132848E+03  0.13227421204E+04  0.89995614755E+03 0.  0.
         23    2    4    4    0    0  0.32657812447E+03 -0.10882926884E+03  0.87413443483E+03  0.94380461466E+03  0.90327511634E+02 0.  0.
         23    2    4    4    0    0  0.38395259891E+02  0.36614701836E+03 -0.13723106352E+02  0.37893750578E+03  0.88698785790E+02 0.  0.
          3    1    3    3  502    0 -0.30414213956E+03 -0.23658244116E+03 -0.17458434108E+03  0.42302882251E+03  0.00000000000E+00 0. -1.
         -4    1    3    3    0  502 -0.60831244802E+02 -0.20735308363E+02 -0.56851610133E+02  0.85805005284E+02  0.00000000000E+00 0.  1.
         13    1    5    5    0    0  0.28581911768E+03 -0.10368935575E+03  0.67265292890E+03  0.73817749444E+03  0.00000000000E+00 0.  1.
        -13    1    5    5    0    0  0.40759006785E+02 -0.51399130912E+01  0.20148150593E+03  0.20562712023E+03  0.00000000000E+00 0. -1.
          2    1    6    6  503    0  0.40387749175E+02  0.71486400425E+02 -0.18779591215E+02  0.84226769945E+02  0.00000000000E+00 0. -1.
         -2    1    6    6    0  503 -0.19924892841E+01  0.29466061794E+03  0.50564848627E+01  0.29471073584E+03  0.00000000000E+00 0.  1.
<mgrwt>
<rscale>  0 0.17201920E+04</rscale>
<asrwt>0</asrwt>
<pdfrwt beam="1">  1        1 0.92507737E-01 0.17201920E+04</pdfrwt>
<pdfrwt beam="2">  1       -2 0.18927318E+00 0.17201920E+04</pdfrwt>
<totfact> 0.44464947E+00</totfact>
</mgrwt>
</event>
<event>
12    5  0.5264288E-008  0.1650321E+04  0.7818608E-02  0.8790217E-01
         -2   -1    0    0    0  501 -0.00000000000E+00  0.00000000000E+00  0.58306479350E+03  0.58306479350E+03  0.00000000000E+00 0.  1.
          1   -1    0    0  501    0  0.00000000000E+00 -0.00000000000E+00 -0.11677774672E+04  0.11677774672E+04  0.00000000000E+00 0. -1.
        -24    2    1    2    0    0  0.11764029818E+03  0.43975702286E+03 -0.41110294008E+03  0.61927078605E+03  0.85236143773E+02 0.  0.
        254    2    1    2    0    0 -0.11764029818E+03 -0.43975702286E+03 -0.17360973358E+03  0.11315714746E+04  0.10213168870E+04 0.  0.
         23    2    4    4    0    0  0.63863882354E+02 -0.73656882596E+03 -0.19980065972E+03  0.77112570051E+03  0.90012840796E+02 0.  0.
         23    2    4    4    0    0 -0.18150418054E+03  0.29681180310E+03  0.26190926138E+02  0.36044577410E+03  0.90521695986E+02 0.  0.
          3    1    3    3  502    0  0.12343643325E+03  0.43060249888E+03 -0.41172463121E+03  0.60841781453E+03  0.00000000000E+00 0. -1.
         -4    1    3    3    0  502 -0.57961350635E+01  0.91545239846E+01  0.62169113017E+00  0.10852971525E+02  0.00000000000E+00 0.  1.
         13    1    5    5    0    0 -0.10650369836E+02 -0.10949934419E+03 -0.44008098131E+01  0.11010405934E+03  0.00000000000E+00 0. -1.
        -13    1    5    5    0    0  0.74514252189E+02 -0.62706948177E+03 -0.19539984991E+03  0.66102164117E+03  0.00000000000E+00 0.  1.
          4    1    6    6  503    0  0.76184668988E+01  0.12458714185E+00  0.12774243032E+01  0.77258250494E+01  0.00000000000E+00 0. -1.
         -4    1    6    6    0  503 -0.18912264743E+03  0.29668721596E+03  0.24913501834E+02  0.35271994905E+03  0.00000000000E+00 0.  1.
<mgrwt>
<rscale>  0 0.16503211E+04</rscale>
<asrwt>0</asrwt>
<pdfrwt beam="1">  1        1 0.17965807E+00 0.16503211E+04</pdfrwt>
<pdfrwt beam="2">  1       -2 0.89702276E-01 0.16503211E+04</pdfrwt>
<totfact> 0.10071596E+01</totfact>
</mgrwt>
</event>
<event>
12    5  0.5264288E-008  0.1615811E+04  0.7818608E-02  0.8810893E-01
          1   -1    0    0  501    0  0.00000000000E+00  0.00000000000E+00  0.13432159596E+04  0.13432159596E+04  0.00000000000E+00 0. -1.
         -2   -1    0    0    0  501 -0.00000000000E+00 -0.00000000000E+00 -0.48593172223E+03  0.48593172223E+03  0.00000000000E+00 0.  1.
        -24    2    1    2    0    0 -0.34775822780E+03  0.11701909936E+03  0.75786605539E+03  0.84583008396E+03  0.80239132566E+02 0.  0.
        254    2    1    2    0    0  0.34775822780E+03 -0.11701909936E+03  0.99418182012E+02  0.98331759791E+03  0.90686287212E+03 0.  0.
         23    2    4    4    0    0  0.11099615953E+03 -0.48698605655E+02  0.48987416079E+03  0.51251063934E+03  0.89435789263E+02 0.  0.
         23    2    4    4    0    0  0.23676206827E+03 -0.68320493709E+02 -0.39045597878E+03  0.47080695857E+03  0.92083408070E+02 0.  0.
          1    1    3    3  502    0 -0.27397383209E+03  0.11058571387E+03  0.53747935587E+03  0.61333100261E+03  0.00000000000E+00 0. -1.
         -2    1    3    3    0  502 -0.73784395716E+02  0.64333854900E+01  0.22038669952E+03  0.23249908135E+03  0.00000000000E+00 0.  1.
         13    1    5    5    0    0 -0.12921239607E+02 -0.23670532959E+01  0.17029250377E+02  0.21507132367E+02  0.00000000000E+00 0. -1.
        -13    1    5    5    0    0  0.12391739914E+03 -0.46331552359E+02  0.47284491041E+03  0.49100350697E+03  0.00000000000E+00 0.  1.
          3    1    6    6  503    0  0.13187667513E+03 -0.68191183236E+02 -0.16386415086E+03  0.22111751367E+03  0.00000000000E+00 0. -1.
         -3    1    6    6    0  503  0.10488539314E+03 -0.12931047230E+00 -0.22659182792E+03  0.24968944490E+03  0.00000000000E+00 0.  1.
<mgrwt>
<rscale>  0 0.16158109E+04</rscale>
<asrwt>0</asrwt>
<pdfrwt beam="1">  1        1 0.20664861E+00 0.16158109E+04</pdfrwt>
<pdfrwt beam="2">  1       -2 0.74758727E-01 0.16158109E+04</pdfrwt>
<totfact> 0.11392848E+01</totfact>
</mgrwt>
</event>
<event>
12    5  0.5264288E-008  0.3427911E+04  0.7818608E-02  0.8131090E-01
         -2   -1    0    0    0  501 -0.00000000000E+00  0.00000000000E+00  0.18216054815E+04  0.18216054815E+04  0.00000000000E+00 0.  1.
          1   -1    0    0  501    0  0.00000000000E+00 -0.00000000000E+00 -0.16126669470E+04  0.16126669470E+04  0.00000000000E+00 0. -1.
        -24    2    1    2    0    0  0.11532964107E+04 -0.45822676286E+03 -0.90357155252E+03  0.15371704963E+04  0.79920004063E+02 0.  0.
        254    2    1    2    0    0 -0.11532964107E+04  0.45822676286E+03  0.11125100870E+04  0.18971019321E+04  0.90622992121E+03 0.  0.
         23    2    4    4    0    0 -0.49483896522E+03  0.77081096038E+02 -0.42249711048E+02  0.51127314328E+03  0.93851436270E+02 0.  0.
         23    2    4    4    0    0 -0.65845744546E+03  0.38114566682E+03  0.11547597981E+04  0.13858287889E+04  0.90625680430E+02 0.  0.
          3    1    3    3  502    0  0.11019185975E+04 -0.45437969905E+03 -0.87026396350E+03  0.14758200679E+04  0.00000000000E+00 0. -1.
         -4    1    3    3    0  502  0.51377813132E+02 -0.38470638125E+01 -0.33307589018E+02  0.61350428428E+02  0.00000000000E+00 0.  1.
         13    1    5    5    0    0 -0.42648837670E+03  0.90242843073E+02 -0.58377903229E+02  0.43982278905E+03  0.00000000000E+00 0.  1.
        -13    1    5    5    0    0 -0.68350588519E+02 -0.13161747035E+02  0.16128192181E+02  0.71450354225E+02  0.00000000000E+00 0. -1.
          1    1    6    6  503    0 -0.36232490113E+03  0.25312847847E+03  0.71116247933E+03  0.83732038826E+03  0.00000000000E+00 0. -1.
         -1    1    6    6    0  503 -0.29613254434E+03  0.12801718836E+03  0.44359731875E+03  0.54850840060E+03  0.00000000000E+00 0.  1.
<mgrwt>
<rscale>  0 0.34279107E+04</rscale>
<asrwt>0</asrwt>
<pdfrwt beam="1">  1        1 0.24810261E+00 0.34279107E+04</pdfrwt>
<pdfrwt beam="2">  1       -2 0.28024700E+00 0.34279107E+04</pdfrwt>
<totfact> 0.16550334E-01</totfact>
</mgrwt>
</event>
<event>
12    5  0.5264288E-008  0.1519699E+04  0.7818608E-02  0.8871458E-01
          1   -1    0    0  501    0  0.00000000000E+00  0.00000000000E+00  0.65368954875E+03  0.65368954875E+03  0.00000000000E+00 0. -1.
         -2   -1    0    0    0  501 -0.00000000000E+00 -0.00000000000E+00 -0.88324955912E+03  0.88324955912E+03  0.00000000000E+00 0.  1.
        -24    2    1    2    0    0  0.41302630623E+03  0.18258156283E+03  0.11707656643E+03  0.47351605207E+03  0.81140448820E+02 0.  0.
        254    2    1    2    0    0 -0.41302630623E+03 -0.18258156283E+03 -0.34663657680E+03  0.10634230558E+04  0.89821206990E+03 0.  0.
         23    2    4    4    0    0  0.97774100188E+02 -0.40117549965E+03 -0.47661572170E+02  0.42592107583E+03  0.92927827866E+02 0.  0.
         23    2    4    4    0    0 -0.51080040642E+03  0.21859393682E+03 -0.29897500463E+03  0.63750197997E+03  0.91226951434E+02 0.  0.
          3    1    3    3  502    0  0.31212150723E+03  0.11318346599E+03  0.11391818533E+03  0.35100952295E+03  0.00000000000E+00 0. -1.
         -4    1    3    3    0  502  0.10090479900E+03  0.69398096838E+02  0.31583810949E+01  0.12250652912E+03  0.00000000000E+00 0.  1.
         13    1    5    5    0    0  0.97568727428E+02 -0.38131128057E+03 -0.65755034980E+02  0.39905096653E+03  0.00000000000E+00 0.  1.
        -13    1    5    5    0    0  0.20537275936E+00 -0.19864219073E+02  0.18093462810E+02  0.26870109300E+02  0.00000000000E+00 0. -1.
          3    1    6    6  503    0 -0.41719764216E+02  0.32855600795E+02 -0.57186647875E+02  0.78040642777E+02  0.00000000000E+00 0. -1.
         -3    1    6    6    0  503 -0.46908064220E+03  0.18573833602E+03 -0.24178835676E+03  0.55946133720E+03  0.00000000000E+00 0.  1.
<mgrwt>
<rscale>  0 0.15196987E+04</rscale>
<asrwt>0</asrwt>
<pdfrwt beam="1">  1        1 0.10056762E+00 0.15196987E+04</pdfrwt>
<pdfrwt beam="2">  1       -2 0.13588455E+00 0.15196987E+04</pdfrwt>
<totfact> 0.99019554E+00</totfact>
</mgrwt>
</event>
<event>
12    5  0.5264288E-008  0.1397813E+04  0.7818608E-02  0.8955403E-01
          1   -1    0    0  501    0  0.00000000000E+00  0.00000000000E+00  0.86845664344E+03  0.86845664344E+03  0.00000000000E+00 0. -1.
         -2   -1    0    0    0  501 -0.00000000000E+00 -0.00000000000E+00 -0.56245770949E+03  0.56245770949E+03  0.00000000000E+00 0.  1.
        -24    2    1    2    0    0 -0.92953344610E+02  0.22407367696E+03 -0.23814084287E+03  0.34928399816E+03  0.80242839860E+02 0.  0.
        254    2    1    2    0    0  0.92953344610E+02 -0.22407367696E+03  0.54413977682E+03  0.10816303548E+04  0.90276618827E+03 0.  0.
         23    2    4    4    0    0 -0.37537849225E+03  0.30149540884E+02  0.15951602713E+03  0.41886330960E+03  0.90460499437E+02 0.  0.
         23    2    4    4    0    0  0.46833183686E+03 -0.25422321784E+03  0.38462374969E+03  0.66276704518E+03  0.85793784388E+02 0.  0.
          1    1    3    3  502    0 -0.78987496054E+02  0.86174705851E+02 -0.10717036806E+03  0.15858938253E+03  0.00000000000E+00 0. -1.
         -2    1    3    3    0  502 -0.13965848556E+02  0.13789897111E+03 -0.13097047481E+03  0.19069461563E+03  0.00000000000E+00 0.  1.
         13    1    5    5    0    0 -0.30875247411E+03  0.25900867803E+01  0.97588819123E+02  0.32381843128E+03  0.00000000000E+00 0.  1.
        -13    1    5    5    0    0 -0.66626018141E+02  0.27559454104E+02  0.61927208003E+02  0.95044878320E+02  0.00000000000E+00 0. -1.
          1    1    6    6  503    0  0.31420666748E+03 -0.17122632629E+03  0.20705253693E+03  0.41341871964E+03  0.00000000000E+00 0. -1.
         -1    1    6    6    0  503  0.15412516938E+03 -0.82996891554E+02  0.17757121277E+03  0.24934832553E+03  0.00000000000E+00 0.  1.
<mgrwt>
<rscale>  0 0.13978128E+04</rscale>
<asrwt>0</asrwt>
<pdfrwt beam="1">  1        1 0.13360872E+00 0.13978128E+04</pdfrwt>
<pdfrwt beam="2">  1       -2 0.86531955E-01 0.13978128E+04</pdfrwt>
<totfact> 0.19105460E+01</totfact>
</mgrwt>
</event>
<event>
12    5  0.5264288E-008  0.1797199E+04  0.7818608E-02  0.8707791E-01
          1   -1    0    0  501    0  0.00000000000E+00  0.00000000000E+00  0.12595792742E+04  0.12595792742E+04  0.00000000000E+00 0. -1.
         -2   -1    0    0    0  501 -0.00000000000E+00 -0.00000000000E+00 -0.64107173162E+03  0.64107173162E+03  0.00000000000E+00 0.  1.
        -24    2    1    2    0    0  0.27985060387E+03  0.30449483725E+03 -0.31966508885E+03  0.52960113311E+03  0.85194628713E+02 0.  0.
        254    2    1    2    0    0 -0.27985060387E+03 -0.30449483725E+03  0.93817263141E+03  0.13710498727E+04  0.91026172099E+03 0.  0.
         23    2    4    4    0    0 -0.17904634770E+03  0.13726774902E+03  0.87056434649E+03  0.90376810991E+03  0.89523659267E+02 0.  0.
         23    2    4    4    0    0 -0.10080425617E+03 -0.44176258627E+03  0.67608284920E+02  0.46728176278E+03  0.92009156876E+02 0.  0.
          3    1    3    3  502    0  0.17520234984E+02  0.75669936941E+00 -0.17934623321E+01  0.17628038319E+02  0.00000000000E+00 0. -1.
         -4    1    3    3    0  502  0.26233036888E+03  0.30373813788E+03 -0.31787162652E+03  0.51197309479E+03  0.00000000000E+00 0.  1.
         13    1    5    5    0    0 -0.10619966961E+03  0.78499292831E+02  0.66374934316E+03  0.67675970576E+03  0.00000000000E+00 0. -1.
        -13    1    5    5    0    0 -0.72846678086E+02  0.58768456193E+02  0.20681500333E+03  0.22700840415E+03  0.00000000000E+00 0.  1.
          2    1    6    6  503    0 -0.56584350860E+02 -0.39004083243E+03  0.62419768477E+02  0.39903617282E+03  0.00000000000E+00 0. -1.
         -2    1    6    6    0  503 -0.44219905310E+02 -0.51721753840E+02  0.51885164429E+01  0.68245589959E+02  0.00000000000E+00 0.  1.
<mgrwt>
<rscale>  0 0.17971986E+04</rscale>
<asrwt>0</asrwt>
<pdfrwt beam="1">  1        1 0.19378143E+00 0.17971986E+04</pdfrwt>
<pdfrwt beam="2">  1       -2 0.98626420E-01 0.17971986E+04</pdfrwt>
<totfact> 0.68344766E+00</totfact>
</mgrwt>
</event>
<event>
12    5  0.5264288E-008  0.1710083E+04  0.7818608E-02  0.8755634E-01
         -2   -1    0    0    0  501 -0.00000000000E+00  0.00000000000E+00  0.82782704962E+03  0.82782704962E+03  0.00000000000E+00 0.  1.
          1   -1    0    0  501    0  0.00000000000E+00 -0.00000000000E+00 -0.88315077455E+03  0.88315077455E+03  0.00000000000E+00 0. -1.
        -24    2    1    2    0    0  0.38935811483E+03  0.28044428360E+03 -0.39682757334E+03  0.62651335583E+03  0.69268494128E+02 0.  0.
        254    2    1    2    0    0 -0.38935811483E+03 -0.28044428360E+03  0.34150384841E+03  0.10844644683E+04  0.91059846631E+03 0.  0.
         23    2    4    4    0    0  0.33535173426E+02 -0.50537031323E+03  0.52493892355E+02  0.51743234570E+03  0.91961199921E+02 0.  0.
         23    2    4    4    0    0 -0.42289328826E+03  0.22492602963E+03  0.28900995605E+03  0.56703212265E+03  0.92564687455E+02 0.  0.
          1    1    3    3  502    0  0.15314702586E+03  0.10170958921E+03 -0.11028493014E+03  0.21438660846E+03  0.00000000000E+00 0. -1.
         -2    1    3    3    0  502  0.23621108897E+03  0.17873469439E+03 -0.28654264320E+03  0.41212674737E+03  0.00000000000E+00 0.  1.
         13    1    5    5    0    0  0.18104326487E+01 -0.60611124343E+01  0.14328532382E+02  0.15662745307E+02  0.00000000000E+00 0.  1.
        -13    1    5    5    0    0  0.31724740777E+02 -0.49930920079E+03  0.38165359973E+02  0.50176960039E+03  0.00000000000E+00 0. -1.
          4    1    6    6  503    0 -0.68847780316E+02  0.22324179071E+02  0.10568813346E+02  0.73144279620E+02  0.00000000000E+00 0.  1.
         -4    1    6    6    0  503 -0.35404550795E+03  0.20260185056E+03  0.27844114270E+03  0.49388784303E+03  0.00000000000E+00 0. -1.
<mgrwt>
<rscale>  0 0.17100832E+04</rscale>
<asrwt>0</asrwt>
<pdfrwt beam="1">  1        1 0.13586935E+00 0.17100832E+04</pdfrwt>
<pdfrwt beam="2">  1       -2 0.12735801E+00 0.17100832E+04</pdfrwt>
<totfact> 0.71598835E+00</totfact>
</mgrwt>
</event>
<event>
12    5  0.5264288E-008  0.1052811E+04  0.7818608E-02  0.9252446E-01
          1   -1    0    0  501    0  0.00000000000E+00  0.00000000000E+00  0.56227147356E+03  0.56227147356E+03  0.00000000000E+00 0. -1.
         -2   -1    0    0    0  501 -0.00000000000E+00 -0.00000000000E+00 -0.49282763901E+03  0.49282763901E+03  0.00000000000E+00 0.  1.
        -24    2    1    2    0    0  0.52123940577E+02 -0.16133971143E+03  0.21606466099E+03  0.28574645966E+03  0.78865035423E+02 0.  0.
        254    2    1    2    0    0 -0.52123940577E+02  0.16133971143E+03 -0.14662082644E+03  0.76935265291E+03  0.73597447655E+03 0.  0.
         23    2    4    4    0    0  0.27704517932E+03 -0.10554565432E+03 -0.13024326839E+03  0.33542229789E+03  0.87469379936E+02 0.  0.
         23    2    4    4    0    0 -0.32916911990E+03  0.26688536575E+03 -0.16377558049E+02  0.43393035502E+03  0.91908762669E+02 0.  0.
          3    1    3    3  502    0  0.56241894502E+02 -0.57698852431E+02  0.11884599716E+03  0.14358509432E+03  0.00000000000E+00 0. -1.
         -4    1    3    3    0  502 -0.41179539254E+01 -0.10364085900E+03  0.97218663833E+02  0.14216136534E+03  0.00000000000E+00 0.  1.
         13    1    5    5    0    0  0.99280039597E+02  0.56093953144E+01 -0.40756608028E+02  0.10746670497E+03  0.00000000000E+00 0. -1.
        -13    1    5    5    0    0  0.17776513973E+03 -0.11115504964E+03 -0.89486660362E+02  0.22795559292E+03  0.00000000000E+00 0.  1.
          1    1    6    6  503    0 -0.53602334921E+02  0.26683045344E+02 -0.32281970411E+02  0.68024413496E+02  0.00000000000E+00 0. -1.
         -1    1    6    6    0  503 -0.27556678498E+03  0.24020232041E+03  0.15904412362E+02  0.36590594153E+03  0.00000000000E+00 0.  1.
<mgrwt>
<rscale>  0 0.10528113E+04</rscale>
<asrwt>0</asrwt>
<pdfrwt beam="1">  1        1 0.86503304E-01 0.10528113E+04</pdfrwt>
<pdfrwt beam="2">  1       -2 0.75819637E-01 0.10528113E+04</pdfrwt>
<totfact> 0.51275286E+01</totfact>
</mgrwt>
</event>
<event>
12    5  0.5264288E-008  0.1442068E+04  0.7818608E-02  0.8923918E-01
          1   -1    0    0  501    0  0.00000000000E+00  0.00000000000E+00  0.50954609578E+03  0.50954609578E+03  0.00000000000E+00 0. -1.
         -2   -1    0    0    0  501 -0.00000000000E+00 -0.00000000000E+00 -0.10203002907E+04  0.10203002907E+04  0.00000000000E+00 0.  1.
        -24    2    1    2    0    0  0.95912386488E+02 -0.35420150800E+03  0.98068238593E+02  0.38800582307E+03  0.79203820396E+02 0.  0.
        254    2    1    2    0    0 -0.95912386488E+02  0.35420150800E+03 -0.60882243352E+03  0.11418405634E+04  0.89357552706E+03 0.  0.
         23    2    4    4    0    0 -0.44627891877E+03  0.17022621796E+01 -0.22860526308E+03  0.50987907679E+03  0.92458291150E+02 0.  0.
         23    2    4    4    0    0  0.35036653228E+03  0.35249924582E+03 -0.38021717044E+03  0.63196148663E+03  0.88305145057E+02 0.  0.
          3    1    3    3  502    0  0.10147788236E+03 -0.31943029413E+03  0.68649086868E+02  0.34212011128E+03  0.00000000000E+00 0. -1.
         -4    1    3    3    0  502 -0.55654958686E+01 -0.34771213871E+02  0.29419151725E+02  0.45885711791E+02  0.00000000000E+00 0.  1.
         13    1    5    5    0    0 -0.26492089576E+03 -0.87585572883E+01 -0.18446098516E+03  0.32293288526E+03  0.00000000000E+00 0. -1.
        -13    1    5    5    0    0 -0.18135802301E+03  0.10460819468E+02 -0.44144277924E+02  0.18694619153E+03  0.00000000000E+00 0.  1.
          4    1    6    6  503    0  0.17546565851E+02  0.70662786173E+01  0.14428380205E+01  0.18970926393E+02  0.00000000000E+00 0. -1.
         -4    1    6    6    0  503  0.33281996643E+03  0.34543296720E+03 -0.38166000846E+03  0.61299056024E+03  0.00000000000E+00 0.  1.
<mgrwt>
<rscale>  0 0.14420680E+04</rscale>
<asrwt>0</asrwt>
<pdfrwt beam="1">  1        1 0.78391708E-01 0.14420680E+04</pdfrwt>
<pdfrwt beam="2">  1       -2 0.15696927E+00 0.14420680E+04</pdfrwt>
<totfact> 0.97280241E+00</totfact>
</mgrwt>
</event>
<event>
12    5  0.5264288E-008  0.1863919E+04  0.7818608E-02  0.8673028E-01
          1   -1    0    0  501    0  0.00000000000E+00  0.00000000000E+00  0.14670839085E+04  0.14670839085E+04  0.00000000000E+00 0. -1.
         -2   -1    0    0    0  501 -0.00000000000E+00 -0.00000000000E+00 -0.59202372231E+03  0.59202372231E+03  0.00000000000E+00 0.  1.
        -24    2    1    2    0    0  0.33969721469E+03  0.56665121734E+03  0.63254280746E+03  0.91853367899E+03  0.84296597714E+02 0.  0.
        254    2    1    2    0    0 -0.33969721469E+03 -0.56665121734E+03  0.24251737872E+03  0.11405739518E+04  0.89755582600E+03 0.  0.
         23    2    4    4    0    0 -0.50648516882E+02 -0.66924784086E+03  0.39726283111E+03  0.78523885630E+03  0.91237929134E+02 0.  0.
         23    2    4    4    0    0 -0.28904869780E+03  0.10259662352E+03 -0.15474545238E+03  0.35533509551E+03  0.90783578952E+02 0.  0.
          1    1    3    3  502    0  0.75789300606E+02  0.15176034570E+03  0.21198756446E+03  0.27150312724E+03  0.00000000000E+00 0. -1.
         -2    1    3    3    0  502  0.26390791408E+03  0.41489087164E+03  0.42055524300E+03  0.64703055175E+03  0.00000000000E+00 0.  1.
         13    1    5    5    0    0 -0.23525799636E+02 -0.51910107388E+03  0.26494761678E+03  0.58328091670E+03  0.00000000000E+00 0. -1.
        -13    1    5    5    0    0 -0.27122717246E+02 -0.15014676698E+03  0.13231521433E+03  0.20195793960E+03  0.00000000000E+00 0.  1.
          3    1    6    6  503    0 -0.22953172348E+03  0.92230735016E+02 -0.16014327156E+03  0.29468150263E+03  0.00000000000E+00 0. -1.
         -3    1    6    6    0  503 -0.59516974325E+02  0.10365888503E+02  0.53978191811E+01  0.60653592879E+02  0.00000000000E+00 0.  1.
<mgrwt>
<rscale>  0 0.18639190E+04</rscale>
<asrwt>0</asrwt>
<pdfrwt beam="1">  1        1 0.22570522E+00 0.18639190E+04</pdfrwt>
<pdfrwt beam="2">  1       -2 0.91080573E-01 0.18639190E+04</pdfrwt>
<totfact> 0.58384992E+00</totfact>
</mgrwt>
</event>
<event>
12    5  0.5264288E-008  0.2750396E+04  0.7818608E-02  0.8318836E-01
          1   -1    0    0  501    0  0.00000000000E+00  0.00000000000E+00  0.18220505232E+04  0.18220505232E+04  0.00000000000E+00 0. -1.
         -2   -1    0    0    0  501 -0.00000000000E+00 -0.00000000000E+00 -0.10379346454E+04  0.10379346454E+04  0.00000000000E+00 0.  1.
        -24    2    1    2    0    0 -0.10882045007E+04 -0.12784743379E+03 -0.22363069862E+03  0.11211183816E+04  0.79760481242E+02 0.  0.
        254    2    1    2    0    0  0.10882045007E+04  0.12784743379E+03  0.10077465764E+04  0.17388667870E+04  0.89864928589E+03 0.  0.
         23    2    4    4    0    0  0.70683717766E+03  0.48804059137E+03  0.76360158951E+03  0.11529538414E+04  0.91721089743E+02 0.  0.
         23    2    4    4    0    0  0.38136732309E+03 -0.36019315759E+03  0.24414498688E+03  0.58591294565E+03  0.92233721425E+02 0.  0.
          3    1    3    3  502    0 -0.73566671175E+03 -0.11281794283E+03 -0.12457791170E+03  0.75462113347E+03  0.00000000000E+00 0. -1.
         -4    1    3    3    0  502 -0.35253778900E+03 -0.15029490959E+02 -0.99052786922E+02  0.36649724810E+03  0.00000000000E+00 0.  1.
         13    1    5    5    0    0  0.13922981470E+03  0.97563890893E+02  0.20264310295E+03  0.26451442546E+03  0.00000000000E+00 0. -1.
        -13    1    5    5    0    0  0.56760736297E+03  0.39047670048E+03  0.56095848657E+03  0.88843941592E+03  0.00000000000E+00 0.  1.
          4    1    6    6  503    0  0.28512875614E+03 -0.21636950608E+03  0.14276936453E+03  0.38535342504E+03  0.00000000000E+00 0. -1.
         -4    1    6    6    0  503  0.96238566943E+02 -0.14382365150E+03  0.10137562235E+03  0.20055952060E+03  0.00000000000E+00 0.  1.
<mgrwt>
<rscale>  0 0.27503959E+04</rscale>
<asrwt>0</asrwt>
<pdfrwt beam="1">  1        1 0.28031546E+00 0.27503959E+04</pdfrwt>
<pdfrwt beam="2">  1       -2 0.15968225E+00 0.27503959E+04</pdfrwt>
<totfact> 0.76155149E-01</totfact>
</mgrwt>
</event>
<event>
12    5  0.5264288E-008  0.1693122E+04  0.7818608E-02  0.8765297E-01
         -2   -1    0    0    0  501 -0.00000000000E+00  0.00000000000E+00  0.18872873905E+03  0.18872873905E+03  0.00000000000E+00 0.  1.
          1   -1    0    0  501    0  0.00000000000E+00 -0.00000000000E+00 -0.37973290955E+04  0.37973290955E+04  0.00000000000E+00 0. -1.
        -24    2    1    2    0    0 -0.54415945549E+03 -0.18349785937E+02 -0.19563132438E+04  0.20322549833E+04  0.80327962440E+02 0.  0.
        254    2    1    2    0    0  0.54415945549E+03  0.18349785937E+02 -0.16522871126E+04  0.19538028513E+04  0.88929559280E+03 0.  0.
         23    2    4    4    0    0  0.53782476135E+03  0.42235360967E+02 -0.17396447562E+04  0.18235515653E+04  0.89090593584E+02 0.  0.
         23    2    4    4    0    0  0.63346941472E+01 -0.23885575030E+02  0.87357643603E+02  0.13025128594E+03  0.93399092866E+02 0.  0.
          1    1    3    3  502    0 -0.47158458110E+03 -0.20552413201E+02 -0.17812111857E+04  0.18426957717E+04  0.00000000000E+00 0. -1.
         -2    1    3    3    0  502 -0.72574874392E+02  0.22026272640E+01 -0.17510205810E+03  0.18955921163E+03  0.00000000000E+00 0.  1.
         13    1    5    5    0    0  0.32213280083E+03  0.34582317824E+02 -0.11819915728E+04  0.12255894730E+04  0.00000000000E+00 0.  1.
        -13    1    5    5    0    0  0.21569196051E+03  0.76530431429E+01 -0.55765318343E+03  0.59796209235E+03  0.00000000000E+00 0. -1.
          1    1    6    6  503    0  0.21267703755E+01  0.98519487673E+00 -0.19915231330E+02  0.20052685608E+02  0.00000000000E+00 0. -1.
         -1    1    6    6    0  503  0.42079237717E+01 -0.24870769907E+02  0.10727287493E+03  0.11019860033E+03  0.00000000000E+00 0.  1.
<mgrwt>
<rscale>  0 0.16931215E+04</rscale>
<asrwt>0</asrwt>
<pdfrwt beam="1">  1        1 0.58420444E+00 0.16931215E+04</pdfrwt>
<pdfrwt beam="2">  1       -2 0.29035193E-01 0.16931215E+04</pdfrwt>
<totfact> 0.13206893E+00</totfact>
</mgrwt>
</event>
<event>
12    5  0.5264288E-008  0.1890125E+04  0.7818608E-02  0.8659788E-01
          1   -1    0    0  501    0  0.00000000000E+00  0.00000000000E+00  0.32866776244E+04  0.32866776244E+04  0.00000000000E+00 0. -1.
         -2   -1    0    0    0  501 -0.00000000000E+00 -0.00000000000E+00 -0.27174643718E+03  0.27174643718E+03  0.00000000000E+00 0.  1.
        -24    2    1    2    0    0  0.57136582316E+01 -0.60629726197E+03  0.32485970790E+03  0.69264871850E+03  0.81236701508E+02 0.  0.
        254    2    1    2    0    0 -0.57136582316E+01  0.60629726197E+03  0.26900714793E+04  0.28657753431E+04  0.78009918434E+03 0.  0.
         23    2    4    4    0    0 -0.71310490244E+02 -0.16438471013E+03  0.40600947067E+03  0.45251791719E+03  0.88437866094E+02 0.  0.
         23    2    4    4    0    0  0.65596832013E+02  0.77068197210E+03  0.22840620086E+04  0.24132574259E+04  0.92835864730E+02 0.  0.
          1    1    3    3  502    0  0.30063359331E+02 -0.10818804223E+03  0.73251289060E+02  0.13406792833E+03  0.00000000000E+00 0. -1.
         -2    1    3    3    0  502 -0.24349701100E+02 -0.49810921973E+03  0.25160841884E+03  0.55858079018E+03  0.00000000000E+00 0.  1.
         13    1    5    5    0    0 -0.48444557301E+02 -0.56997684645E+02  0.25544781086E+03  0.26617512141E+03  0.00000000000E+00 0. -1.
        -13    1    5    5    0    0 -0.22865932943E+02 -0.10738702549E+03  0.15056165982E+03  0.18634279578E+03  0.00000000000E+00 0.  1.
          1    1    6    6  503    0  0.21835564482E+02  0.91087444993E+02  0.20216519779E+03  0.22281041652E+03  0.00000000000E+00 0. -1.
         -1    1    6    6    0  503  0.43761267530E+02  0.67959452711E+03  0.20818968109E+04  0.21904470094E+04  0.00000000000E+00 0.  1.
<mgrwt>
<rscale>  0 0.18901248E+04</rscale>
<asrwt>0</asrwt>
<pdfrwt beam="1">  1        1 0.50564268E+00 0.18901248E+04</pdfrwt>
<pdfrwt beam="2">  1       -2 0.41807147E-01 0.18901248E+04</pdfrwt>
<totfact> 0.16370038E+00</totfact>
</mgrwt>
</event>
<event>
12    5  0.5264288E-008  0.1855142E+04  0.7818608E-02  0.8677513E-01
         -2   -1    0    0    0  501 -0.00000000000E+00  0.00000000000E+00  0.33284852724E+03  0.33284852724E+03  0.00000000000E+00 0.  1.
          1   -1    0    0  501    0  0.00000000000E+00 -0.00000000000E+00 -0.25849246126E+04  0.25849246126E+04  0.00000000000E+00 0. -1.
        -24    2    1    2    0    0  0.54839595425E+03 -0.32273688099E+02 -0.15754425869E+04  0.16703541540E+04  0.79271315922E+02 0.  0.
        254    2    1    2    0    0 -0.54839595425E+03  0.32273688099E+02 -0.67663349846E+03  0.12474189859E+04  0.89243572399E+03 0.  0.
         23    2    4    4    0    0 -0.22289994032E+03 -0.39367583266E+03 -0.48976952181E+03  0.67253482898E+03  0.88112808866E+02 0.  0.
         23    2    4    4    0    0 -0.32549601392E+03  0.42594952076E+03 -0.18686397665E+03  0.57488415687E+03  0.90515185143E+02 0.  0.
          3    1    3    3  502    0  0.52368940570E+03 -0.34195329945E+02 -0.15410739862E+04  0.16279830912E+04  0.00000000000E+00 0. -1.
         -4    1    3    3    0  502  0.24706548549E+02  0.19216418452E+01 -0.34368600684E+02  0.42371062785E+02  0.00000000000E+00 0.  1.
         13    1    5    5    0    0 -0.57780692988E+02 -0.62503912844E+02 -0.53836705442E+02  0.10071612808E+03  0.00000000000E+00 0. -1.
        -13    1    5    5    0    0 -0.16511924734E+03 -0.33117191981E+03 -0.43593281637E+03  0.57181870090E+03  0.00000000000E+00 0.  1.
          2    1    6    6  503    0 -0.18044432204E+03  0.16791150659E+03 -0.66170286924E+02  0.25521154808E+03  0.00000000000E+00 0.  1.
         -2    1    6    6    0  503 -0.14505169189E+03  0.25803801417E+03 -0.12069368973E+03  0.31967260880E+03  0.00000000000E+00 0. -1.
<mgrwt>
<rscale>  0 0.18551424E+04</rscale>
<asrwt>0</asrwt>
<pdfrwt beam="1">  1        1 0.39768072E+00 0.18551424E+04</pdfrwt>
<pdfrwt beam="2">  1       -2 0.51207464E-01 0.18551424E+04</pdfrwt>
<totfact> 0.35184818E+00</totfact>
</mgrwt>
</event>
<event>
12    5  0.5264288E-008  0.1377131E+04  0.7818608E-02  0.8970540E-01
          3   -1    0    0  501    0  0.00000000000E+00  0.00000000000E+00  0.72734844094E+03  0.72734844094E+03  0.00000000000E+00 0. -1.
         -4   -1    0    0    0  501 -0.00000000000E+00 -0.00000000000E+00 -0.65185077087E+03  0.65185077087E+03  0.00000000000E+00 0.  1.
        -24    2    1    2    0    0 -0.68292344934E+02  0.21497432273E+03 -0.29629080049E+03  0.38111137821E+03  0.81116215014E+02 0.  0.
        254    2    1    2    0    0  0.68292344934E+02 -0.21497432273E+03  0.37178847056E+03  0.99808783359E+03  0.89837344847E+03 0.  0.
         23    2    4    4    0    0 -0.15217515163E+03  0.30479364127E+03  0.11508628505E+03  0.37084662346E+03  0.90696883045E+02 0.  0.
         23    2    4    4    0    0  0.22046749656E+03 -0.51976796400E+03  0.25670218552E+03  0.62724121013E+03  0.93652924113E+02 0.  0.
          3    1    3    3  502    0 -0.53807752812E+01  0.17663524823E+01  0.44004237514E+01  0.71719225393E+01  0.00000000000E+00 0. -1.
         -4    1    3    3    0  502 -0.62911569653E+02  0.21320797024E+03 -0.30069122424E+03  0.37393945567E+03  0.00000000000E+00 0.  1.
         13    1    5    5    0    0 -0.80096235853E+02  0.22585327679E+03  0.47270832882E+02  0.24425323186E+03  0.00000000000E+00 0. -1.
        -13    1    5    5    0    0 -0.72078915775E+02  0.78940364482E+02  0.67815452165E+02  0.12659339160E+03  0.00000000000E+00 0.  1.
          1    1    6    6  503    0  0.99945986803E+02 -0.34726922359E+03  0.17494521604E+03  0.40148591824E+03  0.00000000000E+00 0. -1.
         -1    1    6    6    0  503  0.12052150976E+03 -0.17249874041E+03  0.81756969475E+02  0.22575529189E+03  0.00000000000E+00 0.  1.
<mgrwt>
<rscale>  0 0.13771313E+04</rscale>
<asrwt>0</asrwt>
<pdfrwt beam="1">  1        3 0.11189976E+00 0.13771313E+04</pdfrwt>
<pdfrwt beam="2">  1       -4 0.10028473E+00 0.13771313E+04</pdfrwt>
<totfact> 0.12270147E+00</totfact>
</mgrwt>
</event>
<event>
12    5  0.5264288E-008  0.1314919E+04  0.7818608E-02  0.9017817E-01
          1   -1    0    0  501    0  0.00000000000E+00  0.00000000000E+00  0.34741258043E+03  0.34741258043E+03  0.00000000000E+00 0. -1.
         -2   -1    0    0    0  501 -0.00000000000E+00 -0.00000000000E+00 -0.12442067842E+04  0.12442067842E+04  0.00000000000E+00 0.  1.
        -24    2    1    2    0    0  0.24810815275E+03  0.11589540249E+03  0.91164865056E+01  0.28488109796E+03  0.78004678500E+02 0.  0.
        254    2    1    2    0    0 -0.24810815275E+03 -0.11589540249E+03 -0.90591069032E+03  0.13067382667E+04  0.90105566925E+03 0.  0.
         23    2    4    4    0    0  0.73737039898E+01 -0.24586773447E+03  0.81052013021E+02  0.27475682671E+03  0.91741869649E+02 0.  0.
         23    2    4    4    0    0 -0.25548185674E+03  0.12997233198E+03 -0.98696270334E+03  0.10319814400E+04  0.93415890123E+02 0.  0.
          1    1    3    3  502    0 -0.38337959308E+01 -0.41243869596E+01 -0.44302234017E+00  0.56484358743E+01  0.00000000000E+00 0. -1.
         -2    1    3    3    0  502  0.25194194868E+03  0.12001978945E+03  0.95595088457E+01  0.27923266208E+03  0.00000000000E+00 0.  1.
         13    1    5    5    0    0  0.22170885335E+02 -0.19217211987E+03  0.23839147261E+02  0.19491017611E+03  0.00000000000E+00 0.  1.
        -13    1    5    5    0    0 -0.14797181345E+02 -0.53695614602E+02  0.57212865760E+02  0.79846650598E+02  0.00000000000E+00 0. -1.
          1    1    6    6  503    0 -0.76952840964E+02  0.13902105134E+02 -0.40032702703E+03  0.40789304582E+03  0.00000000000E+00 0. -1.
         -1    1    6    6    0  503 -0.17852901578E+03  0.11607022685E+03 -0.58663567631E+03  0.62408839418E+03  0.00000000000E+00 0.  1.
<mgrwt>
<rscale>  0 0.13149191E+04</rscale>
<asrwt>0</asrwt>
<pdfrwt beam="1">  1        1 0.53448089E-01 0.13149191E+04</pdfrwt>
<pdfrwt beam="2">  1       -2 0.19141643E+00 0.13149191E+04</pdfrwt>
<totfact> 0.93913927E+00</totfact>
</mgrwt>
</event>
<event>
12    5  0.5264288E-008  0.2471091E+04  0.7818608E-02  0.8413357E-01
         -2   -1    0    0    0  501 -0.00000000000E+00  0.00000000000E+00  0.62176415709E+03  0.62176415709E+03  0.00000000000E+00 0.  1.
          1   -1    0    0  501    0  0.00000000000E+00 -0.00000000000E+00 -0.24552281949E+04  0.24552281949E+04  0.00000000000E+00 0. -1.
        -24    2    1    2    0    0  0.35637187116E+03 -0.19742896469E+03 -0.20284742864E+04  0.20706679822E+04  0.83539542815E+02 0.  0.
        254    2    1    2    0    0 -0.35637187116E+03  0.19742896469E+03  0.19501024859E+03  0.10063243698E+04  0.89926671991E+03 0.  0.
         23    2    4    4    0    0 -0.15979706860E+03 -0.18251410047E+03  0.43597963719E+03  0.50710942745E+03  0.90748153497E+02 0.  0.
         23    2    4    4    0    0 -0.19657480257E+03  0.37994306516E+03 -0.24096938859E+03  0.49921494235E+03  0.90282482587E+02 0.  0.
          3    1    3    3  502    0  0.31684945555E+03 -0.17520128758E+03 -0.19056723053E+04  0.19397618420E+04  0.00000000000E+00 0. -1.
         -4    1    3    3    0  502  0.39522415609E+02 -0.22227677112E+02 -0.12280198107E+03  0.13090614012E+03  0.00000000000E+00 0.  1.
         13    1    5    5    0    0 -0.12746195760E+03 -0.18465083675E+03  0.35591038740E+03  0.42073113268E+03  0.00000000000E+00 0.  1.
        -13    1    5    5    0    0 -0.32335111001E+02  0.21367362843E+01  0.80069249791E+02  0.86378294770E+02  0.00000000000E+00 0. -1.
          1    1    6    6  503    0 -0.97159588473E+02  0.11381533671E+03 -0.53864349959E+02  0.15904491410E+03  0.00000000000E+00 0. -1.
         -1    1    6    6    0  503 -0.99415214092E+02  0.26612772845E+03 -0.18710503863E+03  0.34017002826E+03  0.00000000000E+00 0.  1.
<mgrwt>
<rscale>  0 0.24710912E+04</rscale>
<asrwt>0</asrwt>
<pdfrwt beam="1">  1        1 0.37772742E+00 0.24710912E+04</pdfrwt>
<pdfrwt beam="2">  1       -2 0.95656023E-01 0.24710912E+04</pdfrwt>
<totfact> 0.10446028E+00</totfact>
</mgrwt>
</event>
<event>
12    5  0.5264288E-008  0.1948353E+04  0.7818608E-02  0.8631155E-01
         -2   -1    0    0    0  501 -0.00000000000E+00  0.00000000000E+00  0.22739110230E+04  0.22739110230E+04  0.00000000000E+00 0.  1.
          1   -1    0    0  501    0  0.00000000000E+00 -0.00000000000E+00 -0.41735139719E+03  0.41735139719E+03  0.00000000000E+00 0. -1.
        -24    2    1    2    0    0  0.74865155832E+03 -0.12494219987E+03  0.57687087570E+03  0.95663531161E+03  0.79255303288E+02 0.  0.
        254    2    1    2    0    0 -0.74865155832E+03  0.12494219987E+03  0.12796887501E+04  0.17346271086E+04  0.89176129072E+03 0.  0.
         23    2    4    4    0    0 -0.42252942972E+02 -0.15146201280E+03 -0.61249023636E+02  0.19135184572E+03  0.90211049501E+02 0.  0.
         23    2    4    4    0    0 -0.70639861535E+03  0.27640421267E+03  0.13409377738E+04  0.15432752629E+04  0.90477242333E+02 0.  0.
          1    1    3    3  502    0  0.59044015313E+03 -0.91293654884E+02  0.49205085853E+03  0.77399493101E+03  0.00000000000E+00 0. -1.
         -2    1    3    3    0  502  0.15821140519E+03 -0.33648544990E+02  0.84820017174E+02  0.18264038060E+03  0.00000000000E+00 0.  1.
         13    1    5    5    0    0 -0.10989051506E+02 -0.21422686395E+02  0.22989081204E+02  0.33289466802E+02  0.00000000000E+00 0. -1.
        -13    1    5    5    0    0 -0.31263891466E+02 -0.13003932641E+03 -0.84238104840E+02  0.15806237892E+03  0.00000000000E+00 0.  1.
          1    1    6    6  503    0 -0.29158038740E+03  0.67688577578E+02  0.50733203197E+03  0.58905573294E+03  0.00000000000E+00 0. -1.
         -1    1    6    6    0  503 -0.41481822794E+03  0.20871563510E+03  0.83360574181E+03  0.95421952996E+03  0.00000000000E+00 0.  1.
<mgrwt>
<rscale>  0 0.19483531E+04</rscale>
<asrwt>0</asrwt>
<pdfrwt beam="1">  1        1 0.64207909E-01 0.19483531E+04</pdfrwt>
<pdfrwt beam="2">  1       -2 0.34983246E+00 0.19483531E+04</pdfrwt>
<totfact> 0.72261394E-01</totfact>
</mgrwt>
</event>
<event>
12    5  0.5264288E-008  0.1391252E+04  0.7818608E-02  0.8960175E-01
          1   -1    0    0  501    0  0.00000000000E+00  0.00000000000E+00  0.24785340857E+04  0.24785340857E+04  0.00000000000E+00 0. -1.
         -2   -1    0    0    0  501 -0.00000000000E+00 -0.00000000000E+00 -0.19523455465E+03  0.19523455465E+03  0.00000000000E+00 0.  1.
        -24    2    1    2    0    0 -0.27766318562E+03 -0.17588913919E+03  0.23339486268E+03  0.41110952338E+03  0.80647655618E+02 0.  0.
        254    2    1    2    0    0  0.27766318562E+03  0.17588913919E+03  0.20499046684E+04  0.22626591170E+04  0.89971289659E+03 0.  0.
         23    2    4    4    0    0  0.49891577661E+03  0.38441574102E+03  0.12686257694E+04  0.14193786564E+04  0.92368899034E+02 0.  0.
         23    2    4    4    0    0 -0.22125259099E+03 -0.20852660183E+03  0.78127889902E+03  0.84328046057E+03  0.91044848490E+02 0.  0.
          3    1    3    3  502    0 -0.18225175430E+03 -0.11818016786E+03  0.10565393809E+03  0.24154711477E+03  0.00000000000E+00 0. -1.
         -4    1    3    3    0  502 -0.95411431324E+02 -0.57708971333E+02  0.12774092460E+03  0.16956240862E+03  0.00000000000E+00 0.  1.
         13    1    5    5    0    0  0.35761795013E+03  0.22997958590E+03  0.79495249525E+03  0.90151576686E+03  0.00000000000E+00 0. -1.
        -13    1    5    5    0    0  0.14129782648E+03  0.15443615511E+03  0.47367327413E+03  0.51786288957E+03  0.00000000000E+00 0.  1.
          1    1    6    6  503    0 -0.71345993501E+02 -0.30462435460E+02  0.28085256892E+03  0.29136982725E+03  0.00000000000E+00 0. -1.
         -1    1    6    6    0  503 -0.14990659749E+03 -0.17806416637E+03  0.50042633010E+03  0.55191063332E+03  0.00000000000E+00 0.  1.
<mgrwt>
<rscale>  0 0.13912520E+04</rscale>
<asrwt>0</asrwt>
<pdfrwt beam="1">  1        1 0.38131291E+00 0.13912520E+04</pdfrwt>
<pdfrwt beam="2">  1       -2 0.30036087E-01 0.13912520E+04</pdfrwt>
<totfact> 0.12331638E+01</totfact>
</mgrwt>
</event>
<event>
12    5  0.5264288E-008  0.1282880E+04  0.7818608E-02  0.9043253E-01
          1   -1    0    0  501    0  0.00000000000E+00  0.00000000000E+00  0.50955591914E+03  0.50955591914E+03  0.00000000000E+00 0. -1.
         -2   -1    0    0    0  501 -0.00000000000E+00 -0.00000000000E+00 -0.80745825865E+03  0.80745825865E+03  0.00000000000E+00 0.  1.
        -24    2    1    2    0    0 -0.30878338181E+03  0.54407957892E+02 -0.16570009532E+02  0.32457899542E+03  0.82277313338E+02 0.  0.
        254    2    1    2    0    0  0.30878338181E+03 -0.54407957892E+02 -0.28133232998E+03  0.99243518236E+03  0.89859462970E+03 0.  0.
         23    2    4    4    0    0  0.17454349661E+03  0.20604452260E+03 -0.52706028151E+03  0.59958825941E+03  0.93775065846E+02 0.  0.
         23    2    4    4    0    0  0.13423988520E+03 -0.26045248049E+03  0.24572795153E+03  0.39284692295E+03  0.89947970163E+02 0.  0.
          1    1    3    3  502    0 -0.29098546472E+03  0.30554465302E+02 -0.49434963660E+01  0.29262698813E+03  0.00000000000E+00 0. -1.
         -2    1    3    3    0  502 -0.17797917094E+02  0.23853492591E+02 -0.11626513165E+02  0.31952007293E+02  0.00000000000E+00 0.  1.
         13    1    5    5    0    0  0.10121836459E+03  0.97576569617E+02 -0.36568903270E+03  0.39178414070E+03  0.00000000000E+00 0. -1.
        -13    1    5    5    0    0  0.73325132018E+02  0.10846795298E+03 -0.16137124882E+03  0.20780411871E+03  0.00000000000E+00 0.  1.
          2    1    6    6  503    0  0.80386986246E+02 -0.65635122844E+02  0.71841289106E+02  0.12621888816E+03  0.00000000000E+00 0. -1.
         -2    1    6    6    0  503  0.53852898953E+02 -0.19481735765E+03  0.17388666242E+03  0.26662803479E+03  0.00000000000E+00 0.  1.
<mgrwt>
<rscale>  0 0.12828798E+04</rscale>
<asrwt>0</asrwt>
<pdfrwt beam="1">  1        1 0.78393219E-01 0.12828798E+04</pdfrwt>
<pdfrwt beam="2">  1       -2 0.12422435E+00 0.12828798E+04</pdfrwt>
<totfact> 0.18083564E+01</totfact>
</mgrwt>
</event>
<event>
12    5  0.5264288E-008  0.2033619E+04  0.7818608E-02  0.8591062E-01
          1   -1    0    0  501    0  0.00000000000E+00  0.00000000000E+00  0.99271499021E+03  0.99271499021E+03  0.00000000000E+00 0. -1.
         -2   -1    0    0    0  501 -0.00000000000E+00 -0.00000000000E+00 -0.10414889066E+04  0.10414889066E+04  0.00000000000E+00 0.  1.
        -24    2    1    2    0    0  0.37469970716E+03 -0.71317208946E+03 -0.14634087252E+03  0.82261002739E+03  0.79103138117E+02 0.  0.
        254    2    1    2    0    0 -0.37469970716E+03  0.71317208946E+03  0.97566956174E+02  0.12115938694E+04  0.89968110664E+03 0.  0.
         23    2    4    4    0    0 -0.53430128084E+03  0.82910201142E+02  0.87051171636E+02  0.55532870134E+03  0.91978801323E+02 0.  0.
         23    2    4    4    0    0  0.15960157367E+03  0.63026188832E+03  0.10515784538E+02  0.65626516803E+03  0.88716846569E+02 0.  0.
          3    1    3    3  502    0  0.37157875229E+03 -0.69155287477E+03 -0.15288764815E+03  0.79980671460E+03  0.00000000000E+00 0. -1.
         -2    1    3    3    0  502  0.31209548683E+01 -0.21619214687E+02  0.65467756322E+01  0.22803312789E+02  0.00000000000E+00 0.  1.
         13    1    5    5    0    0 -0.44333180067E+03  0.36839182116E+02  0.87367009871E+02  0.45335770120E+03  0.00000000000E+00 0.  1.
        -13    1    5    5    0    0 -0.90969480171E+02  0.46071019026E+02 -0.31583823477E+00  0.10197100014E+03  0.00000000000E+00 0. -1.
          3    1    6    6  503    0  0.83608252018E+01  0.16153422016E+01  0.45485423574E+01  0.96541165344E+01  0.00000000000E+00 0. -1.
         -3    1    6    6    0  503  0.15124074847E+03  0.62864654612E+03  0.59672421804E+01  0.64661105150E+03  0.00000000000E+00 0.  1.
<mgrwt>
<rscale>  0 0.20336191E+04</rscale>
<asrwt>0</asrwt>
<pdfrwt beam="1">  1        1 0.15272538E+00 0.20336191E+04</pdfrwt>
<pdfrwt beam="2">  1       -2 0.16022906E+00 0.20336191E+04</pdfrwt>
<totfact> 0.31188881E+00</totfact>
</mgrwt>
</event>
<event>
12    5  0.5264288E-008  0.2354165E+04  0.7818608E-02  0.8456866E-01
          1   -1    0    0  501    0  0.00000000000E+00  0.00000000000E+00  0.99606892429E+03  0.99606892429E+03  0.00000000000E+00 0. -1.
         -2   -1    0    0    0  501 -0.00000000000E+00 -0.00000000000E+00 -0.13909914331E+04  0.13909914331E+04  0.00000000000E+00 0.  1.
        -24    2    1    2    0    0 -0.85879037281E+03 -0.50353984163E+03 -0.25041539431E+03  0.10298186839E+04  0.82130234177E+02 0.  0.
        254    2    1    2    0    0  0.85879037281E+03  0.50353984163E+03 -0.14450711454E+03  0.13572416736E+04  0.91112533594E+03 0.  0.
         23    2    4    4    0    0  0.17942527084E+03  0.32298111675E+03 -0.44693497365E+03  0.58717842414E+03  0.92289769267E+02 0.  0.
         23    2    4    4    0    0  0.67936510197E+03  0.18055872488E+03  0.30242785912E+03  0.77006324943E+03  0.86002344480E+02 0.  0.
          1    1    3    3  502    0 -0.27836038039E+03 -0.18331478081E+03 -0.48265937381E+02  0.33677649999E+03  0.00000000000E+00 0. -1.
         -2    1    3    3    0  502 -0.58042999242E+03 -0.32022506082E+03 -0.20214945693E+03  0.69304218386E+03  0.00000000000E+00 0.  1.
         13    1    5    5    0    0  0.10349754092E+03  0.13515315235E+03 -0.14522594462E+03  0.22376034178E+03  0.00000000000E+00 0.  1.
        -13    1    5    5    0    0  0.75927729923E+02  0.18782796440E+03 -0.30170902904E+03  0.36341808236E+03  0.00000000000E+00 0. -1.
          2    1    6    6  503    0  0.90728975044E+02  0.54305744451E+02  0.54860127681E+02  0.11912386160E+03  0.00000000000E+00 0.  1.
         -2    1    6    6    0  503  0.58863612692E+03  0.12625298043E+03  0.24756773144E+03  0.65093938783E+03  0.00000000000E+00 0. -1.
<mgrwt>
<rscale>  0 0.23541651E+04</rscale>
<asrwt>0</asrwt>
<pdfrwt beam="1">  1        1 0.15324137E+00 0.23541651E+04</pdfrwt>
<pdfrwt beam="2">  1       -2 0.21399868E+00 0.23541651E+04</pdfrwt>
<totfact> 0.12973998E+00</totfact>
</mgrwt>
</event>
<event>
12    5  0.5264288E-008  0.2695689E+04  0.7818608E-02  0.8336405E-01
         -2   -1    0    0    0  501 -0.00000000000E+00  0.00000000000E+00  0.41969730616E+03  0.41969730616E+03  0.00000000000E+00 0.  1.
          1   -1    0    0  501    0  0.00000000000E+00 -0.00000000000E+00 -0.43285587726E+04  0.43285587726E+04  0.00000000000E+00 0. -1.
        -24    2    1    2    0    0  0.11897963528E+04 -0.12169411885E+03 -0.15253417346E+04  0.19399137566E+04  0.78569433231E+02 0.  0.
        254    2    1    2    0    0 -0.11897963528E+04  0.12169411885E+03 -0.23835197318E+04  0.28083423222E+04  0.88045185381E+03 0.  0.
         23    2    4    4    0    0 -0.10662337208E+04 -0.22458139488E+03 -0.19266762216E+04  0.22153198440E+04  0.90937331515E+02 0.  0.
         23    2    4    4    0    0 -0.12356263201E+03  0.34627551373E+03 -0.45684351019E+03  0.59302247811E+03  0.88290493860E+02 0.  0.
          1    1    3    3  502    0  0.10662640384E+03 -0.20309037808E+02 -0.10724970078E+03  0.15259143268E+03  0.00000000000E+00 0. -1.
         -2    1    3    3    0  502  0.10831699490E+04 -0.10138508104E+03 -0.14180920339E+04  0.17873223239E+04  0.00000000000E+00 0.  1.
         13    1    5    5    0    0 -0.41987286725E+03 -0.65346585128E+02 -0.67444490728E+03  0.79714448740E+03  0.00000000000E+00 0.  1.
        -13    1    5    5    0    0 -0.64636085356E+03 -0.15923480975E+03 -0.12522313143E+04  0.14181753566E+04  0.00000000000E+00 0. -1.
          1    1    6    6  503    0 -0.10656072133E+03  0.33872768435E+03 -0.40871230069E+03  0.54142162518E+03  0.00000000000E+00 0. -1.
         -1    1    6    6    0  503 -0.17001910678E+02  0.75478293727E+01 -0.48131209509E+02  0.51600852937E+02  0.00000000000E+00 0.  1.
<mgrwt>
<rscale>  0 0.26956887E+04</rscale>
<asrwt>0</asrwt>
<pdfrwt beam="1">  1        1 0.66593214E+00 0.26956887E+04</pdfrwt>
<pdfrwt beam="2">  1       -2 0.64568815E-01 0.26956887E+04</pdfrwt>
<totfact> 0.81411621E-02</totfact>
</mgrwt>
</event>
<event>
12    5  0.5264288E-008  0.1671582E+04  0.7818608E-02  0.8777740E-01
          1   -1    0    0  501    0  0.00000000000E+00  0.00000000000E+00  0.55885571948E+03  0.55885571948E+03  0.00000000000E+00 0. -1.
         -2   -1    0    0    0  501 -0.00000000000E+00 -0.00000000000E+00 -0.12499588574E+04  0.12499588574E+04  0.00000000000E+00 0.  1.
        -24    2    1    2    0    0  0.52717734381E+03 -0.12586607004E+03 -0.11870582175E+02  0.54781838286E+03  0.78777220468E+02 0.  0.
        254    2    1    2    0    0 -0.52717734381E+03  0.12586607004E+03 -0.67923255572E+03  0.12609961940E+04  0.91378132894E+03 0.  0.
         23    2    4    4    0    0 -0.60546776979E+03 -0.30391452498E+02 -0.81637330416E+03  0.10206737945E+04  0.88287952170E+02 0.  0.
         23    2    4    4    0    0  0.78290425978E+02  0.15625752254E+03  0.13714074843E+03  0.24032239945E+03  0.91659514771E+02 0.  0.
          1    1    3    3  502    0  0.54130182377E+02 -0.56277627778E+01 -0.24231800313E+02  0.59572883970E+02  0.00000000000E+00 0. -1.
         -2    1    3    3    0  502  0.47304716143E+03 -0.12023830727E+03  0.12361218138E+02  0.48824549889E+03  0.00000000000E+00 0.  1.
         13    1    5    5    0    0  0.17899379767E+01 -0.87404849611E+00  0.79676502468E+00  0.21453841704E+01  0.00000000000E+00 0.  1.
        -13    1    5    5    0    0 -0.60725770776E+03 -0.29517404002E+02 -0.81717006918E+03  0.10185284104E+04  0.00000000000E+00 0. -1.
          2    1    6    6  503    0  0.77564181523E+02  0.14849553753E+03  0.15027098124E+03  0.22505220444E+03  0.00000000000E+00 0. -1.
         -2    1    6    6    0  503  0.72624445508E+00  0.77619850139E+01 -0.13130232803E+02  0.15270195016E+02  0.00000000000E+00 0.  1.
<mgrwt>
<rscale>  0 0.16715821E+04</rscale>
<asrwt>0</asrwt>
<pdfrwt beam="1">  1        1 0.85977804E-01 0.16715821E+04</pdfrwt>
<pdfrwt beam="2">  1       -2 0.19230136E+00 0.16715821E+04</pdfrwt>
<totfact> 0.47310451E+00</totfact>
</mgrwt>
</event>
<event>
12    5  0.5264288E-008  0.1306849E+04  0.7818608E-02  0.9024151E-01
         -2   -1    0    0    0  501 -0.00000000000E+00  0.00000000000E+00  0.38499367648E+03  0.38499367648E+03  0.00000000000E+00 0.  1.
          1   -1    0    0  501    0  0.00000000000E+00 -0.00000000000E+00 -0.11090144227E+04  0.11090144227E+04  0.00000000000E+00 0. -1.
        -24    2    1    2    0    0 -0.27573713039E+03  0.44035744448E+02 -0.23642466578E+02  0.29154012597E+03  0.80414967262E+02 0.  0.
        254    2    1    2    0    0  0.27573713039E+03 -0.44035744448E+02 -0.70037827960E+03  0.12024679732E+04  0.93671200488E+03 0.  0.
         23    2    4    4    0    0  0.58130797639E+03  0.12483927782E+03 -0.53475667875E+03  0.80514770497E+03  0.93777996634E+02 0.  0.
         23    2    4    4    0    0 -0.30557084600E+03 -0.16887502226E+03 -0.16562160086E+03  0.39732026820E+03  0.92415181552E+02 0.  0.
          1    1    3    3  502    0 -0.71573928485E+01  0.15390273735E+02 -0.12730393821E+02  0.21216779324E+02  0.00000000000E+00 0. -1.
         -2    1    3    3    0  502 -0.26857973754E+03  0.28645470713E+02 -0.10912072757E+02  0.27032334664E+03  0.00000000000E+00 0.  1.
         13    1    5    5    0    0  0.19927127193E+03  0.72706463485E+02 -0.14533076592E+03  0.25713090279E+03  0.00000000000E+00 0.  1.
        -13    1    5    5    0    0  0.38203670446E+03  0.52132814331E+02 -0.38942591283E+03  0.54801680217E+03  0.00000000000E+00 0. -1.
          3    1    6    6  503    0 -0.24625892955E+03 -0.13996640699E+03 -0.90558886068E+02  0.29738017303E+03  0.00000000000E+00 0. -1.
         -3    1    6    6    0  503 -0.59311916456E+02 -0.28908615277E+02 -0.75062714789E+02  0.99940095169E+02  0.00000000000E+00 0.  1.
<mgrwt>
<rscale>  0 0.13068489E+04</rscale>
<asrwt>0</asrwt>
<pdfrwt beam="1">  1        1 0.17061760E+00 0.13068489E+04</pdfrwt>
<pdfrwt beam="2">  1       -2 0.59229796E-01 0.13068489E+04</pdfrwt>
<totfact> 0.28609291E+01</totfact>
</mgrwt>
</event>
<event>
12    5  0.5264288E-008  0.1250116E+04  0.7818608E-02  0.9070087E-01
          1   -1    0    0  501    0  0.00000000000E+00  0.00000000000E+00  0.20646178956E+04  0.20646178956E+04  0.00000000000E+00 0. -1.
         -2   -1    0    0    0  501 -0.00000000000E+00 -0.00000000000E+00 -0.18923462933E+03  0.18923462933E+03  0.00000000000E+00 0.  1.
        -24    2    1    2    0    0 -0.42061033413E+02 -0.17171543074E+02 -0.66720626156E+02  0.11295014732E+03  0.79006970596E+02 0.  0.
        254    2    1    2    0    0  0.42061033413E+02  0.17171543074E+02  0.19421038925E+04  0.21409023776E+04  0.89979523731E+03 0.  0.
         23    2    4    4    0    0  0.30244502757E+03 -0.32817058038E+03  0.89855617528E+03  0.10078344510E+04  0.95698254461E+02 0.  0.
         23    2    4    4    0    0 -0.26038399416E+03  0.34534212345E+03  0.10435477172E+04  0.11330679267E+04  0.88261439949E+02 0.  0.
          3    1    3    3  502    0 -0.60531348403E+02 -0.12040274549E+02 -0.24170984148E+02  0.66281587378E+02  0.00000000000E+00 0. -1.
         -4    1    3    3    0  502  0.18470314990E+02 -0.51312685250E+01 -0.42549642008E+02  0.46668559947E+02  0.00000000000E+00 0.  1.
         13    1    5    5    0    0  0.16008071531E+03 -0.13185764711E+03  0.33050528574E+03  0.39018715819E+03  0.00000000000E+00 0.  1.
        -13    1    5    5    0    0  0.14236431227E+03 -0.19631293326E+03  0.56805088955E+03  0.61764729279E+03  0.00000000000E+00 0. -1.
          4    1    6    6  503    0 -0.81950582778E+02  0.11029841941E+03  0.44491492575E+03  0.46565108235E+03  0.00000000000E+00 0.  1.
         -4    1    6    6    0  503 -0.17843341138E+03  0.23504370404E+03  0.59863279142E+03  0.66741684431E+03  0.00000000000E+00 0. -1.
<mgrwt>
<rscale>  0 0.12501155E+04</rscale>
<asrwt>0</asrwt>
<pdfrwt beam="1">  1        1 0.31763351E+00 0.12501155E+04</pdfrwt>
<pdfrwt beam="2">  1       -2 0.29113021E-01 0.12501155E+04</pdfrwt>
<totfact> 0.25336541E+01</totfact>
</mgrwt>
</event>
<event>
12    5  0.5264288E-008  0.3197938E+04  0.7818608E-02  0.8189362E-01
         -2   -1    0    0    0  501 -0.00000000000E+00  0.00000000000E+00  0.20367244844E+04  0.20367244844E+04  0.00000000000E+00 0.  1.
          3   -1    0    0  501    0  0.00000000000E+00 -0.00000000000E+00 -0.12553011336E+04  0.12553011336E+04  0.00000000000E+00 0. -1.
        -24    2    1    2    0    0  0.10444071379E+04  0.75061315893E+03  0.11200264253E+04  0.17073047739E+04  0.78892419139E+02 0.  0.
        254    2    1    2    0    0 -0.10444071379E+04 -0.75061315893E+03 -0.33860307443E+03  0.15847208440E+04  0.86167379411E+03 0.  0.
         23    2    4    4    0    0 -0.11653847237E+04 -0.74752180575E+03 -0.25188700780E+03  0.14101393037E+04  0.90196379858E+02 0.  0.
         23    2    4    4    0    0  0.12097758581E+03 -0.30913531775E+01 -0.86716066633E+02  0.17458154029E+03  0.91180618914E+02 0.  0.
          3    1    3    3  502    0  0.19175442177E+03  0.15094090324E+03  0.25212319864E+03  0.35088320255E+03  0.00000000000E+00 0. -1.
         -4    1    3    3    0  502  0.85265271612E+03  0.59967225569E+03  0.86790322663E+03  0.13564215714E+04  0.00000000000E+00 0.  1.
         13    1    5    5    0    0 -0.82937026369E+03 -0.54244260314E+03 -0.22044842917E+03  0.10152322502E+04  0.00000000000E+00 0. -1.
        -13    1    5    5    0    0 -0.33601446001E+03 -0.20507920261E+03 -0.31438578630E+02  0.39490705350E+03  0.00000000000E+00 0.  1.
          2    1    6    6  503    0 -0.97491020430E+01 -0.58907423173E+01  0.73043460224E+01  0.13531419235E+02  0.00000000000E+00 0.  1.
         -2    1    6    6    0  503  0.13072668785E+03  0.27993891398E+01 -0.94020412655E+02  0.16105012106E+03  0.00000000000E+00 0. -1.
<mgrwt>
<rscale>  0 0.31979384E+04</rscale>
<asrwt>0</asrwt>
<pdfrwt beam="1">  1        3 0.19312325E+00 0.31979384E+04</pdfrwt>
<pdfrwt beam="2">  1       -2 0.31334223E+00 0.31979384E+04</pdfrwt>
<totfact> 0.14926606E-02</totfact>
</mgrwt>
</event>
<event>
12    5  0.5264288E-008  0.1616768E+04  0.7818608E-02  0.8810313E-01
          1   -1    0    0  501    0  0.00000000000E+00  0.00000000000E+00  0.19276791625E+04  0.19276791625E+04  0.00000000000E+00 0. -1.
         -2   -1    0    0    0  501 -0.00000000000E+00 -0.00000000000E+00 -0.33900061229E+03  0.33900061229E+03  0.00000000000E+00 0.  1.
        -24    2    1    2    0    0  0.27038326515E+03 -0.36426199578E+03  0.10522405821E+03  0.47195501348E+03  0.76651945030E+02 0.  0.
        254    2    1    2    0    0 -0.27038326515E+03  0.36426199578E+03  0.14834544920E+04  0.17947247613E+04  0.90255516585E+03 0.  0.
         23    2    4    4    0    0 -0.58917174861E+03  0.15790169876E+03  0.83869537731E+03  0.10407465523E+04  0.87676418270E+02 0.  0.
         23    2    4    4    0    0  0.31878848346E+03  0.20636029702E+03  0.64475911465E+03  0.75397820901E+03  0.92510293271E+02 0.  0.
          3    1    3    3  502    0  0.25978394928E+02 -0.84343850505E+02  0.14480581067E+02  0.89434050278E+02  0.00000000000E+00 0. -1.
         -4    1    3    3    0  502  0.24440487022E+03 -0.27991814527E+03  0.90743477147E+02  0.38252096320E+03  0.00000000000E+00 0.  1.
         13    1    5    5    0    0 -0.29241108988E+03  0.72645691526E+02  0.34087759189E+03  0.45494963966E+03  0.00000000000E+00 0. -1.
        -13    1    5    5    0    0 -0.29676065874E+03  0.85256007235E+02  0.49781778542E+03  0.58579691261E+03  0.00000000000E+00 0.  1.
          1    1    6    6  503    0  0.30731325470E+03  0.21577459178E+03  0.62690789592E+03  0.73076235599E+03  0.00000000000E+00 0. -1.
         -1    1    6    6    0  503  0.11475228763E+02 -0.94142947614E+01  0.17851218733E+02  0.23215853016E+02  0.00000000000E+00 0.  1.
<mgrwt>
<rscale>  0 0.16167677E+04</rscale>
<asrwt>0</asrwt>
<pdfrwt beam="1">  1        1 0.29656602E+00 0.16167677E+04</pdfrwt>
<pdfrwt beam="2">  1       -2 0.52153941E-01 0.16167677E+04</pdfrwt>
<totfact> 0.97438689E+00</totfact>
</mgrwt>
</event>
<event>
12    5  0.5264288E-008  0.1643659E+04  0.7818608E-02  0.8794167E-01
          1   -1    0    0  501    0  0.00000000000E+00  0.00000000000E+00  0.14590444272E+04  0.14590444272E+04  0.00000000000E+00 0. -1.
         -2   -1    0    0    0  501 -0.00000000000E+00 -0.00000000000E+00 -0.46290824600E+03  0.46290824600E+03  0.00000000000E+00 0.  1.
        -24    2    1    2    0    0  0.27132731338E+03 -0.35694981321E+03  0.80300099012E+03  0.92304284244E+03  0.78522727377E+02 0.  0.
        254    2    1    2    0    0 -0.27132731338E+03  0.35694981321E+03  0.19313519111E+03  0.99890983078E+03  0.87148606865E+03 0.  0.
         23    2    4    4    0    0  0.14719943189E+03 -0.20804176203E+03  0.62260956813E+02  0.27797292720E+03  0.91888378011E+02 0.  0.
         23    2    4    4    0    0 -0.41852674526E+03  0.56499157524E+03  0.13087423429E+03  0.72093690358E+03  0.90784564472E+02 0.  0.
          1    1    3    3  502    0  0.14187055888E+03 -0.21776910008E+03  0.53115468519E+03  0.59133403084E+03  0.00000000000E+00 0. -1.
         -2    1    3    3    0  502  0.12945675449E+03 -0.13918071313E+03  0.27184630493E+03  0.33170881160E+03  0.00000000000E+00 0.  1.
         13    1    5    5    0    0  0.13501237591E+03 -0.20558251964E+03  0.77900094717E+02  0.25799406735E+03  0.00000000000E+00 0. -1.
        -13    1    5    5    0    0  0.12187055979E+02 -0.24592423967E+01 -0.15639137904E+02  0.19978859852E+02  0.00000000000E+00 0.  1.
          2    1    6    6  503    0 -0.42293027447E+03  0.56291302334E+03  0.12994665486E+03  0.71597990337E+03  0.00000000000E+00 0. -1.
         -2    1    6    6    0  503  0.44035292111E+01  0.20785519004E+01  0.92757943206E+00  0.49570002137E+01  0.00000000000E+00 0.  1.
<mgrwt>
<rscale>  0 0.16436590E+04</rscale>
<asrwt>0</asrwt>
<pdfrwt beam="1">  1        1 0.22446837E+00 0.16436590E+04</pdfrwt>
<pdfrwt beam="2">  1       -2 0.71216654E-01 0.16436590E+04</pdfrwt>
<totfact> 0.10489611E+01</totfact>
</mgrwt>
</event>
<event>
12    5  0.5264288E-008  0.1595330E+04  0.7818608E-02  0.8823422E-01
          1   -1    0    0  501    0  0.00000000000E+00  0.00000000000E+00  0.60273088637E+03  0.60273088637E+03  0.00000000000E+00 0. -1.
         -2   -1    0    0    0  501 -0.00000000000E+00 -0.00000000000E+00 -0.10556437787E+04  0.10556437787E+04  0.00000000000E+00 0.  1.
        -24    2    1    2    0    0  0.17468505562E+03  0.51042417590E+03 -0.17923918278E+03  0.57399573623E+03  0.79351827785E+02 0.  0.
        254    2    1    2    0    0 -0.17468505562E+03 -0.51042417590E+03 -0.27367370955E+03  0.10843789288E+04  0.89996258479E+03 0.  0.
         23    2    4    4    0    0  0.12094579662E+03 -0.24466838406E+03 -0.52930797026E+03  0.60261370248E+03  0.92118636339E+02 0.  0.
         23    2    4    4    0    0 -0.29563085223E+03 -0.26575579184E+03  0.25563426071E+03  0.48176522636E+03  0.93408331490E+02 0.  0.
          3    1    3    3  502    0  0.94892370857E+02  0.26894556684E+03 -0.13624079607E+03  0.31606618687E+03  0.00000000000E+00 0. -1.
         -4    1    3    3    0  502  0.79792684758E+02  0.24147860906E+03 -0.42998386708E+02  0.25792954936E+03  0.00000000000E+00 0.  1.
         13    1    5    5    0    0  0.12243483388E+03 -0.25125811934E+03 -0.50286026958E+03  0.57531676649E+03  0.00000000000E+00 0. -1.
        -13    1    5    5    0    0 -0.14890372663E+01  0.65897352876E+01 -0.26447700681E+02  0.27296935990E+02  0.00000000000E+00 0.  1.
          3    1    6    6  503    0 -0.25074225897E+03 -0.24912515472E+03  0.25131936371E+03  0.43370087125E+03  0.00000000000E+00 0. -1.
         -3    1    6    6    0  503 -0.44888593262E+02 -0.16630637126E+02  0.43148970013E+01  0.48064355112E+02  0.00000000000E+00 0.  1.
<mgrwt>
<rscale>  0 0.15953296E+04</rscale>
<asrwt>0</asrwt>
<pdfrwt beam="1">  1        1 0.92727830E-01 0.15953296E+04</pdfrwt>
<pdfrwt beam="2">  1       -2 0.16240673E+00 0.15953296E+04</pdfrwt>
<totfact> 0.69065238E+00</totfact>
</mgrwt>
</event>
<event>
12    5  0.5264288E-008  0.1830019E+04  0.7818608E-02  0.8690497E-01
          1   -1    0    0  501    0  0.00000000000E+00  0.00000000000E+00  0.14394872252E+04  0.14394872252E+04  0.00000000000E+00 0. -1.
         -2   -1    0    0    0  501 -0.00000000000E+00 -0.00000000000E+00 -0.58162517661E+03  0.58162517661E+03  0.00000000000E+00 0.  1.
        -24    2    1    2    0    0 -0.12987859323E+03  0.18344868302E+03  0.10428182147E+04  0.10698678020E+04  0.81396661628E+02 0.  0.
        254    2    1    2    0    0  0.12987859323E+03 -0.18344868302E+03 -0.18495616613E+03  0.95124459982E+03  0.90561340373E+03 0.  0.
         23    2    4    4    0    0 -0.22868309189E+03  0.16500293381E+03 -0.30856479048E+03  0.42790496637E+03  0.91479536728E+02 0.  0.
         23    2    4    4    0    0  0.35856168512E+03 -0.34845161682E+03  0.12360862435E+03  0.52333963345E+03  0.92845401739E+02 0.  0.
          1    1    3    3  502    0 -0.66204379337E+02  0.98480375039E+02  0.72846179735E+03  0.73806367904E+03  0.00000000000E+00 0. -1.
         -2    1    3    3    0  502 -0.63674213889E+02  0.84968307976E+02  0.31435641737E+03  0.33180412296E+03  0.00000000000E+00 0.  1.
         13    1    5    5    0    0 -0.17432703076E+03  0.16462390243E+03 -0.27091821122E+03  0.36178394115E+03  0.00000000000E+00 0.  1.
        -13    1    5    5    0    0 -0.54356061132E+02  0.37903138244E+00 -0.37646579263E+02  0.66121025225E+02  0.00000000000E+00 0. -1.
          4    1    6    6  503    0  0.20680227511E+03 -0.15027474763E+03  0.32830804697E+02  0.25773541181E+03  0.00000000000E+00 0.  1.
         -4    1    6    6    0  503  0.15175941001E+03 -0.19817686920E+03  0.90777819654E+02  0.26560422164E+03  0.00000000000E+00 0. -1.
<mgrwt>
<rscale>  0 0.18300186E+04</rscale>
<asrwt>0</asrwt>
<pdfrwt beam="1">  1        1 0.22145957E+00 0.18300186E+04</pdfrwt>
<pdfrwt beam="2">  1       -2 0.89480797E-01 0.18300186E+04</pdfrwt>
<totfact> 0.63763489E+00</totfact>
</mgrwt>
</event>
<event>
12    5  0.5264288E-008  0.1804422E+04  0.7818608E-02  0.8703951E-01
         -2   -1    0    0    0  501 -0.00000000000E+00  0.00000000000E+00  0.28699585888E+04  0.28699585888E+04  0.00000000000E+00 0.  1.
          1   -1    0    0  501    0  0.00000000000E+00 -0.00000000000E+00 -0.28362249619E+03  0.28362249619E+03  0.00000000000E+00 0. -1.
        -24    2    1    2    0    0  0.59157565148E+03 -0.76417986889E+02  0.15390130963E+04  0.16524459904E+04  0.78835148920E+02 0.  0.
        254    2    1    2    0    0 -0.59157565148E+03  0.76417986889E+02  0.10473229964E+04  0.15011350946E+04  0.89482939900E+03 0.  0.
         23    2    4    4    0    0 -0.64282736116E+03  0.26716595031E+02  0.11664584448E+04  0.13351422783E+04  0.89659395225E+02 0.  0.
         23    2    4    4    0    0  0.51251709682E+02  0.49701391858E+02 -0.11913544840E+03  0.16599281631E+03  0.90903211730E+02 0.  0.
          3    1    3    3  502    0  0.18891014108E+03 -0.20704215871E+02  0.39452790467E+03  0.43791320318E+03  0.00000000000E+00 0. -1.
         -4    1    3    3    0  502  0.40266551040E+03 -0.55713771019E+02  0.11444851916E+04  0.12145327872E+04  0.00000000000E+00 0.  1.
         13    1    5    5    0    0 -0.60680368287E+03  0.13978778740E+02  0.10528118636E+04  0.12152443935E+04  0.00000000000E+00 0.  1.
        -13    1    5    5    0    0 -0.36023678293E+02  0.12737816292E+02  0.11364658117E+03  0.11989788477E+03  0.00000000000E+00 0. -1.
          1    1    6    6  503    0 -0.11001416236E+02  0.41841862849E+02 -0.82962041089E+02  0.93565340311E+02  0.00000000000E+00 0. -1.
         -1    1    6    6    0  503  0.62253125919E+02  0.78595290087E+01 -0.36173407308E+02  0.72427475996E+02  0.00000000000E+00 0.  1.
<mgrwt>
<rscale>  0 0.18044221E+04</rscale>
<asrwt>0</asrwt>
<pdfrwt beam="1">  1        1 0.43634232E-01 0.18044221E+04</pdfrwt>
<pdfrwt beam="2">  1       -2 0.44153207E+00 0.18044221E+04</pdfrwt>
<totfact> 0.30828937E-01</totfact>
</mgrwt>
</event>
<event>
12    5  0.5264288E-008  0.1765979E+04  0.7818608E-02  0.8724603E-01
         -2   -1    0    0    0  501 -0.00000000000E+00  0.00000000000E+00  0.10381529103E+04  0.10381529103E+04  0.00000000000E+00 0.  1.
          1   -1    0    0  501    0  0.00000000000E+00 -0.00000000000E+00 -0.75101738348E+03  0.75101738348E+03  0.00000000000E+00 0. -1.
        -24    2    1    2    0    0 -0.21036372055E+03 -0.35348499478E+03 -0.40273014145E+03  0.58079793896E+03  0.77007419193E+02 0.  0.
        254    2    1    2    0    0  0.21036372055E+03  0.35348499478E+03  0.68986566824E+03  0.12083723548E+04  0.90279818960E+03 0.  0.
         23    2    4    4    0    0 -0.23598357990E+01 -0.15590359076E+02 -0.19864507573E+03  0.21869902911E+03  0.90115321121E+02 0.  0.
         23    2    4    4    0    0  0.21272355635E+03  0.36907535385E+03  0.88851074397E+03  0.98967332568E+03  0.92379766041E+02 0.  0.
          1    1    3    3  502    0 -0.16026361021E+03 -0.26947559962E+03 -0.34917948221E+03  0.46928438536E+03  0.00000000000E+00 0. -1.
         -2    1    3    3    0  502 -0.50100110338E+02 -0.84009395161E+02 -0.53550659240E+02  0.11151355360E+03  0.00000000000E+00 0.  1.
         13    1    5    5    0    0 -0.21634253001E+02  0.19349902516E+02 -0.16181112811E+03  0.16439373714E+03  0.00000000000E+00 0. -1.
        -13    1    5    5    0    0  0.19274417202E+02 -0.34940261592E+02 -0.36833947614E+02  0.54305291965E+02  0.00000000000E+00 0.  1.
          3    1    6    6  503    0  0.11794703261E+03  0.28312880556E+03  0.59198772210E+03  0.66672549536E+03  0.00000000000E+00 0. -1.
         -3    1    6    6    0  503  0.94776523745E+02  0.85946548296E+02  0.29652302187E+03  0.32294783033E+03  0.00000000000E+00 0.  1.
<mgrwt>
<rscale>  0 0.17659795E+04</rscale>
<asrwt>0</asrwt>
<pdfrwt beam="1">  1        1 0.11554114E+00 0.17659795E+04</pdfrwt>
<pdfrwt beam="2">  1       -2 0.15971583E+00 0.17659795E+04</pdfrwt>
<totfact> 0.51249716E+00</totfact>
</mgrwt>
</event>
<event>
12    5  0.5264288E-008  0.1542467E+04  0.7818608E-02  0.8856694E-01
          1   -1    0    0  501    0  0.00000000000E+00  0.00000000000E+00  0.33946974755E+04  0.33946974755E+04  0.00000000000E+00 0. -1.
         -2   -1    0    0    0  501 -0.00000000000E+00 -0.00000000000E+00 -0.17521465655E+03  0.17521465655E+03  0.00000000000E+00 0.  1.
        -24    2    1    2    0    0 -0.37945318237E+03  0.68201487929E+02  0.18152605829E+04  0.18574488969E+04  0.79430851689E+02 0.  0.
        254    2    1    2    0    0  0.37945318237E+03 -0.68201487929E+02  0.14042222361E+04  0.17124632352E+04  0.90114043465E+03 0.  0.
         23    2    4    4    0    0  0.65107327576E+03 -0.16296362688E+03  0.94848368639E+03  0.11653463700E+04  0.89203725317E+02 0.  0.
         23    2    4    4    0    0 -0.27162009339E+03  0.94762138947E+02  0.45573854971E+03  0.54711686520E+03  0.94243834705E+02 0.  0.
          1    1    3    3  502    0 -0.37473891689E+03  0.66231193602E+02  0.16998774038E+04  0.17419526443E+04  0.00000000000E+00 0. -1.
         -2    1    3    3    0  502 -0.47142654776E+01  0.19702943262E+01  0.11538317904E+03  0.11549625260E+03  0.00000000000E+00 0.  1.
         13    1    5    5    0    0  0.57522112184E+03 -0.16996044757E+03  0.81956076804E+03  0.10156011743E+04  0.00000000000E+00 0. -1.
        -13    1    5    5    0    0  0.75852153923E+02  0.69968206899E+01  0.12892291835E+03  0.14974519568E+03  0.00000000000E+00 0.  1.
          2    1    6    6  503    0 -0.24917319843E+03  0.82747403549E+02  0.34530038304E+03  0.43378193847E+03  0.00000000000E+00 0. -1.
         -2    1    6    6    0  503 -0.22446894957E+02  0.12014735398E+02  0.11043816666E+03  0.11333492673E+03  0.00000000000E+00 0.  1.
<mgrwt>
<rscale>  0 0.15424665E+04</rscale>
<asrwt>0</asrwt>
<pdfrwt beam="1">  1        1 0.52226110E+00 0.15424665E+04</pdfrwt>
<pdfrwt beam="2">  1       -2 0.26956104E-01 0.15424665E+04</pdfrwt>
<totfact> 0.32276091E+00</totfact>
</mgrwt>
</event>
<event>
12    5  0.5264288E-008  0.1242741E+04  0.7818608E-02  0.9076246E-01
          1   -1    0    0  501    0  0.00000000000E+00  0.00000000000E+00  0.12918884110E+04  0.12918884110E+04  0.00000000000E+00 0. -1.
         -2   -1    0    0    0  501 -0.00000000000E+00 -0.00000000000E+00 -0.29886601926E+03  0.29886601926E+03  0.00000000000E+00 0.  1.
        -24    2    1    2    0    0  0.17043810550E+03  0.89049592150E+02 -0.31189123628E+02  0.21097458882E+03  0.80984801219E+02 0.  0.
        254    2    1    2    0    0 -0.17043810550E+03 -0.89049592150E+02  0.10242115154E+04  0.13797798414E+04  0.90432527608E+03 0.  0.
         23    2    4    4    0    0 -0.17553018395E+03 -0.44401956234E+03  0.30805179503E+03  0.57556350368E+03  0.91723612710E+02 0.  0.
         23    2    4    4    0    0  0.50920784511E+01  0.35496997019E+03  0.71615972034E+03  0.80421633776E+03  0.88597764512E+02 0.  0.
          3    1    3    3  502    0  0.19070541611E+01 -0.88515621418E+01  0.81018846270E+01  0.12150207506E+02  0.00000000000E+00 0. -1.
         -4    1    3    3    0  502  0.16853105134E+03  0.97901154292E+02 -0.39291008255E+02  0.19882438132E+03  0.00000000000E+00 0.  1.
         13    1    5    5    0    0  0.47040887465E+01 -0.14021752266E+02  0.28032186311E+02  0.31694501998E+02  0.00000000000E+00 0. -1.
        -13    1    5    5    0    0 -0.18023427270E+03 -0.42999781007E+03  0.28001960872E+03  0.54386900168E+03  0.00000000000E+00 0.  1.
          3    1    6    6  503    0  0.15251852456E+01  0.56055255393E+02  0.20028454420E+03  0.20798657768E+03  0.00000000000E+00 0. -1.
         -3    1    6    6    0  503  0.35668932055E+01  0.29891471480E+03  0.51587517614E+03  0.59622976008E+03  0.00000000000E+00 0.  1.
<mgrwt>
<rscale>  0 0.12427414E+04</rscale>
<asrwt>0</asrwt>
<pdfrwt beam="1">  1        1 0.19875206E+00 0.12427414E+04</pdfrwt>
<pdfrwt beam="2">  1       -2 0.45979388E-01 0.12427414E+04</pdfrwt>
<totfact> 0.35580666E+01</totfact>
</mgrwt>
</event>
<event>
12    5  0.5264288E-008  0.1323437E+04  0.7818608E-02  0.9011183E-01
          1   -1    0    0  501    0  0.00000000000E+00  0.00000000000E+00  0.87404153366E+03  0.87404153366E+03  0.00000000000E+00 0. -1.
         -2   -1    0    0    0  501 -0.00000000000E+00 -0.00000000000E+00 -0.50097309048E+03  0.50097309048E+03  0.00000000000E+00 0.  1.
        -24    2    1    2    0    0 -0.24912227496E+03  0.82279387153E+02 -0.11361590683E+03  0.30180998982E+03  0.96689659420E+02 0.  0.
        254    2    1    2    0    0  0.24912227496E+03 -0.82279387153E+02  0.48668435001E+03  0.10732046343E+04  0.91982320321E+03 0.  0.
         23    2    4    4    0    0 -0.23118198636E+03  0.23970040381E+03  0.30533723076E+03  0.46052692488E+03  0.89178638983E+02 0.  0.
         23    2    4    4    0    0  0.48030426132E+03 -0.32197979097E+03  0.18134711925E+03  0.61267770944E+03  0.90133394180E+02 0.  0.
          3    1    3    3  502    0 -0.46377199234E+02  0.39876911098E+02  0.78890089254E+01  0.61670488156E+02  0.00000000000E+00 0. -1.
         -4    1    3    3    0  502 -0.20274507572E+03  0.42402476055E+02 -0.12150491576E+03  0.24013950166E+03  0.00000000000E+00 0.  1.
         13    1    5    5    0    0 -0.18162785819E+03  0.22731772256E+03  0.27875037076E+03  0.40294391056E+03  0.00000000000E+00 0.  1.
        -13    1    5    5    0    0 -0.49554128171E+02  0.12382681251E+02  0.26586859998E+02  0.57583014321E+02  0.00000000000E+00 0. -1.
          1    1    6    6  503    0  0.20742438446E+03 -0.92473541596E+02  0.92453354693E+02  0.24520165978E+03  0.00000000000E+00 0. -1.
         -1    1    6    6    0  503  0.27287987686E+03 -0.22950624937E+03  0.88893764561E+02  0.36747604966E+03  0.00000000000E+00 0.  1.
<mgrwt>
<rscale>  0 0.13234369E+04</rscale>
<asrwt>0</asrwt>
<pdfrwt beam="1">  1        1 0.13446793E+00 0.13234369E+04</pdfrwt>
<pdfrwt beam="2">  1       -2 0.77072783E-01 0.13234369E+04</pdfrwt>
<totfact> 0.24698609E+01</totfact>
</mgrwt>
</event>
<event>
12    5  0.5264288E-008  0.2327222E+04  0.7818608E-02  0.8467264E-01
         -2   -1    0    0    0  501 -0.00000000000E+00  0.00000000000E+00  0.73842009648E+03  0.73842009648E+03  0.00000000000E+00 0.  1.
          1   -1    0    0  501    0  0.00000000000E+00 -0.00000000000E+00 -0.18336321053E+04  0.18336321053E+04  0.00000000000E+00 0. -1.
        -24    2    1    2    0    0 -0.89773545620E+03  0.41524398219E+03 -0.38113374998E+03  0.10627872603E+04  0.76793953049E+02 0.  0.
        254    2    1    2    0    0  0.89773545620E+03 -0.41524398219E+03 -0.71407825883E+03  0.15092649415E+04  0.88860361791E+03 0.  0.
         23    2    4    4    0    0  0.49614593538E+03  0.14104674165E+03 -0.62021002075E+03  0.81092116434E+03  0.82931853980E+02 0.  0.
         23    2    4    4    0    0  0.40158952082E+03 -0.55629072384E+03 -0.93868238080E+02  0.69834377714E+03  0.90217915527E+02 0.  0.
          1    1    3    3  502    0 -0.78235656796E+03  0.33668640743E+03 -0.31253893526E+03  0.90725967751E+03  0.00000000000E+00 0. -1.
         -2    1    3    3    0  502 -0.11537888824E+03  0.78557574759E+02 -0.68594814716E+02  0.15552758279E+03  0.00000000000E+00 0.  1.
         13    1    5    5    0    0  0.37373250484E+03  0.72254025944E+02 -0.42639212231E+03  0.57158277739E+03  0.00000000000E+00 0.  1.
        -13    1    5    5    0    0  0.12241343054E+03  0.68792715706E+02 -0.19381789844E+03  0.23933838695E+03  0.00000000000E+00 0. -1.
          2    1    6    6  503    0  0.19165980723E+03 -0.30140344668E+03 -0.88989515895E+02  0.36809870051E+03  0.00000000000E+00 0. -1.
         -2    1    6    6    0  503  0.20992971359E+03 -0.25488727717E+03 -0.48787221847E+01  0.33024507663E+03  0.00000000000E+00 0.  1.
<mgrwt>
<rscale>  0 0.23272222E+04</rscale>
<asrwt>0</asrwt>
<pdfrwt beam="1">  1        1 0.28209725E+00 0.23272222E+04</pdfrwt>
<pdfrwt beam="2">  1       -2 0.11360309E+00 0.23272222E+04</pdfrwt>
<totfact> 0.18599457E+00</totfact>
</mgrwt>
</event>
<event>
12    5  0.5264288E-008  0.1704654E+04  0.7818608E-02  0.8758715E-01
          1   -1    0    0  501    0  0.00000000000E+00  0.00000000000E+00  0.26701605362E+04  0.26701605362E+04  0.00000000000E+00 0. -1.
         -2   -1    0    0    0  501 -0.00000000000E+00 -0.00000000000E+00 -0.27206637964E+03  0.27206637964E+03  0.00000000000E+00 0.  1.
        -24    2    1    2    0    0  0.58004556276E+03 -0.19657346540E+03  0.85976161932E+03  0.10586342463E+04  0.80140147920E+02 0.  0.
        254    2    1    2    0    0 -0.58004556276E+03  0.19657346540E+03  0.15383325373E+04  0.18835926695E+04  0.89797570529E+03 0.  0.
         23    2    4    4    0    0 -0.34283534137E+03  0.53433020123E+03  0.11056815630E+04  0.12785391729E+04  0.95319790918E+02 0.  0.
         23    2    4    4    0    0 -0.23721022138E+03 -0.33775673583E+03  0.43265097422E+03  0.60505349662E+03  0.92490899876E+02 0.  0.
          3    1    3    3  502    0  0.32555073390E+03 -0.92358013109E+02  0.41192203306E+03  0.53309759355E+03  0.00000000000E+00 0. -1.
         -4    1    3    3    0  502  0.25449482885E+03 -0.10421545229E+03  0.44783958625E+03  0.52553665279E+03  0.00000000000E+00 0.  1.
         13    1    5    5    0    0  0.51531324991E+01  0.11573300997E+01  0.85918378248E+01  0.10085329183E+02  0.00000000000E+00 0.  1.
        -13    1    5    5    0    0 -0.34798847387E+03  0.53317287113E+03  0.10970897252E+04  0.12684538437E+04  0.00000000000E+00 0. -1.
          3    1    6    6  503    0 -0.24393824479E+03 -0.32783340576E+03  0.40700756052E+03  0.57674583962E+03  0.00000000000E+00 0. -1.
         -3    1    6    6    0  503  0.67280234075E+01 -0.99233300616E+01  0.25643413702E+02  0.28307656999E+02  0.00000000000E+00 0.  1.
<mgrwt>
<rscale>  0 0.17046535E+04</rscale>
<asrwt>0</asrwt>
<pdfrwt beam="1">  1        1 0.41079391E+00 0.17046535E+04</pdfrwt>
<pdfrwt beam="2">  1       -2 0.41856368E-01 0.17046535E+04</pdfrwt>
<totfact> 0.46650574E+00</totfact>
</mgrwt>
</event>
<event>
12    5  0.5264288E-008  0.1008879E+04  0.7818608E-02  0.9298860E-01
          1   -1    0    0  501    0  0.00000000000E+00  0.00000000000E+00  0.51387344298E+03  0.51387344298E+03  0.00000000000E+00 0. -1.
         -2   -1    0    0    0  501 -0.00000000000E+00 -0.00000000000E+00 -0.49517894546E+03  0.49517894546E+03  0.00000000000E+00 0.  1.
        -24    2    1    2    0    0 -0.67381274906E+02 -0.63974257324E+02  0.17640001564E+03  0.21471216575E+03  0.79695713788E+02 0.  0.
        254    2    1    2    0    0  0.67381274906E+02  0.63974257324E+02 -0.15770551812E+03  0.79434022270E+03  0.77296339961E+03 0.  0.
         23    2    4    4    0    0  0.20969238166E+03 -0.21426818585E+03  0.14966791277E+03  0.34710293087E+03  0.90543967824E+02 0.  0.
         23    2    4    4    0    0 -0.14231110676E+03  0.27824244317E+03 -0.30737343089E+03  0.44723729183E+03  0.88721253925E+02 0.  0.
          1    1    3    3  502    0 -0.58826799844E+02 -0.82887584667E+02  0.14757090645E+03  0.17918737819E+03  0.00000000000E+00 0. -1.
         -2    1    3    3    0  502 -0.85544750624E+01  0.18913327343E+02  0.28829109191E+02  0.35524787564E+02  0.00000000000E+00 0.  1.
         13    1    5    5    0    0  0.16982404012E+03 -0.11276551642E+03  0.90575561174E+02  0.22306994100E+03  0.00000000000E+00 0. -1.
        -13    1    5    5    0    0  0.39868341546E+02 -0.10150266943E+03  0.59092351594E+02  0.12403298987E+03  0.00000000000E+00 0.  1.
          2    1    6    6  503    0 -0.13917542954E+03  0.19258958309E+03 -0.24448420933E+03  0.34092972343E+03  0.00000000000E+00 0. -1.
         -2    1    6    6    0  503 -0.31356772136E+01  0.85652860080E+02 -0.62889221560E+02  0.10630756840E+03  0.00000000000E+00 0.  1.
<mgrwt>
<rscale>  0 0.10088792E+04</rscale>
<asrwt>0</asrwt>
<pdfrwt beam="1">  1        1 0.79057453E-01 0.10088792E+04</pdfrwt>
<pdfrwt beam="2">  1       -2 0.76181376E-01 0.10088792E+04</pdfrwt>
<totfact> 0.57721086E+01</totfact>
</mgrwt>
</event>
<event>
12    5  0.5264288E-008  0.1478166E+04  0.7818608E-02  0.8899103E-01
          1   -1    0    0  501    0  0.00000000000E+00  0.00000000000E+00  0.70681630199E+03  0.70681630199E+03  0.00000000000E+00 0. -1.
         -2   -1    0    0    0  501 -0.00000000000E+00 -0.00000000000E+00 -0.77282269613E+03  0.77282269613E+03  0.00000000000E+00 0.  1.
        -24    2    1    2    0    0  0.39250970392E+03 -0.24312511880E+03  0.70494162784E+01  0.46860645305E+03  0.79803649752E+02 0.  0.
        254    2    1    2    0    0 -0.39250970392E+03  0.24312511880E+03 -0.73055810420E+02  0.10110325451E+04  0.89647976256E+03 0.  0.
         23    2    4    4    0    0 -0.51324617295E+03 -0.18119540335E+03  0.14424311333E+02  0.55206125270E+03  0.91160066555E+02 0.  0.
         23    2    4    4    0    0  0.12073646903E+03  0.42432052215E+03 -0.87480121752E+02  0.45897129236E+03  0.91524177357E+02 0.  0.
          1    1    3    3  502    0  0.35844126326E+03 -0.24525090728E+03  0.39506275006E+01  0.43433138752E+03  0.00000000000E+00 0. -1.
         -2    1    3    3    0  502  0.34068440655E+02  0.21257884785E+01  0.30987887778E+01  0.34275065532E+02  0.00000000000E+00 0.  1.
         13    1    5    5    0    0 -0.18478410339E+03 -0.10552705134E+03  0.28548605751E+02  0.21470013116E+03  0.00000000000E+00 0. -1.
        -13    1    5    5    0    0 -0.32846206956E+03 -0.75668352017E+02 -0.14124294418E+02  0.33736112154E+03  0.00000000000E+00 0.  1.
          4    1    6    6  503    0  0.52469531128E+02  0.31721524116E+03 -0.82120119426E+02  0.33184676424E+03  0.00000000000E+00 0. -1.
         -4    1    6    6    0  503  0.68266937899E+02  0.10710528099E+03 -0.53600023265E+01  0.12712452813E+03  0.00000000000E+00 0.  1.
<mgrwt>
<rscale>  0 0.14781660E+04</rscale>
<asrwt>0</asrwt>
<pdfrwt beam="1">  1        1 0.10874097E+00 0.14781660E+04</pdfrwt>
<pdfrwt beam="2">  1       -2 0.11889580E+00 0.14781660E+04</pdfrwt>
<totfact> 0.12373887E+01</totfact>
</mgrwt>
</event>
<event>
12    5  0.5264288E-008  0.1281526E+04  0.7818608E-02  0.9044345E-01
          1   -1    0    0  501    0  0.00000000000E+00  0.00000000000E+00  0.44911974869E+03  0.44911974869E+03  0.00000000000E+00 0. -1.
         -2   -1    0    0    0  501 -0.00000000000E+00 -0.00000000000E+00 -0.91418230846E+03  0.91418230846E+03  0.00000000000E+00 0.  1.
        -24    2    1    2    0    0  0.29019804606E+03 -0.50879438661E+01 -0.31995711521E+02  0.30424427610E+03  0.85440393696E+02 0.  0.
        254    2    1    2    0    0 -0.29019804606E+03  0.50879438661E+01 -0.43306684825E+03  0.10590577810E+04  0.92185448712E+03 0.  0.
         23    2    4    4    0    0 -0.71422912835E+02 -0.29099516369E+03 -0.57410070795E+03  0.65380907354E+03  0.89973685099E+02 0.  0.
         23    2    4    4    0    0 -0.21877513322E+03  0.29608310756E+03  0.14103385970E+03  0.40524870750E+03  0.93852010369E+02 0.  0.
          1    1    3    3  502    0  0.11013602691E+03  0.20324036333E+02  0.22858657609E+02  0.11430454542E+03  0.00000000000E+00 0. -1.
         -4    1    3    3    0  502  0.18006201915E+03 -0.25411980199E+02 -0.54854369130E+02  0.18993973068E+03  0.00000000000E+00 0.  1.
         13    1    5    5    0    0  0.19693021423E+02 -0.59614575775E+02 -0.92474417382E+02  0.11177312113E+03  0.00000000000E+00 0. -1.
        -13    1    5    5    0    0 -0.91115934258E+02 -0.23138058792E+03 -0.48162629057E+03  0.54203595241E+03  0.00000000000E+00 0.  1.
          2    1    6    6  503    0 -0.87009394514E+02  0.69529831309E+02  0.88835809140E+01  0.11173159887E+03  0.00000000000E+00 0. -1.
         -2    1    6    6    0  503 -0.13176573871E+03  0.22655327625E+03  0.13215027879E+03  0.29351710863E+03  0.00000000000E+00 0.  1.
<mgrwt>
<rscale>  0 0.12815262E+04</rscale>
<asrwt>0</asrwt>
<pdfrwt beam="1">  1        1 0.69095346E-01 0.12815262E+04</pdfrwt>
<pdfrwt beam="2">  1       -2 0.14064343E+00 0.12815262E+04</pdfrwt>
<totfact> 0.15657727E+01</totfact>
</mgrwt>
</event>
<event>
12    5  0.5264288E-008  0.1353639E+04  0.7818608E-02  0.8988078E-01
         -2   -1    0    0    0  501 -0.00000000000E+00  0.00000000000E+00  0.51177117624E+03  0.51177117624E+03  0.00000000000E+00 0.  1.
          1   -1    0    0  501    0  0.00000000000E+00 -0.00000000000E+00 -0.89509615070E+03  0.89509615070E+03  0.00000000000E+00 0. -1.
        -24    2    1    2    0    0 -0.23404838135E+02  0.26720351575E+03  0.15528484672E+03  0.31664714636E+03  0.64857739719E+02 0.  0.
        254    2    1    2    0    0  0.23404838135E+02 -0.26720351575E+03 -0.53860982119E+03  0.10902201806E+04  0.90913915183E+03 0.  0.
         23    2    4    4    0    0 -0.13256823146E+03 -0.99056240254E+02  0.22170210276E+03  0.29123792920E+03  0.91001287389E+02 0.  0.
         23    2    4    4    0    0  0.15597306960E+03 -0.16814727549E+03 -0.76031192395E+03  0.79898225138E+03  0.87734324129E+02 0.  0.
          1    1    3    3  502    0 -0.20380077469E+02  0.90659748622E+02  0.87124786182E+02  0.12737843595E+03  0.00000000000E+00 0. -1.
         -2    1    3    3    0  502 -0.30247606657E+01  0.17654376712E+03  0.68160060538E+02  0.18926871041E+03  0.00000000000E+00 0.  1.
         13    1    5    5    0    0  0.11430160614E+02  0.36294157076E+01  0.13555431344E+02  0.18098921210E+02  0.00000000000E+00 0. -1.
        -13    1    5    5    0    0 -0.14399839208E+03 -0.10268565596E+03  0.20814667142E+03  0.27313900799E+03  0.00000000000E+00 0.  1.
          3    1    6    6  503    0  0.52325601243E+02 -0.65950168214E+02 -0.42782886666E+03  0.43603317807E+03  0.00000000000E+00 0. -1.
         -3    1    6    6    0  503  0.10364746836E+03 -0.10219710728E+03 -0.33248305730E+03  0.36294907332E+03  0.00000000000E+00 0.  1.
<mgrwt>
<rscale>  0 0.13536387E+04</rscale>
<asrwt>0</asrwt>
<pdfrwt beam="1">  1        1 0.13770710E+00 0.13536387E+04</pdfrwt>
<pdfrwt beam="2">  1       -2 0.78734028E-01 0.13536387E+04</pdfrwt>
<totfact> 0.22569932E+01</totfact>
</mgrwt>
</event>
<event>
12    5  0.5264288E-008  0.1150655E+04  0.7818608E-02  0.9157180E-01
         -2   -1    0    0    0  501 -0.00000000000E+00  0.00000000000E+00  0.16018250922E+03  0.16018250922E+03  0.00000000000E+00 0.  1.
          1   -1    0    0  501    0  0.00000000000E+00 -0.00000000000E+00 -0.20664025307E+04  0.20664025307E+04  0.00000000000E+00 0. -1.
        -24    2    1    2    0    0 -0.15139164526E+03  0.85793368639E+02 -0.14031489849E+03  0.23724556344E+03  0.79481156727E+02 0.  0.
        254    2    1    2    0    0  0.15139164526E+03 -0.85793368639E+02 -0.17659051230E+04  0.19893394765E+04  0.89931680567E+03 0.  0.
         23    2    4    4    0    0 -0.67998909368E+02 -0.14049433695E+03 -0.17337454819E+04  0.17431951140E+04  0.92159096953E+02 0.  0.
         23    2    4    4    0    0  0.21939055463E+03  0.54700968313E+02 -0.32159641172E+02  0.24614436255E+03  0.91806281358E+02 0.  0.
          1    1    3    3  502    0 -0.11617545298E+03  0.69521340881E+02 -0.14475105606E+03  0.19819894284E+03  0.00000000000E+00 0. -1.
         -2    1    3    3    0  502 -0.35216192282E+02  0.16272027758E+02  0.44361575655E+01  0.39046620598E+02  0.00000000000E+00 0.  1.
         13    1    5    5    0    0 -0.56909784741E+02 -0.14480131199E+03 -0.17050198201E+04  0.17121035980E+04  0.00000000000E+00 0. -1.
        -13    1    5    5    0    0 -0.11089124627E+02  0.43069750389E+01 -0.28725661789E+02  0.31091515952E+02  0.00000000000E+00 0.  1.
          3    1    6    6  503    0  0.89606403140E+02  0.61712604555E+02  0.10603285394E+02  0.10931689122E+03  0.00000000000E+00 0. -1.
         -3    1    6    6    0  503  0.12978415149E+03 -0.70116362418E+01 -0.42762926565E+02  0.13682747133E+03  0.00000000000E+00 0.  1.
<mgrwt>
<rscale>  0 0.11506547E+04</rscale>
<asrwt>0</asrwt>
<pdfrwt beam="1">  1        1 0.31790808E+00 0.11506547E+04</pdfrwt>
<pdfrwt beam="2">  1       -2 0.24643463E-01 0.11506547E+04</pdfrwt>
<totfact> 0.34581789E+01</totfact>
</mgrwt>
</event>
<event>
12    5  0.5264288E-008  0.2388520E+04  0.7818608E-02  0.8443814E-01
          1   -1    0    0  501    0  0.00000000000E+00  0.00000000000E+00  0.64916511488E+03  0.64916511488E+03  0.00000000000E+00 0. -1.
         -2   -1    0    0    0  501 -0.00000000000E+00 -0.00000000000E+00 -0.21970638624E+04  0.21970638624E+04  0.00000000000E+00 0.  1.
        -24    2    1    2    0    0 -0.50004326087E+03  0.86897168163E+03 -0.91582279449E+03  0.13603324966E+04  0.81351485850E+02 0.  0.
        254    2    1    2    0    0  0.50004326087E+03 -0.86897168163E+03 -0.63207595302E+03  0.14858964806E+04  0.89622167715E+03 0.  0.
         23    2    4    4    0    0  0.18435962225E+03 -0.32386515680E+03  0.20415933200E+03  0.43496742889E+03  0.92943645555E+02 0.  0.
         23    2    4    4    0    0  0.31568363862E+03 -0.54510652483E+03 -0.83623528502E+03  0.10509290518E+04  0.91461121788E+02 0.  0.
          1    1    3    3  502    0 -0.38949799417E+02  0.10628846558E+03 -0.12726939388E+03  0.17032857485E+03  0.00000000000E+00 0. -1.
         -2    1    3    3    0  502 -0.46109346145E+03  0.76268321605E+03 -0.78855340061E+03  0.11900039218E+04  0.00000000000E+00 0.  1.
         13    1    5    5    0    0  0.10769559675E+03 -0.11186245335E+03  0.55373564285E+02  0.16485685200E+03  0.00000000000E+00 0. -1.
        -13    1    5    5    0    0  0.76664025499E+02 -0.21200270344E+03  0.14878576772E+03  0.27011057689E+03  0.00000000000E+00 0.  1.
          4    1    6    6  503    0  0.21692782704E+03 -0.37681822791E+03 -0.50399943014E+03  0.66563134287E+03  0.00000000000E+00 0.  1.
         -4    1    6    6    0  503  0.98755811580E+02 -0.16828829692E+03 -0.33223585488E+03  0.38529770888E+03  0.00000000000E+00 0. -1.
<mgrwt>
<rscale>  0 0.23885202E+04</rscale>
<asrwt>0</asrwt>
<pdfrwt beam="1">  1        1 0.99871555E-01 0.23885202E+04</pdfrwt>
<pdfrwt beam="2">  1       -2 0.33800983E+00 0.23885202E+04</pdfrwt>
<totfact> 0.44417260E-01</totfact>
</mgrwt>
</event>
<event>
12    5  0.5264288E-008  0.1611628E+04  0.7818608E-02  0.8813436E-01
         -2   -1    0    0    0  501 -0.00000000000E+00  0.00000000000E+00  0.22088327855E+03  0.22088327855E+03  0.00000000000E+00 0.  1.
          1   -1    0    0  501    0  0.00000000000E+00 -0.00000000000E+00 -0.29397256887E+04  0.29397256887E+04  0.00000000000E+00 0. -1.
        -24    2    1    2    0    0  0.32855128458E+03 -0.35252493933E+03 -0.41108554787E+03  0.63798424485E+03  0.76241652426E+02 0.  0.
        254    2    1    2    0    0 -0.32855128458E+03  0.35252493933E+03 -0.23077568622E+04  0.25226247223E+04  0.89759343533E+03 0.  0.
         23    2    4    4    0    0 -0.30831260002E+03  0.27905200672E+03 -0.23546721547E+04  0.23927638190E+04  0.88944114053E+02 0.  0.
         23    2    4    4    0    0 -0.20238684558E+02  0.73472932607E+02  0.46915292496E+02  0.12986090335E+03  0.94100655531E+02 0.  0.
          3    1    3    3  502    0  0.11127154504E+03 -0.11593762372E+03 -0.18571296230E+03  0.24558541018E+03  0.00000000000E+00 0. -1.
         -4    1    3    3    0  502  0.21727973954E+03 -0.23658731561E+03 -0.22537258557E+03  0.39239883467E+03  0.00000000000E+00 0.  1.
         13    1    5    5    0    0 -0.67970456137E+00 -0.18552149955E+01 -0.94454962047E+02  0.94475624773E+02  0.00000000000E+00 0.  1.
        -13    1    5    5    0    0 -0.30763289546E+03  0.28090722172E+03 -0.22602171927E+04  0.22982881942E+04  0.00000000000E+00 0. -1.
          1    1    6    6  503    0  0.73790617922E+00 -0.20377349528E+02  0.23056223469E+02  0.30779381410E+02  0.00000000000E+00 0. -1.
         -1    1    6    6    0  503 -0.20976590737E+02  0.93850282135E+02  0.23859069027E+02  0.99081521944E+02  0.00000000000E+00 0.  1.
<mgrwt>
<rscale>  0 0.16116281E+04</rscale>
<asrwt>0</asrwt>
<pdfrwt beam="1">  1        1 0.45226546E+00 0.16116281E+04</pdfrwt>
<pdfrwt beam="2">  1       -2 0.33982045E-01 0.16116281E+04</pdfrwt>
<totfact> 0.45322664E+00</totfact>
</mgrwt>
</event>
<event>
12    5  0.5264288E-008  0.2120441E+04  0.7818608E-02  0.8552292E-01
          1   -1    0    0  501    0  0.00000000000E+00  0.00000000000E+00  0.78464152915E+03  0.78464152915E+03  0.00000000000E+00 0. -1.
         -2   -1    0    0    0  501 -0.00000000000E+00 -0.00000000000E+00 -0.14325879310E+04  0.14325879310E+04  0.00000000000E+00 0.  1.
        -24    2    1    2    0    0  0.49933019378E+03  0.21193635521E+03 -0.97397664665E+03  0.11177125921E+04  0.80020429527E+02 0.  0.
        254    2    1    2    0    0 -0.49933019378E+03 -0.21193635521E+03  0.32603024476E+03  0.10995168681E+04  0.89910731379E+03 0.  0.
         23    2    4    4    0    0 -0.25818754799E+03  0.12612587926E+03  0.54348214290E+03  0.62133963816E+03  0.90119692287E+02 0.  0.
         23    2    4    4    0    0 -0.24114264579E+03 -0.33806223447E+03 -0.21745189813E+03  0.47817722997E+03  0.94510767987E+02 0.  0.
          1    1    3    3  502    0  0.10981078144E+03  0.35103542690E+02 -0.14869835416E+03  0.18815383855E+03  0.00000000000E+00 0. -1.
         -2    1    3    3    0  502  0.38951941234E+03  0.17683281252E+03 -0.82527829249E+03  0.92955875351E+03  0.00000000000E+00 0.  1.
         13    1    5    5    0    0 -0.75457142951E+02  0.77077441144E+02  0.24844575138E+03  0.27085051917E+03  0.00000000000E+00 0.  1.
        -13    1    5    5    0    0 -0.18273040504E+03  0.49048438119E+02  0.29503639152E+03  0.35048911899E+03  0.00000000000E+00 0. -1.
          2    1    6    6  503    0 -0.19946800677E+03 -0.31940758340E+03 -0.17285469135E+03  0.41435182439E+03  0.00000000000E+00 0.  1.
         -2    1    6    6    0  503 -0.41674639013E+02 -0.18654651073E+02 -0.44597206785E+02  0.63825405573E+02  0.00000000000E+00 0. -1.
<mgrwt>
<rscale>  0 0.21204414E+04</rscale>
<asrwt>0</asrwt>
<pdfrwt beam="1">  1        1 0.12071408E+00 0.21204414E+04</pdfrwt>
<pdfrwt beam="2">  1       -2 0.22039814E+00 0.21204414E+04</pdfrwt>
<totfact> 0.18021712E+00</totfact>
</mgrwt>
</event>
<event>
12    5  0.5264288E-008  0.3000027E+04  0.7818608E-02  0.8243723E-01
         -2   -1    0    0    0  501 -0.00000000000E+00  0.00000000000E+00  0.70417758750E+03  0.70417758750E+03  0.00000000000E+00 0.  1.
          1   -1    0    0  501    0  0.00000000000E+00 -0.00000000000E+00 -0.31952735893E+04  0.31952735893E+04  0.00000000000E+00 0. -1.
        -24    2    1    2    0    0  0.96143941368E+03  0.76123562827E+03 -0.19062191214E+04  0.22680138269E+04  0.79811982050E+02 0.  0.
        254    2    1    2    0    0 -0.96143941368E+03 -0.76123562827E+03 -0.58487688043E+03  0.16314373499E+04  0.90313976404E+03 0.  0.
         23    2    4    4    0    0 -0.10102017110E+04 -0.33612072569E+03 -0.52350153791E+03  0.11898163650E+04  0.90135914596E+02 0.  0.
         23    2    4    4    0    0  0.48762297371E+02 -0.42511490258E+03 -0.61375342524E+02  0.44162098483E+03  0.90342235590E+02 0.  0.
          3    1    3    3  502    0  0.86200052308E+03  0.68355065048E+03 -0.16619944592E+04  0.19931161472E+04  0.00000000000E+00 0. -1.
         -4    1    3    3    0  502  0.99438890602E+02  0.77684977789E+02 -0.24422466211E+03  0.27489767973E+03  0.00000000000E+00 0.  1.
         13    1    5    5    0    0 -0.51756988269E+03 -0.20763762683E+03 -0.30697576891E+03  0.63657371155E+03  0.00000000000E+00 0.  1.
        -13    1    5    5    0    0 -0.49263182836E+03 -0.12848309886E+03 -0.21652576900E+03  0.55324265350E+03  0.00000000000E+00 0. -1.
          2    1    6    6  503    0  0.15345460399E+02 -0.27264769654E+03 -0.79676457888E+02  0.28446544171E+03  0.00000000000E+00 0. -1.
         -2    1    6    6    0  503  0.33416836973E+02 -0.15246720604E+03  0.18301115364E+02  0.15715554312E+03  0.00000000000E+00 0.  1.
<mgrwt>
<rscale>  0 0.30000267E+04</rscale>
<asrwt>0</asrwt>
<pdfrwt beam="1">  1        1 0.49158055E+00 0.30000267E+04</pdfrwt>
<pdfrwt beam="2">  1       -2 0.10833501E+00 0.30000267E+04</pdfrwt>
<totfact> 0.21867655E-01</totfact>
</mgrwt>
</event>
<event>
12    5  0.5264288E-008  0.2457523E+04  0.7818608E-02  0.8418276E-01
         -2   -1    0    0    0  501 -0.00000000000E+00  0.00000000000E+00  0.56498116098E+03  0.56498116098E+03  0.00000000000E+00 0.  1.
          1   -1    0    0  501    0  0.00000000000E+00 -0.00000000000E+00 -0.26723993713E+04  0.26723993713E+04  0.00000000000E+00 0. -1.
        -24    2    1    2    0    0  0.38550889197E+02  0.25485811729E+03  0.44341720509E+03  0.51913933622E+03  0.80299449801E+02 0.  0.
        254    2    1    2    0    0 -0.38550889197E+02 -0.25485811729E+03 -0.25508354154E+04  0.27182411960E+04  0.90312515879E+03 0.  0.
         23    2    4    4    0    0 -0.15379535763E+03 -0.56669873353E+03 -0.16070489952E+04  0.17135236328E+04  0.93575106487E+02 0.  0.
         23    2    4    4    0    0  0.11524446843E+03  0.31184061624E+03 -0.94378642012E+03  0.10047175632E+04  0.90546769823E+02 0.  0.
          1    1    3    3  502    0  0.21257873689E+02  0.20062421701E+02  0.88783865823E+02  0.93471775359E+02  0.00000000000E+00 0. -1.
         -2    1    3    3    0  502  0.17293015507E+02  0.23479569559E+03  0.35463333927E+03  0.42566756086E+03  0.00000000000E+00 0.  1.
         13    1    5    5    0    0 -0.13342286100E+03 -0.32792742311E+03 -0.91069953384E+03  0.97709349378E+03  0.00000000000E+00 0.  1.
        -13    1    5    5    0    0 -0.20372496625E+02 -0.23877131042E+03 -0.69634946141E+03  0.73643013905E+03  0.00000000000E+00 0. -1.
          3    1    6    6  503    0  0.38039085277E+02  0.22219640443E+03 -0.65131751738E+03  0.68922617667E+03  0.00000000000E+00 0. -1.
         -3    1    6    6    0  503  0.77205383153E+02  0.89644211803E+02 -0.29246890274E+03  0.31549138652E+03  0.00000000000E+00 0.  1.
<mgrwt>
<rscale>  0 0.24575234E+04</rscale>
<asrwt>0</asrwt>
<pdfrwt beam="1">  1        1 0.41113838E+00 0.24575234E+04</pdfrwt>
<pdfrwt beam="2">  1       -2 0.86920176E-01 0.24575234E+04</pdfrwt>
<totfact> 0.92107619E-01</totfact>
</mgrwt>
</event>
<event>
12    5  0.5264288E-008  0.1843515E+04  0.7818608E-02  0.8683495E-01
          1   -1    0    0  501    0  0.00000000000E+00  0.00000000000E+00  0.14202759156E+04  0.14202759156E+04  0.00000000000E+00 0. -1.
         -2   -1    0    0    0  501 -0.00000000000E+00 -0.00000000000E+00 -0.59821934861E+03  0.59821934861E+03  0.00000000000E+00 0.  1.
        -24    2    1    2    0    0 -0.58802798327E+02  0.67200450033E+03  0.88313233408E+02  0.68519372493E+03  0.81507029989E+02 0.  0.
        254    2    1    2    0    0  0.58802798327E+02 -0.67200450033E+03  0.73374333358E+03  0.13333015393E+04  0.88558788243E+03 0.  0.
         23    2    4    4    0    0  0.36701393604E+02 -0.83825318796E+03  0.76607415856E+03  0.11397592597E+04  0.90366776618E+02 0.  0.
         23    2    4    4    0    0  0.22101404723E+02  0.16624868763E+03 -0.32330824978E+02  0.19354227955E+03  0.91028750941E+02 0.  0.
          3    1    3    3  502    0 -0.47575121556E+02  0.15113495216E+03  0.23819059856E+02  0.16022644466E+03  0.00000000000E+00 0. -1.
         -4    1    3    3    0  502 -0.11227676771E+02  0.52086954817E+03  0.64494173552E+02  0.52496728028E+03  0.00000000000E+00 0.  1.
         13    1    5    5    0    0  0.31464375477E+02 -0.83275471976E+03  0.74666917464E+03  0.11189214836E+04  0.00000000000E+00 0. -1.
        -13    1    5    5    0    0  0.52370181271E+01 -0.54984682050E+01  0.19404983921E+02  0.20837776092E+02  0.00000000000E+00 0.  1.
          1    1    6    6  503    0  0.11601353942E+00  0.12078080883E+03 -0.61166282324E+02  0.13538586091E+03  0.00000000000E+00 0. -1.
         -1    1    6    6    0  503  0.21985391184E+02  0.45467878799E+02  0.28835457346E+02  0.58156418634E+02  0.00000000000E+00 0.  1.
<mgrwt>
<rscale>  0 0.18435146E+04</rscale>
<asrwt>0</asrwt>
<pdfrwt beam="1">  1        1 0.21850399E+00 0.18435146E+04</pdfrwt>
<pdfrwt beam="2">  1       -2 0.92033746E-01 0.18435146E+04</pdfrwt>
<totfact> 0.61552265E+00</totfact>
</mgrwt>
</event>
<event>
12    5  0.5264288E-008  0.1579712E+04  0.7818608E-02  0.8833110E-01
         -2   -1    0    0    0  501 -0.00000000000E+00  0.00000000000E+00  0.89689987740E+03  0.89689987740E+03  0.00000000000E+00 0.  1.
          1   -1    0    0  501    0  0.00000000000E+00 -0.00000000000E+00 -0.69558771578E+03  0.69558771578E+03  0.00000000000E+00 0. -1.
        -24    2    1    2    0    0  0.41131365898E+03  0.18295277396E+03  0.35756037257E+03  0.58041303360E+03  0.79870056798E+02 0.  0.
        254    2    1    2    0    0 -0.41131365898E+03 -0.18295277396E+03 -0.15624821095E+03  0.10120745596E+04  0.89287780081E+03 0.  0.
         23    2    4    4    0    0 -0.37187957510E+03 -0.41905268100E+03 -0.37083205369E+03  0.67803765407E+03  0.91208993321E+02 0.  0.
         23    2    4    4    0    0 -0.39434083874E+02  0.23609990703E+03  0.21458384274E+03  0.33403690552E+03  0.90753598326E+02 0.  0.
          1    1    3    3  502    0  0.12635780305E+03  0.52685092106E+02  0.64255257144E+02  0.15123078851E+03  0.00000000000E+00 0. -1.
         -2    1    3    3    0  502  0.28495585593E+03  0.13026768186E+03  0.29330511543E+03  0.42918224509E+03  0.00000000000E+00 0.  1.
         13    1    5    5    0    0 -0.25143954762E+03 -0.21776790278E+03 -0.20422274915E+03  0.39032247804E+03  0.00000000000E+00 0. -1.
        -13    1    5    5    0    0 -0.12044002748E+03 -0.20128477821E+03 -0.16660930454E+03  0.28771517603E+03  0.00000000000E+00 0.  1.
          1    1    6    6  503    0  0.22584307787E+02  0.53500506956E+02  0.80078792259E+02  0.98918998036E+02  0.00000000000E+00 0. -1.
         -1    1    6    6    0  503 -0.62018391661E+02  0.18259940008E+03  0.13450505049E+03  0.23511790748E+03  0.00000000000E+00 0.  1.
<mgrwt>
<rscale>  0 0.15797120E+04</rscale>
<asrwt>0</asrwt>
<pdfrwt beam="1">  1        1 0.10701350E+00 0.15797120E+04</pdfrwt>
<pdfrwt beam="2">  1       -2 0.13798460E+00 0.15797120E+04</pdfrwt>
<totfact> 0.86292612E+00</totfact>
</mgrwt>
</event>
<event>
12    5  0.5264288E-008  0.2047939E+04  0.7818608E-02  0.8584530E-01
          1   -1    0    0  501    0  0.00000000000E+00  0.00000000000E+00  0.20209919038E+04  0.20209919038E+04  0.00000000000E+00 0. -1.
         -2   -1    0    0    0  501 -0.00000000000E+00 -0.00000000000E+00 -0.51881116857E+03  0.51881116857E+03  0.00000000000E+00 0.  1.
        -24    2    1    2    0    0 -0.52054319803E+03  0.49676540737E+03  0.10177942593E+03  0.73077855743E+03  0.77052952398E+02 0.  0.
        254    2    1    2    0    0  0.52054319803E+03 -0.49676540737E+03  0.14004013093E+04  0.18090245149E+04  0.89090110426E+03 0.  0.
         23    2    4    4    0    0  0.62945770062E+02 -0.42701463286E+03  0.13966823078E+03  0.46298959181E+03  0.92457994721E+02 0.  0.
         23    2    4    4    0    0  0.45759742797E+03 -0.69750774507E+02  0.12607330785E+04  0.13460349231E+04  0.90008568303E+02 0.  0.
          1    1    3    3  502    0 -0.10876245550E+03  0.13955654182E+03  0.41624116010E+01  0.17698199276E+03  0.00000000000E+00 0. -1.
         -2    1    3    3    0  502 -0.41178074253E+03  0.35720886555E+03  0.97617014333E+02  0.55379656467E+03  0.00000000000E+00 0.  1.
         13    1    5    5    0    0  0.66184443952E+02 -0.24794941410E+03  0.45451539554E+02  0.26062450963E+03  0.00000000000E+00 0. -1.
        -13    1    5    5    0    0 -0.32386738900E+01 -0.17906521877E+03  0.94216691226E+02  0.20236508218E+03  0.00000000000E+00 0.  1.
          3    1    6    6  503    0  0.23293461194E+03 -0.70538262066E+02  0.73707549818E+03  0.77621805562E+03  0.00000000000E+00 0. -1.
         -3    1    6    6    0  503  0.22466281604E+03  0.78748755858E+00  0.52365758032E+03  0.56981686749E+03  0.00000000000E+00 0.  1.
<mgrwt>
<rscale>  0 0.20479386E+04</rscale>
<asrwt>0</asrwt>
<pdfrwt beam="1">  1        1 0.31092183E+00 0.20479386E+04</pdfrwt>
<pdfrwt beam="2">  1       -2 0.79817104E-01 0.20479386E+04</pdfrwt>
<totfact> 0.32510008E+00</totfact>
</mgrwt>
</event>
<event>
12    5  0.5264288E-008  0.2040335E+04  0.7818608E-02  0.8587992E-01
         -2   -1    0    0    0  501 -0.00000000000E+00  0.00000000000E+00  0.33890639563E+04  0.33890639563E+04  0.00000000000E+00 0.  1.
          1   -1    0    0  501    0  0.00000000000E+00 -0.00000000000E+00 -0.30708816992E+03  0.30708816992E+03  0.00000000000E+00 0. -1.
        -24    2    1    2    0    0  0.56281188763E+03 -0.56317364337E+03  0.10875928302E+04  0.13504175099E+04  0.82749702267E+02 0.  0.
        254    2    1    2    0    0 -0.56281188763E+03  0.56317364337E+03  0.19943829562E+04  0.23457346164E+04  0.94392041031E+03 0.  0.
         23    2    4    4    0    0  0.80802515931E+02  0.43580407981E+03  0.34685507337E+03  0.57003796223E+03  0.90446635680E+02 0.  0.
         23    2    4    4    0    0 -0.64361440356E+03  0.12736956356E+03  0.16475278828E+04  0.17756966541E+04  0.91038324951E+02 0.  0.
          1    1    3    3  502    0  0.41007260155E+03 -0.39975380019E+03  0.71812999761E+03  0.91851692025E+03  0.00000000000E+00 0. -1.
         -2    1    3    3    0  502  0.15273928608E+03 -0.16341984318E+03  0.36946283257E+03  0.43190058961E+03  0.00000000000E+00 0.  1.
         13    1    5    5    0    0  0.90339120073E+02  0.36907397074E+03  0.32244966061E+03  0.49834780637E+03  0.00000000000E+00 0. -1.
        -13    1    5    5    0    0 -0.95366041420E+01  0.66730109069E+02  0.24405412765E+02  0.71690155860E+02  0.00000000000E+00 0.  1.
          3    1    6    6  503    0 -0.44428564142E+03  0.63954872596E+02  0.12145365020E+04  0.12948277382E+04  0.00000000000E+00 0. -1.
         -3    1    6    6    0  503 -0.19932876214E+03  0.63414690964E+02  0.43299138082E+03  0.48086891593E+03  0.00000000000E+00 0.  1.
<mgrwt>
<rscale>  0 0.20403347E+04</rscale>
<asrwt>0</asrwt>
<pdfrwt beam="1">  1        1 0.47244336E-01 0.20403347E+04</pdfrwt>
<pdfrwt beam="2">  1       -2 0.52139443E+00 0.20403347E+04</pdfrwt>
<totfact> 0.83707817E-02</totfact>
</mgrwt>
</event>
<event>
12    5  0.5264288E-008  0.1306239E+04  0.7818608E-02  0.9024632E-01
         -2   -1    0    0    0  501 -0.00000000000E+00  0.00000000000E+00  0.22714358058E+03  0.22714358058E+03  0.00000000000E+00 0.  1.
          1   -1    0    0  501    0  0.00000000000E+00 -0.00000000000E+00 -0.18779530045E+04  0.18779530045E+04  0.00000000000E+00 0. -1.
        -24    2    1    2    0    0 -0.36579087272E+02  0.13626810888E+02  0.10286292832E+03  0.13565569263E+03  0.79359721011E+02 0.  0.
        254    2    1    2    0    0  0.36579087272E+02 -0.13626810888E+02 -0.17536723522E+04  0.19694408924E+04  0.89543675949E+03 0.  0.
         23    2    4    4    0    0 -0.79949261416E+02 -0.24920784346E+03 -0.10295068421E+03  0.29540553010E+03  0.90383351307E+02 0.  0.
         23    2    4    4    0    0  0.11652834869E+03  0.23558103257E+03 -0.16507216680E+04  0.16740353623E+04  0.91842746766E+02 0.  0.
          3    1    3    3  502    0  0.36426240599E+01 -0.29005817976E+02  0.27053477675E+02  0.39830852876E+02  0.00000000000E+00 0. -1.
         -4    1    3    3    0  502 -0.40221711332E+02  0.42632628864E+02  0.75809450648E+02  0.95824839754E+02  0.00000000000E+00 0.  1.
         13    1    5    5    0    0 -0.78385335428E+02 -0.25706494331E+03 -0.98439180161E+02  0.28621131718E+03  0.00000000000E+00 0. -1.
        -13    1    5    5    0    0 -0.15639259875E+01  0.78570998508E+01 -0.45115040453E+01  0.91942129250E+01  0.00000000000E+00 0.  1.
          2    1    6    6  503    0  0.80499033167E+02  0.73143400586E+02 -0.78147580000E+03  0.78900854075E+03  0.00000000000E+00 0. -1.
         -2    1    6    6    0  503  0.36029315522E+02  0.16243763198E+03 -0.86924586800E+03  0.88502682157E+03  0.00000000000E+00 0.  1.
<mgrwt>
<rscale>  0 0.13062388E+04</rscale>
<asrwt>0</asrwt>
<pdfrwt beam="1">  1        1 0.28891586E+00 0.13062388E+04</pdfrwt>
<pdfrwt beam="2">  1       -2 0.34945165E-01 0.13062388E+04</pdfrwt>
<totfact> 0.23905677E+01</totfact>
</mgrwt>
</event>
<event>
12    5  0.5264288E-008  0.1872723E+04  0.7818608E-02  0.8668554E-01
          1   -1    0    0  501    0  0.00000000000E+00  0.00000000000E+00  0.15455572792E+04  0.15455572792E+04  0.00000000000E+00 0. -1.
         -2   -1    0    0    0  501 -0.00000000000E+00 -0.00000000000E+00 -0.56728568444E+03  0.56728568444E+03  0.00000000000E+00 0.  1.
        -24    2    1    2    0    0 -0.66612551932E+03  0.46445137507E+02  0.65960135432E+03  0.94204580382E+03  0.80597714558E+02 0.  0.
        254    2    1    2    0    0  0.66612551932E+03 -0.46445137507E+02  0.31867024044E+03  0.11707971598E+04  0.90737804085E+03 0.  0.
         23    2    4    4    0    0  0.11923743299E+03 -0.41130354165E+03  0.24811928359E+03  0.50318994084E+03  0.90822733225E+02 0.  0.
         23    2    4    4    0    0  0.54688808633E+03  0.36485840414E+03  0.70550956841E+02  0.66760721898E+03  0.92269861194E+02 0.  0.
          3    1    3    3  502    0 -0.62876465904E+03  0.24668581181E+02  0.62102553453E+03  0.88409628994E+03  0.00000000000E+00 0. -1.
         -4    1    3    3    0  502 -0.37360860281E+02  0.21776556326E+02  0.38575819787E+02  0.57949513877E+02  0.00000000000E+00 0.  1.
         13    1    5    5    0    0  0.50154106027E+02 -0.29586932358E+03  0.14276845746E+03  0.33232051311E+03  0.00000000000E+00 0. -1.
        -13    1    5    5    0    0  0.69083326963E+02 -0.11543421806E+03  0.10535082613E+03  0.17086942772E+03  0.00000000000E+00 0.  1.
          1    1    6    6  503    0  0.10701230947E+02  0.73609495980E+00  0.13096824413E+02  0.16928821261E+02  0.00000000000E+00 0. -1.
         -1    1    6    6    0  503  0.53618685538E+03  0.36412230918E+03  0.57454132428E+02  0.65067839772E+03  0.00000000000E+00 0.  1.
<mgrwt>
<rscale>  0 0.18727226E+04</rscale>
<asrwt>0</asrwt>
<pdfrwt beam="1">  1        1 0.23777804E+00 0.18727226E+04</pdfrwt>
<pdfrwt beam="2">  1       -2 0.87274721E-01 0.18727226E+04</pdfrwt>
<totfact> 0.56796174E+00</totfact>
</mgrwt>
</event>
<event>
12    5  0.5264288E-008  0.1411954E+04  0.7818608E-02  0.8945211E-01
         -2   -1    0    0    0  501 -0.00000000000E+00  0.00000000000E+00  0.24527817455E+03  0.24527817455E+03  0.00000000000E+00 0.  1.
          1   -1    0    0  501    0  0.00000000000E+00 -0.00000000000E+00 -0.20319935149E+04  0.20319935149E+04  0.00000000000E+00 0. -1.
        -24    2    1    2    0    0 -0.15314461689E+02  0.32565518692E+03 -0.12824875620E+03  0.35914881944E+03  0.79084116818E+02 0.  0.
        254    2    1    2    0    0  0.15314461689E+02 -0.32565518692E+03 -0.16584665842E+04  0.19181228700E+04  0.90686167645E+03 0.  0.
         23    2    4    4    0    0  0.74964577444E+02 -0.62900779020E+02 -0.16263336999E+04  0.16319065140E+04  0.92635690630E+02 0.  0.
         23    2    4    4    0    0 -0.59650115755E+02 -0.26275440790E+03 -0.32132884264E+02  0.28621635601E+03  0.91045400840E+02 0.  0.
          3    1    3    3  502    0 -0.18264052071E+02  0.13179757799E+03 -0.92371022959E+02  0.16197710655E+03  0.00000000000E+00 0. -1.
         -4    1    3    3    0  502  0.29495903828E+01  0.19385760893E+03 -0.35877733242E+02  0.19717171289E+03  0.00000000000E+00 0.  1.
         13    1    5    5    0    0 -0.12721104214E+02 -0.28335486857E+02 -0.19357711216E+03  0.19605311693E+03  0.00000000000E+00 0. -1.
        -13    1    5    5    0    0  0.87685681658E+02 -0.34565292163E+02 -0.14327565877E+04  0.14358533971E+04  0.00000000000E+00 0.  1.
          3    1    6    6  503    0 -0.27571263976E+02 -0.48723014372E+02  0.26578609544E+02  0.61972003454E+02  0.00000000000E+00 0. -1.
         -3    1    6    6    0  503 -0.32078851779E+02 -0.21403139353E+03 -0.58711493808E+02  0.22424435255E+03  0.00000000000E+00 0.  1.
<mgrwt>
<rscale>  0 0.14119542E+04</rscale>
<asrwt>0</asrwt>
<pdfrwt beam="1">  1        1 0.31261437E+00 0.14119542E+04</pdfrwt>
<pdfrwt beam="2">  1       -2 0.37735105E-01 0.14119542E+04</pdfrwt>
<totfact> 0.16079151E+01</totfact>
</mgrwt>
</event>
<event>
12    5  0.5264288E-008  0.2341936E+04  0.7818608E-02  0.8461567E-01
         -2   -1    0    0    0  501 -0.00000000000E+00  0.00000000000E+00  0.11840913351E+04  0.11840913351E+04  0.00000000000E+00 0.  1.
          1   -1    0    0  501    0  0.00000000000E+00 -0.00000000000E+00 -0.11579901493E+04  0.11579901493E+04  0.00000000000E+00 0. -1.
        -24    2    1    2    0    0 -0.56388974326E+03  0.13932210273E+03  0.82385092626E+03  0.10112406513E+04  0.80591657131E+02 0.  0.
        254    2    1    2    0    0  0.56388974326E+03 -0.13932210273E+03 -0.79774974051E+03  0.13308408332E+04  0.89294478208E+03 0.  0.
         23    2    4    4    0    0 -0.66706392738E+02 -0.35421684640E+03 -0.41300895408E+03  0.55583204266E+03  0.91943169381E+02 0.  0.
         23    2    4    4    0    0  0.63059613600E+03  0.21489474367E+03 -0.38474078643E+03  0.77500879050E+03  0.93711872293E+02 0.  0.
          1    1    3    3  502    0 -0.11238775041E+02 -0.82259264233E+01  0.13971941198E+02  0.19727926166E+02  0.00000000000E+00 0. -1.
         -2    1    3    3    0  502 -0.55265096822E+03  0.14754802915E+03  0.80987898506E+03  0.99151272510E+03  0.00000000000E+00 0.  1.
         13    1    5    5    0    0  0.14112775713E+02 -0.15270173285E+03 -0.14656485334E+03  0.21212789984E+03  0.00000000000E+00 0.  1.
        -13    1    5    5    0    0 -0.80819168451E+02 -0.20151511354E+03 -0.26644410074E+03  0.34370414282E+03  0.00000000000E+00 0. -1.
          3    1    6    6  503    0  0.53876163255E+03  0.21716071447E+03 -0.33005685271E+03  0.66810208699E+03  0.00000000000E+00 0. -1.
         -3    1    6    6    0  503  0.91834503458E+02 -0.22659708033E+01 -0.54683933723E+02  0.10690670351E+03  0.00000000000E+00 0.  1.
<mgrwt>
<rscale>  0 0.23419360E+04</rscale>
<asrwt>0</asrwt>
<pdfrwt beam="1">  1        1 0.17815233E+00 0.23419360E+04</pdfrwt>
<pdfrwt beam="2">  1       -2 0.18216790E+00 0.23419360E+04</pdfrwt>
<totfact> 0.15882385E+00</totfact>
</mgrwt>
</event>
<event>
12    5  0.5264288E-008  0.1797790E+04  0.7818608E-02  0.8707475E-01
          1   -1    0    0  501    0  0.00000000000E+00  0.00000000000E+00  0.13307166247E+04  0.13307166247E+04  0.00000000000E+00 0. -1.
         -2   -1    0    0    0  501 -0.00000000000E+00 -0.00000000000E+00 -0.60720104073E+03  0.60720104073E+03  0.00000000000E+00 0.  1.
        -24    2    1    2    0    0 -0.52640396604E+03 -0.38154344220E+03  0.76741280144E+02  0.65921609429E+03  0.77460319829E+02 0.  0.
        254    2    1    2    0    0  0.52640396604E+03  0.38154344220E+03  0.64677430378E+03  0.12787015711E+04  0.89111400738E+03 0.  0.
         23    2    4    4    0    0  0.56636304764E+03  0.50267961028E+03  0.17552149655E+03  0.78261769284E+03  0.90712540811E+02 0.  0.
         23    2    4    4    0    0 -0.39959081602E+02 -0.12113616809E+03  0.47125280723E+03  0.49608387826E+03  0.88030145566E+02 0.  0.
          1    1    3    3  502    0 -0.16717569123E+03 -0.14952349668E+03 -0.24593597868E+01  0.22430121767E+03  0.00000000000E+00 0. -1.
         -2    1    3    3    0  502 -0.35922827481E+03 -0.23201994552E+03  0.79200639931E+02  0.43491487662E+03  0.00000000000E+00 0.  1.
         13    1    5    5    0    0  0.16318563947E+02  0.22570633549E+01 -0.53417006079E+01  0.17318303313E+02  0.00000000000E+00 0.  1.
        -13    1    5    5    0    0  0.55004448369E+03  0.50042254693E+03  0.18086319716E+03  0.76529938952E+03  0.00000000000E+00 0. -1.
          2    1    6    6  503    0 -0.35030875102E+02 -0.12322487619E+03  0.47331680578E+03  0.49034715351E+03  0.00000000000E+00 0. -1.
         -2    1    6    6    0  503 -0.49282064998E+01  0.20887081066E+01 -0.20639985494E+01  0.57367247512E+01  0.00000000000E+00 0.  1.
<mgrwt>
<rscale>  0 0.17977903E+04</rscale>
<asrwt>0</asrwt>
<pdfrwt beam="1">  1        1 0.20472564E+00 0.17977903E+04</pdfrwt>
<pdfrwt beam="2">  1       -2 0.93415545E-01 0.17977903E+04</pdfrwt>
<totfact> 0.69031582E+00</totfact>
</mgrwt>
</event>
<event>
12    5  0.5264288E-008  0.1653489E+04  0.7818608E-02  0.8788345E-01
          1   -1    0    0  501    0  0.00000000000E+00  0.00000000000E+00  0.58764986790E+03  0.58764986790E+03  0.00000000000E+00 0. -1.
         -2   -1    0    0    0  501 -0.00000000000E+00 -0.00000000000E+00 -0.11631183560E+04  0.11631183560E+04  0.00000000000E+00 0.  1.
        -24    2    1    2    0    0  0.29154817101E+03  0.50756684541E+03  0.11678178149E+02  0.59403649088E+03  0.10059092440E+03 0.  0.
        254    2    1    2    0    0 -0.29154817101E+03 -0.50756684541E+03 -0.58714666628E+03  0.11567317331E+04  0.80663663192E+03 0.  0.
         23    2    4    4    0    0 -0.28961951894E+03 -0.58212780342E+03 -0.10877207415E+03  0.66553603794E+03  0.91403547066E+02 0.  0.
         23    2    4    4    0    0 -0.19286520706E+01  0.74560958014E+02 -0.47837459213E+03  0.49119569511E+03  0.82872820319E+02 0.  0.
          1    1    3    3  502    0  0.62816318593E+02  0.16212693145E+03 -0.34195653123E+02  0.17720150811E+03  0.00000000000E+00 0. -1.
         -2    1    3    3    0  502  0.22873185241E+03  0.34543991396E+03  0.45873831272E+02  0.41683498277E+03  0.00000000000E+00 0.  1.
         13    1    5    5    0    0 -0.19358064556E+03 -0.32499006010E+03 -0.98348372247E+02  0.39085087671E+03  0.00000000000E+00 0. -1.
        -13    1    5    5    0    0 -0.96038873374E+02 -0.25713774333E+03 -0.10423701907E+02  0.27468516124E+03  0.00000000000E+00 0.  1.
          4    1    6    6  503    0  0.24089070639E+02  0.70528667487E+02 -0.42712824253E+03  0.43358172451E+03  0.00000000000E+00 0. -1.
         -4    1    6    6    0  503 -0.26017722709E+02  0.40322905268E+01 -0.51246349595E+02  0.57613970604E+02  0.00000000000E+00 0.  1.
<mgrwt>
<rscale>  0 0.16534889E+04</rscale>
<asrwt>0</asrwt>
<pdfrwt beam="1">  1        1 0.90407674E-01 0.16534889E+04</pdfrwt>
<pdfrwt beam="2">  1       -2 0.17894128E+00 0.16534889E+04</pdfrwt>
<totfact> 0.54367998E+00</totfact>
</mgrwt>
</event>
<event>
12    5  0.5264288E-008  0.2217320E+04  0.7818608E-02  0.8511254E-01
          1   -1    0    0  501    0  0.00000000000E+00  0.00000000000E+00  0.63615839897E+03  0.63615839897E+03  0.00000000000E+00 0. -1.
         -2   -1    0    0    0  501 -0.00000000000E+00 -0.00000000000E+00 -0.19321084396E+04  0.19321084396E+04  0.00000000000E+00 0.  1.
        -24    2    1    2    0    0 -0.55490340781E+03 -0.87724894517E+02 -0.13911786625E+04  0.15025251019E+04  0.81179811444E+02 0.  0.
        254    2    1    2    0    0  0.55490340781E+03  0.87724894517E+02  0.95228621882E+02  0.10657417366E+04  0.90062395576E+03 0.  0.
         23    2    4    4    0    0  0.74786379849E+03 -0.84338498258E+02 -0.39680600513E+02  0.75921503360E+03  0.91758780582E+02 0.  0.
         23    2    4    4    0    0 -0.19296039068E+03  0.17206339277E+03  0.13490922240E+03  0.30652670304E+03  0.94438328481E+02 0.  0.
          1    1    3    3  502    0 -0.29959466019E+03 -0.68650784949E+02 -0.66664675416E+03  0.73408976666E+03  0.00000000000E+00 0. -1.
         -2    1    3    3    0  502 -0.25530874762E+03 -0.19074109568E+02 -0.72453190835E+03  0.76843533527E+03  0.00000000000E+00 0.  1.
         13    1    5    5    0    0  0.71686677216E+03 -0.81443040368E+02 -0.18788981065E+02  0.72172291335E+03  0.00000000000E+00 0. -1.
        -13    1    5    5    0    0  0.30997026332E+02 -0.28954578894E+01 -0.20891619449E+02  0.37492120252E+02  0.00000000000E+00 0.  1.
          4    1    6    6  503    0 -0.97826773879E+02  0.96924930921E+02  0.12312471570E+03  0.18472740874E+03  0.00000000000E+00 0. -1.
         -4    1    6    6    0  503 -0.95133616799E+02  0.75138461854E+02  0.11784506691E+02  0.12179929430E+03  0.00000000000E+00 0.  1.
<mgrwt>
<rscale>  0 0.22173200E+04</rscale>
<asrwt>0</asrwt>
<pdfrwt beam="1">  1        1 0.97870524E-01 0.22173200E+04</pdfrwt>
<pdfrwt beam="2">  1       -2 0.29724745E+00 0.22173200E+04</pdfrwt>
<totfact> 0.82894794E-01</totfact>
</mgrwt>
</event>
<event>
12    5  0.5264288E-008  0.2602683E+04  0.7818608E-02  0.8367290E-01
          1   -1    0    0  501    0  0.00000000000E+00  0.00000000000E+00  0.32035175079E+04  0.32035175079E+04  0.00000000000E+00 0. -1.
         -2   -1    0    0    0  501 -0.00000000000E+00 -0.00000000000E+00 -0.52863462307E+03  0.52863462307E+03  0.00000000000E+00 0.  1.
        -24    2    1    2    0    0 -0.98337139936E+03  0.14788000985E+03  0.36746413654E+03  0.10631452495E+04  0.79750382039E+02 0.  0.
        254    2    1    2    0    0  0.98337139936E+03 -0.14788000985E+03  0.23074187483E+04  0.26690068815E+04  0.90029364499E+03 0.  0.
         23    2    4    4    0    0  0.10151442780E+04  0.20020405450E+02  0.22485591593E+04  0.24687444536E+04  0.88103135423E+02 0.  0.
         23    2    4    4    0    0 -0.31772878650E+02 -0.16790041530E+03  0.58859589037E+02  0.20026242796E+03  0.86258469481E+02 0.  0.
          1    1    3    3  502    0 -0.40839425267E+02  0.10153664056E+02 -0.27460955580E+00  0.42083618669E+02  0.00000000000E+00 0. -1.
         -2    1    3    3    0  502 -0.94253197409E+03  0.13772634579E+03  0.36773874610E+03  0.10210616308E+04  0.00000000000E+00 0.  1.
         13    1    5    5    0    0  0.33172144608E+03  0.47826247568E+02  0.74622242436E+03  0.81803079060E+03  0.00000000000E+00 0. -1.
        -13    1    5    5    0    0  0.68342283193E+03 -0.27805842119E+02  0.15023367349E+04  0.16507136630E+04  0.00000000000E+00 0.  1.
          1    1    6    6  503    0 -0.36122525646E+02 -0.19267492674E+02  0.24279354835E+02  0.47597901258E+02  0.00000000000E+00 0. -1.
         -1    1    6    6    0  503  0.43496469963E+01 -0.14863292262E+03  0.34580234202E+02  0.15266452670E+03  0.00000000000E+00 0.  1.
<mgrwt>
<rscale>  0 0.26026834E+04</rscale>
<asrwt>0</asrwt>
<pdfrwt beam="1">  1        1 0.49284884E+00 0.26026834E+04</pdfrwt>
<pdfrwt beam="2">  1       -2 0.81328405E-01 0.26026834E+04</pdfrwt>
<totfact> 0.43577736E-01</totfact>
</mgrwt>
</event>
<event>
12    5  0.5264288E-008  0.2226764E+04  0.7818608E-02  0.8507370E-01
          1   -1    0    0  501    0  0.00000000000E+00  0.00000000000E+00  0.95398454839E+03  0.95398454839E+03  0.00000000000E+00 0. -1.
         -2   -1    0    0    0  501 -0.00000000000E+00 -0.00000000000E+00 -0.12994124512E+04  0.12994124512E+04  0.00000000000E+00 0.  1.
        -24    2    1    2    0    0  0.66539764701E+03 -0.50803673599E+03  0.23811198198E+03  0.87407856739E+03  0.80378307028E+02 0.  0.
        254    2    1    2    0    0 -0.66539764701E+03  0.50803673599E+03 -0.58353988481E+03  0.13793184322E+04  0.92797908733E+03 0.  0.
         23    2    4    4    0    0 -0.41281762461E+02  0.13224878944E+03  0.22968093987E+03  0.28328484462E+03  0.91121033993E+02 0.  0.
         23    2    4    4    0    0 -0.62411588455E+03  0.37578794655E+03 -0.81322082468E+03  0.10960335876E+04  0.96043205461E+02 0.  0.
          3    1    3    3  502    0  0.92790957727E+02 -0.39971715544E+02  0.37664764999E+02  0.10782640865E+03  0.00000000000E+00 0. -1.
         -4    1    3    3    0  502  0.57260668928E+03 -0.46806502045E+03  0.20044721698E+03  0.76625215874E+03  0.00000000000E+00 0.  1.
         13    1    5    5    0    0  0.18332265981E+02 -0.13606694564E+01  0.16331484255E+02  0.24589444389E+02  0.00000000000E+00 0.  1.
        -13    1    5    5    0    0 -0.59614028442E+02  0.13360945889E+03  0.21334945561E+03  0.25869540024E+03  0.00000000000E+00 0. -1.
          1    1    6    6  503    0 -0.59472833060E+03  0.34224381056E+03 -0.78768553160E+03  0.10446440110E+04  0.00000000000E+00 0. -1.
         -1    1    6    6    0  503 -0.29387553945E+02  0.33544135993E+02 -0.25535293077E+02  0.51389576559E+02  0.00000000000E+00 0.  1.
<mgrwt>
<rscale>  0 0.22267639E+04</rscale>
<asrwt>0</asrwt>
<pdfrwt beam="1">  1        1 0.14676685E+00 0.22267639E+04</pdfrwt>
<pdfrwt beam="2">  1       -2 0.19990961E+00 0.22267639E+04</pdfrwt>
<totfact> 0.17471398E+00</totfact>
</mgrwt>
</event>
<event>
12    5  0.5264288E-008  0.1970501E+04  0.7818608E-02  0.8620538E-01
         -2   -1    0    0    0  501 -0.00000000000E+00  0.00000000000E+00  0.58352757058E+03  0.58352757058E+03  0.00000000000E+00 0.  1.
          1   -1    0    0  501    0  0.00000000000E+00 -0.00000000000E+00 -0.16635342311E+04  0.16635342311E+04  0.00000000000E+00 0. -1.
        -24    2    1    2    0    0 -0.64419403839E+03 -0.18873090191E+03  0.18624315591E+02  0.67616465860E+03  0.79034599882E+02 0.  0.
        254    2    1    2    0    0  0.64419403839E+03  0.18873090191E+03 -0.10986309761E+04  0.15708971431E+04  0.90006805301E+03 0.  0.
         23    2    4    4    0    0  0.74851163482E+03 -0.13303708671E+03 -0.83614529636E+03  0.11339935114E+04  0.93988261579E+02 0.  0.
         23    2    4    4    0    0 -0.10431759643E+03  0.32176798862E+03 -0.26248567974E+03  0.43690363170E+03  0.87001447688E+02 0.  0.
          1    1    3    3  502    0 -0.15957234611E+03 -0.69867570346E+02 -0.21740585509E+02  0.17554903613E+03  0.00000000000E+00 0. -1.
         -2    1    3    3    0  502 -0.48462169228E+03 -0.11886333156E+03  0.40364901100E+02  0.50061562247E+03  0.00000000000E+00 0.  1.
         13    1    5    5    0    0  0.27591122861E+03 -0.21658404238E+02 -0.35839492028E+03  0.45281675259E+03  0.00000000000E+00 0. -1.
        -13    1    5    5    0    0  0.47260040621E+03 -0.11137868247E+03 -0.47775037608E+03  0.68117675879E+03  0.00000000000E+00 0.  1.
          1    1    6    6  503    0 -0.47033092613E+02  0.40028615396E+02 -0.46286732697E+02  0.77180719581E+02  0.00000000000E+00 0. -1.
         -1    1    6    6    0  503 -0.57284503821E+02  0.28173937322E+03 -0.21619894705E+03  0.35972291212E+03  0.00000000000E+00 0.  1.
<mgrwt>
<rscale>  0 0.19705005E+04</rscale>
<asrwt>0</asrwt>
<pdfrwt beam="1">  1        1 0.25592834E+00 0.19705005E+04</pdfrwt>
<pdfrwt beam="2">  1       -2 0.89773473E-01 0.19705005E+04</pdfrwt>
<totfact> 0.43804444E+00</totfact>
</mgrwt>
</event>
<event>
12    5  0.5264288E-008  0.2049496E+04  0.7818608E-02  0.8583823E-01
         -2   -1    0    0    0  501 -0.00000000000E+00  0.00000000000E+00  0.86850872178E+03  0.86850872178E+03  0.00000000000E+00 0.  1.
          1   -1    0    0  501    0  0.00000000000E+00 -0.00000000000E+00 -0.12090934104E+04  0.12090934104E+04  0.00000000000E+00 0. -1.
        -24    2    1    2    0    0  0.19221331546E+03  0.31406775128E+03  0.55750823590E+03  0.67264009326E+03  0.77747996300E+02 0.  0.
        254    2    1    2    0    0 -0.19221331546E+03 -0.31406775128E+03 -0.89809292455E+03  0.14049620389E+04  0.10157573129E+04 0.  0.
         23    2    4    4    0    0  0.27704883054E+03 -0.46884111359E+03 -0.31638181619E+03  0.63631894299E+03  0.90754059380E+02 0.  0.
         23    2    4    4    0    0 -0.46926214600E+03  0.15477336231E+03 -0.58171110836E+03  0.76864309596E+03  0.90899065083E+02 0.  0.
          3    1    3    3  502    0  0.11796086854E+03  0.23040711256E+03  0.43935073383E+03  0.50993261451E+03  0.00000000000E+00 0. -1.
         -4    1    3    3    0  502  0.74252446926E+02  0.83660638723E+02  0.11815750207E+03  0.16270747875E+03  0.00000000000E+00 0.  1.
         13    1    5    5    0    0  0.11729235861E+03 -0.28658807097E+03 -0.17245965317E+03  0.35444682504E+03  0.00000000000E+00 0.  1.
        -13    1    5    5    0    0  0.15975647193E+03 -0.18225304262E+03 -0.14392216302E+03  0.28187211795E+03  0.00000000000E+00 0. -1.
          4    1    6    6  503    0 -0.23642710908E+03  0.30983433463E+02 -0.28889695007E+03  0.37459204318E+03  0.00000000000E+00 0. -1.
         -4    1    6    6    0  503 -0.23283503693E+03  0.12378992884E+03 -0.29281415828E+03  0.39405105278E+03  0.00000000000E+00 0.  1.
<mgrwt>
<rscale>  0 0.20494957E+04</rscale>
<asrwt>0</asrwt>
<pdfrwt beam="1">  1        1 0.18601437E+00 0.20494957E+04</pdfrwt>
<pdfrwt beam="2">  1       -2 0.13361673E+00 0.20494957E+04</pdfrwt>
<totfact> 0.34537468E+00</totfact>
</mgrwt>
</event>
<event>
12    5  0.5264288E-008  0.1325191E+04  0.7818608E-02  0.9009824E-01
          1   -1    0    0  501    0  0.00000000000E+00  0.00000000000E+00  0.10480199213E+04  0.10480199213E+04  0.00000000000E+00 0. -1.
         -2   -1    0    0    0  501 -0.00000000000E+00 -0.00000000000E+00 -0.41891634851E+03  0.41891634851E+03  0.00000000000E+00 0.  1.
        -24    2    1    2    0    0 -0.81566203031E+02 -0.33692984395E+03  0.17849597331E+03  0.39751758807E+03  0.77360552720E+02 0.  0.
        254    2    1    2    0    0  0.81566203031E+02  0.33692984395E+03  0.45060759949E+03  0.10694186817E+04  0.90577830783E+03 0.  0.
         23    2    4    4    0    0 -0.38580759216E+03  0.12969804606E+03  0.33975568324E+03  0.53843473066E+03  0.93856025700E+02 0.  0.
         23    2    4    4    0    0  0.46737379519E+03  0.20723179788E+03  0.11085191625E+03  0.53098395109E+03  0.90953430366E+02 0.  0.
          3    1    3    3  502    0 -0.49164776586E+02 -0.17661152402E+03  0.13675544429E+03  0.22871566893E+03  0.00000000000E+00 0. -1.
         -4    1    3    3    0  502 -0.32401426444E+02 -0.16031831993E+03  0.41740529018E+02  0.16880191913E+03  0.00000000000E+00 0.  1.
         13    1    5    5    0    0 -0.13546287900E+03  0.80157845795E+02  0.17138187979E+03  0.23269555335E+03  0.00000000000E+00 0. -1.
        -13    1    5    5    0    0 -0.25034471316E+03  0.49540200268E+02  0.16837380346E+03  0.30573917731E+03  0.00000000000E+00 0.  1.
          4    1    6    6  503    0  0.67998469218E+02  0.26145664776E+02  0.49790363314E+02  0.88240964872E+02  0.00000000000E+00 0.  1.
         -4    1    6    6    0  503  0.39937532597E+03  0.18108613311E+03  0.61061552936E+02  0.44274298622E+03  0.00000000000E+00 0. -1.
<mgrwt>
<rscale>  0 0.13251908E+04</rscale>
<asrwt>0</asrwt>
<pdfrwt beam="1">  1        1 0.16123383E+00 0.13251908E+04</pdfrwt>
<pdfrwt beam="2">  1       -2 0.64448669E-01 0.13251908E+04</pdfrwt>
<totfact> 0.26552297E+01</totfact>
</mgrwt>
</event>
<event>
12    5  0.5264288E-008  0.2007980E+04  0.7818608E-02  0.8602899E-01
         -2   -1    0    0    0  501 -0.00000000000E+00  0.00000000000E+00  0.18842941453E+04  0.18842941453E+04  0.00000000000E+00 0.  1.
          1   -1    0    0  501    0  0.00000000000E+00 -0.00000000000E+00 -0.53494632624E+03  0.53494632624E+03  0.00000000000E+00 0. -1.
        -24    2    1    2    0    0  0.37840815555E+03 -0.67384885502E+03  0.29951893121E+03  0.83251307162E+03  0.78111539834E+02 0.  0.
        254    2    1    2    0    0 -0.37840815555E+03  0.67384885502E+03  0.10498288878E+04  0.15867273999E+04  0.90459832868E+03 0.  0.
         23    2    4    4    0    0 -0.12382924963E+03  0.13101024869E+03  0.95195403745E+03  0.97283424243E+03  0.87707499678E+02 0.  0.
         23    2    4    4    0    0 -0.25457890592E+03  0.54283860633E+03  0.97874850357E+02  0.61389315745E+03  0.88324122228E+02 0.  0.
          1    1    3    3  502    0  0.22916162980E+03 -0.42032036787E+03  0.14501263156E+03  0.50021288221E+03  0.00000000000E+00 0. -1.
         -2    1    3    3    0  502  0.14924652575E+03 -0.25352848715E+03  0.15450629965E+03  0.33230018940E+03  0.00000000000E+00 0.  1.
         13    1    5    5    0    0  0.10776375681E+02 -0.19477481376E+01  0.66098987553E+02  0.67000001128E+02  0.00000000000E+00 0.  1.
        -13    1    5    5    0    0 -0.13460562531E+03  0.13295799683E+03  0.88585504990E+03  0.90583424131E+03  0.00000000000E+00 0. -1.
          2    1    6    6  503    0 -0.17035635783E+03  0.37371938625E+03  0.25271400022E+02  0.41149254182E+03  0.00000000000E+00 0. -1.
         -2    1    6    6    0  503 -0.84222548095E+02  0.16911922008E+03  0.72603450335E+02  0.20240061564E+03  0.00000000000E+00 0.  1.
<mgrwt>
<rscale>  0 0.20079803E+04</rscale>
<asrwt>0</asrwt>
<pdfrwt beam="1">  1        1 0.82299435E-01 0.20079803E+04</pdfrwt>
<pdfrwt beam="2">  1       -2 0.28989140E+00 0.20079803E+04</pdfrwt>
<totfact> 0.12006261E+00</totfact>
</mgrwt>
</event>
<event>
12    5  0.5264288E-008  0.2339820E+04  0.7818608E-02  0.8462384E-01
          1   -1    0    0  501    0  0.00000000000E+00  0.00000000000E+00  0.97189860195E+03  0.97189860195E+03  0.00000000000E+00 0. -1.
         -2   -1    0    0    0  501 -0.00000000000E+00 -0.00000000000E+00 -0.14082636807E+04  0.14082636807E+04  0.00000000000E+00 0.  1.
        -24    2    1    2    0    0  0.78807871190E+02  0.90237796028E+03 -0.59749173204E+03  0.10881668135E+04  0.81326381848E+02 0.  0.
        254    2    1    2    0    0 -0.78807871190E+02 -0.90237796028E+03  0.16112665330E+03  0.12919954691E+04  0.90707983668E+03 0.  0.
         23    2    4    4    0    0 -0.26351642056E+03  0.65762304606E+02 -0.19585442635E+01  0.28766684764E+03  0.94777606648E+02 0.  0.
         23    2    4    4    0    0  0.18470854937E+03 -0.96814026489E+03  0.16308519756E+03  0.10043286215E+04  0.10327815641E+03 0.  0.
          3    1    3    3  502    0  0.63635647739E+02  0.35783391853E+03 -0.21129700849E+03  0.42040579767E+03  0.00000000000E+00 0. -1.
         -4    1    3    3    0  502  0.15172223451E+02  0.54454404175E+03 -0.38619472355E+03  0.66776101583E+03  0.00000000000E+00 0.  1.
         13    1    5    5    0    0 -0.17747774089E+03  0.74349866756E+01  0.27211661919E+02  0.17970559836E+03  0.00000000000E+00 0. -1.
        -13    1    5    5    0    0 -0.86038679670E+02  0.58327317930E+02 -0.29170206182E+02  0.10796124928E+03  0.00000000000E+00 0.  1.
          1    1    6    6  503    0  0.43935841781E+02 -0.20328026612E+03 -0.75956045324E+01  0.20811275308E+03  0.00000000000E+00 0. -1.
         -1    1    6    6    0  503  0.14077270759E+03 -0.76485999876E+03  0.17068080209E+03  0.79621586841E+03  0.00000000000E+00 0.  1.
<mgrwt>
<rscale>  0 0.23398201E+04</rscale>
<asrwt>0</asrwt>
<pdfrwt beam="1">  1        1 0.14952286E+00 0.23398201E+04</pdfrwt>
<pdfrwt beam="2">  1       -2 0.21665595E+00 0.23398201E+04</pdfrwt>
<totfact> 0.13051240E+00</totfact>
</mgrwt>
</event>
<event>
12    5  0.5264288E-008  0.1070074E+04  0.7818608E-02  0.9234861E-01
          1   -1    0    0  501    0  0.00000000000E+00  0.00000000000E+00  0.67964210637E+03  0.67964210637E+03  0.00000000000E+00 0. -1.
         -2   -1    0    0    0  501 -0.00000000000E+00 -0.00000000000E+00 -0.42119873968E+03  0.42119873968E+03  0.00000000000E+00 0.  1.
        -24    2    1    2    0    0  0.26243427544E+02 -0.24034609871E+02 -0.98064908133E+02  0.13117182849E+03  0.79516931661E+02 0.  0.
        254    2    1    2    0    0 -0.26243427544E+02  0.24034609871E+02  0.35650827482E+03  0.96966901756E+03  0.90105131577E+03 0.  0.
         23    2    4    4    0    0 -0.50621769666E+02 -0.28209580647E+03 -0.17569296638E+03  0.34849179692E+03  0.91858077984E+02 0.  0.
         23    2    4    4    0    0  0.24378342122E+02  0.30613041634E+03  0.53220124121E+03  0.62117722065E+03  0.91174793333E+02 0.  0.
          1    1    3    3  502    0 -0.54820183421E+01  0.24462343970E+02 -0.12991965614E+02  0.28235615242E+02  0.00000000000E+00 0. -1.
         -2    1    3    3    0  502  0.31725445887E+02 -0.48496953841E+02 -0.85072942519E+02  0.10293621325E+03  0.00000000000E+00 0.  1.
         13    1    5    5    0    0 -0.39236871884E+02 -0.63211226229E+02 -0.12994828091E+02  0.75525206347E+02  0.00000000000E+00 0.  1.
        -13    1    5    5    0    0 -0.11384897782E+02 -0.21888458024E+03 -0.16269813829E+03  0.27296659057E+03  0.00000000000E+00 0. -1.
          4    1    6    6  503    0  0.53903339598E+02  0.11655119514E+03  0.20698534208E+03  0.24358301038E+03  0.00000000000E+00 0.  1.
         -4    1    6    6    0  503 -0.29524997476E+02  0.18957922120E+03  0.32521589913E+03  0.37759421027E+03  0.00000000000E+00 0. -1.
<mgrwt>
<rscale>  0 0.10700736E+04</rscale>
<asrwt>0</asrwt>
<pdfrwt beam="1">  1        1 0.10456032E+00 0.10700736E+04</pdfrwt>
<pdfrwt beam="2">  1       -2 0.64799806E-01 0.10700736E+04</pdfrwt>
<totfact> 0.54762520E+01</totfact>
</mgrwt>
</event>
<event>
12    5  0.5264288E-008  0.1678875E+04  0.7818608E-02  0.8773505E-01
         -2   -1    0    0    0  501 -0.00000000000E+00  0.00000000000E+00  0.45455680328E+03  0.45455680328E+03  0.00000000000E+00 0.  1.
          1   -1    0    0  501    0  0.00000000000E+00 -0.00000000000E+00 -0.15502032985E+04  0.15502032985E+04  0.00000000000E+00 0. -1.
        -24    2    1    2    0    0  0.28123648769E+02  0.34190888401E+03  0.18837325842E+03  0.40101687246E+03  0.87392350536E+02 0.  0.
        254    2    1    2    0    0 -0.28123648769E+02 -0.34190888401E+03 -0.12840197537E+04  0.16037432293E+04  0.89754832363E+03 0.  0.
         23    2    4    4    0    0 -0.15923007173E+03  0.34752138078E+02 -0.11613761076E+04  0.11762660270E+04  0.90804053588E+02 0.  0.
         23    2    4    4    0    0  0.13110642296E+03 -0.37666102208E+03 -0.12264364606E+03  0.42747720232E+03  0.92913265376E+02 0.  0.
          1    1    3    3  502    0  0.10805002008E+02  0.29109924778E+02 -0.69733440880E+01  0.31823942507E+02  0.00000000000E+00 0. -1.
         -2    1    3    3    0  502  0.17318646761E+02  0.31279895923E+03  0.19534660250E+03  0.36919292996E+03  0.00000000000E+00 0.  1.
         13    1    5    5    0    0 -0.14589825293E+03  0.59348294084E+01 -0.10606475697E+04  0.10706515724E+04  0.00000000000E+00 0. -1.
        -13    1    5    5    0    0 -0.13331818803E+02  0.28817308670E+02 -0.10072853791E+03  0.10561445461E+03  0.00000000000E+00 0.  1.
          2    1    6    6  503    0  0.52228711885E+02 -0.14588440032E+03 -0.10352427640E+01  0.15495537529E+03  0.00000000000E+00 0. -1.
         -2    1    6    6    0  503  0.78877711075E+02 -0.23077662176E+03 -0.12160840329E+03  0.27252182703E+03  0.00000000000E+00 0.  1.
<mgrwt>
<rscale>  0 0.16788752E+04</rscale>
<asrwt>0</asrwt>
<pdfrwt beam="1">  1        1 0.23849281E+00 0.16788752E+04</pdfrwt>
<pdfrwt beam="2">  1       -2 0.69931816E-01 0.16788752E+04</pdfrwt>
<totfact> 0.94109259E+00</totfact>
</mgrwt>
</event>
<event>
12    5  0.5264288E-008  0.1910430E+04  0.7818608E-02  0.8649682E-01
          1   -1    0    0  501    0  0.00000000000E+00  0.00000000000E+00  0.12293870095E+04  0.12293870095E+04  0.00000000000E+00 0. -1.
         -2   -1    0    0    0  501 -0.00000000000E+00 -0.00000000000E+00 -0.74218756005E+03  0.74218756005E+03  0.00000000000E+00 0.  1.
        -24    2    1    2    0    0 -0.37229358669E+03  0.26973687765E+03  0.79188654599E+03  0.91959308482E+03  0.84891943470E+02 0.  0.
        254    2    1    2    0    0  0.37229358669E+03 -0.26973687765E+03 -0.30468709653E+03  0.10519814847E+04  0.89580707722E+03 0.  0.
         23    2    4    4    0    0  0.52906053768E+03 -0.43053144681E+03 -0.39423926497E+03  0.79312995166E+03  0.91477554313E+02 0.  0.
         23    2    4    4    0    0 -0.15676695100E+03  0.16079456917E+03  0.89552168440E+02  0.25885153308E+03  0.92486512046E+02 0.  0.
          1    1    3    3  502    0 -0.34440429840E+03  0.24488071432E+03  0.76359759709E+03  0.87273259094E+03  0.00000000000E+00 0. -1.
         -2    1    3    3    0  502 -0.27889288291E+02  0.24856163323E+02  0.28288948900E+02  0.46860493877E+02  0.00000000000E+00 0.  1.
         13    1    5    5    0    0  0.46742425868E+03 -0.36509640844E+03 -0.30695891214E+03  0.66783575735E+03  0.00000000000E+00 0.  1.
        -13    1    5    5    0    0  0.61636279007E+02 -0.65435038377E+02 -0.87280352829E+02  0.12529419431E+03  0.00000000000E+00 0. -1.
          3    1    6    6  503    0 -0.16336703827E+03  0.13387101847E+03  0.93258883286E+02  0.23088407934E+03  0.00000000000E+00 0.  1.
         -3    1    6    6    0  503  0.66000872788E+01  0.26923550692E+02 -0.37067148453E+01  0.27967453743E+02  0.00000000000E+00 0. -1.
<mgrwt>
<rscale>  0 0.19104301E+04</rscale>
<asrwt>0</asrwt>
<pdfrwt beam="1">  1        1 0.18913646E+00 0.19104301E+04</pdfrwt>
<pdfrwt beam="2">  1       -2 0.11418270E+00 0.19104301E+04</pdfrwt>
<totfact> 0.50044117E+00</totfact>
</mgrwt>
</event>
<event>
12    5  0.5264288E-008  0.2339191E+04  0.7818608E-02  0.8462627E-01
          1   -1    0    0  501    0  0.00000000000E+00  0.00000000000E+00  0.28540370838E+04  0.28540370838E+04  0.00000000000E+00 0. -1.
         -2   -1    0    0    0  501 -0.00000000000E+00 -0.00000000000E+00 -0.47930472493E+03  0.47930472493E+03  0.00000000000E+00 0.  1.
        -24    2    1    2    0    0 -0.99228631090E+03 -0.58967206778E+01  0.96729904086E+03  0.13879365916E+04  0.77676597442E+02 0.  0.
        254    2    1    2    0    0  0.99228631090E+03  0.58967206778E+01  0.14074333180E+04  0.19454052171E+04  0.90502266266E+03 0.  0.
         23    2    4    4    0    0  0.71726900294E+03  0.41842224340E+03  0.80982506052E+03  0.11635185017E+04  0.91687942571E+02 0.  0.
         23    2    4    4    0    0  0.27501730796E+03 -0.41252552272E+03  0.59760825745E+03  0.78188671536E+03  0.91648129858E+02 0.  0.
          1    1    3    3  502    0 -0.71005694257E+03  0.43617407636E+01  0.73827243582E+03  0.10243271333E+04  0.00000000000E+00 0. -1.
         -2    1    3    3    0  502 -0.28222936833E+03 -0.10258461441E+02  0.22902660503E+03  0.36360945834E+03  0.00000000000E+00 0.  1.
         13    1    5    5    0    0  0.55209718495E+03  0.29432793216E+03  0.56328001979E+03  0.84185783478E+03  0.00000000000E+00 0. -1.
        -13    1    5    5    0    0  0.16517181799E+03  0.12409431124E+03  0.24654504073E+03  0.32166066692E+03  0.00000000000E+00 0.  1.
          2    1    6    6  503    0  0.23790502076E+03 -0.39910306092E+03  0.54659141564E+03  0.71738708365E+03  0.00000000000E+00 0. -1.
         -2    1    6    6    0  503  0.37112287197E+02 -0.13422461801E+02  0.51016841816E+02  0.64499631710E+02  0.00000000000E+00 0.  1.
<mgrwt>
<rscale>  0 0.23391909E+04</rscale>
<asrwt>0</asrwt>
<pdfrwt beam="1">  1        1 0.43908262E+00 0.23391909E+04</pdfrwt>
<pdfrwt beam="2">  1       -2 0.73739190E-01 0.23391909E+04</pdfrwt>
<totfact> 0.10011052E+00</totfact>
</mgrwt>
</event>
<event>
12    5  0.5264288E-008  0.1375411E+04  0.7818608E-02  0.8971812E-01
         -4   -1    0    0    0  501 -0.00000000000E+00  0.00000000000E+00  0.13880366855E+03  0.13880366855E+03  0.00000000000E+00 0.  1.
          3   -1    0    0  501    0  0.00000000000E+00 -0.00000000000E+00 -0.34072491279E+04  0.34072491279E+04  0.00000000000E+00 0. -1.
        -24    2    1    2    0    0  0.17985207962E+03  0.19382960878E+03 -0.22477854771E+04  0.22646843046E+04  0.79616334027E+02 0.  0.
        254    2    1    2    0    0 -0.17985207962E+03 -0.19382960878E+03 -0.10206599823E+04  0.12813684919E+04  0.72817698727E+03 0.  0.
         23    2    4    4    0    0 -0.80203310290E+02  0.17284107889E+03 -0.25336840660E+02  0.21211119699E+03  0.89680515494E+02 0.  0.
         23    2    4    4    0    0 -0.99648769326E+02 -0.36667068766E+03 -0.99532314161E+03  0.10692572949E+04  0.90916093404E+02 0.  0.
          3    1    3    3  502    0  0.96080979399E+02  0.47279087376E+02 -0.92051980230E+03  0.92672734563E+03  0.00000000000E+00 0. -1.
         -4    1    3    3    0  502  0.83771100217E+02  0.14655052140E+03 -0.13272656748E+04  0.13379569590E+04  0.00000000000E+00 0.  1.
         13    1    5    5    0    0 -0.88643458157E+02  0.90188401753E+02 -0.25625491409E+02  0.12902819961E+03  0.00000000000E+00 0. -1.
        -13    1    5    5    0    0  0.84401478665E+01  0.82652677135E+02  0.28865074901E+00  0.83082997375E+02  0.00000000000E+00 0.  1.
          3    1    6    6  503    0 -0.11414492240E+02 -0.21150153612E+03 -0.56368309605E+03  0.60216428256E+03  0.00000000000E+00 0. -1.
         -3    1    6    6    0  503 -0.88234277085E+02 -0.15516915154E+03 -0.43164004556E+03  0.46709301234E+03  0.00000000000E+00 0.  1.
<mgrwt>
<rscale>  0 0.13754107E+04</rscale>
<asrwt>0</asrwt>
<pdfrwt beam="1">  1        3 0.52419214E+00 0.13754107E+04</pdfrwt>
<pdfrwt beam="2">  1       -4 0.21354412E-01 0.13754107E+04</pdfrwt>
<totfact> 0.12206348E-01</totfact>
</mgrwt>
</event>
<event>
12    5  0.5264288E-008  0.1317757E+04  0.7818608E-02  0.9015601E-01
         -2   -1    0    0    0  501 -0.00000000000E+00  0.00000000000E+00  0.16649752902E+03  0.16649752902E+03  0.00000000000E+00 0.  1.
          1   -1    0    0  501    0  0.00000000000E+00 -0.00000000000E+00 -0.26073698478E+04  0.26073698478E+04  0.00000000000E+00 0. -1.
        -24    2    1    2    0    0  0.30820108627E+02 -0.13905924548E+03 -0.24475225572E+01  0.16682366863E+03  0.86814706121E+02 0.  0.
        254    2    1    2    0    0 -0.30820108627E+02  0.13905924548E+03 -0.24384247962E+04  0.26070437081E+04  0.91130349319E+03 0.  0.
         23    2    4    4    0    0 -0.27647035844E+03 -0.25997256489E+03 -0.15459561233E+04  0.15950194480E+04  0.10042465269E+03 0.  0.
         23    2    4    4    0    0  0.24565024981E+03  0.39903181037E+03 -0.89246867291E+03  0.10120242601E+04  0.90124025970E+02 0.  0.
          1    1    3    3  502    0 -0.12502155483E+02 -0.74608046691E+01  0.21757443771E+02  0.26179263883E+02  0.00000000000E+00 0. -1.
         -2    1    3    3    0  502  0.43322264109E+02 -0.13159844081E+03 -0.24204966328E+02  0.14064440474E+03  0.00000000000E+00 0.  1.
         13    1    5    5    0    0 -0.60709509786E+02 -0.47034818881E+02 -0.50554286883E+03  0.51134285072E+03  0.00000000000E+00 0. -1.
        -13    1    5    5    0    0 -0.21576084865E+03 -0.21293774601E+03 -0.10404132544E+04  0.10836765973E+04  0.00000000000E+00 0.  1.
          2    1    6    6  503    0  0.17914850318E+03  0.30524674365E+03 -0.74700877879E+03  0.82661470849E+03  0.00000000000E+00 0.  1.
         -2    1    6    6    0  503  0.66501746636E+02  0.93785066713E+02 -0.14545989413E+03  0.18540955165E+03  0.00000000000E+00 0. -1.
<mgrwt>
<rscale>  0 0.13177566E+04</rscale>
<asrwt>0</asrwt>
<pdfrwt beam="1">  1        1 0.40113383E+00 0.13177566E+04</pdfrwt>
<pdfrwt beam="2">  1       -2 0.25615004E-01 0.13177566E+04</pdfrwt>
<totfact> 0.13555791E+01</totfact>
</mgrwt>
</event>
<event>
12    5  0.5264288E-008  0.1452636E+04  0.7818608E-02  0.8916575E-01
          1   -1    0    0  501    0  0.00000000000E+00  0.00000000000E+00  0.50544639065E+03  0.50544639065E+03  0.00000000000E+00 0. -1.
         -2   -1    0    0    0  501 -0.00000000000E+00 -0.00000000000E+00 -0.10437067443E+04  0.10437067443E+04  0.00000000000E+00 0.  1.
        -24    2    1    2    0    0 -0.22216839429E+03  0.37390712260E+02  0.23658470573E+03  0.33612984767E+03  0.79082809278E+02 0.  0.
        254    2    1    2    0    0  0.22216839429E+03 -0.37390712260E+02 -0.77484505933E+03  0.12130232872E+04  0.90569518528E+03 0.  0.
         23    2    4    4    0    0  0.45859769820E+03 -0.25362902979E+03 -0.68548485564E+03  0.86775058257E+03  0.91989416245E+02 0.  0.
         23    2    4    4    0    0 -0.23642930390E+03  0.21623831753E+03 -0.89360203692E+02  0.34527270467E+03  0.92575206584E+02 0.  0.
          3    1    3    3  502    0 -0.18530400176E+03  0.83912174431E+00  0.19980800813E+03  0.27250966461E+03  0.00000000000E+00 0. -1.
         -4    1    3    3    0  502 -0.36864392531E+02  0.36551590515E+02  0.36776697598E+02  0.63620183056E+02  0.00000000000E+00 0.  1.
         13    1    5    5    0    0  0.18383490331E+02 -0.13350232069E+02 -0.71207737200E+02  0.74744386078E+02  0.00000000000E+00 0. -1.
        -13    1    5    5    0    0  0.44021420786E+03 -0.24027879772E+03 -0.61427711844E+03  0.79300619650E+03  0.00000000000E+00 0.  1.
          2    1    6    6  503    0 -0.55189216884E+02  0.23046848566E+02 -0.49000364737E+02  0.77317802823E+02  0.00000000000E+00 0. -1.
         -2    1    6    6    0  503 -0.18124008702E+03  0.19319146897E+03 -0.40359838955E+02  0.26795490185E+03  0.00000000000E+00 0.  1.
<mgrwt>
<rscale>  0 0.14526360E+04</rscale>
<asrwt>0</asrwt>
<pdfrwt beam="1">  1        1 0.77760983E-01 0.14526360E+04</pdfrwt>
<pdfrwt beam="2">  1       -2 0.16057027E+00 0.14526360E+04</pdfrwt>
<totfact> 0.92413070E+00</totfact>
</mgrwt>
</event>
<event>
12    5  0.5264288E-008  0.3421648E+04  0.7818608E-02  0.8132614E-01
          1   -1    0    0  501    0  0.00000000000E+00  0.00000000000E+00  0.23206943926E+04  0.23206943926E+04  0.00000000000E+00 0. -1.
         -2   -1    0    0    0  501 -0.00000000000E+00 -0.00000000000E+00 -0.12612250613E+04  0.12612250613E+04  0.00000000000E+00 0.  1.
        -24    2    1    2    0    0 -0.10166370000E+04 -0.12540581050E+04  0.62167179157E+03  0.17317653770E+04  0.79517193424E+02 0.  0.
        254    2    1    2    0    0  0.10166370000E+04  0.12540581050E+04  0.43779753974E+03  0.18501540769E+04  0.79069014277E+03 0.  0.
         23    2    4    4    0    0  0.11192656200E+03  0.16461159794E+02 -0.14821798104E+03  0.20636476223E+03  0.88426919660E+02 0.  0.
         23    2    4    4    0    0  0.90471043802E+03  0.12375969452E+04  0.58601552078E+03  0.16437893146E+04  0.92097475206E+02 0.  0.
          3    1    3    3  502    0 -0.98133145599E+03 -0.12140093807E+04  0.61559845712E+03  0.16780320806E+04  0.00000000000E+00 0. -1.
         -4    1    3    3    0  502 -0.35305544032E+02 -0.40048724255E+02  0.60733344508E+01  0.53733296430E+02  0.00000000000E+00 0.  1.
         13    1    5    5    0    0  0.11019615981E+03  0.36062064043E+02 -0.95895799555E+02  0.15046484796E+03  0.00000000000E+00 0. -1.
        -13    1    5    5    0    0  0.17304021937E+01 -0.19600904249E+02 -0.52322181488E+02  0.55899914265E+02  0.00000000000E+00 0.  1.
          3    1    6    6  503    0  0.54617233515E+03  0.73330588869E+03  0.39687584542E+03  0.99677087776E+03  0.00000000000E+00 0. -1.
         -3    1    6    6    0  503  0.35853810286E+03  0.50429105650E+03  0.18913967537E+03  0.64701843688E+03  0.00000000000E+00 0.  1.
<mgrwt>
<rscale>  0 0.34216475E+04</rscale>
<asrwt>0</asrwt>
<pdfrwt beam="1">  1        1 0.35702991E+00 0.34216475E+04</pdfrwt>
<pdfrwt beam="2">  1       -2 0.19403462E+00 0.34216475E+04</pdfrwt>
<totfact> 0.18953703E-01</totfact>
</mgrwt>
</event>
<event>
12    5  0.5264288E-008  0.1122844E+04  0.7818608E-02  0.9183208E-01
          1   -1    0    0  501    0  0.00000000000E+00  0.00000000000E+00  0.68031721847E+03  0.68031721847E+03  0.00000000000E+00 0. -1.
         -2   -1    0    0    0  501 -0.00000000000E+00 -0.00000000000E+00 -0.46330525153E+03  0.46330525153E+03  0.00000000000E+00 0.  1.
        -24    2    1    2    0    0 -0.12406010551E+03 -0.14549984670E+03  0.10704678577E+03  0.23209732265E+03  0.76479001483E+02 0.  0.
        254    2    1    2    0    0  0.12406010551E+03  0.14549984670E+03  0.10996518117E+03  0.91152514735E+03  0.88443464315E+03 0.  0.
         23    2    4    4    0    0 -0.83948311630E+02  0.43504999297E+03  0.25315120245E+03  0.51693388487E+03  0.82579020432E+02 0.  0.
         23    2    4    4    0    0  0.20800841714E+03 -0.28955014627E+03 -0.14318602127E+03  0.39459126248E+03  0.89962430692E+02 0.  0.
          1    1    3    3  502    0 -0.49179822789E+02 -0.42421745484E+02  0.77858106985E+02  0.10139104636E+03  0.00000000000E+00 0. -1.
         -2    1    3    3    0  502 -0.74880282719E+02 -0.10307810122E+03  0.29188678784E+02  0.13070627628E+03  0.00000000000E+00 0.  1.
         13    1    5    5    0    0 -0.99509017490E+02  0.40256605362E+03  0.23351741817E+03  0.47591160596E+03  0.00000000000E+00 0.  1.
        -13    1    5    5    0    0  0.15560705860E+02  0.32483939345E+02  0.19633784272E+02  0.41022278911E+02  0.00000000000E+00 0. -1.
          3    1    6    6  503    0 -0.43245952206E+01  0.32989222826E+01  0.29624330361E+00  0.54472719910E+01  0.00000000000E+00 0. -1.
         -3    1    6    6    0  503  0.21233301236E+03 -0.29284906855E+03 -0.14348226458E+03  0.38914399049E+03  0.00000000000E+00 0.  1.
<mgrwt>
<rscale>  0 0.11228438E+04</rscale>
<asrwt>0</asrwt>
<pdfrwt beam="1">  1        1 0.10466419E+00 0.11228438E+04</pdfrwt>
<pdfrwt beam="2">  1       -2 0.71277731E-01 0.11228438E+04</pdfrwt>
<totfact> 0.44300713E+01</totfact>
</mgrwt>
</event>
<event>
12    5  0.5264288E-008  0.1572143E+04  0.7818608E-02  0.8837847E-01
          1   -1    0    0  501    0  0.00000000000E+00  0.00000000000E+00  0.10177296183E+04  0.10177296183E+04  0.00000000000E+00 0. -1.
         -2   -1    0    0    0  501 -0.00000000000E+00 -0.00000000000E+00 -0.60714392291E+03  0.60714392291E+03  0.00000000000E+00 0.  1.
        -24    2    1    2    0    0 -0.16277400987E+03 -0.18589862641E+03 -0.33870717238E+03  0.42701368089E+03  0.81021339536E+02 0.  0.
        254    2    1    2    0    0  0.16277400987E+03  0.18589862641E+03  0.74929286776E+03  0.11978598603E+04  0.90131834869E+03 0.  0.
         23    2    4    4    0    0 -0.34989627283E+03  0.16478968907E+02  0.16716659204E+03  0.39868473627E+03  0.91136662667E+02 0.  0.
         23    2    4    4    0    0  0.51267028271E+03  0.16941965751E+03  0.58212627572E+03  0.79917512404E+03  0.90972737031E+02 0.  0.
          3    1    3    3  502    0  0.63064739166E+00 -0.12782971017E+02  0.26454364583E+00  0.12801251794E+02  0.00000000000E+00 0. -1.
         -4    1    3    3    0  502 -0.16340465726E+03 -0.17311565540E+03 -0.33897171602E+03  0.41421242910E+03  0.00000000000E+00 0.  1.
         13    1    5    5    0    0 -0.26191903215E+03  0.14789051617E+02  0.16645412418E+03  0.31068838232E+03  0.00000000000E+00 0.  1.
        -13    1    5    5    0    0 -0.87977240684E+02  0.16899172897E+01  0.71246786057E+00  0.87996353955E+02  0.00000000000E+00 0. -1.
          4    1    6    6  503    0  0.44712290333E+03  0.12089667404E+03  0.46385567971E+03  0.65551276729E+03  0.00000000000E+00 0.  1.
         -4    1    6    6    0  503  0.65547379372E+02  0.48522983462E+02  0.11827059601E+03  0.14366235675E+03  0.00000000000E+00 0. -1.
<mgrwt>
<rscale>  0 0.15721429E+04</rscale>
<asrwt>0</asrwt>
<pdfrwt beam="1">  1        1 0.15657379E+00 0.15721429E+04</pdfrwt>
<pdfrwt beam="2">  1       -2 0.93406757E-01 0.15721429E+04</pdfrwt>
<totfact> 0.11981589E+01</totfact>
</mgrwt>
</event>
<event>
12    5  0.5264288E-008  0.2457615E+04  0.7818608E-02  0.8418243E-01
         -2   -1    0    0    0  501 -0.00000000000E+00  0.00000000000E+00  0.56004591630E+03  0.56004591630E+03  0.00000000000E+00 0.  1.
          1   -1    0    0  501    0  0.00000000000E+00 -0.00000000000E+00 -0.26961493439E+04  0.26961493439E+04  0.00000000000E+00 0. -1.
        -24    2    1    2    0    0  0.85594289760E+02  0.22786763093E+03  0.44375916550E+03  0.51234643013E+03  0.79540102101E+02 0.  0.
        254    2    1    2    0    0 -0.85594289760E+02 -0.22786763093E+03 -0.25798625931E+04  0.27438488301E+04  0.90208944306E+03 0.  0.
         23    2    4    4    0    0  0.25165633474E+03 -0.15557705090E+03 -0.22044043317E+04  0.22260209948E+04  0.90751762841E+02 0.  0.
         23    2    4    4    0    0 -0.33725062450E+03 -0.72290580026E+02 -0.37545826149E+03  0.51782783527E+03  0.90624771296E+02 0.  0.
          3    1    3    3  502    0 -0.55885962676E+01 -0.36706283740E+01  0.70655381239E+01  0.97276795733E+01  0.00000000000E+00 0. -1.
         -4    1    3    3    0  502  0.91182886027E+02  0.23153825930E+03  0.43669362738E+03  0.50261875056E+03  0.00000000000E+00 0.  1.
         13    1    5    5    0    0  0.13158746473E+03 -0.39478837753E+02 -0.11980555390E+04  0.12059066772E+04  0.00000000000E+00 0.  1.
        -13    1    5    5    0    0  0.12006887000E+03 -0.11609821315E+03 -0.10063487926E+04  0.10201143176E+04  0.00000000000E+00 0. -1.
          1    1    6    6  503    0 -0.25823650362E+03 -0.92999955995E+02 -0.30018204444E+03  0.40674850143E+03  0.00000000000E+00 0. -1.
         -1    1    6    6    0  503 -0.79014120876E+02  0.20709375969E+02 -0.75276217056E+02  0.11107933383E+03  0.00000000000E+00 0.  1.
<mgrwt>
<rscale>  0 0.24576146E+04</rscale>
<asrwt>0</asrwt>
<pdfrwt beam="1">  1        1 0.41479221E+00 0.24576146E+04</pdfrwt>
<pdfrwt beam="2">  1       -2 0.86160909E-01 0.24576146E+04</pdfrwt>
<totfact> 0.90421348E-01</totfact>
</mgrwt>
</event>
<event>
12    5  0.5264288E-008  0.1530498E+04  0.7818608E-02  0.8864422E-01
         -2   -1    0    0    0  501 -0.00000000000E+00  0.00000000000E+00  0.23075972988E+03  0.23075972988E+03  0.00000000000E+00 0.  1.
          1   -1    0    0  501    0  0.00000000000E+00 -0.00000000000E+00 -0.25377302137E+04  0.25377302137E+04  0.00000000000E+00 0. -1.
        -24    2    1    2    0    0  0.23460287320E+02  0.24578223432E+03 -0.12790582890E+04  0.13054112453E+04  0.84552474289E+02 0.  0.
        254    2    1    2    0    0 -0.23460287320E+02 -0.24578223432E+03 -0.10279121948E+04  0.14630786982E+04  0.10114526708E+04 0.  0.
         23    2    4    4    0    0  0.19014900356E+03 -0.57958133395E+03 -0.74818487586E+03  0.96952755202E+03  0.90177045046E+02 0.  0.
         23    2    4    4    0    0 -0.21360929088E+03  0.33379909963E+03 -0.27972731891E+03  0.49355114620E+03  0.91074655687E+02 0.  0.
          1    1    3    3  502    0  0.41842599902E+02  0.88697230989E+02 -0.61556900527E+03  0.62333233688E+03  0.00000000000E+00 0. -1.
         -2    1    3    3    0  502 -0.18382312582E+02  0.15708500333E+03 -0.66348928376E+03  0.68207890845E+03  0.00000000000E+00 0.  1.
         13    1    5    5    0    0  0.19127346446E+03 -0.47591040197E+03 -0.61948315674E+03  0.80426092183E+03  0.00000000000E+00 0.  1.
        -13    1    5    5    0    0 -0.11244608935E+01 -0.10367093198E+03 -0.12870171912E+03  0.16526663019E+03  0.00000000000E+00 0. -1.
          3    1    6    6  503    0 -0.24757273961E+02  0.11148530344E+03 -0.92184850040E+02  0.14676492113E+03  0.00000000000E+00 0. -1.
         -3    1    6    6    0  503 -0.18885201692E+03  0.22231379620E+03 -0.18754246887E+03  0.34678622508E+03  0.00000000000E+00 0.  1.
<mgrwt>
<rscale>  0 0.15304979E+04</rscale>
<asrwt>0</asrwt>
<pdfrwt beam="1">  1        1 0.39042004E+00 0.15304979E+04</pdfrwt>
<pdfrwt beam="2">  1       -2 0.35501497E-01 0.15304979E+04</pdfrwt>
<totfact> 0.80767221E+00</totfact>
</mgrwt>
</event>
<event>
12    5  0.5264288E-008  0.1957897E+04  0.7818608E-02  0.8626562E-01
          1   -1    0    0  501    0  0.00000000000E+00  0.00000000000E+00  0.27722407297E+04  0.27722407297E+04  0.00000000000E+00 0. -1.
         -2   -1    0    0    0  501 -0.00000000000E+00 -0.00000000000E+00 -0.34569147137E+03  0.34569147137E+03  0.00000000000E+00 0.  1.
        -24    2    1    2    0    0  0.22798128073E+02  0.34276552718E+03 -0.13736966439E+03  0.37867255376E+03  0.80712557957E+02 0.  0.
        254    2    1    2    0    0 -0.22798128073E+02 -0.34276552718E+03  0.25639189228E+04  0.27392596473E+04  0.90103008374E+03 0.  0.
         23    2    4    4    0    0 -0.17710284989E+03  0.19483185790E+03  0.31726511774E+03  0.42222558226E+03  0.91062698654E+02 0.  0.
         23    2    4    4    0    0  0.15430472182E+03 -0.53759738508E+03  0.22466538050E+04  0.23170340651E+04  0.91502150453E+02 0.  0.
          3    1    3    3  502    0 -0.23334565096E+02  0.80074955521E+02 -0.13085599363E+02  0.84425904441E+02  0.00000000000E+00 0. -1.
         -4    1    3    3    0  502  0.46132693170E+02  0.26269057166E+03 -0.12428406503E+03  0.29424664932E+03  0.00000000000E+00 0.  1.
         13    1    5    5    0    0 -0.20207992629E+02  0.37376013578E+02  0.11152176450E+03  0.11934166629E+03  0.00000000000E+00 0.  1.
        -13    1    5    5    0    0 -0.15689485726E+03  0.15745584432E+03  0.20574335324E+03  0.30288391596E+03  0.00000000000E+00 0. -1.
          4    1    6    6  503    0  0.15146593694E+03 -0.49232094122E+03  0.19478244891E+04  0.20147809011E+04  0.00000000000E+00 0. -1.
         -4    1    6    6    0  503  0.28387848803E+01 -0.45276443854E+02  0.29882931594E+03  0.30225316398E+03  0.00000000000E+00 0.  1.
<mgrwt>
<rscale>  0 0.19578968E+04</rscale>
<asrwt>0</asrwt>
<pdfrwt beam="1">  1        1 0.42649856E+00 0.19578968E+04</pdfrwt>
<pdfrwt beam="2">  1       -2 0.53183305E-01 0.19578968E+04</pdfrwt>
<totfact> 0.23810365E+00</totfact>
</mgrwt>
</event>
<event>
12    5  0.5264288E-008  0.1108203E+04  0.7818608E-02  0.9197233E-01
          1   -1    0    0  501    0  0.00000000000E+00  0.00000000000E+00  0.17743284603E+04  0.17743284603E+04  0.00000000000E+00 0. -1.
         -2   -1    0    0    0  501 -0.00000000000E+00 -0.00000000000E+00 -0.17303921915E+03  0.17303921915E+03  0.00000000000E+00 0.  1.
        -24    2    1    2    0    0 -0.10495197891E+02 -0.15165620958E+03  0.43830866260E+03  0.47061250486E+03  0.79068899966E+02 0.  0.
        254    2    1    2    0    0  0.10495197891E+02  0.15165620958E+03  0.11629805785E+04  0.14767551746E+04  0.89731391636E+03 0.  0.
         23    2    4    4    0    0 -0.21862710968E+03 -0.30766899583E+03  0.48516597903E+03  0.62122099720E+03  0.89841393993E+02 0.  0.
         23    2    4    4    0    0  0.22912230757E+03  0.45932520541E+03  0.67781459949E+03  0.85553417735E+03  0.95023266572E+02 0.  0.
          3    1    3    3  502    0 -0.15956397386E+02 -0.30433551119E+01  0.96449919844E+02  0.97808259701E+02  0.00000000000E+00 0. -1.
         -4    1    3    3    0  502  0.54611994948E+01 -0.14861285447E+03  0.34185874275E+03  0.37280424516E+03  0.00000000000E+00 0.  1.
         13    1    5    5    0    0 -0.19040648361E+03 -0.24396872546E+03  0.44091355194E+03  0.53868369967E+03  0.00000000000E+00 0.  1.
        -13    1    5    5    0    0 -0.28220626063E+02 -0.63700270369E+02  0.44252427091E+02  0.82537297532E+02  0.00000000000E+00 0. -1.
          1    1    6    6  503    0  0.69434209694E+02  0.22990365683E+03  0.35376963183E+03  0.42758596013E+03  0.00000000000E+00 0. -1.
         -1    1    6    6    0  503  0.15968809787E+03  0.22942154858E+03  0.32404496766E+03  0.42794821722E+03  0.00000000000E+00 0.  1.
<mgrwt>
<rscale>  0 0.11082029E+04</rscale>
<asrwt>0</asrwt>
<pdfrwt beam="1">  1        1 0.27297360E+00 0.11082029E+04</pdfrwt>
<pdfrwt beam="2">  1       -2 0.26621420E-01 0.11082029E+04</pdfrwt>
<totfact> 0.47480895E+01</totfact>
</mgrwt>
</event>
<event>
12    5  0.5264288E-008  0.1496020E+04  0.7818608E-02  0.8887104E-01
          1   -1    0    0  501    0  0.00000000000E+00  0.00000000000E+00  0.86226116451E+03  0.86226116451E+03  0.00000000000E+00 0. -1.
         -2   -1    0    0    0  501 -0.00000000000E+00 -0.00000000000E+00 -0.64889744552E+03  0.64889744552E+03  0.00000000000E+00 0.  1.
        -24    2    1    2    0    0  0.25231636203E+03  0.75088686356E+01 -0.32964660946E+03  0.42277234016E+03  0.79684595870E+02 0.  0.
        254    2    1    2    0    0 -0.25231636203E+03 -0.75088686356E+01  0.54301032845E+03  0.10883862699E+04  0.90884791136E+03 0.  0.
         23    2    4    4    0    0 -0.49885964846E+03  0.23715935510E+03  0.44624617638E+03  0.71690768032E+03  0.98567051276E+02 0.  0.
         23    2    4    4    0    0  0.24654328643E+03 -0.24466822374E+03  0.96764152078E+02  0.37147858955E+03  0.89369511461E+02 0.  0.
          3    1    3    3  502    0  0.28871641934E+02 -0.21401366395E+02 -0.72256914589E+02  0.80701003075E+02  0.00000000000E+00 0. -1.
         -4    1    3    3    0  502  0.22344472010E+03  0.28910235030E+02 -0.25738969487E+03  0.34207133708E+03  0.00000000000E+00 0.  1.
         13    1    5    5    0    0 -0.14041435765E+03  0.20336098445E+02  0.10302313645E+03  0.17533828840E+03  0.00000000000E+00 0. -1.
        -13    1    5    5    0    0 -0.35844529081E+03  0.21682325666E+03  0.34322303992E+03  0.54156939192E+03  0.00000000000E+00 0.  1.
          1    1    6    6  503    0  0.16364737585E+02 -0.63981695962E+01  0.28105767446E+02  0.33146272402E+02  0.00000000000E+00 0. -1.
         -1    1    6    6    0  503  0.23017854884E+03 -0.23827005414E+03  0.68658384631E+02  0.33833231715E+03  0.00000000000E+00 0.  1.
<mgrwt>
<rscale>  0 0.14960201E+04</rscale>
<asrwt>0</asrwt>
<pdfrwt beam="1">  1        1 0.13265556E+00 0.14960201E+04</pdfrwt>
<pdfrwt beam="2">  1       -2 0.99830376E-01 0.14960201E+04</pdfrwt>
<totfact> 0.13753357E+01</totfact>
</mgrwt>
</event>
<event>
12    5  0.5264288E-008  0.2423700E+04  0.7818608E-02  0.8430683E-01
          1   -1    0    0  501    0  0.00000000000E+00  0.00000000000E+00  0.17459687948E+04  0.17459687948E+04  0.00000000000E+00 0. -1.
         -2   -1    0    0    0  501 -0.00000000000E+00 -0.00000000000E+00 -0.84112658398E+03  0.84112658398E+03  0.00000000000E+00 0.  1.
        -24    2    1    2    0    0  0.10126005805E+03 -0.23732913652E+03  0.14709076899E+04  0.14959415566E+04  0.87709693097E+02 0.  0.
        254    2    1    2    0    0 -0.10126005805E+03  0.23732913652E+03 -0.56606547904E+03  0.10911538222E+04  0.89644175421E+03 0.  0.
         23    2    4    4    0    0 -0.48608205352E+03  0.20704791683E+03 -0.32476587551E+03  0.62694020080E+03  0.91850633411E+02 0.  0.
         23    2    4    4    0    0  0.38482199548E+03  0.30281219684E+02 -0.24129960354E+03  0.46421362138E+03  0.90905814644E+02 0.  0.
          3    1    3    3  502    0  0.71424672673E+02 -0.14607545398E+03  0.11348184224E+04  0.11464084673E+04  0.00000000000E+00 0. -1.
         -4    1    3    3    0  502  0.29835385372E+02 -0.91253682539E+02  0.33608926746E+03  0.34953308928E+03  0.00000000000E+00 0.  1.
         13    1    5    5    0    0 -0.45768377139E+03  0.20851851051E+03 -0.32442255534E+03  0.59850179467E+03  0.00000000000E+00 0.  1.
        -13    1    5    5    0    0 -0.28398282135E+02 -0.14705936758E+01 -0.34332016893E+00  0.28438406121E+02  0.00000000000E+00 0. -1.
          4    1    6    6  503    0  0.12839680194E+03  0.46588124096E+02 -0.11164792949E+03  0.17641273257E+03  0.00000000000E+00 0. -1.
         -4    1    6    6    0  503  0.25642519354E+03 -0.16306904411E+02 -0.12965167405E+03  0.28780088881E+03  0.00000000000E+00 0.  1.
<mgrwt>
<rscale>  0 0.24237003E+04</rscale>
<asrwt>0</asrwt>
<pdfrwt beam="1">  1        1 0.26861058E+00 0.24237003E+04</pdfrwt>
<pdfrwt beam="2">  1       -2 0.12940409E+00 0.24237003E+04</pdfrwt>
<totfact> 0.15304742E+00</totfact>
</mgrwt>
</event>
<event>
12    5  0.5668017E-008  0.1241497E+04  0.7818608E-02  0.9077290E-01
         -2   -1    0    0    0  501 -0.00000000000E+00  0.00000000000E+00  0.18629199539E+03  0.18629199539E+03  0.00000000000E+00 0.  1.
          1   -1    0    0  501    0  0.00000000000E+00 -0.00000000000E+00 -0.20684116516E+04  0.20684116516E+04  0.00000000000E+00 0. -1.
        -24    2    1    2    0    0  0.13829172591E+03 -0.41110844621E+02 -0.10450246501E+04  0.10585017060E+04  0.86802299397E+02 0.  0.
        254    2    1    2    0    0 -0.13829172591E+03  0.41110844621E+02 -0.83709500611E+03  0.11962019410E+04  0.84223294371E+03 0.  0.
         23    2    4    4    0    0 -0.61169694364E+02  0.75710392009E+02 -0.99044280906E+03  0.99918247641E+03  0.88965544888E+02 0.  0.
         23    2    4    4    0    0 -0.77122031545E+02 -0.34599547388E+02  0.15334780295E+03  0.19701946462E+03  0.90311595829E+02 0.  0.
          1    1    3    3  502    0  0.14421807880E+03 -0.39670326091E+02 -0.10397043296E+04  0.10504083406E+04  0.00000000000E+00 0. -1.
         -2    1    3    3    0  502 -0.59263528925E+01 -0.14405185302E+01 -0.53203204782E+01  0.80933653219E+01  0.00000000000E+00 0.  1.
         13    1    5    5    0    0 -0.28598694922E+02  0.78221594180E+02 -0.88206601476E+03  0.88598925363E+03  0.00000000000E+00 0. -1.
        -13    1    5    5    0    0 -0.32570999443E+02 -0.25112021713E+01 -0.10837679429E+03  0.11319322278E+03  0.00000000000E+00 0.  1.
          3    1    6    6  503    0 -0.86375277232E+02 -0.32328629551E+02  0.16049651569E+03  0.18510796945E+03  0.00000000000E+00 0. -1.
         -3    1    6    6    0  503  0.92532456869E+01 -0.22709178377E+01 -0.71487127344E+01  0.11911495176E+02  0.00000000000E+00 0.  1.
<mgrwt>
<rscale>  0 0.12414967E+04</rscale>
<asrwt>0</asrwt>
<pdfrwt beam="1">  1        1 0.31821720E+00 0.12414967E+04</pdfrwt>
<pdfrwt beam="2">  1       -2 0.28660305E-01 0.12414967E+04</pdfrwt>
<totfact> 0.25949110E+01</totfact>
</mgrwt>
</event>
<event>
12    5  0.5264288E-008  0.2478295E+04  0.7818608E-02  0.8410759E-01
         -2   -1    0    0    0  501 -0.00000000000E+00  0.00000000000E+00  0.49223432294E+03  0.49223432294E+03  0.00000000000E+00 0.  1.
          1   -1    0    0  501    0  0.00000000000E+00 -0.00000000000E+00 -0.31194209615E+04  0.31194209615E+04  0.00000000000E+00 0. -1.
        -24    2    1    2    0    0 -0.34274063183E+03  0.51676809201E+03 -0.24204415381E+04  0.24996498546E+04  0.72053830047E+02 0.  0.
        254    2    1    2    0    0  0.34274063183E+03 -0.51676809201E+03 -0.20674510042E+03  0.11120054298E+04  0.89960665728E+03 0.  0.
         23    2    4    4    0    0  0.13893590709E+03 -0.71073251781E+02 -0.50098385870E+03  0.53248263474E+03  0.90544664251E+02 0.  0.
         23    2    4    4    0    0  0.20380472473E+03 -0.44569484023E+03  0.29423875828E+03  0.57952279510E+03  0.95341317050E+02 0.  0.
          3    1    3    3  502    0 -0.33156233230E+03  0.48138326850E+03 -0.22117487570E+04  0.22876835435E+04  0.00000000000E+00 0. -1.
         -4    1    3    3    0  502 -0.11178299524E+02  0.35384823513E+02 -0.20869278116E+03  0.21196631106E+03  0.00000000000E+00 0.  1.
         13    1    5    5    0    0  0.23863803311E+02  0.20194721118E+02 -0.12448652546E+03  0.12835187139E+03  0.00000000000E+00 0.  1.
        -13    1    5    5    0    0  0.11507210378E+03 -0.91267972899E+02 -0.37649733324E+03  0.40413076335E+03  0.00000000000E+00 0. -1.
          3    1    6    6  503    0  0.16923399846E+03 -0.41260371541E+03  0.28892008706E+03  0.53137255190E+03  0.00000000000E+00 0. -1.
         -3    1    6    6    0  503  0.34570726275E+02 -0.33091124817E+02  0.53186712224E+01  0.48150243202E+02  0.00000000000E+00 0.  1.
<mgrwt>
<rscale>  0 0.24782946E+04</rscale>
<asrwt>0</asrwt>
<pdfrwt beam="1">  1        1 0.47991092E+00 0.24782946E+04</pdfrwt>
<pdfrwt beam="2">  1       -2 0.75728356E-01 0.24782946E+04</pdfrwt>
<totfact> 0.59729030E-01</totfact>
</mgrwt>
</event>
<event>
12    5  0.5264288E-008  0.2330969E+04  0.7818608E-02  0.8465810E-01
         -2   -1    0    0    0  501 -0.00000000000E+00  0.00000000000E+00  0.57883438075E+03  0.57883438075E+03  0.00000000000E+00 0.  1.
          1   -1    0    0  501    0  0.00000000000E+00 -0.00000000000E+00 -0.23467063804E+04  0.23467063804E+04  0.00000000000E+00 0. -1.
        -24    2    1    2    0    0  0.19420765603E+03 -0.49432975392E+03  0.29311857635E+03  0.61170015600E+03  0.78613368946E+02 0.  0.
        254    2    1    2    0    0 -0.19420765603E+03  0.49432975392E+03 -0.20609905760E+04  0.23138406051E+04  0.90779825532E+03 0.  0.
         23    2    4    4    0    0 -0.36010729890E+03  0.15238041387E+03 -0.27790277385E+03  0.48831073578E+03  0.91216038688E+02 0.  0.
         23    2    4    4    0    0  0.16589964287E+03  0.34194934005E+03 -0.17830878021E+04  0.18255298693E+04  0.93301399119E+02 0.  0.
          1    1    3    3  502    0  0.80602857991E+02 -0.16056576381E+03  0.13786798039E+03  0.22646360688E+03  0.00000000000E+00 0. -1.
         -2    1    3    3    0  502  0.11360479804E+03 -0.33376399011E+03  0.15525059596E+03  0.38523654912E+03  0.00000000000E+00 0.  1.
         13    1    5    5    0    0 -0.31295790627E+03  0.11562912662E+03 -0.19612097552E+03  0.38700928032E+03  0.00000000000E+00 0.  1.
        -13    1    5    5    0    0 -0.47149392636E+02  0.36751287251E+02 -0.81781798326E+02  0.10130145546E+03  0.00000000000E+00 0. -1.
          1    1    6    6  503    0 -0.52481539940E+01  0.48203120478E+02 -0.15846580796E+03  0.16571812284E+03  0.00000000000E+00 0. -1.
         -1    1    6    6    0  503  0.17114779687E+03  0.29374621957E+03 -0.16246219942E+04  0.16598117465E+04  0.00000000000E+00 0.  1.
<mgrwt>
<rscale>  0 0.23309692E+04</rscale>
<asrwt>0</asrwt>
<pdfrwt beam="1">  1        1 0.36103175E+00 0.23309692E+04</pdfrwt>
<pdfrwt beam="2">  1       -2 0.89051442E-01 0.23309692E+04</pdfrwt>
<totfact> 0.14830074E+00</totfact>
</mgrwt>
</event>
<event>
12    5  0.5264288E-008  0.2409467E+04  0.7818608E-02  0.8435968E-01
         -2   -1    0    0    0  501 -0.00000000000E+00  0.00000000000E+00  0.64996296290E+03  0.64996296290E+03  0.00000000000E+00 0.  1.
          1   -1    0    0  501    0  0.00000000000E+00 -0.00000000000E+00 -0.22330231951E+04  0.22330231951E+04  0.00000000000E+00 0. -1.
        -24    2    1    2    0    0  0.22719010013E+03 -0.89568644546E+03 -0.12308101429E+04  0.15411572764E+04  0.80016202239E+02 0.  0.
        254    2    1    2    0    0 -0.22719010013E+03  0.89568644546E+03 -0.35225008923E+03  0.13418288815E+04  0.90694821889E+03 0.  0.
         23    2    4    4    0    0  0.59239815967E+02 -0.15447802994E+03  0.63925046630E+01  0.19211580372E+03  0.97441266385E+02 0.  0.
         23    2    4    4    0    0 -0.28642991610E+03  0.10501644754E+04 -0.35864259389E+03  0.11497130778E+04  0.91258582583E+02 0.  0.
          1    1    3    3  502    0  0.20603818696E+03 -0.77603469851E+03 -0.10234485768E+04  0.13008184259E+04  0.00000000000E+00 0. -1.
         -2    1    3    3    0  502  0.21151913172E+02 -0.11965174695E+03 -0.20736156613E+03  0.24033885055E+03  0.00000000000E+00 0.  1.
         13    1    5    5    0    0  0.80925651531E+02 -0.12917843437E+03  0.24186415254E+02  0.15434057038E+03  0.00000000000E+00 0. -1.
        -13    1    5    5    0    0 -0.21685835563E+02 -0.25299595565E+02 -0.17793910591E+02  0.37775233341E+02  0.00000000000E+00 0.  1.
          1    1    6    6  503    0 -0.17425283617E+03  0.49115612654E+03 -0.19634373268E+03  0.55691045323E+03  0.00000000000E+00 0. -1.
         -1    1    6    6    0  503 -0.11217707993E+03  0.55900834885E+03 -0.16229886121E+03  0.59280262457E+03  0.00000000000E+00 0.  1.
<mgrwt>
<rscale>  0 0.24094666E+04</rscale>
<asrwt>0</asrwt>
<pdfrwt beam="1">  1        1 0.34354203E+00 0.24094666E+04</pdfrwt>
<pdfrwt beam="2">  1       -2 0.99994303E-01 0.24094666E+04</pdfrwt>
<totfact> 0.13444279E+00</totfact>
</mgrwt>
</event>
<event>
12    5  0.5264288E-008  0.1250883E+04  0.7818608E-02  0.9069448E-01
         -2   -1    0    0    0  501 -0.00000000000E+00  0.00000000000E+00  0.84991372074E+03  0.84991372074E+03  0.00000000000E+00 0.  1.
          1   -1    0    0  501    0  0.00000000000E+00 -0.00000000000E+00 -0.46025517926E+03  0.46025517926E+03  0.00000000000E+00 0. -1.
        -24    2    1    2    0    0 -0.63981118158E+02 -0.16649616870E+03  0.34051451641E+03  0.39117388913E+03  0.72472877571E+02 0.  0.
        254    2    1    2    0    0  0.63981118158E+02  0.16649616870E+03  0.49144025067E+02  0.91899501087E+03  0.90017894728E+03 0.  0.
         23    2    4    4    0    0  0.14777659288E+03 -0.55550413977E+02 -0.37924163972E+03  0.42079340488E+03  0.91209091635E+02 0.  0.
         23    2    4    4    0    0 -0.83795474720E+02  0.22204658268E+03  0.42838566479E+03  0.49820160599E+03  0.91455978216E+02 0.  0.
          3    1    3    3  502    0 -0.19124168177E+02 -0.59168257767E+02  0.55549013459E+02  0.83380509904E+02  0.00000000000E+00 0. -1.
         -4    1    3    3    0  502 -0.44856949981E+02 -0.10732791093E+03  0.28496550295E+03  0.30779337923E+03  0.00000000000E+00 0.  1.
         13    1    5    5    0    0  0.12627122599E+02 -0.41009677585E+02 -0.12995156544E+03  0.13685264792E+03  0.00000000000E+00 0. -1.
        -13    1    5    5    0    0  0.13514947028E+03 -0.14540736392E+02 -0.24929007428E+03  0.28394075696E+03  0.00000000000E+00 0.  1.
          1    1    6    6  503    0  0.92194146600E+01  0.47069167305E+02  0.41107164311E+02  0.63168845764E+02  0.00000000000E+00 0. -1.
         -1    1    6    6    0  503 -0.93014889380E+02  0.17497741537E+03  0.38727850048E+03  0.43503276023E+03  0.00000000000E+00 0.  1.
<mgrwt>
<rscale>  0 0.12508832E+04</rscale>
<asrwt>0</asrwt>
<pdfrwt beam="1">  1        1 0.70808489E-01 0.12508832E+04</pdfrwt>
<pdfrwt beam="2">  1       -2 0.13075596E+00 0.12508832E+04</pdfrwt>
<totfact> 0.18309253E+01</totfact>
</mgrwt>
</event>
<event>
12    5  0.5264288E-008  0.1453538E+04  0.7818608E-02  0.8915951E-01
          1   -1    0    0  501    0  0.00000000000E+00  0.00000000000E+00  0.72856346368E+03  0.72856346368E+03  0.00000000000E+00 0. -1.
         -2   -1    0    0    0  501 -0.00000000000E+00 -0.00000000000E+00 -0.72497888621E+03  0.72497888621E+03  0.00000000000E+00 0.  1.
        -24    2    1    2    0    0  0.37377255539E+03 -0.20244516755E+03 -0.12506318995E+03  0.44978533430E+03  0.77305086770E+02 0.  0.
        254    2    1    2    0    0 -0.37377255539E+03  0.20244516755E+03  0.12864776742E+03  0.10037570156E+04  0.90015994649E+03 0.  0.
         23    2    4    4    0    0 -0.25603404695E+03 -0.28187549885E+03 -0.15421351647E+03  0.42360348878E+03  0.10320308619E+03 0.  0.
         23    2    4    4    0    0 -0.11773850844E+03  0.48432066640E+03  0.28286128389E+03  0.58015352681E+03  0.90214990307E+02 0.  0.
          1    1    3    3  502    0  0.36620522763E+03 -0.19157523599E+03 -0.10616211107E+03  0.42670567563E+03  0.00000000000E+00 0. -1.
         -2    1    3    3    0  502  0.75673277655E+01 -0.10869931560E+02 -0.18901078876E+02  0.23079658670E+02  0.00000000000E+00 0.  1.
         13    1    5    5    0    0 -0.10361433853E+03 -0.18954416632E+03 -0.76070495659E+02  0.22901886919E+03  0.00000000000E+00 0. -1.
        -13    1    5    5    0    0 -0.15241970842E+03 -0.92331332527E+02 -0.78143020809E+02  0.19458461959E+03  0.00000000000E+00 0.  1.
          1    1    6    6  503    0 -0.13029350661E+03  0.44414325722E+03  0.24584072143E+03  0.52409664292E+03  0.00000000000E+00 0. -1.
         -1    1    6    6    0  503  0.12554998171E+02  0.40177409172E+02  0.37020562462E+02  0.56056883894E+02  0.00000000000E+00 0.  1.
<mgrwt>
<rscale>  0 0.14535379E+04</rscale>
<asrwt>0</asrwt>
<pdfrwt beam="1">  1        1 0.11208669E+00 0.14535379E+04</pdfrwt>
<pdfrwt beam="2">  1       -2 0.11153521E+00 0.14535379E+04</pdfrwt>
<totfact> 0.13839568E+01</totfact>
</mgrwt>
</event>
<event>
12    5  0.5264288E-008  0.2037156E+04  0.7818608E-02  0.8589444E-01
         -2   -1    0    0    0  501 -0.00000000000E+00  0.00000000000E+00  0.68900917137E+03  0.68900917137E+03  0.00000000000E+00 0.  1.
          1   -1    0    0  501    0  0.00000000000E+00 -0.00000000000E+00 -0.15057865011E+04  0.15057865011E+04  0.00000000000E+00 0. -1.
        -24    2    1    2    0    0  0.50032047338E+03 -0.53374412170E+02  0.36395722537E+03  0.62606204573E+03  0.79494774982E+02 0.  0.
        254    2    1    2    0    0 -0.50032047338E+03  0.53374412170E+02 -0.11807345551E+04  0.15687336267E+04  0.90200981041E+03 0.  0.
         23    2    4    4    0    0 -0.62988952692E+03 -0.13035809937E+03 -0.11505499770E+04  0.13213829894E+04  0.92378054517E+02 0.  0.
         23    2    4    4    0    0  0.12956905354E+03  0.18373251154E+03 -0.30184578093E+02  0.24735063731E+03  0.98617714387E+02 0.  0.
          1    1    3    3  502    0  0.10307783879E+03 -0.43875699937E+02  0.77934673494E+02  0.13646952490E+03  0.00000000000E+00 0. -1.
         -2    1    3    3    0  502  0.39724263459E+03 -0.94987122325E+01  0.28602255187E+03  0.48959252083E+03  0.00000000000E+00 0.  1.
         13    1    5    5    0    0 -0.39859335893E+03 -0.40932920473E+02 -0.67177121192E+03  0.78219481648E+03  0.00000000000E+00 0. -1.
        -13    1    5    5    0    0 -0.23129616799E+03 -0.89425178894E+02 -0.47877876509E+03  0.53918817295E+03  0.00000000000E+00 0.  1.
          1    1    6    6  503    0  0.19861520286E+02 -0.57151707695E+01 -0.19112850270E+02  0.28150385618E+02  0.00000000000E+00 0. -1.
         -1    1    6    6    0  503  0.10970753325E+03  0.18944768231E+03 -0.11071727823E+02  0.21920025169E+03  0.00000000000E+00 0.  1.
<mgrwt>
<rscale>  0 0.20371556E+04</rscale>
<asrwt>0</asrwt>
<pdfrwt beam="1">  1        1 0.23165946E+00 0.20371556E+04</pdfrwt>
<pdfrwt beam="2">  1       -2 0.10600141E+00 0.20371556E+04</pdfrwt>
<totfact> 0.37798497E+00</totfact>
</mgrwt>
</event>
<event>
12    5  0.5264288E-008  0.1507881E+04  0.7818608E-02  0.8879229E-01
         -2   -1    0    0    0  501 -0.00000000000E+00  0.00000000000E+00  0.22569546843E+03  0.22569546843E+03  0.00000000000E+00 0.  1.
          1   -1    0    0  501    0  0.00000000000E+00 -0.00000000000E+00 -0.25185546562E+04  0.25185546562E+04  0.00000000000E+00 0. -1.
        -24    2    1    2    0    0 -0.87749589035E+02 -0.44801141665E+03 -0.46754326438E+03  0.65820043672E+03  0.78847263776E+02 0.  0.
        254    2    1    2    0    0  0.87749589035E+02  0.44801141665E+03 -0.18253159234E+04  0.20860496879E+04  0.90078347035E+03 0.  0.
         23    2    4    4    0    0 -0.16861247081E+03  0.30185118632E+03 -0.15891303364E+03  0.39115751667E+03  0.90589991678E+02 0.  0.
         23    2    4    4    0    0  0.25636205984E+03  0.14616023033E+03 -0.16664028898E+04  0.16948921713E+04  0.93148067764E+02 0.  0.
          3    1    3    3  502    0 -0.37894371932E+02 -0.21863839373E+03 -0.28295585265E+03  0.35958690908E+03  0.00000000000E+00 0. -1.
         -4    1    3    3    0  502 -0.49855217103E+02 -0.22937302293E+03 -0.18458741173E+03  0.29861352764E+03  0.00000000000E+00 0.  1.
         13    1    5    5    0    0 -0.11996517777E+03  0.14140844298E+03 -0.11366432749E+03  0.21750303669E+03  0.00000000000E+00 0.  1.
        -13    1    5    5    0    0 -0.48647293035E+02  0.16044274334E+03 -0.45248706148E+02  0.17365447998E+03  0.00000000000E+00 0. -1.
          1    1    6    6  503    0  0.17733951764E+03  0.13188198145E+03 -0.13741243849E+04  0.13917830243E+04  0.00000000000E+00 0. -1.
         -1    1    6    6    0  503  0.79022542203E+02  0.14278248887E+02 -0.29227850491E+03  0.30310914701E+03  0.00000000000E+00 0.  1.
<mgrwt>
<rscale>  0 0.15078811E+04</rscale>
<asrwt>0</asrwt>
<pdfrwt beam="1">  1        1 0.38746996E+00 0.15078811E+04</pdfrwt>
<pdfrwt beam="2">  1       -2 0.34722378E-01 0.15078811E+04</pdfrwt>
<totfact> 0.87069860E+00</totfact>
</mgrwt>
</event>
<event>
12    5  0.5264288E-008  0.1903100E+04  0.7818608E-02  0.8653315E-01
         -2   -1    0    0    0  501 -0.00000000000E+00  0.00000000000E+00  0.27641857348E+03  0.27641857348E+03  0.00000000000E+00 0.  1.
          1   -1    0    0  501    0  0.00000000000E+00 -0.00000000000E+00 -0.32756397357E+04  0.32756397357E+04  0.00000000000E+00 0. -1.
        -24    2    1    2    0    0 -0.17553048147E+03  0.39978561183E+03 -0.22898495956E+04  0.23324654301E+04  0.79651282041E+02 0.  0.
        254    2    1    2    0    0  0.17553048147E+03 -0.39978561183E+03 -0.70937156662E+03  0.12195928791E+04  0.89081944627E+03 0.  0.
         23    2    4    4    0    0  0.48256252207E+03 -0.43125836520E+03 -0.57714194818E+03  0.87178128923E+03  0.89774287173E+02 0.  0.
         23    2    4    4    0    0 -0.30703204060E+03  0.31472753371E+02 -0.13222961844E+03  0.34781158987E+03  0.90713956456E+02 0.  0.
          3    1    3    3  502    0 -0.15165468431E+03  0.38280694568E+03 -0.21914610319E+04  0.22298075602E+04  0.00000000000E+00 0. -1.
         -4    1    3    3    0  502 -0.23875797165E+02  0.16978666147E+02 -0.98388563674E+02  0.10265786992E+03  0.00000000000E+00 0.  1.
         13    1    5    5    0    0  0.99781001323E+01 -0.22572230785E+02 -0.43963265215E+02  0.50416631911E+02  0.00000000000E+00 0. -1.
        -13    1    5    5    0    0  0.47258442194E+03 -0.40868613441E+03 -0.53317868296E+03  0.82136465731E+03  0.00000000000E+00 0.  1.
          2    1    6    6  503    0 -0.31334420759E+03  0.33048581749E+02 -0.13078429036E+03  0.34114708234E+03  0.00000000000E+00 0.  1.
         -2    1    6    6    0  503  0.63121669967E+01 -0.15758283779E+01 -0.14453280868E+01  0.66645075249E+01  0.00000000000E+00 0. -1.
<mgrwt>
<rscale>  0 0.19031003E+04</rscale>
<asrwt>0</asrwt>
<pdfrwt beam="1">  1        1 0.50394462E+00 0.19031003E+04</pdfrwt>
<pdfrwt beam="2">  1       -2 0.42525931E-01 0.19031003E+04</pdfrwt>
<totfact> 0.16115308E+00</totfact>
</mgrwt>
</event>
<event>
12    5  0.5264288E-008  0.1878441E+04  0.7818608E-02  0.8665663E-01
         -4   -1    0    0    0  501 -0.00000000000E+00  0.00000000000E+00  0.13060432874E+04  0.13060432874E+04  0.00000000000E+00 0.  1.
          3   -1    0    0  501    0  0.00000000000E+00 -0.00000000000E+00 -0.67542569750E+03  0.67542569750E+03  0.00000000000E+00 0. -1.
        -24    2    1    2    0    0  0.69663918613E+03 -0.87197217124E+02  0.41038566843E+03  0.81768207140E+03  0.85311562551E+02 0.  0.
        254    2    1    2    0    0 -0.69663918613E+03  0.87197217124E+02  0.22023192142E+03  0.11637869135E+04  0.90165867733E+03 0.  0.
         23    2    4    4    0    0  0.10930841133E+03  0.12329865744E+03  0.29269144637E+03  0.34784932262E+03  0.90443246048E+02 0.  0.
         23    2    4    4    0    0 -0.80594759746E+03 -0.36101440315E+02 -0.72459524950E+02  0.81593759084E+03  0.98228944552E+02 0.  0.
          3    1    3    3  502    0  0.12248885963E+03  0.78406120061E+01  0.46122728490E+02  0.13111941890E+03  0.00000000000E+00 0. -1.
         -4    1    3    3    0  502  0.57415032650E+03 -0.95037829130E+02  0.36426293994E+03  0.68656265250E+03  0.00000000000E+00 0.  1.
         13    1    5    5    0    0  0.51442200205E+02  0.66820360100E+02  0.65745356751E+02  0.10692853885E+03  0.00000000000E+00 0. -1.
        -13    1    5    5    0    0  0.57866211123E+02  0.56478297338E+02  0.22694608962E+03  0.24092078377E+03  0.00000000000E+00 0.  1.
          3    1    6    6  503    0 -0.70482392643E+03 -0.31051954657E+02 -0.29999049950E+02  0.70614512259E+03  0.00000000000E+00 0. -1.
         -3    1    6    6    0  503 -0.10112367102E+03 -0.50494856574E+01 -0.42460475000E+02  0.10979246825E+03  0.00000000000E+00 0.  1.
<mgrwt>
<rscale>  0 0.18784411E+04</rscale>
<asrwt>0</asrwt>
<pdfrwt beam="1">  1        3 0.10391165E+00 0.18784411E+04</pdfrwt>
<pdfrwt beam="2">  1       -4 0.20092974E+00 0.18784411E+04</pdfrwt>
<totfact> 0.22238836E-01</totfact>
</mgrwt>
</event>
<event>
12    5  0.5264288E-008  0.1278891E+04  0.7818608E-02  0.9046474E-01
         -2   -1    0    0    0  501 -0.00000000000E+00  0.00000000000E+00  0.32487657286E+03  0.32487657286E+03  0.00000000000E+00 0.  1.
          1   -1    0    0  501    0  0.00000000000E+00 -0.00000000000E+00 -0.12586028874E+04  0.12586028874E+04  0.00000000000E+00 0. -1.
        -24    2    1    2    0    0  0.27268200529E+03 -0.11015849469E+03 -0.41883153890E+03  0.51810334994E+03  0.80751800456E+02 0.  0.
        254    2    1    2    0    0 -0.27268200529E+03  0.11015849469E+03 -0.51489477560E+03  0.10653761103E+04  0.88510974261E+03 0.  0.
         23    2    4    4    0    0  0.81375983375E+02 -0.13936402786E+03  0.16888729522E+03  0.25079623596E+03  0.91276779939E+02 0.  0.
         23    2    4    4    0    0 -0.35405798867E+03  0.24952252254E+03 -0.68378207082E+03  0.81457987432E+03  0.91454374809E+02 0.  0.
          3    1    3    3  502    0  0.20185127142E+03 -0.67903318779E+02 -0.23813138259E+03  0.31947042406E+03  0.00000000000E+00 0. -1.
         -4    1    3    3    0  502  0.70830733876E+02 -0.42255175908E+02 -0.18070015632E+03  0.19863292588E+03  0.00000000000E+00 0.  1.
         13    1    5    5    0    0  0.54154510002E+02 -0.12709048805E+03  0.86084038172E+02  0.16277335388E+03  0.00000000000E+00 0.  1.
        -13    1    5    5    0    0  0.27221473373E+02 -0.12273539807E+02  0.82803257049E+02  0.88022882082E+02  0.00000000000E+00 0. -1.
          4    1    6    6  503    0 -0.39911689999E-01  0.11294300194E+02 -0.44919419930E+02  0.46317567905E+02  0.00000000000E+00 0. -1.
         -4    1    6    6    0  503 -0.35401807698E+03  0.23822822235E+03 -0.63886265089E+03  0.76826230641E+03  0.00000000000E+00 0.  1.
<mgrwt>
<rscale>  0 0.12788911E+04</rscale>
<asrwt>0</asrwt>
<pdfrwt beam="1">  1        1 0.19363122E+00 0.12788911E+04</pdfrwt>
<pdfrwt beam="2">  1       -2 0.49981010E-01 0.12788911E+04</pdfrwt>
<totfact> 0.31662872E+01</totfact>
</mgrwt>
</event>
<event>
12    5  0.5264288E-008  0.1375524E+04  0.7818608E-02  0.8971729E-01
          3   -1    0    0  501    0  0.00000000000E+00  0.00000000000E+00  0.10548930940E+04  0.10548930940E+04  0.00000000000E+00 0. -1.
         -4   -1    0    0    0  501 -0.00000000000E+00 -0.00000000000E+00 -0.44840228855E+03  0.44840228855E+03  0.00000000000E+00 0.  1.
        -24    2    1    2    0    0  0.31492502539E+03 -0.22174839193E+03  0.27091949595E+03  0.47738069953E+03  0.78389017410E+02 0.  0.
        254    2    1    2    0    0 -0.31492502539E+03  0.22174839193E+03  0.33557130945E+03  0.10259146830E+04  0.88968686181E+03 0.  0.
         23    2    4    4    0    0 -0.59883650062E+02  0.39675385397E+03  0.51334541221E+03  0.65794183574E+03  0.91456409265E+02 0.  0.
         23    2    4    4    0    0 -0.25504137533E+03 -0.17500546205E+03 -0.17777410275E+03  0.36797284723E+03  0.90151926297E+02 0.  0.
          3    1    3    3  502    0  0.33013563862E+01 -0.12228088801E+02  0.26385462814E+02  0.29268033033E+02  0.00000000000E+00 0. -1.
         -4    1    3    3    0  502  0.31162366901E+03 -0.20952030313E+03  0.24453403314E+03  0.44811266649E+03  0.00000000000E+00 0.  1.
         13    1    5    5    0    0 -0.37272179700E+02  0.22805251751E+03  0.22152764788E+03  0.32011195681E+03  0.00000000000E+00 0.  1.
        -13    1    5    5    0    0 -0.22611470362E+02  0.16870133647E+03  0.29181776433E+03  0.33782987893E+03  0.00000000000E+00 0. -1.
          3    1    6    6  503    0 -0.20625112094E+03 -0.17116156285E+03 -0.12417185253E+03  0.29538864983E+03  0.00000000000E+00 0. -1.
         -3    1    6    6    0  503 -0.48790254389E+02 -0.38438992023E+01 -0.53602250224E+02  0.72584197409E+02  0.00000000000E+00 0.  1.
<mgrwt>
<rscale>  0 0.13755239E+04</rscale>
<asrwt>0</asrwt>
<pdfrwt beam="1">  1        3 0.16229125E+00 0.13755239E+04</pdfrwt>
<pdfrwt beam="2">  1       -4 0.68984967E-01 0.13755239E+04</pdfrwt>
<totfact> 0.11362665E+00</totfact>
</mgrwt>
</event>
<event>
12    5  0.5264288E-008  0.1313043E+04  0.7818608E-02  0.9019286E-01
         -2   -1    0    0    0  501 -0.00000000000E+00  0.00000000000E+00  0.27104691995E+03  0.27104691995E+03  0.00000000000E+00 0.  1.
          1   -1    0    0  501    0  0.00000000000E+00 -0.00000000000E+00 -0.15902050748E+04  0.15902050748E+04  0.00000000000E+00 0. -1.
        -24    2    1    2    0    0 -0.98601771205E+02 -0.12452768733E+03  0.68724158742E+02  0.19042389717E+03  0.79427932262E+02 0.  0.
        254    2    1    2    0    0  0.98601771205E+02  0.12452768733E+03 -0.13878823136E+04  0.16708280976E+04  0.91663502065E+03 0.  0.
         23    2    4    4    0    0 -0.35329611267E+03  0.59280215032E+02 -0.26266903016E+03  0.45307201574E+03  0.89145638814E+02 0.  0.
         23    2    4    4    0    0  0.45189788388E+03  0.65247472294E+02 -0.11252132834E+04  0.12177560818E+04  0.91411222191E+02 0.  0.
          1    1    3    3  502    0 -0.26251089003E+02 -0.21815079036E+02 -0.17194203368E+02  0.38218555397E+02  0.00000000000E+00 0. -1.
         -2    1    3    3    0  502 -0.72350682202E+02 -0.10271260829E+03  0.85918362110E+02  0.15220534177E+03  0.00000000000E+00 0.  1.
         13    1    5    5    0    0 -0.18641387369E+03  0.40579946195E+01 -0.17870189599E+03  0.25826530401E+03  0.00000000000E+00 0.  1.
        -13    1    5    5    0    0 -0.16688223899E+03  0.55222220412E+02 -0.83967134168E+02  0.19480671173E+03  0.00000000000E+00 0. -1.
          4    1    6    6  503    0  0.22518538225E+03 -0.13210602951E+02 -0.56161753741E+03  0.60522494557E+03  0.00000000000E+00 0. -1.
         -4    1    6    6    0  503  0.22671250163E+03  0.78458075245E+02 -0.56359574603E+03  0.61253113628E+03  0.00000000000E+00 0.  1.
<mgrwt>
<rscale>  0 0.13130426E+04</rscale>
<asrwt>0</asrwt>
<pdfrwt beam="1">  1        1 0.24464693E+00 0.13130426E+04</pdfrwt>
<pdfrwt beam="2">  1       -2 0.41699526E-01 0.13130426E+04</pdfrwt>
<totfact> 0.26602855E+01</totfact>
</mgrwt>
</event>
<event>
12    5  0.5264288E-008  0.1571563E+04  0.7818608E-02  0.8838211E-01
          1   -1    0    0  501    0  0.00000000000E+00  0.00000000000E+00  0.80967884317E+03  0.80967884317E+03  0.00000000000E+00 0. -1.
         -2   -1    0    0    0  501 -0.00000000000E+00 -0.00000000000E+00 -0.76258931478E+03  0.76258931478E+03  0.00000000000E+00 0.  1.
        -24    2    1    2    0    0  0.42882897362E+03 -0.12254257727E+03  0.20903357393E+03  0.49896636596E+03  0.79758557321E+02 0.  0.
        254    2    1    2    0    0 -0.42882897362E+03  0.12254257727E+03 -0.16194404554E+03  0.10733017920E+04  0.96272524167E+03 0.  0.
         23    2    4    4    0    0  0.24675895470E+03 -0.25011981975E+02  0.15511305851E+03  0.30698822081E+03  0.93092028817E+02 0.  0.
         23    2    4    4    0    0 -0.67558792832E+03  0.14755455925E+03 -0.31705710406E+03  0.76631357118E+03  0.92303224729E+02 0.  0.
          1    1    3    3  502    0  0.33123942125E+03 -0.11243332240E+03  0.19312760949E+03  0.39957362241E+03  0.00000000000E+00 0. -1.
         -2    1    3    3    0  502  0.97589552365E+02 -0.10109254877E+02  0.15905964438E+02  0.99392743546E+02  0.00000000000E+00 0.  1.
         13    1    5    5    0    0  0.10891744278E+03  0.30537840430E+02  0.90813003158E+02  0.14506057556E+03  0.00000000000E+00 0. -1.
        -13    1    5    5    0    0  0.13784151192E+03 -0.55549822404E+02  0.64300055356E+02  0.16192764525E+03  0.00000000000E+00 0.  1.
          1    1    6    6  503    0 -0.63288646242E+03  0.15694656813E+03 -0.31011081336E+03  0.72204308468E+03  0.00000000000E+00 0. -1.
         -1    1    6    6    0  503 -0.42701465896E+02 -0.93920088874E+01 -0.69462906945E+01  0.44270486501E+02  0.00000000000E+00 0.  1.
<mgrwt>
<rscale>  0 0.15715628E+04</rscale>
<asrwt>0</asrwt>
<pdfrwt beam="1">  1        1 0.12456598E+00 0.15715628E+04</pdfrwt>
<pdfrwt beam="2">  1       -2 0.11732143E+00 0.15715628E+04</pdfrwt>
<totfact> 0.10257237E+01</totfact>
</mgrwt>
</event>
<event>
12    5  0.5264288E-008  0.3837866E+04  0.7818608E-02  0.8038077E-01
          1   -1    0    0  501    0  0.00000000000E+00  0.00000000000E+00  0.27327580644E+04  0.27327580644E+04  0.00000000000E+00 0. -1.
         -2   -1    0    0    0  501 -0.00000000000E+00 -0.00000000000E+00 -0.13474677374E+04  0.13474677374E+04  0.00000000000E+00 0.  1.
        -24    2    1    2    0    0 -0.13172377906E+04  0.36340546397E+03  0.19095484795E+04  0.23495380996E+04  0.82310129310E+02 0.  0.
        254    2    1    2    0    0  0.13172377906E+04 -0.36340546397E+03 -0.52425815250E+03  0.17306877023E+04  0.92371769723E+03 0.  0.
         23    2    4    4    0    0  0.30989134300E+03 -0.53328209317E+03 -0.21039221019E+03  0.65815508608E+03  0.92091258339E+02 0.  0.
         23    2    4    4    0    0  0.10073464476E+04  0.16987662920E+03 -0.31386594232E+03  0.10725326162E+04  0.90606006741E+02 0.  0.
          1    1    3    3  502    0 -0.77522567221E+03  0.17673915307E+03  0.11423664725E+04  0.13918378960E+04  0.00000000000E+00 0. -1.
         -2    1    3    3    0  502 -0.54201211836E+03  0.18666631090E+03  0.76718200702E+03  0.95770020360E+03  0.00000000000E+00 0.  1.
         13    1    5    5    0    0  0.48115078589E+01 -0.47714065327E+02 -0.19599888673E+01  0.47996085197E+02  0.00000000000E+00 0. -1.
        -13    1    5    5    0    0  0.30507983514E+03 -0.48556802785E+03 -0.20843222132E+03  0.61015900088E+03  0.00000000000E+00 0.  1.
          2    1    6    6  503    0  0.13770716026E+03  0.60796333121E+01 -0.70096789763E+02  0.15464082212E+03  0.00000000000E+00 0. -1.
         -2    1    6    6    0  503  0.86963928732E+03  0.16379699589E+03 -0.24376915255E+03  0.91789179408E+03  0.00000000000E+00 0.  1.
<mgrwt>
<rscale>  0 0.38378657E+04</rscale>
<asrwt>0</asrwt>
<pdfrwt beam="1">  1        1 0.42042432E+00 0.38378657E+04</pdfrwt>
<pdfrwt beam="2">  1       -2 0.20730273E+00 0.38378657E+04</pdfrwt>
<totfact> 0.77404840E-02</totfact>
</mgrwt>
</event>
<event>
12    5  0.5264288E-008  0.2063485E+04  0.7818608E-02  0.8577501E-01
         -2   -1    0    0    0  501 -0.00000000000E+00  0.00000000000E+00  0.40730983905E+03  0.40730983905E+03  0.00000000000E+00 0.  1.
          1   -1    0    0  501    0  0.00000000000E+00 -0.00000000000E+00 -0.26134715524E+04  0.26134715524E+04  0.00000000000E+00 0. -1.
        -24    2    1    2    0    0 -0.10737894017E+03  0.28462622565E+03  0.24034822708E+03  0.39570926232E+03  0.79222628740E+02 0.  0.
        254    2    1    2    0    0  0.10737894017E+03 -0.28462622565E+03 -0.24465099404E+04  0.26250721291E+04  0.90169311260E+03 0.  0.
         23    2    4    4    0    0  0.69999190467E+02 -0.51258205705E+03 -0.78089099644E+03  0.94114876959E+03  0.91268868162E+02 0.  0.
         23    2    4    4    0    0  0.37379749701E+02  0.22795583140E+03 -0.16656189440E+04  0.16839233595E+04  0.89164496423E+02 0.  0.
          1    1    3    3  502    0  0.10241652095E+01  0.13740945320E+02 -0.48313723540E+01  0.14601529080E+02  0.00000000000E+00 0. -1.
         -2    1    3    3    0  502 -0.10840310538E+03  0.27088528033E+03  0.24517959944E+03  0.38110773324E+03  0.00000000000E+00 0.  1.
         13    1    5    5    0    0  0.80165921108E+02 -0.48367081916E+03 -0.69971195062E+03  0.85437746345E+03  0.00000000000E+00 0.  1.
        -13    1    5    5    0    0 -0.10166730640E+02 -0.28911237897E+02 -0.81179045816E+02  0.86771306134E+02  0.00000000000E+00 0. -1.
          4    1    6    6  503    0  0.28231595074E+02  0.75654307386E+02 -0.33544364797E+03  0.34502614125E+03  0.00000000000E+00 0. -1.
         -4    1    6    6    0  503  0.91481546274E+01  0.15230152402E+03 -0.13301752960E+04  0.13388972183E+04  0.00000000000E+00 0.  1.
<mgrwt>
<rscale>  0 0.20634851E+04</rscale>
<asrwt>0</asrwt>
<pdfrwt beam="1">  1        1 0.40207256E+00 0.20634851E+04</pdfrwt>
<pdfrwt beam="2">  1       -2 0.62663051E-01 0.20634851E+04</pdfrwt>
<totfact> 0.21623103E+00</totfact>
</mgrwt>
</event>
<event>
12    5  0.5264288E-008  0.1520663E+04  0.7818608E-02  0.8870827E-01
          1   -1    0    0  501    0  0.00000000000E+00  0.00000000000E+00  0.12897853191E+04  0.12897853191E+04  0.00000000000E+00 0. -1.
         -2   -1    0    0    0  501 -0.00000000000E+00 -0.00000000000E+00 -0.44821736770E+03  0.44821736770E+03  0.00000000000E+00 0.  1.
        -24    2    1    2    0    0  0.13720206610E+03  0.42403517495E+03  0.43009477009E+02  0.45487527804E+03  0.80196427147E+02 0.  0.
        254    2    1    2    0    0 -0.13720206610E+03 -0.42403517495E+03  0.79855847436E+03  0.12831274087E+04  0.90005003945E+03 0.  0.
         23    2    4    4    0    0  0.37248472184E+02 -0.51272797424E+03  0.90233308644E+03  0.10426587677E+04  0.93031622441E+02 0.  0.
         23    2    4    4    0    0 -0.17445053829E+03  0.88692799293E+02 -0.10377461208E+03  0.24046864100E+03  0.93576675708E+02 0.  0.
          3    1    3    3  502    0  0.86302727710E+02  0.14290794066E+03  0.94453821975E+01  0.16721260586E+03  0.00000000000E+00 0. -1.
         -4    1    3    3    0  502  0.50899338394E+02  0.28112723429E+03  0.33564094812E+02  0.28766267218E+03  0.00000000000E+00 0.  1.
         13    1    5    5    0    0  0.58331257677E+02 -0.20237571636E+03  0.33718739517E+03  0.39755981394E+03  0.00000000000E+00 0. -1.
        -13    1    5    5    0    0 -0.21082785493E+02 -0.31035225788E+03  0.56514569127E+03  0.64509895379E+03  0.00000000000E+00 0.  1.
          1    1    6    6  503    0 -0.18481345924E+03  0.84767849778E+02 -0.88879212071E+02  0.22190339657E+03  0.00000000000E+00 0. -1.
         -1    1    6    6    0  503  0.10362920949E+02  0.39249495147E+01 -0.14895400010E+02  0.18565244430E+02  0.00000000000E+00 0.  1.
<mgrwt>
<rscale>  0 0.15206633E+04</rscale>
<asrwt>0</asrwt>
<pdfrwt beam="1">  1        1 0.19842851E+00 0.15206633E+04</pdfrwt>
<pdfrwt beam="2">  1       -2 0.68956518E-01 0.15206633E+04</pdfrwt>
<totfact> 0.14969537E+01</totfact>
</mgrwt>
</event>
<event>
12    5  0.5264288E-008  0.1569795E+04  0.7818608E-02  0.8839322E-01
          1   -1    0    0  501    0  0.00000000000E+00  0.00000000000E+00  0.17077844258E+04  0.17077844258E+04  0.00000000000E+00 0. -1.
         -2   -1    0    0    0  501 -0.00000000000E+00 -0.00000000000E+00 -0.36073868054E+03  0.36073868054E+03  0.00000000000E+00 0.  1.
        -24    2    1    2    0    0 -0.69960510700E+02 -0.50713778066E+03  0.53297901691E+03  0.74359751398E+03  0.82385852609E+02 0.  0.
        254    2    1    2    0    0  0.69960510700E+02  0.50713778066E+03  0.81406672833E+03  0.13249255923E+04  0.91139452786E+03 0.  0.
         23    2    4    4    0    0 -0.31005315131E+02 -0.25290117364E+03  0.24922972666E+03  0.36792144893E+03  0.91271039943E+02 0.  0.
         23    2    4    4    0    0  0.10096582583E+03  0.76003895430E+03  0.56483700167E+03  0.95700414340E+03  0.94671970493E+02 0.  0.
          3    1    3    3  502    0  0.10444093763E+02 -0.24311464617E+02  0.46433578970E+02  0.53443462298E+02  0.00000000000E+00 0. -1.
         -4    1    3    3    0  502 -0.80404604463E+02 -0.48282631604E+03  0.48654543794E+03  0.69015405169E+03  0.00000000000E+00 0.  1.
         13    1    5    5    0    0 -0.21778608852E+02 -0.24622624256E+03  0.25501008758E+03  0.35515041193E+03  0.00000000000E+00 0.  1.
        -13    1    5    5    0    0 -0.92267062789E+01 -0.66749310856E+01 -0.57803609130E+01  0.12771036999E+02  0.00000000000E+00 0. -1.
          3    1    6    6  503    0  0.65556877070E+02  0.19754615944E+03  0.13336240314E+03  0.24719975690E+03  0.00000000000E+00 0. -1.
         -3    1    6    6    0  503  0.35408948761E+02  0.56249279487E+03  0.43147459853E+03  0.70980438651E+03  0.00000000000E+00 0.  1.
<mgrwt>
<rscale>  0 0.15697948E+04</rscale>
<asrwt>0</asrwt>
<pdfrwt beam="1">  1        1 0.26273606E+00 0.15697948E+04</pdfrwt>
<pdfrwt beam="2">  1       -2 0.55498260E-01 0.15697948E+04</pdfrwt>
<totfact> 0.12128331E+01</totfact>
</mgrwt>
</event>
<event>
12    5  0.5264288E-008  0.1745459E+04  0.7818608E-02  0.8735854E-01
         -2   -1    0    0    0  501 -0.00000000000E+00  0.00000000000E+00  0.20059262111E+04  0.20059262111E+04  0.00000000000E+00 0.  1.
          1   -1    0    0  501    0  0.00000000000E+00 -0.00000000000E+00 -0.37970316472E+03  0.37970316472E+03  0.00000000000E+00 0. -1.
        -24    2    1    2    0    0  0.11668592916E+03  0.57737707448E+03  0.91772435343E+03  0.10934544577E+04  0.80279325077E+02 0.  0.
        254    2    1    2    0    0 -0.11668592916E+03 -0.57737707448E+03  0.70849869293E+03  0.12921749181E+04  0.90596121816E+03 0.  0.
         23    2    4    4    0    0  0.67603090015E+02 -0.73129180637E+03  0.72344139371E+03  0.10349725752E+04  0.91885240174E+02 0.  0.
         23    2    4    4    0    0 -0.18428901917E+03  0.15391473188E+03 -0.14942700785E+02  0.25720234291E+03  0.90981171757E+02 0.  0.
          1    1    3    3  502    0  0.49024272618E+02  0.20843317270E+03  0.40568732514E+03  0.45872646814E+03  0.00000000000E+00 0. -1.
         -2    1    3    3    0  502  0.67661656542E+02  0.36894390178E+03  0.51203702829E+03  0.63472798959E+03  0.00000000000E+00 0.  1.
         13    1    5    5    0    0  0.33055120337E+02 -0.24205952028E+03  0.30102952107E+03  0.38769088833E+03  0.00000000000E+00 0. -1.
        -13    1    5    5    0    0  0.34547969678E+02 -0.48923228608E+03  0.42241187264E+03  0.64728168683E+03  0.00000000000E+00 0.  1.
          3    1    6    6  503    0 -0.12508605358E+03  0.60309492535E+02 -0.38213493484E+02  0.14402786805E+03  0.00000000000E+00 0. -1.
         -3    1    6    6    0  503 -0.59202965597E+02  0.93605239345E+02  0.23270792699E+02  0.11317447487E+03  0.00000000000E+00 0.  1.
<mgrwt>
<rscale>  0 0.17454587E+04</rscale>
<asrwt>0</asrwt>
<pdfrwt beam="1">  1        1 0.58415873E-01 0.17454587E+04</pdfrwt>
<pdfrwt beam="2">  1       -2 0.30860402E+00 0.17454587E+04</pdfrwt>
<totfact> 0.15037823E+00</totfact>
</mgrwt>
</event>
<event>
12    5  0.5264288E-008  0.1947742E+04  0.7818608E-02  0.8631450E-01
          1   -1    0    0  501    0  0.00000000000E+00  0.00000000000E+00  0.25231361528E+04  0.25231361528E+04  0.00000000000E+00 0. -1.
         -2   -1    0    0    0  501 -0.00000000000E+00 -0.00000000000E+00 -0.37589134909E+03  0.37589134909E+03  0.00000000000E+00 0.  1.
        -24    2    1    2    0    0 -0.33485636716E+03 -0.29637611044E+03 -0.67147675641E+02  0.46133033827E+03  0.91374423121E+02 0.  0.
        254    2    1    2    0    0  0.33485636716E+03  0.29637611044E+03  0.22143924794E+04  0.24376971636E+04  0.91589618598E+03 0.  0.
         23    2    4    4    0    0  0.50582928532E+03 -0.10289533855E+03  0.15702337634E+04  0.16554286307E+04  0.91428459690E+02 0.  0.
         23    2    4    4    0    0 -0.17097291816E+03  0.39927144899E+03  0.64415871599E+03  0.78226853290E+03  0.91401189600E+02 0.  0.
          1    1    3    3  502    0 -0.22983260266E+03 -0.20806392050E+03 -0.34339852229E+01  0.31004098522E+03  0.00000000000E+00 0. -1.
         -2    1    3    3    0  502 -0.10502376450E+03 -0.88312189933E+02 -0.63713690418E+02  0.15128935305E+03  0.00000000000E+00 0.  1.
         13    1    5    5    0    0  0.36342908442E+03 -0.38990463684E+02  0.10213490897E+04  0.10847833511E+04  0.00000000000E+00 0. -1.
        -13    1    5    5    0    0  0.14240020091E+03 -0.63904874871E+02  0.54888467366E+03  0.57064527969E+03  0.00000000000E+00 0.  1.
          3    1    6    6  503    0 -0.14998515165E+03  0.27524897345E+03  0.40592950004E+03  0.51287064851E+03  0.00000000000E+00 0. -1.
         -3    1    6    6    0  503 -0.20987766508E+02  0.12402247554E+03  0.23822921595E+03  0.26939788439E+03  0.00000000000E+00 0.  1.
<mgrwt>
<rscale>  0 0.19477423E+04</rscale>
<asrwt>0</asrwt>
<pdfrwt beam="1">  1        1 0.38817478E+00 0.19477423E+04</pdfrwt>
<pdfrwt beam="2">  1       -2 0.57829440E-01 0.19477423E+04</pdfrwt>
<totfact> 0.29932898E+00</totfact>
</mgrwt>
</event>
<event>
12    5  0.5264288E-008  0.1492460E+04  0.7818608E-02  0.8889483E-01
         -2   -1    0    0    0  501 -0.00000000000E+00  0.00000000000E+00  0.20095360638E+03  0.20095360638E+03  0.00000000000E+00 0.  1.
          1   -1    0    0  501    0  0.00000000000E+00 -0.00000000000E+00 -0.27710822819E+04  0.27710822819E+04  0.00000000000E+00 0. -1.
        -24    2    1    2    0    0  0.23017383854E+03  0.29582239510E+03 -0.26118229474E+03  0.46370176023E+03  0.79449644219E+02 0.  0.
        254    2    1    2    0    0 -0.23017383854E+03 -0.29582239510E+03 -0.23089463807E+04  0.25083341280E+04  0.90554725065E+03 0.  0.
         23    2    4    4    0    0  0.49747786958E+02 -0.29634751572E+03 -0.18465563810E+03  0.36361533095E+03  0.88440442302E+02 0.  0.
         23    2    4    4    0    0 -0.27992162550E+03  0.52512062714E+00 -0.21242907426E+04  0.21447187971E+04  0.94080640864E+02 0.  0.
          1    1    3    3  502    0  0.12787740474E+03  0.18650084338E+03 -0.20027400477E+03  0.30206766164E+03  0.00000000000E+00 0. -1.
         -2    1    3    3    0  502  0.10229643381E+03  0.10932155172E+03 -0.60908289962E+02  0.16163409859E+03  0.00000000000E+00 0.  1.
         13    1    5    5    0    0  0.20379391007E+02 -0.74635591883E+01 -0.53850588279E+01  0.22361197467E+02  0.00000000000E+00 0. -1.
        -13    1    5    5    0    0  0.29368395951E+02 -0.28888395654E+03 -0.17927057927E+03  0.34125413348E+03  0.00000000000E+00 0.  1.
          1    1    6    6  503    0  0.68796062583E+01  0.15293385985E+01 -0.95006158913E+02  0.95267193147E+02  0.00000000000E+00 0. -1.
         -1    1    6    6    0  503 -0.28680123176E+03 -0.10042179714E+01 -0.20292845837E+04  0.20494516039E+04  0.00000000000E+00 0.  1.
<mgrwt>
<rscale>  0 0.14924597E+04</rscale>
<asrwt>0</asrwt>
<pdfrwt beam="1">  1        1 0.42632035E+00 0.14924597E+04</pdfrwt>
<pdfrwt beam="2">  1       -2 0.30915940E-01 0.14924597E+04</pdfrwt>
<totfact> 0.72318295E+00</totfact>
</mgrwt>
</event>
<event>
12    5  0.5264288E-008  0.1568507E+04  0.7818608E-02  0.8840132E-01
          1   -1    0    0  501    0  0.00000000000E+00  0.00000000000E+00  0.27738443095E+03  0.27738443095E+03  0.00000000000E+00 0. -1.
         -2   -1    0    0    0  501 -0.00000000000E+00 -0.00000000000E+00 -0.22173335627E+04  0.22173335627E+04  0.00000000000E+00 0.  1.
        -24    2    1    2    0    0  0.15909026295E+03  0.15629453773E+03  0.99422905509E+02  0.25644829721E+03  0.78378062689E+02 0.  0.
        254    2    1    2    0    0 -0.15909026295E+03 -0.15629453773E+03 -0.20393720373E+04  0.22382696965E+04  0.89502806290E+03 0.  0.
         23    2    4    4    0    0 -0.51089898961E+03 -0.16067617645E+03 -0.14146558518E+04  0.15154400479E+04  0.92047533116E+02 0.  0.
         23    2    4    4    0    0  0.35180872666E+03  0.43816387106E+01 -0.62471618548E+03  0.72282964861E+03  0.91781313942E+02 0.  0.
          3    1    3    3  502    0  0.14815917970E+03  0.16365216843E+03  0.10173505902E+03  0.24307035400E+03  0.00000000000E+00 0. -1.
         -2    1    3    3    0  502  0.10931083250E+02 -0.73576306992E+01 -0.23121535113E+01  0.13377943204E+02  0.00000000000E+00 0.  1.
         13    1    5    5    0    0 -0.46858466947E+03 -0.15756602665E+03 -0.13539141197E+04  0.14413473172E+04  0.00000000000E+00 0.  1.
        -13    1    5    5    0    0 -0.42314320146E+02 -0.31101497963E+01 -0.60741732112E+02  0.74092730690E+02  0.00000000000E+00 0. -1.
          4    1    6    6  503    0  0.58310366377E+02  0.19687716088E+02 -0.17583543833E+03  0.18629494455E+03  0.00000000000E+00 0. -1.
         -4    1    6    6    0  503  0.29349836029E+03 -0.15306077377E+02 -0.44888074715E+03  0.53653470405E+03  0.00000000000E+00 0.  1.
<mgrwt>
<rscale>  0 0.15685073E+04</rscale>
<asrwt>0</asrwt>
<pdfrwt beam="1">  1        1 0.42674531E-01 0.15685073E+04</pdfrwt>
<pdfrwt beam="2">  1       -2 0.34112822E+00 0.15685073E+04</pdfrwt>
<totfact> 0.14515500E+00</totfact>
</mgrwt>
</event>
<event>
12    5  0.5264288E-008  0.1716571E+04  0.7818608E-02  0.8751969E-01
          1   -1    0    0  501    0  0.00000000000E+00  0.00000000000E+00  0.10553716894E+04  0.10553716894E+04  0.00000000000E+00 0. -1.
         -2   -1    0    0    0  501 -0.00000000000E+00 -0.00000000000E+00 -0.69800416554E+03  0.69800416554E+03  0.00000000000E+00 0.  1.
        -24    2    1    2    0    0 -0.36030569196E+03 -0.27199374124E+03  0.56922542498E+03  0.73092174264E+03  0.80176196512E+02 0.  0.
        254    2    1    2    0    0  0.36030569196E+03  0.27199374124E+03 -0.21185790109E+03  0.10224541123E+04  0.89259613187E+03 0.  0.
         23    2    4    4    0    0  0.39176192624E+03 -0.11934811717E+03  0.18411271425E+03  0.45718455273E+03  0.86016532039E+02 0.  0.
         23    2    4    4    0    0 -0.31456234281E+02  0.39134185841E+03 -0.39597061534E+03  0.56526955960E+03  0.92730803810E+02 0.  0.
          1    1    3    3  502    0 -0.19862095519E+03 -0.13979513297E+03  0.24301823658E+03  0.34358525340E+03  0.00000000000E+00 0. -1.
         -2    1    3    3    0  502 -0.16168473676E+03 -0.13219860827E+03  0.32620718840E+03  0.38733648924E+03  0.00000000000E+00 0.  1.
         13    1    5    5    0    0  0.14351282392E+02  0.11055163245E+02  0.15103146310E+02  0.23585609366E+02  0.00000000000E+00 0. -1.
        -13    1    5    5    0    0  0.37741064385E+03 -0.13040328042E+03  0.16900956794E+03  0.43359894336E+03  0.00000000000E+00 0.  1.
          4    1    6    6  503    0 -0.17727957490E+02  0.42298009161E+02 -0.89520901424E+02  0.10058525661E+03  0.00000000000E+00 0. -1.
         -4    1    6    6    0  503 -0.13728276791E+02  0.34904384925E+03 -0.30644971392E+03  0.46468430299E+03  0.00000000000E+00 0.  1.
<mgrwt>
<rscale>  0 0.17165708E+04</rscale>
<asrwt>0</asrwt>
<pdfrwt beam="1">  1        1 0.16236488E+00 0.17165708E+04</pdfrwt>
<pdfrwt beam="2">  1       -2 0.10738526E+00 0.17165708E+04</pdfrwt>
<totfact> 0.79541295E+00</totfact>
</mgrwt>
</event>
<event>
12    5  0.5264288E-008  0.1180093E+04  0.7818608E-02  0.9130462E-01
         -2   -1    0    0    0  501 -0.00000000000E+00  0.00000000000E+00  0.19862518678E+04  0.19862518678E+04  0.00000000000E+00 0.  1.
          1   -1    0    0  501    0  0.00000000000E+00 -0.00000000000E+00 -0.17528239994E+03  0.17528239994E+03  0.00000000000E+00 0. -1.
        -24    2    1    2    0    0 -0.34551612089E+02  0.49496771231E+02 -0.29914923795E+02  0.10683375473E+03  0.82914439174E+02 0.  0.
        254    2    1    2    0    0  0.34551612089E+02 -0.49496771231E+02  0.18408843917E+04  0.20547005131E+04  0.91065641736E+03 0.  0.
         23    2    4    4    0    0  0.46213683286E+03  0.88309749393E+01  0.91920081309E+03  0.10329134989E+04  0.91278272343E+02 0.  0.
         23    2    4    4    0    0 -0.42758522078E+03 -0.58327746170E+02  0.92168357861E+03  0.10217870142E+04  0.91196689781E+02 0.  0.
          1    1    3    3  502    0  0.18142088190E+02  0.41443219556E+02  0.92522555903E+00  0.45249661362E+02  0.00000000000E+00 0. -1.
         -2    1    3    3    0  502 -0.52693700279E+02  0.80535516753E+01 -0.30840149354E+02  0.61584093367E+02  0.00000000000E+00 0.  1.
         13    1    5    5    0    0  0.38853071313E+03 -0.17667269738E+02  0.81051215134E+03  0.89899843990E+03  0.00000000000E+00 0. -1.
        -13    1    5    5    0    0  0.73606119732E+02  0.26498244677E+02  0.10868866175E+03  0.13391505900E+03  0.00000000000E+00 0.  1.
          2    1    6    6  503    0 -0.28341856989E+03 -0.12688497490E+02  0.51620485935E+03  0.58902847175E+03  0.00000000000E+00 0. -1.
         -2    1    6    6    0  503 -0.14416665089E+03 -0.45639248680E+02  0.40547871926E+03  0.43275854240E+03  0.00000000000E+00 0.  1.
<mgrwt>
<rscale>  0 0.11800932E+04</rscale>
<asrwt>0</asrwt>
<pdfrwt beam="1">  1        1 0.26966524E-01 0.11800932E+04</pdfrwt>
<pdfrwt beam="2">  1       -2 0.30557720E+00 0.11800932E+04</pdfrwt>
<totfact> 0.45281825E+00</totfact>
</mgrwt>
</event>
<event>
12    5  0.5264288E-008  0.1185569E+04  0.7818608E-02  0.9125582E-01
         -2   -1    0    0    0  501 -0.00000000000E+00  0.00000000000E+00  0.20437387641E+03  0.20437387641E+03  0.00000000000E+00 0.  1.
          1   -1    0    0  501    0  0.00000000000E+00 -0.00000000000E+00 -0.17193667704E+04  0.17193667704E+04  0.00000000000E+00 0. -1.
        -24    2    1    2    0    0  0.43154942707E+02  0.95489742018E+02 -0.69563580082E+03  0.70793362939E+03  0.79247815858E+02 0.  0.
        254    2    1    2    0    0 -0.43154942707E+02 -0.95489742018E+02 -0.81935709312E+03  0.12158070174E+04  0.89210986853E+03 0.  0.
         23    2    4    4    0    0 -0.23576557569E+03 -0.28546970647E+03 -0.84711191813E+03  0.92899742778E+03  0.91428983345E+02 0.  0.
         23    2    4    4    0    0  0.19261063298E+03  0.18997996445E+03  0.27754825007E+02  0.28680958959E+03  0.91094278299E+02 0.  0.
          3    1    3    3  502    0  0.53474809418E+02  0.90479263398E+02 -0.68227925804E+03  0.69032676197E+03  0.00000000000E+00 0. -1.
         -4    1    3    3    0  502 -0.10319866711E+02  0.50104786204E+01 -0.13356542785E+02  0.17606867413E+02  0.00000000000E+00 0.  1.
         13    1    5    5    0    0 -0.76855399490E+02 -0.15386429187E+03 -0.44402359183E+03  0.47617005665E+03  0.00000000000E+00 0.  1.
        -13    1    5    5    0    0 -0.15891017620E+03 -0.13160541460E+03 -0.40308832630E+03  0.45282737113E+03  0.00000000000E+00 0. -1.
          1    1    6    6  503    0  0.48304991206E+01  0.36908274644E+02 -0.16189560098E+02  0.40591333004E+02  0.00000000000E+00 0. -1.
         -1    1    6    6    0  503  0.18778013386E+03  0.15307168981E+03  0.43944385105E+02  0.24621825659E+03  0.00000000000E+00 0.  1.
<mgrwt>
<rscale>  0 0.11855693E+04</rscale>
<asrwt>0</asrwt>
<pdfrwt beam="1">  1        1 0.26451796E+00 0.11855693E+04</pdfrwt>
<pdfrwt beam="2">  1       -2 0.31442135E-01 0.11855693E+04</pdfrwt>
<totfact> 0.37768080E+01</totfact>
</mgrwt>
</event>
<event>
12    5  0.5264288E-008  0.2274584E+04  0.7818608E-02  0.8488010E-01
          1   -1    0    0  501    0  0.00000000000E+00  0.00000000000E+00  0.14355692800E+04  0.14355692800E+04  0.00000000000E+00 0. -1.
         -2   -1    0    0    0  501 -0.00000000000E+00 -0.00000000000E+00 -0.90098936207E+03  0.90098936207E+03  0.00000000000E+00 0.  1.
        -24    2    1    2    0    0  0.82975556178E+03  0.13741557918E+03  0.69661355354E+03  0.10950786819E+04  0.80929246572E+02 0.  0.
        254    2    1    2    0    0 -0.82975556178E+03 -0.13741557918E+03 -0.16203363559E+03  0.12414799601E+04  0.89868807641E+03 0.  0.
         23    2    4    4    0    0 -0.62646482547E+03 -0.23058919246E+02 -0.50972655378E+03  0.81305772958E+03  0.90839532640E+02 0.  0.
         23    2    4    4    0    0 -0.20329073631E+03 -0.11435665993E+03  0.34769291819E+03  0.42842223057E+03  0.90833216110E+02 0.  0.
          1    1    3    3  502    0  0.43668838571E+03  0.10440623110E+03  0.40324274225E+03  0.60349160432E+03  0.00000000000E+00 0. -1.
         -2    1    3    3    0  502  0.39306717606E+03  0.33009348079E+02  0.29337081129E+03  0.49158707762E+03  0.00000000000E+00 0.  1.
         13    1    5    5    0    0 -0.55809838315E+03 -0.23969379341E+02 -0.41345521147E+03  0.69497737252E+03  0.00000000000E+00 0. -1.
        -13    1    5    5    0    0 -0.68366442321E+02  0.91046009479E+00 -0.96271342314E+02  0.11808035706E+03  0.00000000000E+00 0.  1.
          3    1    6    6  503    0 -0.10445383446E+03 -0.73837598178E+02  0.26170158407E+03  0.29129077147E+03  0.00000000000E+00 0. -1.
         -3    1    6    6    0  503 -0.98836901842E+02 -0.40519061751E+02  0.85991334118E+02  0.13713145910E+03  0.00000000000E+00 0.  1.
<mgrwt>
<rscale>  0 0.22745836E+04</rscale>
<asrwt>0</asrwt>
<pdfrwt beam="1">  1        1 0.22085681E+00 0.22745836E+04</pdfrwt>
<pdfrwt beam="2">  1       -2 0.13861375E+00 0.22745836E+04</pdfrwt>
<totfact> 0.21260821E+00</totfact>
</mgrwt>
</event>
<event>
12    5  0.5264288E-008  0.1397064E+04  0.7818608E-02  0.8955947E-01
          1   -1    0    0  501    0  0.00000000000E+00  0.00000000000E+00  0.10940612443E+04  0.10940612443E+04  0.00000000000E+00 0. -1.
         -2   -1    0    0    0  501 -0.00000000000E+00 -0.00000000000E+00 -0.44599594887E+03  0.44599594887E+03  0.00000000000E+00 0.  1.
        -24    2    1    2    0    0  0.18128904906E+03  0.32010621571E+03  0.32581027238E+02  0.37850147454E+03  0.82874207388E+02 0.  0.
        254    2    1    2    0    0 -0.18128904906E+03 -0.32010621571E+03  0.61548426821E+03  0.11615557186E+04  0.91381458430E+03 0.  0.
         23    2    4    4    0    0 -0.26737512643E+03 -0.53740977185E+03  0.13832630212E+03  0.62254303602E+03  0.90149568659E+02 0.  0.
         23    2    4    4    0    0  0.86086077375E+02  0.21730355614E+03  0.47715796609E+03  0.53901268263E+03  0.90682408427E+02 0.  0.
          1    1    3    3  502    0 -0.58180304110E+01  0.38594036324E+02  0.51678829583E+01  0.39370752240E+02  0.00000000000E+00 0. -1.
         -2    1    3    3    0  502  0.18710707947E+03  0.28151217938E+03  0.27413144279E+02  0.33913072230E+03  0.00000000000E+00 0.  1.
         13    1    5    5    0    0  0.40217759176E+01 -0.25458735445E+02  0.15985125291E+02  0.30328965075E+02  0.00000000000E+00 0.  1.
        -13    1    5    5    0    0 -0.27139690235E+03 -0.51195103640E+03  0.12234117682E+03  0.59221407095E+03  0.00000000000E+00 0. -1.
          1    1    6    6  503    0  0.58249646639E+02  0.21499291388E+03  0.42120870450E+03  0.47647848545E+03  0.00000000000E+00 0. -1.
         -1    1    6    6    0  503  0.27836430736E+02  0.23106422645E+01  0.55949261591E+02  0.62534197175E+02  0.00000000000E+00 0.  1.
<mgrwt>
<rscale>  0 0.13970639E+04</rscale>
<asrwt>0</asrwt>
<pdfrwt beam="1">  1        1 0.16831711E+00 0.13970639E+04</pdfrwt>
<pdfrwt beam="2">  1       -2 0.68614762E-01 0.13970639E+04</pdfrwt>
<totfact> 0.21273435E+01</totfact>
</mgrwt>
</event>
<event>
12    5  0.5264288E-008  0.1851873E+04  0.7818608E-02  0.8679190E-01
         -2   -1    0    0    0  501 -0.00000000000E+00  0.00000000000E+00  0.92311242104E+03  0.92311242104E+03  0.00000000000E+00 0.  1.
          1   -1    0    0  501    0  0.00000000000E+00 -0.00000000000E+00 -0.92876945507E+03  0.92876945507E+03  0.00000000000E+00 0. -1.
        -24    2    1    2    0    0  0.66805133926E+03  0.22250339129E+03 -0.20649407682E+02  0.70907749164E+03  0.81019380901E+02 0.  0.
        254    2    1    2    0    0 -0.66805133926E+03 -0.22250339129E+03  0.14992373653E+02  0.11428043845E+04  0.89998707706E+03 0.  0.
         23    2    4    4    0    0 -0.87392659811E+03 -0.12219954023E+03  0.67855140067E+02  0.88969646078E+03  0.90967278646E+02 0.  0.
         23    2    4    4    0    0  0.20587525885E+03 -0.10030385105E+03 -0.52862766414E+02  0.25310792368E+03  0.93934361218E+02 0.  0.
          1    1    3    3  502    0  0.57426737308E+03  0.20144526519E+03  0.85050912531E+01  0.60863416535E+03  0.00000000000E+00 0. -1.
         -2    1    3    3    0  502  0.93783966183E+02  0.21058126102E+02 -0.29154498935E+02  0.10044332629E+03  0.00000000000E+00 0.  1.
         13    1    5    5    0    0 -0.38039273584E+03 -0.32644210449E+02  0.69693451145E+02  0.38809980042E+03  0.00000000000E+00 0.  1.
        -13    1    5    5    0    0 -0.49353386227E+03 -0.89555329784E+02 -0.18383110781E+01  0.50159666036E+03  0.00000000000E+00 0. -1.
          2    1    6    6  503    0  0.12333318788E+03 -0.25452549451E+02  0.79199952768E+01  0.12618095669E+03  0.00000000000E+00 0. -1.
         -2    1    6    6    0  503  0.82542070962E+02 -0.74851301604E+02 -0.60782761691E+02  0.12692696699E+03  0.00000000000E+00 0.  1.
<mgrwt>
<rscale>  0 0.18518732E+04</rscale>
<asrwt>0</asrwt>
<pdfrwt beam="1">  1        1 0.14288761E+00 0.18518732E+04</pdfrwt>
<pdfrwt beam="2">  1       -2 0.14201730E+00 0.18518732E+04</pdfrwt>
<totfact> 0.49107971E+00</totfact>
</mgrwt>
</event>
<event>
12    5  0.5264288E-008  0.1945270E+04  0.7818608E-02  0.8632645E-01
          1   -1    0    0  501    0  0.00000000000E+00  0.00000000000E+00  0.16375827421E+04  0.16375827421E+04  0.00000000000E+00 0. -1.
         -2   -1    0    0    0  501 -0.00000000000E+00 -0.00000000000E+00 -0.57769240639E+03  0.57769240639E+03  0.00000000000E+00 0.  1.
        -24    2    1    2    0    0 -0.59419685503E+03 -0.22303680046E+03  0.89420925643E+03  0.10993316382E+04  0.78131553525E+02 0.  0.
        254    2    1    2    0    0  0.59419685503E+03  0.22303680046E+03  0.16568107926E+03  0.11159435102E+04  0.90280916097E+03 0.  0.
         23    2    4    4    0    0  0.60283181975E+03 -0.19093143408E+03 -0.48498968312E+02  0.64026880540E+03  0.87925979211E+02 0.  0.
         23    2    4    4    0    0 -0.86349647128E+01  0.41396823455E+03  0.21418004757E+03  0.47567470484E+03  0.94599525455E+02 0.  0.
          1    1    3    3  502    0 -0.38395540778E+03 -0.14164527505E+03  0.63885886169E+03  0.75870006212E+03  0.00000000000E+00 0. -1.
         -2    1    3    3    0  502 -0.21024144726E+03 -0.81391525419E+02  0.25535039474E+03  0.34063157612E+03  0.00000000000E+00 0.  1.
         13    1    5    5    0    0  0.49749042558E+03 -0.18266155772E+03 -0.17917710252E+02  0.53026692576E+03  0.00000000000E+00 0. -1.
        -13    1    5    5    0    0  0.10534139417E+03 -0.82698763628E+01 -0.30581258060E+02  0.11000187964E+03  0.00000000000E+00 0.  1.
          4    1    6    6  503    0 -0.49191916693E+02  0.29323376303E+03  0.15260646709E+03  0.33420744792E+03  0.00000000000E+00 0. -1.
         -4    1    6    6    0  503  0.40556951980E+02  0.12073447152E+03  0.61573580480E+02  0.14146725692E+03  0.00000000000E+00 0.  1.
<mgrwt>
<rscale>  0 0.19452703E+04</rscale>
<asrwt>0</asrwt>
<pdfrwt beam="1">  1        1 0.25193580E+00 0.19452703E+04</pdfrwt>
<pdfrwt beam="2">  1       -2 0.88875755E-01 0.19452703E+04</pdfrwt>
<totfact> 0.46802296E+00</totfact>
</mgrwt>
</event>
<event>
12    5  0.5264288E-008  0.2421306E+04  0.7818608E-02  0.8431570E-01
          1   -1    0    0  501    0  0.00000000000E+00  0.00000000000E+00  0.27781757138E+04  0.27781757138E+04  0.00000000000E+00 0. -1.
         -2   -1    0    0    0  501 -0.00000000000E+00 -0.00000000000E+00 -0.52756942677E+03  0.52756942677E+03  0.00000000000E+00 0.  1.
        -24    2    1    2    0    0 -0.71239843154E+02 -0.48213489029E+03 -0.28774053002E+03  0.57153071105E+03  0.79520898974E+02 0.  0.
        254    2    1    2    0    0  0.71239843154E+02  0.48213489029E+03  0.25383468171E+04  0.27342144295E+04  0.89173696530E+03 0.  0.
         23    2    4    4    0    0  0.19092390325E+03 -0.29114115460E+02  0.18584932659E+04  0.18704847256E+04  0.86118062554E+02 0.  0.
         23    2    4    4    0    0 -0.11968406010E+03  0.51124900575E+03  0.67985355114E+03  0.86372970393E+03  0.90157253339E+02 0.  0.
          3    1    3    3  502    0 -0.44133160099E+02 -0.13428948553E+03 -0.52764037025E+02  0.15088222343E+03  0.00000000000E+00 0. -1.
         -4    1    3    3    0  502 -0.27106683055E+02 -0.34784540475E+03 -0.23497649299E+03  0.42064848762E+03  0.00000000000E+00 0.  1.
         13    1    5    5    0    0  0.16085383336E+03 -0.47395619070E+02  0.12823769158E+04  0.12932945738E+04  0.00000000000E+00 0. -1.
        -13    1    5    5    0    0  0.30070069888E+02  0.18281503610E+02  0.57611635015E+03  0.57719015184E+03  0.00000000000E+00 0.  1.
          2    1    6    6  503    0 -0.93915373776E+02  0.41247816967E+03  0.59995707844E+03  0.73410274066E+03  0.00000000000E+00 0. -1.
         -2    1    6    6    0  503 -0.25768686321E+02  0.98770836079E+02  0.79896472706E+02  0.12962696327E+03  0.00000000000E+00 0.  1.
<mgrwt>
<rscale>  0 0.24213059E+04</rscale>
<asrwt>0</asrwt>
<pdfrwt beam="1">  1        1 0.42741164E+00 0.24213059E+04</pdfrwt>
<pdfrwt beam="2">  1       -2 0.81164529E-01 0.24213059E+04</pdfrwt>
<totfact> 0.90878027E-01</totfact>
</mgrwt>
</event>
<event>
12    5  0.5264288E-008  0.2534103E+04  0.7818608E-02  0.8390936E-01
          1   -1    0    0  501    0  0.00000000000E+00  0.00000000000E+00  0.75093630932E+03  0.75093630932E+03  0.00000000000E+00 0. -1.
         -2   -1    0    0    0  501 -0.00000000000E+00 -0.00000000000E+00 -0.21378896829E+04  0.21378896829E+04  0.00000000000E+00 0.  1.
        -24    2    1    2    0    0  0.32028528887E+03 -0.20601298036E+03  0.57875554144E+03  0.69722037397E+03  0.78321509112E+02 0.  0.
        254    2    1    2    0    0 -0.32028528887E+03  0.20601298036E+03 -0.19657089150E+04  0.21916056183E+04  0.89112268124E+03 0.  0.
         23    2    4    4    0    0 -0.57524900578E+03  0.25144680457E+03 -0.97271561553E+03  0.11613020655E+04  0.91158677827E+02 0.  0.
         23    2    4    4    0    0  0.25496371691E+03 -0.45433824211E+02 -0.99299329949E+03  0.10303035527E+04  0.91755046634E+02 0.  0.
          1    1    3    3  502    0  0.28722288127E+03 -0.16779786834E+03  0.45571087427E+03  0.56420342880E+03  0.00000000000E+00 0. -1.
         -2    1    3    3    0  502  0.33062407600E+02 -0.38215112023E+02  0.12304466717E+03  0.13301694517E+03  0.00000000000E+00 0.  1.
         13    1    5    5    0    0 -0.22122421507E+02 -0.39237189653E+00 -0.67107350764E+02  0.70660823768E+02  0.00000000000E+00 0. -1.
        -13    1    5    5    0    0 -0.55312658427E+03  0.25183917647E+03 -0.90560826477E+03  0.10906412418E+04  0.00000000000E+00 0.  1.
          4    1    6    6  503    0  0.31996981252E+01 -0.21446142323E+02 -0.88597630430E+02  0.91212472867E+02  0.00000000000E+00 0. -1.
         -4    1    6    6    0  503  0.25176401878E+03 -0.23987681889E+02 -0.90439566906E+03  0.93909107985E+03  0.00000000000E+00 0.  1.
<mgrwt>
<rscale>  0 0.25341026E+04</rscale>
<asrwt>0</asrwt>
<pdfrwt beam="1">  1        1 0.11552866E+00 0.25341026E+04</pdfrwt>
<pdfrwt beam="2">  1       -2 0.32890610E+00 0.25341026E+04</pdfrwt>
<totfact> 0.40042115E-01</totfact>
</mgrwt>
</event>
<event>
12    5  0.5264288E-008  0.1669759E+04  0.7818608E-02  0.8778803E-01
          1   -1    0    0  501    0  0.00000000000E+00  0.00000000000E+00  0.11638546754E+04  0.11638546754E+04  0.00000000000E+00 0. -1.
         -2   -1    0    0    0  501 -0.00000000000E+00 -0.00000000000E+00 -0.59889218065E+03  0.59889218065E+03  0.00000000000E+00 0.  1.
        -24    2    1    2    0    0 -0.45161240029E+03 -0.84128826502E+01  0.59104232710E+03  0.74811608064E+03  0.79511640677E+02 0.  0.
        254    2    1    2    0    0  0.45161240029E+03  0.84128826502E+01 -0.26079832339E+02  0.10146307754E+04  0.90816899092E+03 0.  0.
         23    2    4    4    0    0 -0.47053583375E+02  0.69415748277E+02  0.35597166224E+03  0.37666159230E+03  0.90141804829E+02 0.  0.
         23    2    4    4    0    0  0.49866598366E+03 -0.61002865627E+02 -0.38205149458E+03  0.63796918311E+03  0.93017316743E+02 0.  0.
          1    1    3    3  502    0 -0.32578366517E+03 -0.66887887359E+01  0.48079596091E+03  0.58081364689E+03  0.00000000000E+00 0. -1.
         -2    1    3    3    0  502 -0.12582873512E+03 -0.17240939143E+01  0.11024636619E+03  0.16730243375E+03  0.00000000000E+00 0.  1.
         13    1    5    5    0    0 -0.41082874561E+01 -0.15178499871E+02  0.11816514112E+02  0.19669643868E+02  0.00000000000E+00 0.  1.
        -13    1    5    5    0    0 -0.42945295919E+02  0.84594248147E+02  0.34415514813E+03  0.35699194843E+03  0.00000000000E+00 0. -1.
          3    1    6    6  503    0  0.32851741974E+03 -0.83426169169E+01 -0.20789149225E+03  0.38886008651E+03  0.00000000000E+00 0. -1.
         -3    1    6    6    0  503  0.17014856392E+03 -0.52660248710E+02 -0.17416000233E+03  0.24910909660E+03  0.00000000000E+00 0.  1.
<mgrwt>
<rscale>  0 0.16697586E+04</rscale>
<asrwt>0</asrwt>
<pdfrwt beam="1">  1        1 0.17905457E+00 0.16697586E+04</pdfrwt>
<pdfrwt beam="2">  1       -2 0.92137258E-01 0.16697586E+04</pdfrwt>
<totfact> 0.95140803E+00</totfact>
</mgrwt>
</event>
<event>
12    5  0.5264288E-008  0.1578080E+04  0.7818608E-02  0.8834129E-01
         -2   -1    0    0    0  501 -0.00000000000E+00  0.00000000000E+00  0.23340937024E+03  0.23340937024E+03  0.00000000000E+00 0.  1.
          1   -1    0    0  501    0  0.00000000000E+00 -0.00000000000E+00 -0.26673486807E+04  0.26673486807E+04  0.00000000000E+00 0. -1.
        -24    2    1    2    0    0  0.48065735475E+03 -0.12764651612E+03 -0.48324386201E+03  0.69817495137E+03  0.81231193465E+02 0.  0.
        254    2    1    2    0    0 -0.48065735475E+03  0.12764651612E+03 -0.19506954484E+04  0.22025830995E+04  0.89377539245E+03 0.  0.
         23    2    4    4    0    0 -0.11011741801E+03 -0.24945367519E+03 -0.15364682854E+03  0.32667175571E+03  0.93563380902E+02 0.  0.
         23    2    4    4    0    0 -0.37053993674E+03  0.37710019131E+03 -0.17970486199E+04  0.18759113438E+04  0.10077315461E+03 0.  0.
          3    1    3    3  502    0  0.39595273073E+03 -0.97917309159E+02 -0.43479459764E+03  0.59616499943E+03  0.00000000000E+00 0. -1.
         -4    1    3    3    0  502  0.84704624018E+02 -0.29729206965E+02 -0.48449264379E+02  0.10200995194E+03  0.00000000000E+00 0.  1.
         13    1    5    5    0    0 -0.25443134262E+02 -0.17083585303E+03 -0.90244033857E+02  0.19487490194E+03  0.00000000000E+00 0.  1.
        -13    1    5    5    0    0 -0.84674283751E+02 -0.78617822159E+02 -0.63402794680E+02  0.13179685377E+03  0.00000000000E+00 0. -1.
          3    1    6    6  503    0 -0.15122213472E+03  0.13748828325E+03 -0.86719194652E+03  0.89095063509E+03  0.00000000000E+00 0. -1.
         -3    1    6    6    0  503 -0.21931780202E+03  0.23961190805E+03 -0.92985667337E+03  0.98496070874E+03  0.00000000000E+00 0.  1.
<mgrwt>
<rscale>  0 0.15780801E+04</rscale>
<asrwt>0</asrwt>
<pdfrwt beam="1">  1        1 0.41036131E+00 0.15780801E+04</pdfrwt>
<pdfrwt beam="2">  1       -2 0.35909136E-01 0.15780801E+04</pdfrwt>
<totfact> 0.63895649E+00</totfact>
</mgrwt>
</event>
<event>
12    5  0.5264288E-008  0.1668344E+04  0.7818608E-02  0.8779628E-01
          1   -1    0    0  501    0  0.00000000000E+00  0.00000000000E+00  0.71610161229E+03  0.71610161229E+03  0.00000000000E+00 0. -1.
         -2   -1    0    0    0  501 -0.00000000000E+00 -0.00000000000E+00 -0.97170961587E+03  0.97170961587E+03  0.00000000000E+00 0.  1.
        -24    2    1    2    0    0  0.22294596501E+03 -0.36261798228E+03 -0.50279938119E+03  0.66378083592E+03  0.81247006256E+02 0.  0.
        254    2    1    2    0    0 -0.22294596501E+03  0.36261798228E+03  0.24719137761E+03  0.10240303922E+04  0.89796323014E+03 0.  0.
         23    2    4    4    0    0  0.30644745949E+03 -0.33508933345E+02  0.12075595545E+03  0.34459206829E+03  0.95544747163E+02 0.  0.
         23    2    4    4    0    0 -0.52939342450E+03  0.39612691562E+03  0.12643542216E+03  0.67943832395E+03  0.92068392487E+02 0.  0.
          1    1    3    3  502    0  0.97027063285E+02 -0.10221398280E+03 -0.12831599566E+03  0.19059628546E+03  0.00000000000E+00 0. -1.
         -2    1    3    3    0  502  0.12591890172E+03 -0.26040399948E+03 -0.37448338553E+03  0.47318455046E+03  0.00000000000E+00 0.  1.
         13    1    5    5    0    0  0.84262476192E+02 -0.19069530236E+02 -0.90450212481E+01  0.86865552935E+02  0.00000000000E+00 0.  1.
        -13    1    5    5    0    0  0.22218498330E+03 -0.14439403109E+02  0.12980097670E+03  0.25772651535E+03  0.00000000000E+00 0. -1.
          2    1    6    6  503    0 -0.41884539969E+03  0.26889484118E+03  0.75962009707E+02  0.50349392387E+03  0.00000000000E+00 0. -1.
         -2    1    6    6    0  503 -0.11054802481E+03  0.12723207444E+03  0.50473412454E+02  0.17594440008E+03  0.00000000000E+00 0.  1.
<mgrwt>
<rscale>  0 0.16683439E+04</rscale>
<asrwt>0</asrwt>
<pdfrwt beam="1">  1        1 0.11016948E+00 0.16683439E+04</pdfrwt>
<pdfrwt beam="2">  1       -2 0.14949379E+00 0.16683439E+04</pdfrwt>
<totfact> 0.66429733E+00</totfact>
</mgrwt>
</event>
<event>
12    5  0.5264288E-008  0.1319409E+04  0.7818608E-02  0.9014313E-01
          1   -1    0    0  501    0  0.00000000000E+00  0.00000000000E+00  0.61237722023E+03  0.61237722023E+03  0.00000000000E+00 0. -1.
         -2   -1    0    0    0  501 -0.00000000000E+00 -0.00000000000E+00 -0.71068986232E+03  0.71068986232E+03  0.00000000000E+00 0.  1.
        -24    2    1    2    0    0 -0.31035246580E+03 -0.23947906788E+02 -0.15862411933E+03  0.35859723208E+03  0.80859188417E+02 0.  0.
        254    2    1    2    0    0  0.31035246580E+03  0.23947906788E+02  0.60311477244E+02  0.96446985047E+03  0.91086358085E+03 0.  0.
         23    2    4    4    0    0  0.51222099262E+03  0.50210631619E+02 -0.25197028095E+03  0.58058216429E+03  0.93247917951E+02 0.  0.
         23    2    4    4    0    0 -0.20186852682E+03 -0.26262724830E+02  0.31228175819E+03  0.38388768618E+03  0.91701833492E+02 0.  0.
          1    1    3    3  502    0 -0.18136786389E+03  0.21073373080E+02 -0.68917219624E+02  0.19516140055E+03  0.00000000000E+00 0. -1.
         -2    1    3    3    0  502 -0.12898460191E+03 -0.45021279868E+02 -0.89706899704E+02  0.16343583152E+03  0.00000000000E+00 0.  1.
         13    1    5    5    0    0  0.46612902028E+03  0.22090529861E+02 -0.24202616423E+03  0.52568138566E+03  0.00000000000E+00 0.  1.
        -13    1    5    5    0    0  0.46091972345E+02  0.28120101757E+02 -0.99441167209E+01  0.54900778636E+02  0.00000000000E+00 0. -1.
          2    1    6    6  503    0 -0.11440008314E+02 -0.61099532059E+01 -0.44982058342E+01  0.13727314892E+02  0.00000000000E+00 0. -1.
         -2    1    6    6    0  503 -0.19042851851E+03 -0.20152771624E+02  0.31677996403E+03  0.37016037129E+03  0.00000000000E+00 0.  1.
<mgrwt>
<rscale>  0 0.13194094E+04</rscale>
<asrwt>0</asrwt>
<pdfrwt beam="1">  1        1 0.94211880E-01 0.13194094E+04</pdfrwt>
<pdfrwt beam="2">  1       -2 0.10933690E+00 0.13194094E+04</pdfrwt>
<totfact> 0.19032031E+01</totfact>
</mgrwt>
</event>
<event>
12    5  0.5264288E-008  0.1458461E+04  0.7818608E-02  0.8912556E-01
          1   -1    0    0  501    0  0.00000000000E+00  0.00000000000E+00  0.56091635475E+03  0.56091635475E+03  0.00000000000E+00 0. -1.
         -2   -1    0    0    0  501 -0.00000000000E+00 -0.00000000000E+00 -0.94805017278E+03  0.94805017278E+03  0.00000000000E+00 0.  1.
        -24    2    1    2    0    0 -0.17895630823E+03 -0.31001042638E+03  0.14758229058E+03  0.39493941383E+03  0.77876719162E+02 0.  0.
        254    2    1    2    0    0  0.17895630823E+03  0.31001042638E+03 -0.53471610860E+03  0.11140271137E+04  0.90939720064E+03 0.  0.
         23    2    4    4    0    0  0.35057245650E+03 -0.19503352177E+03 -0.35162318682E+03  0.54112118882E+03  0.90742237216E+02 0.  0.
         23    2    4    4    0    0 -0.17161614826E+03  0.50504394815E+03 -0.18309292179E+03  0.57290592487E+03  0.10087957592E+03 0.  0.
          3    1    3    3  502    0 -0.14821436454E+03 -0.25413188822E+03  0.15175009265E+03  0.33102659271E+03  0.00000000000E+00 0. -1.
         -4    1    3    3    0  502 -0.30741943696E+02 -0.55878538163E+02 -0.41678020760E+01  0.63912821120E+02  0.00000000000E+00 0.  1.
         13    1    5    5    0    0  0.19843491140E+03 -0.63150021091E+02 -0.20347984777E+03  0.29115011193E+03  0.00000000000E+00 0.  1.
        -13    1    5    5    0    0  0.15213754509E+03 -0.13188350068E+03 -0.14814333904E+03  0.24997107689E+03  0.00000000000E+00 0. -1.
          3    1    6    6  503    0 -0.85598730694E+02  0.38955347513E+03 -0.13296199632E+03  0.42042590922E+03  0.00000000000E+00 0. -1.
         -3    1    6    6    0  503 -0.86017417570E+02  0.11549047302E+03 -0.50130925467E+02  0.15248001565E+03  0.00000000000E+00 0.  1.
<mgrwt>
<rscale>  0 0.14584606E+04</rscale>
<asrwt>0</asrwt>
<pdfrwt beam="1">  1        1 0.86294825E-01 0.14584606E+04</pdfrwt>
<pdfrwt beam="2">  1       -2 0.14585387E+00 0.14584606E+04</pdfrwt>
<totfact> 0.10328672E+01</totfact>
</mgrwt>
</event>
<event>
12    5  0.5264288E-008  0.1728643E+04  0.7818608E-02  0.8745195E-01
          1   -1    0    0  501    0  0.00000000000E+00  0.00000000000E+00  0.74712781823E+03  0.74712781823E+03  0.00000000000E+00 0. -1.
         -2   -1    0    0    0  501 -0.00000000000E+00 -0.00000000000E+00 -0.99989821861E+03  0.99989821861E+03  0.00000000000E+00 0.  1.
        -24    2    1    2    0    0 -0.20158931733E+03 -0.16030304106E+03  0.48160705473E+03  0.55164550876E+03  0.77666558724E+02 0.  0.
        254    2    1    2    0    0  0.20158931733E+03  0.16030304106E+03 -0.73437745511E+03  0.11953805281E+04  0.90735276629E+03 0.  0.
         23    2    4    4    0    0 -0.22259483654E+03  0.34026788980E+03 -0.55005206570E+03  0.69025324569E+03  0.92528752934E+02 0.  0.
         23    2    4    4    0    0  0.42418415387E+03 -0.17996484874E+03 -0.18432538941E+03  0.50512728238E+03  0.94117899741E+02 0.  0.
          3    1    3    3  502    0 -0.20358557159E+03 -0.16295051160E+03  0.45179754777E+03  0.52165216223E+03  0.00000000000E+00 0. -1.
         -4    1    3    3    0  502  0.19962542618E+01  0.26474705350E+01  0.29809506960E+02  0.29993346537E+02  0.00000000000E+00 0.  1.
         13    1    5    5    0    0 -0.89171713022E+01  0.13833405749E+02 -0.72486654345E+00  0.16474358566E+02  0.00000000000E+00 0.  1.
        -13    1    5    5    0    0 -0.21367766524E+03  0.32643448405E+03 -0.54932719915E+03  0.67377888712E+03  0.00000000000E+00 0. -1.
          1    1    6    6  503    0  0.16680426386E+03 -0.74497612535E+02 -0.24476502333E+02  0.18431672708E+03  0.00000000000E+00 0. -1.
         -1    1    6    6    0  503  0.25737989000E+03 -0.10546723621E+03 -0.15984888708E+03  0.32081055530E+03  0.00000000000E+00 0.  1.
<mgrwt>
<rscale>  0 0.17286431E+04</rscale>
<asrwt>0</asrwt>
<pdfrwt beam="1">  1        1 0.11494274E+00 0.17286431E+04</pdfrwt>
<pdfrwt beam="2">  1       -2 0.15383049E+00 0.17286431E+04</pdfrwt>
<totfact> 0.57365555E+00</totfact>
</mgrwt>
</event>
<event>
12    5  0.5264288E-008  0.1675002E+04  0.7818608E-02  0.8775752E-01
          1   -1    0    0  501    0  0.00000000000E+00  0.00000000000E+00  0.29655879211E+04  0.29655879211E+04  0.00000000000E+00 0. -1.
         -2   -1    0    0    0  501 -0.00000000000E+00 -0.00000000000E+00 -0.23651561422E+03  0.23651561422E+03  0.00000000000E+00 0.  1.
        -24    2    1    2    0    0 -0.78242464090E+02  0.13702365375E+03  0.20727856680E+04  0.20803347931E+04  0.80343395428E+02 0.  0.
        254    2    1    2    0    0  0.78242464090E+02 -0.13702365375E+03  0.65628663890E+03  0.11217687422E+04  0.89596629049E+03 0.  0.
         23    2    4    4    0    0  0.47090279196E+03 -0.15502544516E+03  0.37206095591E+03  0.62794827113E+03  0.10053530811E+03 0.  0.
         23    2    4    4    0    0 -0.39266032787E+03  0.18001791413E+02  0.28422568298E+03  0.49382047107E+03  0.92564686584E+02 0.  0.
          3    1    3    3  502    0  0.17937106995E+00  0.78158817258E+02  0.10216886162E+04  0.10246738317E+04  0.00000000000E+00 0. -1.
         -4    1    3    3    0  502 -0.78421835160E+02  0.58864836494E+02  0.10510970518E+04  0.10556609615E+04  0.00000000000E+00 0.  1.
         13    1    5    5    0    0  0.15762842644E+03 -0.16942363020E+02  0.78219605416E+02  0.17678255332E+03  0.00000000000E+00 0.  1.
        -13    1    5    5    0    0  0.31327436552E+03 -0.13808308214E+03  0.29384135050E+03  0.45116571781E+03  0.00000000000E+00 0. -1.
          1    1    6    6  503    0 -0.20576174302E+03  0.27715866234E+01  0.92422064374E+02  0.22558238975E+03  0.00000000000E+00 0. -1.
         -1    1    6    6    0  503 -0.18689858485E+03  0.15230204790E+02  0.19180361861E+03  0.26823808131E+03  0.00000000000E+00 0.  1.
<mgrwt>
<rscale>  0 0.16750019E+04</rscale>
<asrwt>0</asrwt>
<pdfrwt beam="1">  1        1 0.45624427E+00 0.16750019E+04</pdfrwt>
<pdfrwt beam="2">  1       -2 0.36387020E-01 0.16750019E+04</pdfrwt>
<totfact> 0.37858220E+00</totfact>
</mgrwt>
</event>
<event>
12    5  0.5264288E-008  0.1658056E+04  0.7818608E-02  0.8785655E-01
          1   -1    0    0  501    0  0.00000000000E+00  0.00000000000E+00  0.10827743664E+04  0.10827743664E+04  0.00000000000E+00 0. -1.
         -2   -1    0    0    0  501 -0.00000000000E+00 -0.00000000000E+00 -0.63474653971E+03  0.63474653971E+03  0.00000000000E+00 0.  1.
        -24    2    1    2    0    0  0.27661230074E+02 -0.66653405872E+02 -0.42032729056E+03  0.43186435100E+03  0.67999752246E+02 0.  0.
        254    2    1    2    0    0 -0.27661230074E+02  0.66653405872E+02  0.86835511722E+03  0.12856565551E+04  0.94533821877E+03 0.  0.
         23    2    4    4    0    0 -0.31631969992E+02 -0.43094571542E+03  0.38015523431E+03  0.58246033695E+03  0.89594926051E+02 0.  0.
         23    2    4    4    0    0  0.39707399188E+01  0.49759912130E+03  0.48819988291E+03  0.70319621814E+03  0.92331702259E+02 0.  0.
          1    1    3    3  502    0 -0.21221543709E+02 -0.11552975913E+02 -0.13725862682E+03  0.13936913505E+03  0.00000000000E+00 0. -1.
         -2    1    3    3    0  502  0.48882773782E+02 -0.55100429959E+02 -0.28306866374E+03  0.29249521594E+03  0.00000000000E+00 0.  1.
         13    1    5    5    0    0 -0.36463031008E+01 -0.21332741599E+03  0.24448956596E+03  0.32449503818E+03  0.00000000000E+00 0. -1.
        -13    1    5    5    0    0 -0.27985666892E+02 -0.21761829943E+03  0.13566566836E+03  0.25796529877E+03  0.00000000000E+00 0.  1.
          2    1    6    6  503    0 -0.17110526024E+02  0.46041091521E+03  0.42445521589E+03  0.62644489881E+03  0.00000000000E+00 0. -1.
         -2    1    6    6    0  503  0.21081265943E+02  0.37188206081E+02  0.63744667015E+02  0.76751319325E+02  0.00000000000E+00 0.  1.
<mgrwt>
<rscale>  0 0.16580558E+04</rscale>
<asrwt>0</asrwt>
<pdfrwt beam="1">  1        1 0.16658067E+00 0.16580558E+04</pdfrwt>
<pdfrwt beam="2">  1       -2 0.97653314E-01 0.16580558E+04</pdfrwt>
<totfact> 0.95578541E+00</totfact>
</mgrwt>
</event>
<event>
12    5  0.5264288E-008  0.2249862E+04  0.7818608E-02  0.8497956E-01
          1   -1    0    0  501    0  0.00000000000E+00  0.00000000000E+00  0.72525831922E+03  0.72525831922E+03  0.00000000000E+00 0. -1.
         -2   -1    0    0    0  501 -0.00000000000E+00 -0.00000000000E+00 -0.17448542999E+04  0.17448542999E+04  0.00000000000E+00 0.  1.
        -24    2    1    2    0    0 -0.28338304823E+03 -0.84339369484E+03 -0.79644024530E+03  0.11969417563E+04  0.82058681084E+02 0.  0.
        254    2    1    2    0    0  0.28338304823E+03  0.84339369484E+03 -0.22315573538E+03  0.12731708628E+04  0.88291941148E+03 0.  0.
         23    2    4    4    0    0  0.33217766509E+03  0.76073652051E+03  0.17508218540E+03  0.85322315434E+03  0.90961116034E+02 0.  0.
         23    2    4    4    0    0 -0.48794616855E+02  0.82657174330E+02 -0.39823792078E+03  0.41994770848E+03  0.92463577736E+02 0.  0.
          3    1    3    3  502    0 -0.13623396349E+03 -0.37082458261E+03 -0.30129297676E+03  0.49683802363E+03  0.00000000000E+00 0. -1.
         -4    1    3    3    0  502 -0.14714908475E+03 -0.47256911223E+03 -0.49514726854E+03  0.70010373268E+03  0.00000000000E+00 0.  1.
         13    1    5    5    0    0  0.32987368940E+03  0.75956606989E+03  0.16705035473E+03  0.84478582286E+03  0.00000000000E+00 0. -1.
        -13    1    5    5    0    0  0.23039756914E+01  0.11704506234E+01  0.80318306690E+01  0.84373314824E+01  0.00000000000E+00 0.  1.
          4    1    6    6  503    0 -0.69402626363E+02  0.33847409429E+02 -0.19037021522E+03  0.20543415129E+03  0.00000000000E+00 0. -1.
         -4    1    6    6    0  503  0.20608009508E+02  0.48809764901E+02 -0.20786770556E+03  0.21451355719E+03  0.00000000000E+00 0.  1.
<mgrwt>
<rscale>  0 0.22498623E+04</rscale>
<asrwt>0</asrwt>
<pdfrwt beam="1">  1        1 0.11157821E+00 0.22498623E+04</pdfrwt>
<pdfrwt beam="2">  1       -2 0.26843912E+00 0.22498623E+04</pdfrwt>
<totfact> 0.10169800E+00</totfact>
</mgrwt>
</event>
<event>
12    5  0.5264288E-008  0.2143839E+04  0.7818608E-02  0.8542174E-01
         -2   -1    0    0    0  501 -0.00000000000E+00  0.00000000000E+00  0.58032676501E+03  0.58032676501E+03  0.00000000000E+00 0.  1.
          1   -1    0    0  501    0  0.00000000000E+00 -0.00000000000E+00 -0.19799390059E+04  0.19799390059E+04  0.00000000000E+00 0. -1.
        -24    2    1    2    0    0 -0.59228204322E+03 -0.13829492441E+03  0.18111863508E+03  0.63991673818E+03  0.82255498250E+02 0.  0.
        254    2    1    2    0    0  0.59228204322E+03  0.13829492441E+03 -0.15807308759E+04  0.19203490327E+04  0.90504519247E+03 0.  0.
         23    2    4    4    0    0  0.10182194363E+03  0.40115538367E+03 -0.29408531411E+03  0.51573004951E+03  0.90542597367E+02 0.  0.
         23    2    4    4    0    0  0.49046009959E+03 -0.26286045926E+03 -0.12866455618E+04  0.14046189832E+04  0.88605619680E+02 0.  0.
          3    1    3    3  502    0 -0.59462227399E+03 -0.13915112384E+03  0.18206827791E+03  0.63724998377E+03  0.00000000000E+00 0. -1.
         -4    1    3    3    0  502  0.23402307785E+01  0.85619942271E+00 -0.94964283391E+00  0.26667544057E+01  0.00000000000E+00 0.  1.
         13    1    5    5    0    0  0.72773322235E+02  0.33725440789E+03 -0.27953208380E+03  0.44404355410E+03  0.00000000000E+00 0. -1.
        -13    1    5    5    0    0  0.29048621392E+02  0.63900975789E+02 -0.14553230315E+02  0.71686495410E+02  0.00000000000E+00 0.  1.
          1    1    6    6  503    0  0.43119448779E+03 -0.25904503731E+03 -0.11753902734E+04  0.12785051085E+04  0.00000000000E+00 0. -1.
         -1    1    6    6    0  503  0.59265611796E+02 -0.38154219535E+01 -0.11125528839E+03  0.12611387465E+03  0.00000000000E+00 0.  1.
<mgrwt>
<rscale>  0 0.21438392E+04</rscale>
<asrwt>0</asrwt>
<pdfrwt beam="1">  1        1 0.30460600E+00 0.21438392E+04</pdfrwt>
<pdfrwt beam="2">  1       -2 0.89281040E-01 0.21438392E+04</pdfrwt>
<totfact> 0.26637904E+00</totfact>
</mgrwt>
</event>
<event>
12    5  0.5264288E-008  0.1325576E+04  0.7818608E-02  0.9009525E-01
         -2   -1    0    0    0  501 -0.00000000000E+00  0.00000000000E+00  0.10052871547E+04  0.10052871547E+04  0.00000000000E+00 0.  1.
          1   -1    0    0  501    0  0.00000000000E+00 -0.00000000000E+00 -0.43697766341E+03  0.43697766341E+03  0.00000000000E+00 0. -1.
        -24    2    1    2    0    0  0.15187084994E+03 -0.13992717510E+03  0.46161218560E+03  0.51204296252E+03  0.80360538650E+02 0.  0.
        254    2    1    2    0    0 -0.15187084994E+03  0.13992717510E+03  0.10669730567E+03  0.93022185557E+03  0.90071305983E+03 0.  0.
         23    2    4    4    0    0  0.60324774958E+02  0.47350987123E+03  0.17911282053E+03  0.51807261145E+03  0.92017126871E+02 0.  0.
         23    2    4    4    0    0 -0.21219562490E+03 -0.33358269612E+03 -0.72415514863E+02  0.41214924412E+03  0.91206327917E+02 0.  0.
          1    1    3    3  502    0  0.62934565796E+02 -0.98996326208E+02  0.18967865246E+03  0.22302247280E+03  0.00000000000E+00 0. -1.
         -2    1    3    3    0  502  0.88936284148E+02 -0.40930848894E+02  0.27193353314E+03  0.28902048972E+03  0.00000000000E+00 0.  1.
         13    1    5    5    0    0 -0.21539338812E+02  0.18061232688E+03  0.61702511366E+02  0.19207278737E+03  0.00000000000E+00 0. -1.
        -13    1    5    5    0    0  0.81864113770E+02  0.29289754434E+03  0.11741030917E+03  0.32599982408E+03  0.00000000000E+00 0.  1.
          2    1    6    6  503    0 -0.19581450021E+03 -0.23645101813E+03 -0.48868709033E+02  0.31087063739E+03  0.00000000000E+00 0.  1.
         -2    1    6    6    0  503 -0.16381124690E+02 -0.97131677991E+02 -0.23546805829E+02  0.10127860672E+03  0.00000000000E+00 0. -1.
<mgrwt>
<rscale>  0 0.13255761E+04</rscale>
<asrwt>0</asrwt>
<pdfrwt beam="1">  1        1 0.67227333E-01 0.13255761E+04</pdfrwt>
<pdfrwt beam="2">  1       -2 0.15465956E+00 0.13255761E+04</pdfrwt>
<totfact> 0.12598764E+01</totfact>
</mgrwt>
</event>
<event>
12    5  0.5264288E-008  0.1202746E+04  0.7818608E-02  0.9110457E-01
         -2   -1    0    0    0  501 -0.00000000000E+00  0.00000000000E+00  0.12724065365E+03  0.12724065365E+03  0.00000000000E+00 0.  1.
          1   -1    0    0  501    0  0.00000000000E+00 -0.00000000000E+00 -0.28422468234E+04  0.28422468234E+04  0.00000000000E+00 0. -1.
        -24    2    1    2    0    0  0.20965661944E+03  0.38030773787E+01 -0.22188041940E+03  0.31495563690E+03  0.77432365534E+02 0.  0.
        254    2    1    2    0    0 -0.20965661944E+03 -0.38030773787E+01 -0.24931257503E+04  0.26545318401E+04  0.88706985173E+03 0.  0.
         23    2    4    4    0    0 -0.71614857653E+02  0.14704266929E+03 -0.24072827920E+04  0.24145284673E+04  0.90482288755E+02 0.  0.
         23    2    4    4    0    0 -0.13804176179E+03 -0.15084574666E+03 -0.85842958341E+02  0.24000337279E+03  0.91774932143E+02 0.  0.
          3    1    3    3  502    0  0.44309535929E+01  0.13954732569E+01 -0.41367350571E+02  0.41627375472E+02  0.00000000000E+00 0. -1.
         -4    1    3    3    0  502  0.20522566585E+03  0.24076041217E+01 -0.18051306883E+03  0.27332826143E+03  0.00000000000E+00 0.  1.
         13    1    5    5    0    0 -0.85650976725E+02  0.13458866029E+03 -0.18298969350E+04  0.18368377691E+04  0.00000000000E+00 0.  1.
        -13    1    5    5    0    0  0.14036119073E+02  0.12454008991E+02 -0.57738585698E+03  0.57769069822E+03  0.00000000000E+00 0. -1.
          4    1    6    6  503    0 -0.45845115840E+02 -0.91550415788E+01 -0.47533601509E+02  0.66671078475E+02  0.00000000000E+00 0. -1.
         -4    1    6    6    0  503 -0.92196645947E+02 -0.14169070509E+03 -0.38309356833E+02  0.17333229431E+03  0.00000000000E+00 0.  1.
<mgrwt>
<rscale>  0 0.12027458E+04</rscale>
<asrwt>0</asrwt>
<pdfrwt beam="1">  1        1 0.43726870E+00 0.12027458E+04</pdfrwt>
<pdfrwt beam="2">  1       -2 0.19575487E-01 0.12027458E+04</pdfrwt>
<totfact> 0.15151475E+01</totfact>
</mgrwt>
</event>
<event>
12    5  0.5264288E-008  0.2797678E+04  0.7818608E-02  0.8303990E-01
          1   -1    0    0  501    0  0.00000000000E+00  0.00000000000E+00  0.99880121606E+03  0.99880121606E+03  0.00000000000E+00 0. -1.
         -2   -1    0    0    0  501 -0.00000000000E+00 -0.00000000000E+00 -0.19590988044E+04  0.19590988044E+04  0.00000000000E+00 0.  1.
        -24    2    1    2    0    0 -0.71214230650E+02  0.11239929630E+04 -0.10120305182E+04  0.15162261202E+04  0.79399182459E+02 0.  0.
        254    2    1    2    0    0  0.71214230650E+02 -0.11239929630E+04  0.51732929837E+02  0.14416739003E+04  0.89850747975E+03 0.  0.
         23    2    4    4    0    0  0.27223084667E+03 -0.23081840682E+02 -0.10800561956E+03  0.30755143330E+03  0.90995961576E+02 0.  0.
         23    2    4    4    0    0 -0.20101661602E+03 -0.11009111224E+04  0.15973854939E+03  0.11341224670E+04  0.91128407941E+02 0.  0.
          1    1    3    3  502    0 -0.58685859959E+02  0.36497525668E+03 -0.31630771894E+03  0.48651982612E+03  0.00000000000E+00 0. -1.
         -2    1    3    3    0  502 -0.12528370691E+02  0.75901770635E+03 -0.69572279925E+03  0.10297062941E+04  0.00000000000E+00 0.  1.
         13    1    5    5    0    0  0.84353794056E+01 -0.40788304021E+01 -0.30563683933E+02  0.31967659575E+02  0.00000000000E+00 0. -1.
        -13    1    5    5    0    0  0.26379546727E+03 -0.19003010279E+02 -0.77441935623E+02  0.27558377373E+03  0.00000000000E+00 0.  1.
          4    1    6    6  503    0 -0.18162373886E+03 -0.85456255607E+03  0.95891317277E+02  0.87889674563E+03  0.00000000000E+00 0. -1.
         -4    1    6    6    0  503 -0.19392877166E+02 -0.24634856629E+03  0.63847232116E+02  0.25522572137E+03  0.00000000000E+00 0.  1.
<mgrwt>
<rscale>  0 0.27976778E+04</rscale>
<asrwt>0</asrwt>
<pdfrwt beam="1">  1        1 0.15366173E+00 0.27976778E+04</pdfrwt>
<pdfrwt beam="2">  1       -2 0.30139981E+00 0.27976778E+04</pdfrwt>
<totfact> 0.35897529E-01</totfact>
</mgrwt>
</event>
<event>
12    5  0.5264288E-008  0.1332246E+04  0.7818608E-02  0.9004377E-01
          1   -1    0    0  501    0  0.00000000000E+00  0.00000000000E+00  0.38799877709E+03  0.38799877709E+03  0.00000000000E+00 0. -1.
         -2   -1    0    0    0  501 -0.00000000000E+00 -0.00000000000E+00 -0.11436120947E+04  0.11436120947E+04  0.00000000000E+00 0.  1.
        -24    2    1    2    0    0  0.24446722014E+03 -0.15712082563E+03  0.26228517923E+02  0.30382234355E+03  0.84669390675E+02 0.  0.
        254    2    1    2    0    0 -0.24446722014E+03  0.15712082563E+03 -0.78184183558E+03  0.12277885283E+04  0.90096439372E+03 0.  0.
         23    2    4    4    0    0 -0.11170891504E+03 -0.64729049179E+02  0.17102694693E+03  0.23630922551E+03  0.99614767852E+02 0.  0.
         23    2    4    4    0    0 -0.13275830510E+03  0.22184987481E+03 -0.95286878251E+03  0.99147930278E+03  0.90720210675E+02 0.  0.
          3    1    3    3  502    0  0.23271565819E+03 -0.15529588602E+03  0.53859813664E+01  0.27982565747E+03  0.00000000000E+00 0. -1.
         -4    1    3    3    0  502  0.11751561949E+02 -0.18249396136E+01  0.20842536557E+02  0.23996686083E+02  0.00000000000E+00 0.  1.
         13    1    5    5    0    0 -0.10588167542E+03 -0.29638882554E+02  0.16777021371E+03  0.20058972346E+03  0.00000000000E+00 0.  1.
        -13    1    5    5    0    0 -0.58272396292E+01 -0.35090166625E+02  0.32567332239E+01  0.35719502051E+02  0.00000000000E+00 0. -1.
          4    1    6    6  503    0 -0.65125756119E+02  0.32456687265E+02 -0.26638453532E+03  0.27614402278E+03  0.00000000000E+00 0. -1.
         -4    1    6    6    0  503 -0.67632548979E+02  0.18939318754E+03 -0.68648424719E+03  0.71533528000E+03  0.00000000000E+00 0.  1.
<mgrwt>
<rscale>  0 0.13322464E+04</rscale>
<asrwt>0</asrwt>
<pdfrwt beam="1">  1        1 0.59692120E-01 0.13322464E+04</pdfrwt>
<pdfrwt beam="2">  1       -2 0.17594032E+00 0.13322464E+04</pdfrwt>
<totfact> 0.10342771E+01</totfact>
</mgrwt>
</event>
<event>
12    5  0.5264288E-008  0.1142046E+04  0.7818608E-02  0.9165153E-01
         -2   -1    0    0    0  501 -0.00000000000E+00  0.00000000000E+00  0.70766695270E+03  0.70766695270E+03  0.00000000000E+00 0.  1.
          1   -1    0    0  501    0  0.00000000000E+00 -0.00000000000E+00 -0.46076340877E+03  0.46076340877E+03  0.00000000000E+00 0. -1.
        -24    2    1    2    0    0 -0.43043657340E+02 -0.90548134664E+02  0.22539195767E+03  0.25918668818E+03  0.79526622092E+02 0.  0.
        254    2    1    2    0    0  0.43043657340E+02  0.90548134664E+02  0.21511586268E+02  0.90924367328E+03  0.90344318467E+03 0.  0.
         23    2    4    4    0    0  0.38551290981E+03 -0.51893225229E+02 -0.21993494396E+03  0.45601052793E+03  0.90890657110E+02 0.  0.
         23    2    4    4    0    0 -0.34246925247E+03  0.14244135989E+03  0.24144653023E+03  0.45323314536E+03  0.97719635677E+02 0.  0.
          3    1    3    3  502    0 -0.20201955447E+02  0.11498087286E+02  0.36266219598E+02  0.43076254468E+02  0.00000000000E+00 0. -1.
         -4    1    3    3    0  502 -0.22841701893E+02 -0.10204622195E+03  0.18912573807E+03  0.21611043371E+03  0.00000000000E+00 0.  1.
         13    1    5    5    0    0  0.24988433686E+03  0.29799471292E+01 -0.11019120367E+03  0.27311748985E+03  0.00000000000E+00 0.  1.
        -13    1    5    5    0    0  0.13562857294E+03 -0.54873172358E+02 -0.10974374029E+03  0.18289303808E+03  0.00000000000E+00 0. -1.
          2    1    6    6  503    0 -0.51980931533E+02  0.64430760639E+02  0.51585583048E+02  0.97541850187E+02  0.00000000000E+00 0. -1.
         -2    1    6    6    0  503 -0.29048832093E+03  0.78010599254E+02  0.18986094718E+03  0.35569129517E+03  0.00000000000E+00 0.  1.
<mgrwt>
<rscale>  0 0.11420456E+04</rscale>
<asrwt>0</asrwt>
<pdfrwt beam="1">  1        1 0.70886678E-01 0.11420456E+04</pdfrwt>
<pdfrwt beam="2">  1       -2 0.10887184E+00 0.11420456E+04</pdfrwt>
<totfact> 0.29013467E+01</totfact>
</mgrwt>
</event>
<event>
12    5  0.5264288E-008  0.1048046E+04  0.7818608E-02  0.9257364E-01
         -2   -1    0    0    0  501 -0.00000000000E+00  0.00000000000E+00  0.25023126934E+03  0.25023126934E+03  0.00000000000E+00 0.  1.
          1   -1    0    0  501    0  0.00000000000E+00 -0.00000000000E+00 -0.10973849608E+04  0.10973849608E+04  0.00000000000E+00 0. -1.
        -24    2    1    2    0    0  0.79603187683E+02 -0.75561673031E+02 -0.60121446216E+02  0.14803890996E+03  0.79086640133E+02 0.  0.
        254    2    1    2    0    0 -0.79603187683E+02  0.75561673031E+02 -0.78703224523E+03  0.11995773202E+04  0.89862103142E+03 0.  0.
         23    2    4    4    0    0  0.38719641888E+01 -0.50624470620E+02 -0.95082803442E+03  0.95657681142E+03  0.91582836668E+02 0.  0.
         23    2    4    4    0    0 -0.83475151871E+02  0.12618614365E+03  0.16379578919E+03  0.24300050875E+03  0.96587488145E+02 0.  0.
          3    1    3    3  502    0  0.76477069390E+02 -0.52191161259E+02 -0.75854093163E+02  0.11969337035E+03  0.00000000000E+00 0. -1.
         -4    1    3    3    0  502  0.31261182929E+01 -0.23370511772E+02  0.15732646947E+02  0.28345539614E+02  0.00000000000E+00 0.  1.
         13    1    5    5    0    0 -0.16791987127E+02 -0.24284731997E+02 -0.82854247645E+02  0.87957634078E+02  0.00000000000E+00 0.  1.
        -13    1    5    5    0    0  0.20663951316E+02 -0.26339738624E+02 -0.86797378678E+03  0.86861917734E+03  0.00000000000E+00 0. -1.
          3    1    6    6  503    0 -0.10533521471E+03  0.10998992082E+03  0.13886065582E+03  0.20609602586E+03  0.00000000000E+00 0. -1.
         -3    1    6    6    0  503  0.21860062837E+02  0.16196222832E+02  0.24935133371E+02  0.36904482892E+02  0.00000000000E+00 0.  1.
<mgrwt>
<rscale>  0 0.10480459E+04</rscale>
<asrwt>0</asrwt>
<pdfrwt beam="1">  1        1 0.16882845E+00 0.10480459E+04</pdfrwt>
<pdfrwt beam="2">  1       -2 0.38497119E-01 0.10480459E+04</pdfrwt>
<totfact> 0.71129251E+01</totfact>
</mgrwt>
</event>
<event>
12    5  0.5264288E-008  0.1855256E+04  0.7818608E-02  0.8677454E-01
         -2   -1    0    0    0  501 -0.00000000000E+00  0.00000000000E+00  0.19408478593E+04  0.19408478593E+04  0.00000000000E+00 0.  1.
          1   -1    0    0  501    0  0.00000000000E+00 -0.00000000000E+00 -0.44335992514E+03  0.44335992514E+03  0.00000000000E+00 0. -1.
        -24    2    1    2    0    0  0.43845276482E+03  0.51403665019E+03  0.83574307472E+03  0.10785422738E+04  0.91172609253E+02 0.  0.
        254    2    1    2    0    0 -0.43845276482E+03 -0.51403665019E+03  0.66174485948E+03  0.13056655107E+04  0.90021200951E+03 0.  0.
         23    2    4    4    0    0 -0.33797599513E+03  0.15460278437E+03  0.45123587684E+03  0.59126217813E+03  0.88585283857E+02 0.  0.
         23    2    4    4    0    0 -0.10047676969E+03 -0.66863943457E+03  0.21050898264E+03  0.71440333257E+03  0.94253992581E+02 0.  0.
          3    1    3    3  502    0  0.28647230287E+03  0.39095737976E+03  0.56224130502E+03  0.74231350396E+03  0.00000000000E+00 0. -1.
         -4    1    3    3    0  502  0.15198046195E+03  0.12307927044E+03  0.27350176971E+03  0.33622876982E+03  0.00000000000E+00 0.  1.
         13    1    5    5    0    0 -0.13172341979E+03  0.61962850408E+02  0.11239540372E+03  0.18391079612E+03  0.00000000000E+00 0. -1.
        -13    1    5    5    0    0 -0.20625257534E+03  0.92639933963E+02  0.33884047312E+03  0.40735138201E+03  0.00000000000E+00 0.  1.
          4    1    6    6  503    0 -0.90141220242E+02 -0.36825046749E+03  0.15051499903E+03  0.40790760146E+03  0.00000000000E+00 0. -1.
         -4    1    6    6    0  503 -0.10335549446E+02 -0.30038896707E+03  0.59993983605E+02  0.30649573111E+03  0.00000000000E+00 0.  1.
<mgrwt>
<rscale>  0 0.18552565E+04</rscale>
<asrwt>0</asrwt>
<pdfrwt beam="1">  1        1 0.68209220E-01 0.18552565E+04</pdfrwt>
<pdfrwt beam="2">  1       -2 0.29859197E+00 0.18552565E+04</pdfrwt>
<totfact> 0.13938276E+00</totfact>
</mgrwt>
</event>
<event>
12    5  0.5264288E-008  0.3638373E+04  0.7818608E-02  0.8081758E-01
         -2   -1    0    0    0  501 -0.00000000000E+00  0.00000000000E+00  0.12536489415E+04  0.12536489415E+04  0.00000000000E+00 0.  1.
          1   -1    0    0  501    0  0.00000000000E+00 -0.00000000000E+00 -0.26398450368E+04  0.26398450368E+04  0.00000000000E+00 0. -1.
        -24    2    1    2    0    0 -0.57396254754E+02  0.13816989596E+04  0.41620459110E+03  0.14464177744E+04  0.80695546939E+02 0.  0.
        254    2    1    2    0    0  0.57396254754E+02 -0.13816989596E+04 -0.18024006863E+04  0.24470762040E+04  0.90947642571E+03 0.  0.
         23    2    4    4    0    0 -0.17814723724E+03 -0.56496968365E+03 -0.13563006218E+04  0.14827846770E+04  0.90398229495E+02 0.  0.
         23    2    4    4    0    0  0.23554349199E+03 -0.81672927595E+03 -0.44610006450E+03  0.96429152699E+03  0.91243819943E+02 0.  0.
          3    1    3    3  502    0 -0.10228123306E+01  0.56543051522E+03  0.13601824774E+03  0.58156141327E+03  0.00000000000E+00 0. -1.
         -4    1    3    3    0  502 -0.56373442424E+02  0.81626844438E+03  0.28018634336E+03  0.86485636108E+03  0.00000000000E+00 0.  1.
         13    1    5    5    0    0 -0.18871411458E+03 -0.53390399212E+03 -0.12895126962E+04  0.14083712165E+04  0.00000000000E+00 0. -1.
        -13    1    5    5    0    0  0.10566877340E+02 -0.31065691533E+02 -0.66787925663E+02  0.74413460486E+02  0.00000000000E+00 0.  1.
          2    1    6    6  503    0  0.22739704274E+03 -0.70694466953E+03 -0.41089070157E+03  0.84871158202E+03  0.00000000000E+00 0. -1.
         -2    1    6    6    0  503  0.81464492537E+01 -0.10978460642E+03 -0.35209362927E+02  0.11557994497E+03  0.00000000000E+00 0.  1.
<mgrwt>
<rscale>  0 0.36383727E+04</rscale>
<asrwt>0</asrwt>
<pdfrwt beam="1">  1        1 0.40613000E+00 0.36383727E+04</pdfrwt>
<pdfrwt beam="2">  1       -2 0.19286907E+00 0.36383727E+04</pdfrwt>
<totfact> 0.11385972E-01</totfact>
</mgrwt>
</event>
<event>
12    5  0.5264288E-008  0.2957518E+04  0.7818608E-02  0.8255967E-01
         -2   -1    0    0    0  501 -0.00000000000E+00  0.00000000000E+00  0.12748091511E+04  0.12748091511E+04  0.00000000000E+00 0.  1.
          1   -1    0    0  501    0  0.00000000000E+00 -0.00000000000E+00 -0.17153381735E+04  0.17153381735E+04  0.00000000000E+00 0. -1.
        -24    2    1    2    0    0 -0.10579666264E+04  0.18653043329E+03  0.61241182869E+03  0.12390802412E+04  0.78642298768E+02 0.  0.
        254    2    1    2    0    0  0.10579666264E+04 -0.18653043329E+03 -0.10529408511E+04  0.17510670834E+04  0.89636181833E+03 0.  0.
         23    2    4    4    0    0  0.69455341383E+03  0.31910601827E+03 -0.58758435007E+03  0.96843048631E+03  0.91483019348E+02 0.  0.
         23    2    4    4    0    0  0.36341321260E+03 -0.50563645156E+03 -0.46535650106E+03  0.78263659707E+03  0.90697220243E+02 0.  0.
          1    1    3    3  502    0 -0.23936059468E+03  0.54475554731E+02  0.10528283536E+03  0.26710588868E+03  0.00000000000E+00 0. -1.
         -2    1    3    3    0  502 -0.81860603175E+03  0.13205487856E+03  0.50712899333E+03  0.97197435256E+03  0.00000000000E+00 0.  1.
         13    1    5    5    0    0  0.42539883478E+03  0.23486827504E+03 -0.40376220378E+03  0.63178413438E+03  0.00000000000E+00 0. -1.
        -13    1    5    5    0    0  0.26915457905E+03  0.84237743223E+02 -0.18382214629E+03  0.33664635194E+03  0.00000000000E+00 0.  1.
          3    1    6    6  503    0  0.14971892808E+03 -0.22041807585E+03 -0.14463550261E+03  0.30318198199E+03  0.00000000000E+00 0. -1.
         -3    1    6    6    0  503  0.21369428451E+03 -0.28521837570E+03 -0.32072099844E+03  0.47945461507E+03  0.00000000000E+00 0.  1.
<mgrwt>
<rscale>  0 0.29575184E+04</rscale>
<asrwt>0</asrwt>
<pdfrwt beam="1">  1        1 0.26389818E+00 0.29575184E+04</pdfrwt>
<pdfrwt beam="2">  1       -2 0.19612449E+00 0.29575184E+04</pdfrwt>
<totfact> 0.49260897E-01</totfact>
</mgrwt>
</event>
<event>
12    5  0.5264288E-008  0.1710926E+04  0.7818608E-02  0.8755157E-01
          1   -1    0    0  501    0  0.00000000000E+00  0.00000000000E+00  0.19578558836E+04  0.19578558836E+04  0.00000000000E+00 0. -1.
         -2   -1    0    0    0  501 -0.00000000000E+00 -0.00000000000E+00 -0.37378478270E+03  0.37378478270E+03  0.00000000000E+00 0.  1.
        -24    2    1    2    0    0  0.30714671985E+03  0.38112178502E+03  0.71273723008E+02  0.50513624295E+03  0.10241951876E+03 0.  0.
        254    2    1    2    0    0 -0.30714671985E+03 -0.38112178502E+03  0.15127973779E+04  0.18265044233E+04  0.89887128079E+03 0.  0.
         23    2    4    4    0    0 -0.15563018597E+03 -0.56559375674E+03  0.14466727604E+04  0.15638809127E+04  0.93511396393E+02 0.  0.
         23    2    4    4    0    0 -0.15151653388E+03  0.18447197172E+03  0.66124617517E+02  0.26262351059E+03  0.87243767010E+02 0.  0.
          1    1    3    3  502    0  0.15222270312E+02  0.44420950694E+02  0.33950546100E+02  0.57944611091E+02  0.00000000000E+00 0. -1.
         -2    1    3    3    0  502  0.29192444953E+03  0.33670083433E+03  0.37323176909E+02  0.44719163186E+03  0.00000000000E+00 0.  1.
         13    1    5    5    0    0 -0.58779227877E+02 -0.86596957506E+02  0.22791314293E+03  0.25079559685E+03  0.00000000000E+00 0. -1.
        -13    1    5    5    0    0 -0.96850958089E+02 -0.47899679924E+03  0.12187596174E+04  0.13130853159E+04  0.00000000000E+00 0.  1.
          2    1    6    6  503    0 -0.10875354899E+03  0.17986921117E+03  0.63323061535E+02  0.21952238535E+03  0.00000000000E+00 0.  1.
         -2    1    6    6    0  503 -0.42762984885E+02  0.46027605477E+01  0.28015559818E+01  0.43101125239E+02  0.00000000000E+00 0. -1.
<mgrwt>
<rscale>  0 0.17109258E+04</rscale>
<asrwt>0</asrwt>
<pdfrwt beam="1">  1        1 0.30120859E+00 0.17109258E+04</pdfrwt>
<pdfrwt beam="2">  1       -2 0.57505353E-01 0.17109258E+04</pdfrwt>
<totfact> 0.75269646E+00</totfact>
</mgrwt>
</event>
<event>
12    5  0.5264288E-008  0.1981733E+04  0.7818608E-02  0.8615209E-01
          1   -1    0    0  501    0  0.00000000000E+00  0.00000000000E+00  0.15356978682E+04  0.15356978682E+04  0.00000000000E+00 0. -1.
         -2   -1    0    0    0  501 -0.00000000000E+00 -0.00000000000E+00 -0.63932913334E+03  0.63932913334E+03  0.00000000000E+00 0.  1.
        -24    2    1    2    0    0  0.55559609126E+03 -0.27292776624E+03 -0.16611842824E+03  0.64665385667E+03  0.85961014042E+02 0.  0.
        254    2    1    2    0    0 -0.55559609126E+03  0.27292776624E+03  0.10624871631E+04  0.15283731448E+04  0.90767225141E+03 0.  0.
         23    2    4    4    0    0 -0.76186908592E+03  0.31196427143E+02  0.72299968670E+03  0.10547147553E+04  0.90977727302E+02 0.  0.
         23    2    4    4    0    0  0.20627299466E+03  0.24173133909E+03  0.33948747637E+03  0.47365838957E+03  0.90099582556E+02 0.  0.
          1    1    3    3  502    0  0.93375796922E+01  0.63228462129E+01 -0.98052219500E+00  0.11319461229E+02  0.00000000000E+00 0. -1.
         -4    1    3    3    0  502  0.54625851157E+03 -0.27925061245E+03 -0.16513790604E+03  0.63533439544E+03  0.00000000000E+00 0.  1.
         13    1    5    5    0    0 -0.17779432816E+03  0.43046513042E+02  0.19318272230E+03  0.26605147924E+03  0.00000000000E+00 0. -1.
        -13    1    5    5    0    0 -0.58407475777E+03 -0.11850085899E+02  0.52981696441E+03  0.78866327603E+03  0.00000000000E+00 0.  1.
          3    1    6    6  503    0  0.37494613326E+01 -0.14052268834E+00 -0.51942143496E+01  0.64076571085E+01  0.00000000000E+00 0. -1.
         -3    1    6    6    0  503  0.20252353333E+03  0.24187186178E+03  0.34468169072E+03  0.46725073246E+03  0.00000000000E+00 0.  1.
<mgrwt>
<rscale>  0 0.19817330E+04</rscale>
<asrwt>0</asrwt>
<pdfrwt beam="1">  1        1 0.23626121E+00 0.19817330E+04</pdfrwt>
<pdfrwt beam="2">  1       -2 0.98358329E-01 0.19817330E+04</pdfrwt>
<totfact> 0.43289709E+00</totfact>
</mgrwt>
</event>
<event>
12    5  0.5264288E-008  0.1382283E+04  0.7818608E-02  0.8966744E-01
         -2   -1    0    0    0  501 -0.00000000000E+00  0.00000000000E+00  0.49358095960E+03  0.49358095960E+03  0.00000000000E+00 0.  1.
          1   -1    0    0  501    0  0.00000000000E+00 -0.00000000000E+00 -0.96777789030E+03  0.96777789030E+03  0.00000000000E+00 0. -1.
        -24    2    1    2    0    0  0.11123472798E+03 -0.36836830249E+03 -0.20766419128E+03  0.44455225616E+03  0.80211726894E+02 0.  0.
        254    2    1    2    0    0 -0.11123472798E+03  0.36836830249E+03 -0.26653273943E+03  0.10168065937E+04  0.90265584632E+03 0.  0.
         23    2    4    4    0    0 -0.28052700182E+03  0.25904453425E+03  0.24241793570E+03  0.46165154724E+03  0.92499870526E+02 0.  0.
         23    2    4    4    0    0  0.16929227384E+03  0.10932376825E+03 -0.50895067513E+03  0.55515504650E+03  0.92492030185E+02 0.  0.
          3    1    3    3  502    0 -0.10593099381E+02 -0.30131040566E+02 -0.28802056123E+02  0.43007578367E+02  0.00000000000E+00 0. -1.
         -4    1    3    3    0  502  0.12182782736E+03 -0.33823726193E+03 -0.17886213515E+03  0.40154467780E+03  0.00000000000E+00 0.  1.
         13    1    5    5    0    0 -0.39723655112E+02  0.18044727082E+01  0.16289585981E+02  0.42971798993E+02  0.00000000000E+00 0.  1.
        -13    1    5    5    0    0 -0.24080334670E+03  0.25724006154E+03  0.22612834972E+03  0.41867974825E+03  0.00000000000E+00 0. -1.
          1    1    6    6  503    0  0.44860274864E+02  0.45745316988E+02 -0.27744714984E+03  0.28474901096E+03  0.00000000000E+00 0. -1.
         -1    1    6    6    0  503  0.12443199897E+03  0.63578451258E+02 -0.23150352530E+03  0.27040603554E+03  0.00000000000E+00 0.  1.
<mgrwt>
<rscale>  0 0.13822832E+04</rscale>
<asrwt>0</asrwt>
<pdfrwt beam="1">  1        1 0.14888890E+00 0.13822832E+04</pdfrwt>
<pdfrwt beam="2">  1       -2 0.75935534E-01 0.13822832E+04</pdfrwt>
<totfact> 0.21331453E+01</totfact>
</mgrwt>
</event>
<event>
12    5  0.5264288E-008  0.1134136E+04  0.7818608E-02  0.9172545E-01
         -2   -1    0    0    0  501 -0.00000000000E+00  0.00000000000E+00  0.99945039423E+03  0.99945039423E+03  0.00000000000E+00 0.  1.
          1   -1    0    0  501    0  0.00000000000E+00 -0.00000000000E+00 -0.32174277583E+03  0.32174277583E+03  0.00000000000E+00 0. -1.
        -24    2    1    2    0    0  0.19559413488E+03 -0.12215997292E+02  0.18720371118E+03  0.28276793393E+03  0.80660887609E+02 0.  0.
        254    2    1    2    0    0 -0.19559413488E+03  0.12215997292E+02  0.49050390722E+03  0.10384252361E+04  0.89405066515E+03 0.  0.
         23    2    4    4    0    0 -0.11771359506E+03 -0.37950911995E+03  0.11637983802E+02  0.40788776537E+03  0.91396520100E+02 0.  0.
         23    2    4    4    0    0 -0.77880539819E+02  0.39172511724E+03  0.47886592342E+03  0.63053747077E+03  0.93546691369E+02 0.  0.
          1    1    3    3  502    0  0.18929717676E+03  0.27912837136E+01  0.14794162876E+03  0.24026638948E+03  0.00000000000E+00 0. -1.
         -2    1    3    3    0  502  0.62969581213E+01 -0.15007281006E+02  0.39262082415E+02  0.42501544446E+02  0.00000000000E+00 0.  1.
         13    1    5    5    0    0  0.12048382930E+02 -0.10227568262E+02  0.43962564694E+01  0.16404077381E+02  0.00000000000E+00 0.  1.
        -13    1    5    5    0    0 -0.12976197799E+03 -0.36928155168E+03  0.72417273327E+01  0.39148368799E+03  0.00000000000E+00 0. -1.
          2    1    6    6  503    0 -0.25974340349E+02  0.27128721780E+03  0.37322508939E+03  0.46213459971E+03  0.00000000000E+00 0. -1.
         -2    1    6    6    0  503 -0.51906199470E+02  0.12043789944E+03  0.10564083403E+03  0.16840287105E+03  0.00000000000E+00 0.  1.
<mgrwt>
<rscale>  0 0.11341357E+04</rscale>
<asrwt>0</asrwt>
<pdfrwt beam="1">  1        1 0.49498889E-01 0.11341357E+04</pdfrwt>
<pdfrwt beam="2">  1       -2 0.15376160E+00 0.11341357E+04</pdfrwt>
<totfact> 0.19452123E+01</totfact>
</mgrwt>
</event>
<event>
12    5  0.5264288E-008  0.2350815E+04  0.7818608E-02  0.8458151E-01
         -2   -1    0    0    0  501 -0.00000000000E+00  0.00000000000E+00  0.59534686129E+03  0.59534686129E+03  0.00000000000E+00 0.  1.
          1   -1    0    0  501    0  0.00000000000E+00 -0.00000000000E+00 -0.23206346023E+04  0.23206346023E+04  0.00000000000E+00 0. -1.
        -24    2    1    2    0    0  0.48925891353E+02  0.27150435575E+03 -0.18838582747E+04  0.19056114723E+04  0.79528146046E+02 0.  0.
        254    2    1    2    0    0 -0.48925891353E+02 -0.27150435575E+03  0.15857053372E+03  0.10103699913E+04  0.95895492444E+03 0.  0.
         23    2    4    4    0    0 -0.37519530385E+03 -0.46703441587E+03  0.10351007578E+03  0.61550803310E+03  0.96141257432E+02 0.  0.
         23    2    4    4    0    0  0.32626941250E+03  0.19553006012E+03  0.55060457937E+02  0.39486195819E+03  0.90557043107E+02 0.  0.
          3    1    3    3  502    0  0.39594708965E+02  0.26948619432E+03 -0.18611823173E+04  0.18810077534E+04  0.00000000000E+00 0. -1.
         -4    1    3    3    0  502  0.93311823880E+01  0.20181614307E+01 -0.22675957350E+02  0.24603718866E+02  0.00000000000E+00 0.  1.
         13    1    5    5    0    0 -0.36076710283E+03 -0.44927659863E+03  0.11836492979E+03  0.58822837501E+03  0.00000000000E+00 0.  1.
        -13    1    5    5    0    0 -0.14428201023E+02 -0.17757817247E+02 -0.14854854010E+02  0.27279658095E+02  0.00000000000E+00 0. -1.
          1    1    6    6  503    0  0.13156110426E+03  0.58461099853E+02  0.61755806154E+02  0.15665185586E+03  0.00000000000E+00 0. -1.
         -1    1    6    6    0  503  0.19470830823E+03  0.13706896027E+03 -0.66953482171E+01  0.23821010233E+03  0.00000000000E+00 0.  1.
<mgrwt>
<rscale>  0 0.23508148E+04</rscale>
<asrwt>0</asrwt>
<pdfrwt beam="1">  1        1 0.35702071E+00 0.23508148E+04</pdfrwt>
<pdfrwt beam="2">  1       -2 0.91591825E-01 0.23508148E+04</pdfrwt>
<totfact> 0.14456691E+00</totfact>
</mgrwt>
</event>
<event>
12    5  0.5264288E-008  0.1717055E+04  0.7818608E-02  0.8751697E-01
          1   -1    0    0  501    0  0.00000000000E+00  0.00000000000E+00  0.52880849695E+03  0.52880849695E+03  0.00000000000E+00 0. -1.
         -2   -1    0    0    0  501 -0.00000000000E+00 -0.00000000000E+00 -0.13938301198E+04  0.13938301198E+04  0.00000000000E+00 0.  1.
        -24    2    1    2    0    0 -0.33349221935E+03 -0.51991621075E+03 -0.24059770466E+03  0.66768055493E+03  0.79875787189E+02 0.  0.
        254    2    1    2    0    0  0.33349221935E+03  0.51991621075E+03 -0.62442391821E+03  0.12549580618E+04  0.89637301432E+03 0.  0.
         23    2    4    4    0    0  0.50274721332E+03  0.10775249246E+02 -0.45681340625E+03  0.68571823617E+03  0.93059898922E+02 0.  0.
         23    2    4    4    0    0 -0.16925499397E+03  0.50914096150E+03 -0.16761051196E+03  0.56923982568E+03  0.89827188310E+02 0.  0.
          1    1    3    3  502    0 -0.32447842601E+03 -0.50413509963E+03 -0.21634152068E+03  0.63737124283E+03  0.00000000000E+00 0. -1.
         -4    1    3    3    0  502 -0.90137933414E+01 -0.15781111122E+02 -0.24256183978E+02  0.30309312097E+02  0.00000000000E+00 0.  1.
         13    1    5    5    0    0  0.41458642605E+03 -0.17537941837E+02 -0.40389003902E+03  0.57906532247E+03  0.00000000000E+00 0.  1.
        -13    1    5    5    0    0  0.88160787266E+02  0.28313191082E+02 -0.52923367230E+02  0.10665291369E+03  0.00000000000E+00 0. -1.
          2    1    6    6  503    0 -0.14712233646E+03  0.33162352022E+03 -0.13672135859E+03  0.38770074922E+03  0.00000000000E+00 0. -1.
         -2    1    6    6    0  503 -0.22132657512E+02  0.17751744128E+03 -0.30889153365E+02  0.18153907647E+03  0.00000000000E+00 0.  1.
<mgrwt>
<rscale>  0 0.17170547E+04</rscale>
<asrwt>0</asrwt>
<pdfrwt beam="1">  1        1 0.81355153E-01 0.17170547E+04</pdfrwt>
<pdfrwt beam="2">  1       -2 0.21443540E+00 0.17170547E+04</pdfrwt>
<totfact> 0.36530110E+00</totfact>
</mgrwt>
</event>
<event>
12    5  0.5264288E-008  0.3390517E+04  0.7818608E-02  0.8140238E-01
         -2   -1    0    0    0  501 -0.00000000000E+00  0.00000000000E+00  0.14769420580E+04  0.14769420580E+04  0.00000000000E+00 0.  1.
          1   -1    0    0  501    0  0.00000000000E+00 -0.00000000000E+00 -0.19458460777E+04  0.19458460777E+04  0.00000000000E+00 0. -1.
        -24    2    1    2    0    0  0.32897704102E+03 -0.10444348162E+04  0.94109357185E+03  0.14463686244E+04  0.85176921758E+02 0.  0.
        254    2    1    2    0    0 -0.32897704102E+03  0.10444348162E+04 -0.14099975915E+04  0.19764195113E+04  0.84798048196E+03 0.  0.
         23    2    4    4    0    0 -0.50131068209E+03  0.58616414351E+03 -0.12120899294E+04  0.14395827009E+04  0.91299246850E+02 0.  0.
         23    2    4    4    0    0  0.17233364107E+03  0.45827067266E+03 -0.19790766207E+03  0.53683681042E+03  0.96516449658E+02 0.  0.
          1    1    3    3  502    0  0.12689275451E+03 -0.53479091938E+03  0.45062627543E+03  0.71075110883E+03  0.00000000000E+00 0. -1.
         -2    1    3    3    0  502  0.20208428652E+03 -0.50964389678E+03  0.49046729642E+03  0.73561751559E+03  0.00000000000E+00 0.  1.
         13    1    5    5    0    0 -0.45722929285E+03  0.50376487111E+03 -0.10214775525E+04  0.12272954257E+04  0.00000000000E+00 0. -1.
        -13    1    5    5    0    0 -0.44081389238E+02  0.82399272396E+02 -0.19061237693E+03  0.21228727519E+03  0.00000000000E+00 0.  1.
          3    1    6    6  503    0  0.18143435944E+03  0.40031870929E+03 -0.16423868052E+03  0.46919914746E+03  0.00000000000E+00 0. -1.
         -3    1    6    6    0  503 -0.91007183708E+01  0.57951963362E+02 -0.33668981547E+02  0.67637662961E+02  0.00000000000E+00 0.  1.
<mgrwt>
<rscale>  0 0.33905173E+04</rscale>
<asrwt>0</asrwt>
<pdfrwt beam="1">  1        1 0.29936093E+00 0.33905173E+04</pdfrwt>
<pdfrwt beam="2">  1       -2 0.22722186E+00 0.33905173E+04</pdfrwt>
<totfact> 0.20893186E-01</totfact>
</mgrwt>
</event>
<event>
12    5  0.5264288E-008  0.3340321E+04  0.7818608E-02  0.8152711E-01
          1   -1    0    0  501    0  0.00000000000E+00  0.00000000000E+00  0.14312619051E+04  0.14312619051E+04  0.00000000000E+00 0. -1.
         -2   -1    0    0    0  501 -0.00000000000E+00 -0.00000000000E+00 -0.19489347173E+04  0.19489347173E+04  0.00000000000E+00 0.  1.
        -24    2    1    2    0    0 -0.10339212036E+04 -0.53058737399E+03  0.79296059892E+03  0.14090989793E+04  0.79103763320E+02 0.  0.
        254    2    1    2    0    0  0.10339212036E+04  0.53058737399E+03 -0.13106334112E+04  0.19710976431E+04  0.90385284398E+03 0.  0.
         23    2    4    4    0    0  0.29455305035E+03 -0.14245020524E+03 -0.74394419664E+03  0.81828415266E+03  0.95301764589E+02 0.  0.
         23    2    4    4    0    0  0.73936815322E+03  0.67303757923E+03 -0.56668921453E+03  0.11528134905E+04  0.90539653433E+02 0.  0.
          3    1    3    3  502    0 -0.96212681743E+03 -0.47194648456E+03  0.71880686975E+03  0.12903894037E+04  0.00000000000E+00 0. -1.
         -4    1    3    3    0  502 -0.71794386147E+02 -0.58640889435E+02  0.74153729164E+02  0.11870957562E+03  0.00000000000E+00 0.  1.
         13    1    5    5    0    0  0.18690332255E+03 -0.73308499929E+02 -0.55411657669E+03  0.58936590392E+03  0.00000000000E+00 0. -1.
        -13    1    5    5    0    0  0.10764972781E+03 -0.69141705313E+02 -0.18982761995E+03  0.22891824874E+03  0.00000000000E+00 0.  1.
          3    1    6    6  503    0  0.67490380291E+03  0.64212009704E+03 -0.51362829566E+03  0.10637797649E+04  0.00000000000E+00 0. -1.
         -3    1    6    6    0  503  0.64464350313E+02  0.30917482195E+02 -0.53060918866E+02  0.89033725506E+02  0.00000000000E+00 0.  1.
<mgrwt>
<rscale>  0 0.33403210E+04</rscale>
<asrwt>0</asrwt>
<pdfrwt beam="1">  1        1 0.22019414E+00 0.33403210E+04</pdfrwt>
<pdfrwt beam="2">  1       -2 0.29983611E+00 0.33403210E+04</pdfrwt>
<totfact> 0.16894921E-01</totfact>
</mgrwt>
</event>
<event>
12    5  0.5264288E-008  0.1345779E+04  0.7818608E-02  0.8994029E-01
         -2   -1    0    0    0  501 -0.00000000000E+00  0.00000000000E+00  0.72563932742E+03  0.72563932742E+03  0.00000000000E+00 0.  1.
          1   -1    0    0  501    0  0.00000000000E+00 -0.00000000000E+00 -0.62397466793E+03  0.62397466793E+03  0.00000000000E+00 0. -1.
        -24    2    1    2    0    0 -0.98706877776E+01  0.21274738946E+03 -0.24413542412E+03  0.33346598972E+03  0.78984674389E+02 0.  0.
        254    2    1    2    0    0  0.98706877776E+01 -0.21274738946E+03  0.34580008361E+03  0.10161480056E+04  0.93146131929E+03 0.  0.
         23    2    4    4    0    0 -0.24054511175E+03  0.28028115196E+03  0.51061558613E+02  0.38408745086E+03  0.92175984982E+02 0.  0.
         23    2    4    4    0    0  0.25041579953E+03 -0.49302854142E+03  0.29473852500E+03  0.63206055478E+03  0.82731683672E+02 0.  0.
          3    1    3    3  502    0  0.87130964074E+01  0.18974797798E+03 -0.17500357233E+03  0.25827594453E+03  0.00000000000E+00 0. -1.
         -2    1    3    3    0  502 -0.18583784185E+02  0.22999411486E+02 -0.69131851792E+02  0.75190045189E+02  0.00000000000E+00 0.  1.
         13    1    5    5    0    0 -0.18024626581E+03  0.20165784097E+03  0.77839496465E+02  0.28144908665E+03  0.00000000000E+00 0. -1.
        -13    1    5    5    0    0 -0.60298845936E+02  0.78623310984E+02 -0.26777937852E+02  0.10263836421E+03  0.00000000000E+00 0.  1.
          3    1    6    6  503    0  0.90254386811E+02 -0.26852171612E+03  0.14440259448E+03  0.31796521140E+03  0.00000000000E+00 0. -1.
         -3    1    6    6    0  503  0.16016141272E+03 -0.22450682530E+03  0.15033593052E+03  0.31409534338E+03  0.00000000000E+00 0.  1.
<mgrwt>
<rscale>  0 0.13457794E+04</rscale>
<asrwt>0</asrwt>
<pdfrwt beam="1">  1        1 0.95996103E-01 0.13457794E+04</pdfrwt>
<pdfrwt beam="2">  1       -2 0.11163682E+00 0.13457794E+04</pdfrwt>
<totfact> 0.17570792E+01</totfact>
</mgrwt>
</event>
<event>
12    5  0.5264288E-008  0.2946086E+04  0.7818608E-02  0.8259296E-01
          1   -1    0    0  501    0  0.00000000000E+00  0.00000000000E+00  0.11692826518E+04  0.11692826518E+04  0.00000000000E+00 0. -1.
         -2   -1    0    0    0  501 -0.00000000000E+00 -0.00000000000E+00 -0.18557151073E+04  0.18557151073E+04  0.00000000000E+00 0.  1.
        -24    2    1    2    0    0 -0.34825384509E+02  0.86719575984E+03  0.74549724178E+03  0.11472654723E+04  0.84915447651E+02 0.  0.
        254    2    1    2    0    0  0.34825384509E+02 -0.86719575984E+03 -0.14319296972E+04  0.18777322868E+04  0.84983209501E+03 0.  0.
         23    2    4    4    0    0 -0.29943618188E+03 -0.98932759198E+02 -0.65065872414E+03  0.72847416809E+03  0.88702426212E+02 0.  0.
         23    2    4    4    0    0  0.33426156639E+03 -0.76826300064E+03 -0.78127097306E+03  0.11492581187E+04  0.91929630936E+02 0.  0.
          1    1    3    3  502    0 -0.20511088439E+02  0.84713044531E+03  0.72542939419E+03  0.11154812872E+04  0.00000000000E+00 0. -1.
         -2    1    3    3    0  502 -0.14314296070E+02  0.20065314531E+02  0.20067847591E+02  0.31784185157E+02  0.00000000000E+00 0.  1.
         13    1    5    5    0    0 -0.30318620103E+03 -0.10454637305E+03 -0.63999930907E+03  0.71585678192E+03  0.00000000000E+00 0. -1.
        -13    1    5    5    0    0  0.37500191548E+01  0.56136138483E+01 -0.10659415074E+02  0.12617386172E+02  0.00000000000E+00 0.  1.
          4    1    6    6  503    0  0.27545695540E+03 -0.53313064167E+03 -0.54038298091E+03  0.80753859438E+03  0.00000000000E+00 0. -1.
         -4    1    6    6    0  503  0.58804610989E+02 -0.23513235898E+03 -0.24088799215E+03  0.34171952428E+03  0.00000000000E+00 0.  1.
<mgrwt>
<rscale>  0 0.29460859E+04</rscale>
<asrwt>0</asrwt>
<pdfrwt beam="1">  1        1 0.17988964E+00 0.29460859E+04</pdfrwt>
<pdfrwt beam="2">  1       -2 0.28549463E+00 0.29460859E+04</pdfrwt>
<totfact> 0.32926587E-01</totfact>
</mgrwt>
</event>
<event>
12    5  0.5264288E-008  0.1017976E+04  0.7818608E-02  0.9289046E-01
          1   -1    0    0  501    0  0.00000000000E+00  0.00000000000E+00  0.10318808107E+04  0.10318808107E+04  0.00000000000E+00 0. -1.
         -2   -1    0    0    0  501 -0.00000000000E+00 -0.00000000000E+00 -0.25106449199E+03  0.25106449199E+03  0.00000000000E+00 0.  1.
        -24    2    1    2    0    0 -0.19001144097E+02  0.42613893107E+02  0.20150864881E+01  0.91367624217E+02  0.78530215961E+02 0.  0.
        254    2    1    2    0    0  0.19001144097E+02 -0.42613893107E+02  0.77880123222E+03  0.11915776785E+04  0.90063811665E+03 0.  0.
         23    2    4    4    0    0  0.42828794712E+03 -0.12248586310E+03  0.27576050032E+03  0.53164160247E+03  0.90363641086E+02 0.  0.
         23    2    4    4    0    0 -0.40928680302E+03  0.79871969989E+02  0.50304073190E+03  0.65993607601E+03  0.92576604762E+02 0.  0.
          3    1    3    3  502    0 -0.13188629475E+02  0.27311234471E+02  0.39887808153E+02  0.50108689017E+02  0.00000000000E+00 0. -1.
         -4    1    3    3    0  502 -0.58125146216E+01  0.15302658636E+02 -0.37872721665E+02  0.41258935200E+02  0.00000000000E+00 0.  1.
         13    1    5    5    0    0  0.13494613862E+03 -0.82074756010E+02  0.84449655162E+02  0.17910463467E+03  0.00000000000E+00 0. -1.
        -13    1    5    5    0    0  0.29334180850E+03 -0.40411107086E+02  0.19131084516E+03  0.35253696780E+03  0.00000000000E+00 0.  1.
          3    1    6    6  503    0 -0.92929779066E+02  0.58675141904E+02  0.13820809124E+03  0.17657913976E+03  0.00000000000E+00 0. -1.
         -3    1    6    6    0  503 -0.31635702396E+03  0.21196828085E+02  0.36483264066E+03  0.48335693624E+03  0.00000000000E+00 0.  1.
<mgrwt>
<rscale>  0 0.10179757E+04</rscale>
<asrwt>0</asrwt>
<pdfrwt beam="1">  1        1 0.15875089E+00 0.10179757E+04</pdfrwt>
<pdfrwt beam="2">  1       -2 0.38625307E-01 0.10179757E+04</pdfrwt>
<totfact> 0.79427846E+01</totfact>
</mgrwt>
</event>
<event>
12    5  0.5264288E-008  0.2666191E+04  0.7818608E-02  0.8346059E-01
          1   -1    0    0  501    0  0.00000000000E+00  0.00000000000E+00  0.69738789847E+03  0.69738789847E+03  0.00000000000E+00 0. -1.
         -2   -1    0    0    0  501 -0.00000000000E+00 -0.00000000000E+00 -0.25482857108E+04  0.25482857108E+04  0.00000000000E+00 0.  1.
        -24    2    1    2    0    0  0.15737760012E+02  0.10083042769E+04 -0.15714712542E+04  0.18689078682E+04  0.79809305719E+02 0.  0.
        254    2    1    2    0    0 -0.15737760012E+02 -0.10083042769E+04 -0.27942655812E+03  0.13767657410E+04  0.89469520645E+03 0.  0.
         23    2    4    4    0    0 -0.19812496855E+03 -0.79509583541E+03 -0.54003105512E+03  0.98552062462E+03  0.90479115828E+02 0.  0.
         23    2    4    4    0    0  0.18238720854E+03 -0.21320844146E+03  0.26060449700E+03  0.39124511642E+03  0.80219099450E+02 0.  0.
          3    1    3    3  502    0  0.18291099717E+02  0.14003368714E+03 -0.26383910506E+03  0.29925753328E+03  0.00000000000E+00 0. -1.
         -4    1    3    3    0  502 -0.25533397053E+01  0.86827058974E+03 -0.13076321491E+04  0.15696503350E+04  0.00000000000E+00 0.  1.
         13    1    5    5    0    0 -0.66374183920E+02 -0.12690882012E+03 -0.10022409169E+03  0.17480345955E+03  0.00000000000E+00 0. -1.
        -13    1    5    5    0    0 -0.13175078463E+03 -0.66818701529E+03 -0.43980696342E+03  0.81071716507E+03  0.00000000000E+00 0.  1.
          2    1    6    6  503    0  0.66453034251E+02 -0.27978696825E+02  0.49886829012E+02  0.87678440600E+02  0.00000000000E+00 0. -1.
         -2    1    6    6    0  503  0.11593417429E+03 -0.18522974464E+03  0.21071766798E+03  0.30356667582E+03  0.00000000000E+00 0.  1.
<mgrwt>
<rscale>  0 0.26661910E+04</rscale>
<asrwt>0</asrwt>
<pdfrwt beam="1">  1        1 0.10729045E+00 0.26661910E+04</pdfrwt>
<pdfrwt beam="2">  1       -2 0.39204395E+00 0.26661910E+04</pdfrwt>
<totfact> 0.17596044E-01</totfact>
</mgrwt>
</event>
<event>
12    5  0.5264288E-008  0.1925595E+04  0.7818608E-02  0.8642220E-01
         -2   -1    0    0    0  501 -0.00000000000E+00  0.00000000000E+00  0.69650995986E+03  0.69650995986E+03  0.00000000000E+00 0.  1.
          1   -1    0    0  501    0  0.00000000000E+00 -0.00000000000E+00 -0.13308910467E+04  0.13308910467E+04  0.00000000000E+00 0. -1.
        -24    2    1    2    0    0 -0.47620080222E+03 -0.42738617890E+03 -0.65489127613E+03  0.91915266805E+03  0.80826318036E+02 0.  0.
        254    2    1    2    0    0  0.47620080222E+03  0.42738617890E+03  0.20510189251E+02  0.11082483385E+04  0.90463670170E+03 0.  0.
         23    2    4    4    0    0 -0.16751066576E+03  0.41313413322E+03  0.45708209463E+02  0.45747132445E+03  0.91930066410E+02 0.  0.
         23    2    4    4    0    0  0.64371146799E+03  0.14252045682E+02 -0.25198020212E+02  0.65077701409E+03  0.91149366570E+02 0.  0.
          1    1    3    3  502    0 -0.62303734881E+02 -0.27757036328E+02 -0.51810158439E+02  0.85653376835E+02  0.00000000000E+00 0. -1.
         -2    1    3    3    0  502 -0.41389706734E+03 -0.39962914257E+03 -0.60308111769E+03  0.83349929122E+03  0.00000000000E+00 0.  1.
         13    1    5    5    0    0  0.35163847390E+01  0.52290728566E+02  0.23768886581E+02  0.57546895876E+02  0.00000000000E+00 0. -1.
        -13    1    5    5    0    0 -0.17102705050E+03  0.36084340465E+03  0.21939322881E+02  0.39992442857E+03  0.00000000000E+00 0.  1.
          1    1    6    6  503    0  0.18657139603E+03  0.33565822634E+02 -0.36690556448E+02  0.19308481866E+03  0.00000000000E+00 0. -1.
         -1    1    6    6    0  503  0.45714007196E+03 -0.19313776953E+02  0.11492536236E+02  0.45769219543E+03  0.00000000000E+00 0.  1.
<mgrwt>
<rscale>  0 0.19255948E+04</rscale>
<asrwt>0</asrwt>
<pdfrwt beam="1">  1        1 0.20475247E+00 0.19255948E+04</pdfrwt>
<pdfrwt beam="2">  1       -2 0.10715538E+00 0.19255948E+04</pdfrwt>
<totfact> 0.49301305E+00</totfact>
</mgrwt>
</event>
<event>
12    5  0.5264288E-008  0.3044849E+04  0.7818608E-02  0.8231039E-01
          1   -1    0    0  501    0  0.00000000000E+00  0.00000000000E+00  0.22776966726E+04  0.22776966726E+04  0.00000000000E+00 0. -1.
         -2   -1    0    0    0  501 -0.00000000000E+00 -0.00000000000E+00 -0.10175964028E+04  0.10175964028E+04  0.00000000000E+00 0.  1.
        -24    2    1    2    0    0 -0.11331919408E+04  0.78099549387E+03  0.38989955329E+03  0.14326081658E+04  0.79161600761E+02 0.  0.
        254    2    1    2    0    0  0.11331919408E+04 -0.78099549387E+03  0.87020071654E+03  0.18626849096E+04  0.90458158799E+03 0.  0.
         23    2    4    4    0    0  0.10079601666E+03 -0.56743294501E+03  0.37726402980E+03  0.69514268856E+03  0.93569360469E+02 0.  0.
         23    2    4    4    0    0  0.10323959241E+04 -0.21356254887E+03  0.49293668674E+03  0.11675422211E+04  0.93369986643E+02 0.  0.
          3    1    3    3  502    0 -0.10828549583E+04  0.74969461430E+03  0.35595815872E+03  0.13643031504E+04  0.00000000000E+00 0. -1.
         -4    1    3    3    0  502 -0.50336982467E+02  0.31300879576E+02  0.33941394568E+02  0.68305015419E+02  0.00000000000E+00 0.  1.
         13    1    5    5    0    0  0.47138681698E+02 -0.42416793283E+03  0.24015311795E+03  0.48970808715E+03  0.00000000000E+00 0. -1.
        -13    1    5    5    0    0  0.53657334962E+02 -0.14326501218E+03  0.13711091184E+03  0.20543460141E+03  0.00000000000E+00 0.  1.
          1    1    6    6  503    0  0.72814070603E+03 -0.19376075868E+03  0.35169161670E+03  0.83151615296E+03  0.00000000000E+00 0. -1.
         -1    1    6    6    0  503  0.30425521808E+03 -0.19801790182E+02  0.14124507005E+03  0.33602606809E+03  0.00000000000E+00 0.  1.
<mgrwt>
<rscale>  0 0.30448487E+04</rscale>
<asrwt>0</asrwt>
<pdfrwt beam="1">  1        1 0.35041487E+00 0.30448487E+04</pdfrwt>
<pdfrwt beam="2">  1       -2 0.15655329E+00 0.30448487E+04</pdfrwt>
<totfact> 0.38410384E-01</totfact>
</mgrwt>
</event>
<event>
12    5  0.5264288E-008  0.1154822E+04  0.7818608E-02  0.9153346E-01
         -2   -1    0    0    0  501 -0.00000000000E+00  0.00000000000E+00  0.28549585327E+03  0.28549585327E+03  0.00000000000E+00 0.  1.
          1   -1    0    0  501    0  0.00000000000E+00 -0.00000000000E+00 -0.11678051457E+04  0.11678051457E+04  0.00000000000E+00 0. -1.
        -24    2    1    2    0    0  0.81640398797E+02  0.19916691680E+03 -0.12966222210E+03  0.26373721543E+03  0.80077534277E+02 0.  0.
        254    2    1    2    0    0 -0.81640398797E+02 -0.19916691680E+03 -0.75264707029E+03  0.11895637835E+04  0.89568508256E+03 0.  0.
         23    2    4    4    0    0 -0.23744943950E+03  0.13243869045E+03 -0.75990684099E+03  0.81208412437E+03  0.89999861235E+02 0.  0.
         23    2    4    4    0    0  0.15580904071E+03 -0.33160560726E+03  0.72597706968E+01  0.37747965913E+03  0.90550830227E+02 0.  0.
          3    1    3    3  502    0 -0.13809254093E+02  0.54386481096E+02 -0.27812102472E+02  0.62626654617E+02  0.00000000000E+00 0. -1.
         -4    1    3    3    0  502  0.95449652890E+02  0.14478043571E+03 -0.10185011963E+03  0.20111056081E+03  0.00000000000E+00 0.  1.
         13    1    5    5    0    0 -0.39438239956E+02  0.11787020058E+02 -0.23018485445E+03  0.23383621582E+03  0.00000000000E+00 0.  1.
        -13    1    5    5    0    0 -0.19801119955E+03  0.12065167039E+03 -0.52972198654E+03  0.57824790855E+03  0.00000000000E+00 0. -1.
          2    1    6    6  503    0  0.15069243286E+03 -0.26392363791E+03 -0.19455281104E+02  0.30453637538E+03  0.00000000000E+00 0. -1.
         -2    1    6    6    0  503  0.51166078440E+01 -0.67681969347E+02  0.26715051801E+02  0.72943283743E+02  0.00000000000E+00 0.  1.
<mgrwt>
<rscale>  0 0.11548221E+04</rscale>
<asrwt>0</asrwt>
<pdfrwt beam="1">  1        1 0.17966233E+00 0.11548221E+04</pdfrwt>
<pdfrwt beam="2">  1       -2 0.43922440E-01 0.11548221E+04</pdfrwt>
<totfact> 0.48284787E+01</totfact>
</mgrwt>
</event>
<event>
12    5  0.5264288E-008  0.2331875E+04  0.7818608E-02  0.8465458E-01
          1   -1    0    0  501    0  0.00000000000E+00  0.00000000000E+00  0.69764783598E+03  0.69764783598E+03  0.00000000000E+00 0. -1.
         -4   -1    0    0    0  501 -0.00000000000E+00 -0.00000000000E+00 -0.19485615323E+04  0.19485615323E+04  0.00000000000E+00 0.  1.
        -24    2    1    2    0    0 -0.63720298191E+02 -0.51943121150E+03  0.42227308603E+03  0.67689637180E+03  0.77492445337E+02 0.  0.
        254    2    1    2    0    0  0.63720298191E+02  0.51943121150E+03 -0.16731867823E+04  0.19693129965E+04  0.89709007888E+03 0.  0.
         23    2    4    4    0    0  0.25775755933E+03 -0.14005699925E+03 -0.29341087378E+03  0.42506859034E+03  0.92403696966E+02 0.  0.
         23    2    4    4    0    0 -0.19403726114E+03  0.65948821075E+03 -0.13797759086E+04  0.15442444061E+04  0.91291123276E+02 0.  0.
          3    1    3    3  502    0 -0.34807558298E+02 -0.46918350744E+03  0.36561006121E+03  0.59583172677E+03  0.00000000000E+00 0. -1.
         -4    1    3    3    0  502 -0.28912739893E+02 -0.50247704059E+02  0.56663024820E+02  0.81064645025E+02  0.00000000000E+00 0.  1.
         13    1    5    5    0    0 -0.31873242525E+01 -0.63064492476E+01 -0.30267701248E+02  0.31081571338E+02  0.00000000000E+00 0. -1.
        -13    1    5    5    0    0  0.26094488359E+03 -0.13375055001E+03 -0.26314317253E+03  0.39398701901E+03  0.00000000000E+00 0.  1.
          3    1    6    6  503    0 -0.16380164525E+02  0.75946797433E+02 -0.10091753843E+03  0.12736002274E+03  0.00000000000E+00 0. -1.
         -3    1    6    6    0  503 -0.17765709662E+03  0.58354141332E+03 -0.12788583701E+04  0.14168843834E+04  0.00000000000E+00 0.  1.
<mgrwt>
<rscale>  0 0.23318746E+04</rscale>
<asrwt>0</asrwt>
<pdfrwt beam="1">  1        1 0.10733044E+00 0.23318746E+04</pdfrwt>
<pdfrwt beam="2">  1       -4 0.29977869E+00 0.23318746E+04</pdfrwt>
<totfact> 0.36591757E-01</totfact>
</mgrwt>
</event>
<event>
12    5  0.5264288E-008  0.1664654E+04  0.7818608E-02  0.8781784E-01
         -2   -1    0    0    0  501 -0.00000000000E+00  0.00000000000E+00  0.68088205010E+03  0.68088205010E+03  0.00000000000E+00 0.  1.
          1   -1    0    0  501    0  0.00000000000E+00 -0.00000000000E+00 -0.10174574837E+04  0.10174574837E+04  0.00000000000E+00 0. -1.
        -24    2    1    2    0    0  0.83535193666E+02  0.66503805617E+02 -0.70807267918E+03  0.72037894950E+03  0.78600427051E+02 0.  0.
        254    2    1    2    0    0 -0.83535193666E+02 -0.66503805617E+02  0.37149724558E+03  0.97796058431E+03  0.89832945863E+03 0.  0.
         23    2    4    4    0    0 -0.99127003071E+02  0.11522122957E+03  0.62653776731E+03  0.65119614332E+03  0.91677416647E+02 0.  0.
         23    2    4    4    0    0  0.15591809405E+02 -0.18172503518E+03 -0.25504052173E+03  0.32676444099E+03  0.91990430149E+02 0.  0.
          3    1    3    3  502    0  0.17791045124E+02  0.55791229148E+02 -0.45228606129E+03  0.45606125002E+03  0.00000000000E+00 0. -1.
         -4    1    3    3    0  502  0.65744148542E+02  0.10712576469E+02 -0.25578661789E+03  0.26431769947E+03  0.00000000000E+00 0.  1.
         13    1    5    5    0    0 -0.91081831132E+02  0.92763818561E+02  0.60578452012E+03  0.61957720327E+03  0.00000000000E+00 0. -1.
        -13    1    5    5    0    0 -0.80451719389E+01  0.22457411006E+02  0.20753247189E+02  0.31618940044E+02  0.00000000000E+00 0.  1.
          4    1    6    6  503    0  0.17547909033E+02 -0.79985302412E+02 -0.18758138291E+03  0.20467621486E+03  0.00000000000E+00 0. -1.
         -4    1    6    6    0  503 -0.19560996282E+01 -0.10173973277E+03 -0.67459138816E+02  0.12208822613E+03  0.00000000000E+00 0.  1.
<mgrwt>
<rscale>  0 0.16646544E+04</rscale>
<asrwt>0</asrwt>
<pdfrwt beam="1">  1        1 0.15653192E+00 0.16646544E+04</pdfrwt>
<pdfrwt beam="2">  1       -2 0.10475108E+00 0.16646544E+04</pdfrwt>
<totfact> 0.90709042E+00</totfact>
</mgrwt>
</event>
<event>
12    5  0.5264288E-008  0.1508162E+04  0.7818608E-02  0.8879043E-01
         -2   -1    0    0    0  501 -0.00000000000E+00  0.00000000000E+00  0.64647026817E+03  0.64647026817E+03  0.00000000000E+00 0.  1.
          1   -1    0    0  501    0  0.00000000000E+00 -0.00000000000E+00 -0.87960465716E+03  0.87960465716E+03  0.00000000000E+00 0. -1.
        -24    2    1    2    0    0  0.36844264858E+03 -0.16386033989E+02  0.23952824591E+03  0.44356920798E+03  0.57977359992E+02 0.  0.
        254    2    1    2    0    0 -0.36844264858E+03  0.16386033989E+02 -0.47266263491E+03  0.10825057174E+04  0.90132689645E+03 0.  0.
         23    2    4    4    0    0 -0.10965652070E+03  0.44389710279E+03 -0.22944095298E+03  0.51923620201E+03  0.88847578355E+02 0.  0.
         23    2    4    4    0    0 -0.25878612788E+03 -0.42751106880E+03 -0.24322168193E+03  0.56326951534E+03  0.91541173373E+02 0.  0.
          3    1    3    3  502    0  0.45381887156E+02  0.73616772917E+01  0.51436150255E+02  0.68988314427E+02  0.00000000000E+00 0. -1.
         -4    1    3    3    0  502  0.32306076143E+03 -0.23747711280E+02  0.18809209566E+03  0.37458089355E+03  0.00000000000E+00 0.  1.
         13    1    5    5    0    0 -0.61883278366E+02  0.19070440368E+03 -0.14734344298E+03  0.24881278085E+03  0.00000000000E+00 0.  1.
        -13    1    5    5    0    0 -0.47773242339E+02  0.25319269911E+03 -0.82097509995E+02  0.27042342116E+03  0.00000000000E+00 0. -1.
          1    1    6    6  503    0 -0.14081722474E+03 -0.17470956826E+03 -0.14660394148E+03  0.26804036950E+03  0.00000000000E+00 0. -1.
         -1    1    6    6    0  503 -0.11796890314E+03 -0.25280150054E+03 -0.96617740444E+02  0.29522914584E+03  0.00000000000E+00 0.  1.
<mgrwt>
<rscale>  0 0.15081621E+04</rscale>
<asrwt>0</asrwt>
<pdfrwt beam="1">  1        1 0.13532379E+00 0.15081621E+04</pdfrwt>
<pdfrwt beam="2">  1       -2 0.99456965E-01 0.15081621E+04</pdfrwt>
<totfact> 0.13408716E+01</totfact>
</mgrwt>
</event>
<event>
12    5  0.5264288E-008  0.2710226E+04  0.7818608E-02  0.8331695E-01
         -2   -1    0    0    0  501 -0.00000000000E+00  0.00000000000E+00  0.24766815542E+04  0.24766815542E+04  0.00000000000E+00 0.  1.
          1   -1    0    0  501    0  0.00000000000E+00 -0.00000000000E+00 -0.74144835213E+03  0.74144835213E+03  0.00000000000E+00 0. -1.
        -24    2    1    2    0    0  0.46438562007E+03  0.97666564712E+03  0.15275169209E+03  0.10951006623E+04  0.79891117859E+02 0.  0.
        254    2    1    2    0    0 -0.46438562007E+03 -0.97666564712E+03  0.15824815099E+04  0.21230292440E+04  0.91294887656E+03 0.  0.
         23    2    4    4    0    0 -0.42361342135E+03 -0.64076829761E+03  0.15951436629E+04  0.17726131150E+04  0.87416292241E+02 0.  0.
         23    2    4    4    0    0 -0.40772198723E+02 -0.33589734951E+03 -0.12662152943E+02  0.35041612904E+03  0.90231545358E+02 0.  0.
          3    1    3    3  502    0  0.37410126839E+03  0.72970210769E+03  0.91394719541E+02  0.82508782547E+03  0.00000000000E+00 0. -1.
         -4    1    3    3    0  502  0.90284351686E+02  0.24696353942E+03  0.61356972552E+02  0.27001283681E+03  0.00000000000E+00 0.  1.
         13    1    5    5    0    0 -0.26661742779E+03 -0.32482686170E+03  0.87817964270E+03  0.97354857493E+03  0.00000000000E+00 0.  1.
        -13    1    5    5    0    0 -0.15699599356E+03 -0.31594143590E+03  0.71696402019E+03  0.79906454005E+03  0.00000000000E+00 0. -1.
          3    1    6    6  503    0 -0.42743888855E+02 -0.56898629791E+02 -0.39357793346E+01  0.71274009747E+02  0.00000000000E+00 0. -1.
         -3    1    6    6    0  503  0.19716901316E+01 -0.27899871972E+03 -0.87263736084E+01  0.27914211929E+03  0.00000000000E+00 0.  1.
<mgrwt>
<rscale>  0 0.27102262E+04</rscale>
<asrwt>0</asrwt>
<pdfrwt beam="1">  1        1 0.11406898E+00 0.27102262E+04</pdfrwt>
<pdfrwt beam="2">  1       -2 0.38102793E+00 0.27102262E+04</pdfrwt>
<totfact> 0.18806939E-01</totfact>
</mgrwt>
</event>
<event>
12    5  0.5264288E-008  0.1485424E+04  0.7818608E-02  0.8894204E-01
          1   -1    0    0  501    0  0.00000000000E+00  0.00000000000E+00  0.10613026453E+04  0.10613026453E+04  0.00000000000E+00 0. -1.
         -2   -1    0    0    0  501 -0.00000000000E+00 -0.00000000000E+00 -0.51975865793E+03  0.51975865793E+03  0.00000000000E+00 0.  1.
        -24    2    1    2    0    0  0.17655248165E+03  0.39989832349E+03  0.49193188118E+01  0.44387963090E+03  0.76912151968E+02 0.  0.
        254    2    1    2    0    0 -0.17655248165E+03 -0.39989832349E+03  0.53662466851E+03  0.11371816723E+04  0.90228968355E+03 0.  0.
         23    2    4    4    0    0 -0.10941832032E+03 -0.36752613725E+03  0.77562907444E+03  0.87008110399E+03  0.91612422844E+02 0.  0.
         23    2    4    4    0    0 -0.67134161336E+02 -0.32372186236E+02 -0.23900440593E+03  0.26710056831E+03  0.93084120432E+02 0.  0.
          3    1    3    3  502    0  0.15499197586E+03  0.36761061260E+03  0.25826095584E+02  0.39978376942E+03  0.00000000000E+00 0. -1.
         -4    1    3    3    0  502  0.21560505792E+02  0.32287710886E+02 -0.20906776772E+02  0.44095861476E+02  0.00000000000E+00 0.  1.
         13    1    5    5    0    0  0.15508498821E+02 -0.22640800660E+02  0.53205905106E+02  0.59866415697E+02  0.00000000000E+00 0.  1.
        -13    1    5    5    0    0 -0.12492681914E+03 -0.34488533659E+03  0.72242316933E+03  0.81021468829E+03  0.00000000000E+00 0. -1.
          3    1    6    6  503    0 -0.69324451741E+02 -0.45549687501E+02 -0.23977729906E+03  0.25371993770E+03  0.00000000000E+00 0. -1.
         -3    1    6    6    0  503  0.21902904045E+01  0.13177501265E+02  0.77289313400E+00  0.13380630607E+02  0.00000000000E+00 0.  1.
<mgrwt>
<rscale>  0 0.14854242E+04</rscale>
<asrwt>0</asrwt>
<pdfrwt beam="1">  1        1 0.16327733E+00 0.14854242E+04</pdfrwt>
<pdfrwt beam="2">  1       -2 0.79962871E-01 0.14854242E+04</pdfrwt>
<totfact> 0.15941234E+01</totfact>
</mgrwt>
</event>
<event>
12    5  0.5264288E-008  0.1390325E+04  0.7818608E-02  0.8960851E-01
         -2   -1    0    0    0  501 -0.00000000000E+00  0.00000000000E+00  0.12701155207E+04  0.12701155207E+04  0.00000000000E+00 0.  1.
          1   -1    0    0  501    0  0.00000000000E+00 -0.00000000000E+00 -0.38047815299E+03  0.38047815299E+03  0.00000000000E+00 0. -1.
        -24    2    1    2    0    0 -0.10446751879E+02  0.38076887997E+03  0.13403064472E+03  0.41077026091E+03  0.75325420300E+02 0.  0.
        254    2    1    2    0    0  0.10446751879E+02 -0.38076887997E+03  0.75560672297E+03  0.12398234128E+04  0.90616030615E+03 0.  0.
         23    2    4    4    0    0  0.18975920845E+03 -0.34340003343E+03 -0.52943603725E+02  0.40584331868E+03  0.89295206948E+02 0.  0.
         23    2    4    4    0    0 -0.17931245657E+03 -0.37368846540E+02  0.80855032670E+03  0.83398009409E+03  0.90662995500E+02 0.  0.
          1    1    3    3  502    0  0.37280589050E+01  0.94066174619E+02  0.68248390543E+02  0.11627633655E+03  0.00000000000E+00 0. -1.
         -4    1    3    3    0  502 -0.14174810784E+02  0.28670270535E+03  0.65782254176E+02  0.29449392436E+03  0.00000000000E+00 0.  1.
         13    1    5    5    0    0  0.24969006421E+02 -0.13042563203E+03 -0.24830855231E+02  0.13509577396E+03  0.00000000000E+00 0.  1.
        -13    1    5    5    0    0  0.16479020203E+03 -0.21297440141E+03 -0.28112748494E+02  0.27074754471E+03  0.00000000000E+00 0. -1.
          3    1    6    6  503    0 -0.16620015080E+03 -0.29794657288E+02  0.55835909775E+03  0.58333103275E+03  0.00000000000E+00 0. -1.
         -3    1    6    6    0  503 -0.13112305770E+02 -0.75741892519E+01  0.25019122895E+03  0.25064906134E+03  0.00000000000E+00 0.  1.
<mgrwt>
<rscale>  0 0.13903254E+04</rscale>
<asrwt>0</asrwt>
<pdfrwt beam="1">  1        1 0.58535101E-01 0.13903254E+04</pdfrwt>
<pdfrwt beam="2">  1       -2 0.19540239E+00 0.13903254E+04</pdfrwt>
<totfact> 0.77910015E+00</totfact>
</mgrwt>
</event>
<event>
12    5  0.5264288E-008  0.1466940E+04  0.7818608E-02  0.8906740E-01
         -2   -1    0    0    0  501 -0.00000000000E+00  0.00000000000E+00  0.59772657475E+03  0.59772657475E+03  0.00000000000E+00 0.  1.
          1   -1    0    0  501    0  0.00000000000E+00 -0.00000000000E+00 -0.90004022848E+03  0.90004022848E+03  0.00000000000E+00 0. -1.
        -24    2    1    2    0    0 -0.25186713550E+03 -0.12164036965E+03 -0.45741580867E+03  0.54200794247E+03  0.79435220157E+02 0.  0.
        254    2    1    2    0    0  0.25186713550E+03  0.12164036965E+03  0.15510215493E+03  0.95575886076E+03  0.90065803055E+03 0.  0.
         23    2    4    4    0    0  0.46100200971E+03  0.37286359389E+03  0.58758766910E+02  0.60295430412E+03  0.92472631434E+02 0.  0.
         23    2    4    4    0    0 -0.20913487421E+03 -0.25122322424E+03  0.96343388022E+02  0.35280455664E+03  0.91315402673E+02 0.  0.
          1    1    3    3  502    0 -0.24662535842E+03 -0.10720218987E+03 -0.45156059999E+03  0.52556955048E+03  0.00000000000E+00 0. -1.
         -2    1    3    3    0  502 -0.52417770872E+01 -0.14438179780E+02 -0.58552086737E+01  0.16438391984E+02  0.00000000000E+00 0.  1.
         13    1    5    5    0    0  0.36388573670E+03  0.24351999472E+03  0.32102054441E+02  0.43902774298E+03  0.00000000000E+00 0.  1.
        -13    1    5    5    0    0  0.97116273007E+02  0.12934359917E+03  0.26656712469E+02  0.16392656114E+03  0.00000000000E+00 0. -1.
          3    1    6    6  503    0 -0.13400313515E+03 -0.22018535095E+03  0.80015784521E+02  0.26989063484E+03  0.00000000000E+00 0. -1.
         -3    1    6    6    0  503 -0.75131739060E+02 -0.31037873289E+02  0.16327603501E+02  0.82913921802E+02  0.00000000000E+00 0.  1.
<mgrwt>
<rscale>  0 0.14669396E+04</rscale>
<asrwt>0</asrwt>
<pdfrwt beam="1">  1        1 0.13846773E+00 0.14669396E+04</pdfrwt>
<pdfrwt beam="2">  1       -2 0.91957935E-01 0.14669396E+04</pdfrwt>
<totfact> 0.15551418E+01</totfact>
</mgrwt>
</event>
<event>
12    5  0.5264288E-008  0.1941056E+04  0.7818608E-02  0.8634686E-01
          1   -1    0    0  501    0  0.00000000000E+00  0.00000000000E+00  0.24971017412E+04  0.24971017412E+04  0.00000000000E+00 0. -1.
         -2   -1    0    0    0  501 -0.00000000000E+00 -0.00000000000E+00 -0.37720702313E+03  0.37720702313E+03  0.00000000000E+00 0.  1.
        -24    2    1    2    0    0  0.34382758283E+03 -0.75285797700E+02  0.18204626768E+04  0.18559305242E+04  0.80674625509E+02 0.  0.
        254    2    1    2    0    0 -0.34382758283E+03  0.75285797700E+02  0.29943204130E+03  0.10183782401E+04  0.90749618980E+03 0.  0.
         23    2    4    4    0    0 -0.55331893541E+03  0.75025891470E+02  0.46965847970E+03  0.73553933570E+03  0.92996226484E+02 0.  0.
         23    2    4    4    0    0  0.20949135258E+03  0.25990622971E+00 -0.17022643839E+03  0.28283890440E+03  0.84463667685E+02 0.  0.
          3    1    3    3  502    0  0.31077177338E+03 -0.84712811638E+02  0.17156258820E+04  0.17456023380E+04  0.00000000000E+00 0. -1.
         -4    1    3    3    0  502  0.33055809446E+02  0.94270139380E+01  0.10483679480E+03  0.11032818622E+03  0.00000000000E+00 0.  1.
         13    1    5    5    0    0 -0.22963271788E+03  0.34384203506E+02  0.25577904332E+03  0.34545097709E+03  0.00000000000E+00 0. -1.
        -13    1    5    5    0    0 -0.32368621753E+03  0.40641687964E+02  0.21387943638E+03  0.39008835861E+03  0.00000000000E+00 0.  1.
          3    1    6    6  503    0  0.80364798493E+02 -0.38505616578E+02 -0.86172153624E+02  0.12396299208E+03  0.00000000000E+00 0. -1.
         -3    1    6    6    0  503  0.12912655408E+03  0.38765522807E+02 -0.84054284766E+02  0.15887591232E+03  0.00000000000E+00 0.  1.
<mgrwt>
<rscale>  0 0.19410557E+04</rscale>
<asrwt>0</asrwt>
<pdfrwt beam="1">  1        1 0.38416949E+00 0.19410557E+04</pdfrwt>
<pdfrwt beam="2">  1       -2 0.58031851E-01 0.19410557E+04</pdfrwt>
<totfact> 0.30993730E+00</totfact>
</mgrwt>
</event>
<event>
12    5  0.5264288E-008  0.2195066E+04  0.7818608E-02  0.8520485E-01
         -2   -1    0    0    0  501 -0.00000000000E+00  0.00000000000E+00  0.47707242736E+03  0.47707242736E+03  0.00000000000E+00 0.  1.
          1   -1    0    0  501    0  0.00000000000E+00 -0.00000000000E+00 -0.25249377008E+04  0.25249377008E+04  0.00000000000E+00 0. -1.
        -24    2    1    2    0    0  0.28051997763E+03 -0.19776636970E+03  0.29188975043E+03  0.45768357978E+03  0.80446491264E+02 0.  0.
        254    2    1    2    0    0 -0.28051997763E+03  0.19776636970E+03 -0.23397550239E+04  0.25443265484E+04  0.93879764500E+03 0.  0.
         23    2    4    4    0    0  0.17483253796E+03  0.33488402453E+03 -0.45456362562E+03  0.59799692835E+03  0.90876346610E+02 0.  0.
         23    2    4    4    0    0 -0.45535251559E+03 -0.13711765483E+03 -0.18851913983E+04  0.19463296201E+04  0.90028978849E+02 0.  0.
          1    1    3    3  502    0  0.11500306626E+03 -0.39485135830E+02  0.79017714580E+02  0.14501234574E+03  0.00000000000E+00 0. -1.
         -2    1    3    3    0  502  0.16551691138E+03 -0.15828123387E+03  0.21287203585E+03  0.31267123404E+03  0.00000000000E+00 0.  1.
         13    1    5    5    0    0  0.85943402562E+02  0.24394822764E+03 -0.27027347812E+03  0.37409191275E+03  0.00000000000E+00 0. -1.
        -13    1    5    5    0    0  0.88889135393E+02  0.90935796896E+02 -0.18429014750E+03  0.22390501560E+03  0.00000000000E+00 0.  1.
          4    1    6    6  503    0 -0.37599458848E+03 -0.11669844831E+03 -0.16770376809E+04  0.17226275981E+04  0.00000000000E+00 0. -1.
         -4    1    6    6    0  503 -0.79357927105E+02 -0.20419206523E+02 -0.20815371738E+03  0.22370202200E+03  0.00000000000E+00 0.  1.
<mgrwt>
<rscale>  0 0.21950655E+04</rscale>
<asrwt>0</asrwt>
<pdfrwt beam="1">  1        1 0.38845196E+00 0.21950655E+04</pdfrwt>
<pdfrwt beam="2">  1       -2 0.73395756E-01 0.21950655E+04</pdfrwt>
<totfact> 0.17479021E+00</totfact>
</mgrwt>
</event>
<event>
12    5  0.5264288E-008  0.1595173E+04  0.7818608E-02  0.8823519E-01
         -4   -1    0    0    0  501 -0.00000000000E+00  0.00000000000E+00  0.10810005681E+04  0.10810005681E+04  0.00000000000E+00 0.  1.
          3   -1    0    0  501    0  0.00000000000E+00 -0.00000000000E+00 -0.58847705419E+03  0.58847705419E+03  0.00000000000E+00 0. -1.
        -24    2    1    2    0    0  0.63432811171E+02 -0.52476807449E+03  0.25160663091E+03  0.59087874616E+03  0.80165718454E+02 0.  0.
        254    2    1    2    0    0 -0.63432811171E+02  0.52476807449E+03  0.24091688303E+03  0.10785988762E+04  0.90880654575E+03 0.  0.
         23    2    4    4    0    0  0.14511014799E+03 -0.16331228806E+03 -0.12348605063E+03  0.26736330393E+03  0.92230543227E+02 0.  0.
         23    2    4    4    0    0 -0.20854295916E+03  0.68808036255E+03  0.36440293366E+03  0.81123557224E+03  0.91481716509E+02 0.  0.
          1    1    3    3  502    0  0.22163584538E+02 -0.27213586000E+02  0.21314971125E+02  0.41062534464E+02  0.00000000000E+00 0. -1.
         -2    1    3    3    0  502  0.41269226633E+02 -0.49755448849E+03  0.23029165978E+03  0.54981621170E+03  0.00000000000E+00 0.  1.
         13    1    5    5    0    0  0.23218218678E+02 -0.41897214440E+02  0.10815260151E+02  0.49106334709E+02  0.00000000000E+00 0. -1.
        -13    1    5    5    0    0  0.12189192932E+03 -0.12141507362E+03 -0.13430131078E+03  0.21825696922E+03  0.00000000000E+00 0.  1.
          1    1    6    6  503    0  0.36012565235E+01  0.21084081684E+01 -0.25342575714E+01  0.48823042706E+01  0.00000000000E+00 0. -1.
         -1    1    6    6    0  503 -0.21214421569E+03  0.68597195438E+03  0.36693719123E+03  0.80635326797E+03  0.00000000000E+00 0.  1.
<mgrwt>
<rscale>  0 0.15951728E+04</rscale>
<asrwt>0</asrwt>
<pdfrwt beam="1">  1        3 0.90534931E-01 0.15951728E+04</pdfrwt>
<pdfrwt beam="2">  1       -4 0.16630778E+00 0.15951728E+04</pdfrwt>
<totfact> 0.54318077E-01</totfact>
</mgrwt>
</event>
<event>
12    5  0.5264288E-008  0.2119146E+04  0.7818608E-02  0.8552856E-01
          1   -1    0    0  501    0  0.00000000000E+00  0.00000000000E+00  0.10423226540E+04  0.10423226540E+04  0.00000000000E+00 0. -1.
         -2   -1    0    0    0  501 -0.00000000000E+00 -0.00000000000E+00 -0.10771091907E+04  0.10771091907E+04  0.00000000000E+00 0.  1.
        -24    2    1    2    0    0  0.75266077234E+03  0.38868513524E+02  0.40463586267E+03  0.85911078062E+03  0.79574823104E+02 0.  0.
        254    2    1    2    0    0 -0.75266077234E+03 -0.38868513524E+02 -0.43942239932E+03  0.12603210641E+04  0.90956480804E+03 0.  0.
         23    2    4    4    0    0 -0.13550407035E+03 -0.10893754965E+02 -0.59455589025E+03  0.61692797171E+03  0.92862202584E+02 0.  0.
         23    2    4    4    0    0 -0.61715670199E+03 -0.27974758559E+02  0.15513349092E+03  0.64339309239E+03  0.90682354457E+02 0.  0.
          3    1    3    3  502    0  0.53527933231E+03  0.28765174360E+02  0.24594974176E+03  0.58978188708E+03  0.00000000000E+00 0. -1.
         -4    1    3    3    0  502  0.21738144003E+03  0.10103339164E+02  0.15868612091E+03  0.26932889355E+03  0.00000000000E+00 0.  1.
         13    1    5    5    0    0 -0.38702617946E+02  0.13135990457E+02 -0.35631816833E+03  0.35865454683E+03  0.00000000000E+00 0. -1.
        -13    1    5    5    0    0 -0.96801452403E+02 -0.24029745422E+02 -0.23823772191E+03  0.25827342487E+03  0.00000000000E+00 0.  1.
          3    1    6    6  503    0 -0.30045823589E+03 -0.58933393246E+02  0.78573227716E+02  0.31610448979E+03  0.00000000000E+00 0. -1.
         -3    1    6    6    0  503 -0.31669846610E+03  0.30958634686E+02  0.76560263206E+02  0.32728860260E+03  0.00000000000E+00 0.  1.
<mgrwt>
<rscale>  0 0.21191463E+04</rscale>
<asrwt>0</asrwt>
<pdfrwt beam="1">  1        1 0.16035733E+00 0.21191463E+04</pdfrwt>
<pdfrwt beam="2">  1       -2 0.16570911E+00 0.21191463E+04</pdfrwt>
<totfact> 0.25837676E+00</totfact>
</mgrwt>
</event>
<event>
12    5  0.5264288E-008  0.1810767E+04  0.7818608E-02  0.8700595E-01
         -2   -1    0    0    0  501 -0.00000000000E+00  0.00000000000E+00  0.11244879267E+04  0.11244879267E+04  0.00000000000E+00 0.  1.
          1   -1    0    0  501    0  0.00000000000E+00 -0.00000000000E+00 -0.72897123228E+03  0.72897123228E+03  0.00000000000E+00 0. -1.
        -24    2    1    2    0    0 -0.23403875112E+02 -0.45916284004E+03  0.65674228191E+03  0.80561609562E+03  0.79552584118E+02 0.  0.
        254    2    1    2    0    0  0.23403875112E+02  0.45916284004E+03 -0.26122558750E+03  0.10478430634E+04  0.90463142927E+03 0.  0.
         23    2    4    4    0    0 -0.28314649161E+02  0.11176363106E+03  0.32574973014E+03  0.35776997141E+03  0.92701872553E+02 0.  0.
         23    2    4    4    0    0  0.51718524273E+02  0.34739920898E+03 -0.58697531763E+03  0.69007309195E+03  0.91103416868E+02 0.  0.
          1    1    3    3  502    0  0.21774033419E+02 -0.67987326257E+02  0.12492800786E+03  0.14388673396E+03  0.00000000000E+00 0. -1.
         -2    1    3    3    0  502 -0.45177908531E+02 -0.39117551378E+03  0.53181427404E+03  0.66172936166E+03  0.00000000000E+00 0.  1.
         13    1    5    5    0    0  0.16087075890E+02  0.10079420958E+03  0.23188198720E+03  0.25335256597E+03  0.00000000000E+00 0. -1.
        -13    1    5    5    0    0 -0.44401725051E+02  0.10969421477E+02  0.93867742936E+02  0.10441740544E+03  0.00000000000E+00 0.  1.
          3    1    6    6  503    0 -0.15908207365E+02  0.18960917825E+03 -0.28418595534E+03  0.34200346306E+03  0.00000000000E+00 0. -1.
         -3    1    6    6    0  503  0.67626731637E+02  0.15779003074E+03 -0.30278936230E+03  0.34806962888E+03  0.00000000000E+00 0.  1.
<mgrwt>
<rscale>  0 0.18107671E+04</rscale>
<asrwt>0</asrwt>
<pdfrwt beam="1">  1        1 0.11214942E+00 0.18107671E+04</pdfrwt>
<pdfrwt beam="2">  1       -2 0.17299814E+00 0.18107671E+04</pdfrwt>
<totfact> 0.42875166E+00</totfact>
</mgrwt>
</event>
<event>
12    5  0.5264288E-008  0.1880915E+04  0.7818608E-02  0.8664415E-01
          1   -1    0    0  501    0  0.00000000000E+00  0.00000000000E+00  0.18045121228E+04  0.18045121228E+04  0.00000000000E+00 0. -1.
         -2   -1    0    0    0  501 -0.00000000000E+00 -0.00000000000E+00 -0.49013804592E+03  0.49013804592E+03  0.00000000000E+00 0.  1.
        -24    2    1    2    0    0 -0.18614395203E+02  0.42440324364E+03  0.12222246456E+04  0.12966673999E+04  0.83956254724E+02 0.  0.
        254    2    1    2    0    0  0.18614395203E+02 -0.42440324364E+03  0.92149431311E+02  0.99798276886E+03  0.89833929020E+03 0.  0.
         23    2    4    4    0    0  0.18881415808E+01  0.16176752418E+03  0.31374519793E+03  0.36441441613E+03  0.90495969539E+02 0.  0.
         23    2    4    4    0    0  0.16726253622E+02 -0.58617076782E+03 -0.22159576662E+03  0.63356835272E+03  0.91805431096E+02 0.  0.
          1    1    3    3  502    0  0.25752290484E+02  0.29496740343E+03  0.82221931883E+03  0.87390706474E+03  0.00000000000E+00 0. -1.
         -2    1    3    3    0  502 -0.44366685687E+02  0.12943584021E+03  0.40000532676E+03  0.42276033514E+03  0.00000000000E+00 0.  1.
         13    1    5    5    0    0  0.28748217977E+02  0.75624894352E+02  0.21951001715E+03  0.23394493436E+03  0.00000000000E+00 0. -1.
        -13    1    5    5    0    0 -0.26860076396E+02  0.86142629827E+02  0.94235180780E+02  0.13046948177E+03  0.00000000000E+00 0.  1.
          3    1    6    6  503    0  0.19586631516E+02 -0.40946679848E+03 -0.19808268860E+03  0.45528391879E+03  0.00000000000E+00 0. -1.
         -3    1    6    6    0  503 -0.28603778938E+01 -0.17670396934E+03 -0.23513078026E+02  0.17828443393E+03  0.00000000000E+00 0.  1.
<mgrwt>
<rscale>  0 0.18809147E+04</rscale>
<asrwt>0</asrwt>
<pdfrwt beam="1">  1        1 0.27761725E+00 0.18809147E+04</pdfrwt>
<pdfrwt beam="2">  1       -2 0.75405854E-01 0.18809147E+04</pdfrwt>
<totfact> 0.52513280E+00</totfact>
</mgrwt>
</event>
<event>
12    5  0.6317919E-008  0.2562911E+04  0.7818608E-02  0.8380910E-01
         -2   -1    0    0    0  501 -0.00000000000E+00  0.00000000000E+00  0.10493000093E+04  0.10493000093E+04  0.00000000000E+00 0.  1.
          1   -1    0    0  501    0  0.00000000000E+00 -0.00000000000E+00 -0.15649749545E+04  0.15649749545E+04  0.00000000000E+00 0. -1.
        -24    2    1    2    0    0 -0.65442444431E+03  0.24779964212E+03  0.66978207411E+03  0.97192657561E+03  0.79732211956E+02 0.  0.
        254    2    1    2    0    0  0.65442444431E+03 -0.24779964212E+03 -0.11854570194E+04  0.16423483882E+04  0.89572533037E+03 0.  0.
         23    2    4    4    0    0  0.63505232705E+03  0.12333613131E+03 -0.10504097771E+04  0.12370800489E+04  0.92212191034E+02 0.  0.
         23    2    4    4    0    0  0.19372117260E+02 -0.37113577343E+03 -0.13504724229E+03  0.40526833931E+03  0.88812318701E+02 0.  0.
          3    1    3    3  502    0 -0.11041835335E+03  0.30540406450E+02  0.73898839312E+02  0.13633036212E+03  0.00000000000E+00 0. -1.
         -4    1    3    3    0  502 -0.54400609096E+03  0.21725923567E+03  0.59588323480E+03  0.83559621349E+03  0.00000000000E+00 0.  1.
         13    1    5    5    0    0  0.89447297622E+01 -0.44165456464E+01 -0.35228209413E+01  0.10579429727E+02  0.00000000000E+00 0. -1.
        -13    1    5    5    0    0  0.62610759729E+03  0.12775267696E+03 -0.10468869561E+04  0.12265006191E+04  0.00000000000E+00 0.  1.
          3    1    6    6  503    0 -0.65713885977E+01 -0.29250208017E+02  0.11876889660E+02  0.32246214121E+02  0.00000000000E+00 0. -1.
         -3    1    6    6    0  503  0.25943505857E+02 -0.34188556541E+03 -0.14692413195E+03  0.37302212519E+03  0.00000000000E+00 0.  1.
<mgrwt>
<rscale>  0 0.25629110E+04</rscale>
<asrwt>0</asrwt>
<pdfrwt beam="1">  1        1 0.24076538E+00 0.25629110E+04</pdfrwt>
<pdfrwt beam="2">  1       -2 0.16143077E+00 0.25629110E+04</pdfrwt>
<totfact> 0.11253371E+00</totfact>
</mgrwt>
</event>
<event>
12    5  0.5264288E-008  0.1342722E+04  0.7818608E-02  0.8996356E-01
          1   -1    0    0  501    0  0.00000000000E+00  0.00000000000E+00  0.22440550405E+04  0.22440550405E+04  0.00000000000E+00 0. -1.
         -2   -1    0    0    0  501 -0.00000000000E+00 -0.00000000000E+00 -0.20085308845E+03  0.20085308845E+03  0.00000000000E+00 0.  1.
        -24    2    1    2    0    0 -0.17181766465E+03  0.16825285192E+03  0.10739040340E+04  0.11034653572E+04  0.80842985343E+02 0.  0.
        254    2    1    2    0    0  0.17181766465E+03 -0.16825285192E+03  0.96929791809E+03  0.13414427718E+04  0.89560031478E+03 0.  0.
         23    2    4    4    0    0  0.38752047716E+03  0.55662769036E+02  0.93218930948E+03  0.10152225490E+04  0.91812042704E+02 0.  0.
         23    2    4    4    0    0 -0.21570281251E+03 -0.22391562096E+03  0.37108608609E+02  0.32622022277E+03  0.91524184121E+02 0.  0.
          3    1    3    3  502    0 -0.17565217604E+03  0.16350824911E+03  0.96501752210E+03  0.99440809150E+03  0.00000000000E+00 0. -1.
         -4    1    3    3    0  502  0.38345113913E+01  0.47446028135E+01  0.10888651189E+03  0.10905726571E+03  0.00000000000E+00 0.  1.
         13    1    5    5    0    0  0.37121503363E+03  0.32171292900E+02  0.88166803828E+03  0.95716985065E+03  0.00000000000E+00 0.  1.
        -13    1    5    5    0    0  0.16305443531E+02  0.23491476136E+02  0.50521271203E+02  0.58052698333E+02  0.00000000000E+00 0. -1.
          3    1    6    6  503    0 -0.13120385516E+03 -0.74902491448E+02  0.65314388688E+00  0.15108031451E+03  0.00000000000E+00 0. -1.
         -3    1    6    6    0  503 -0.84498957348E+02 -0.14901312951E+03  0.36455464722E+02  0.17513990826E+03  0.00000000000E+00 0.  1.
<mgrwt>
<rscale>  0 0.13427217E+04</rscale>
<asrwt>0</asrwt>
<pdfrwt beam="1">  1        1 0.34523922E+00 0.13427217E+04</pdfrwt>
<pdfrwt beam="2">  1       -2 0.30900477E-01 0.13427217E+04</pdfrwt>
<totfact> 0.16997368E+01</totfact>
</mgrwt>
</event>
<event>
12    5  0.5264288E-008  0.1178055E+04  0.7818608E-02  0.9132285E-01
         -2   -1    0    0    0  501 -0.00000000000E+00  0.00000000000E+00  0.15382441951E+03  0.15382441951E+03  0.00000000000E+00 0.  1.
          1   -1    0    0  501    0  0.00000000000E+00 -0.00000000000E+00 -0.22555158794E+04  0.22555158794E+04  0.00000000000E+00 0. -1.
        -24    2    1    2    0    0  0.98509611982E+02 -0.16027556159E+03 -0.15724648615E+03  0.26005987120E+03  0.86673409445E+02 0.  0.
        254    2    1    2    0    0 -0.98509611982E+02  0.16027556159E+03 -0.19444449738E+04  0.21492804277E+04  0.89618508231E+03 0.  0.
         23    2    4    4    0    0  0.28300253114E+03  0.18278954840E+03 -0.15645034970E+04  0.16029538230E+04  0.91034689665E+02 0.  0.
         23    2    4    4    0    0 -0.38151214312E+03 -0.22513986812E+02 -0.37994147672E+03  0.54632660475E+03  0.89771033034E+02 0.  0.
          3    1    3    3  502    0  0.43734001848E+02 -0.45875044098E+02 -0.10549494395E+03  0.12307057239E+03  0.00000000000E+00 0. -1.
         -4    1    3    3    0  502  0.54775610134E+02 -0.11440051749E+03 -0.51751542196E+02  0.13698929881E+03  0.00000000000E+00 0.  1.
         13    1    5    5    0    0  0.13505117568E+03  0.13852871132E+03 -0.93232188896E+03  0.95218334818E+03  0.00000000000E+00 0. -1.
        -13    1    5    5    0    0  0.14795135546E+03  0.44260837082E+02 -0.63218160808E+03  0.65077047480E+03  0.00000000000E+00 0.  1.
          3    1    6    6  503    0 -0.11239787686E+03 -0.48050767246E+02 -0.12062584780E+03  0.17173454548E+03  0.00000000000E+00 0. -1.
         -3    1    6    6    0  503 -0.26911426627E+03  0.25536780434E+02 -0.25931562893E+03  0.37459205927E+03  0.00000000000E+00 0.  1.
<mgrwt>
<rscale>  0 0.11780550E+04</rscale>
<asrwt>0</asrwt>
<pdfrwt beam="1">  1        1 0.34700243E+00 0.11780550E+04</pdfrwt>
<pdfrwt beam="2">  1       -2 0.23665296E-01 0.11780550E+04</pdfrwt>
<totfact> 0.27639460E+01</totfact>
</mgrwt>
</event>
<event>
12    5  0.5264288E-008  0.1948379E+04  0.7818608E-02  0.8631143E-01
         -2   -1    0    0    0  501 -0.00000000000E+00  0.00000000000E+00  0.59795181320E+03  0.59795181320E+03  0.00000000000E+00 0.  1.
          1   -1    0    0  501    0  0.00000000000E+00 -0.00000000000E+00 -0.15871597183E+04  0.15871597183E+04  0.00000000000E+00 0. -1.
        -24    2    1    2    0    0  0.35260018971E+03  0.27985604225E+03 -0.10827005811E+04  0.11752031145E+04  0.78838529876E+02 0.  0.
        254    2    1    2    0    0 -0.35260018971E+03 -0.27985604225E+03  0.93492675969E+02  0.10099084171E+04  0.89918175705E+03 0.  0.
         23    2    4    4    0    0  0.22064478801E+03  0.13120781570E+03  0.12017045158E+03  0.29794433107E+03  0.91816521425E+02 0.  0.
         23    2    4    4    0    0 -0.57324497772E+03 -0.41106385795E+03 -0.26677775608E+02  0.71196408599E+03  0.92724625852E+02 0.  0.
          3    1    3    3  502    0  0.31430194964E+03  0.22026305896E+03 -0.95375060808E+03  0.10280767253E+04  0.00000000000E+00 0. -1.
         -2    1    3    3    0  502  0.38298240067E+02  0.59592983293E+02 -0.12894997300E+03  0.14712638916E+03  0.00000000000E+00 0.  1.
         13    1    5    5    0    0  0.10984945484E+03  0.11145274428E+03  0.93468843863E+02  0.18227737574E+03  0.00000000000E+00 0. -1.
        -13    1    5    5    0    0  0.11079533317E+03  0.19755071424E+02  0.26701607714E+02  0.11566695532E+03  0.00000000000E+00 0.  1.
          4    1    6    6  503    0 -0.36305884165E+03 -0.30557840135E+03 -0.41322761201E+02  0.47633754048E+03  0.00000000000E+00 0. -1.
         -4    1    6    6    0  503 -0.21018613607E+03 -0.10548545660E+03  0.14644985593E+02  0.23562654552E+03  0.00000000000E+00 0.  1.
<mgrwt>
<rscale>  0 0.19483788E+04</rscale>
<asrwt>0</asrwt>
<pdfrwt beam="1">  1        1 0.24417841E+00 0.19483788E+04</pdfrwt>
<pdfrwt beam="2">  1       -2 0.91992589E-01 0.19483788E+04</pdfrwt>
<totfact> 0.46788759E+00</totfact>
</mgrwt>
</event>
<event>
12    5  0.5264288E-008  0.2958477E+04  0.7818608E-02  0.8255689E-01
         -2   -1    0    0    0  501 -0.00000000000E+00  0.00000000000E+00  0.94797636605E+03  0.94797636605E+03  0.00000000000E+00 0.  1.
          1   -1    0    0  501    0  0.00000000000E+00 -0.00000000000E+00 -0.23082282903E+04  0.23082282903E+04  0.00000000000E+00 0. -1.
        -24    2    1    2    0    0  0.39852355485E+03  0.86922674847E+03  0.41625569201E+03  0.10458971386E+04  0.79093991322E+02 0.  0.
        254    2    1    2    0    0 -0.39852355485E+03 -0.86922674847E+03 -0.17765076163E+04  0.22103075177E+04  0.90283101864E+03 0.  0.
         23    2    4    4    0    0  0.85016558186E+02  0.12919022651E+03 -0.41530624644E+03  0.45197303550E+03  0.88782975232E+02 0.  0.
         23    2    4    4    0    0 -0.48354011303E+03 -0.99841697498E+03 -0.13612013698E+04  0.17583344822E+04  0.90683434650E+02 0.  0.
          3    1    3    3  502    0  0.15040102163E+03  0.40358300208E+03  0.21284913558E+03  0.48042112921E+03  0.00000000000E+00 0. -1.
         -4    1    3    3    0  502  0.24812253322E+03  0.46564374639E+03  0.20340655643E+03  0.56547600943E+03  0.00000000000E+00 0.  1.
         13    1    5    5    0    0  0.10617534591E+02 -0.38994261583E+01 -0.20620920784E+01  0.11497381828E+02  0.00000000000E+00 0.  1.
        -13    1    5    5    0    0  0.74399023595E+02  0.13308965267E+03 -0.41324415437E+03  0.44047565367E+03  0.00000000000E+00 0. -1.
          3    1    6    6  503    0 -0.37093934307E+03 -0.83871345847E+03 -0.11428540503E+04  0.14653162260E+04  0.00000000000E+00 0. -1.
         -3    1    6    6    0  503 -0.11260076997E+03 -0.15970351651E+03 -0.21834731948E+03  0.29301825626E+03  0.00000000000E+00 0.  1.
<mgrwt>
<rscale>  0 0.29584765E+04</rscale>
<asrwt>0</asrwt>
<pdfrwt beam="1">  1        1 0.35511204E+00 0.29584765E+04</pdfrwt>
<pdfrwt beam="2">  1       -2 0.14584252E+00 0.29584765E+04</pdfrwt>
<totfact> 0.44528343E-01</totfact>
</mgrwt>
</event>
<event>
12    5  0.5264288E-008  0.1622464E+04  0.7818608E-02  0.8806865E-01
         -2   -1    0    0    0  501 -0.00000000000E+00  0.00000000000E+00  0.46839769071E+03  0.46839769071E+03  0.00000000000E+00 0.  1.
          1   -1    0    0  501    0  0.00000000000E+00 -0.00000000000E+00 -0.14049967948E+04  0.14049967948E+04  0.00000000000E+00 0. -1.
        -24    2    1    2    0    0 -0.17672677699E+03 -0.27193708111E+03  0.19589743242E+03  0.38715720715E+03  0.79578698328E+02 0.  0.
        254    2    1    2    0    0  0.17672677699E+03  0.27193708111E+03 -0.11324965365E+04  0.14862372784E+04  0.90618470115E+03 0.  0.
         23    2    4    4    0    0  0.21502926207E+03  0.38808244092E+03 -0.12245494987E+04  0.13057623088E+04  0.92995525505E+02 0.  0.
         23    2    4    4    0    0 -0.38302485080E+02 -0.11614535981E+03  0.92052962213E+02  0.18047496956E+03  0.95606703840E+02 0.  0.
          3    1    3    3  502    0 -0.51134747174E+02 -0.14990226265E+03  0.83149337758E+02  0.17888337845E+03  0.00000000000E+00 0. -1.
         -2    1    3    3    0  502 -0.12559202982E+03 -0.12203481847E+03  0.11274809466E+03  0.20827382870E+03  0.00000000000E+00 0.  1.
         13    1    5    5    0    0  0.22354304790E+03  0.35883256842E+03 -0.11483071162E+04  0.12236590782E+04  0.00000000000E+00 0. -1.
        -13    1    5    5    0    0 -0.85137858298E+01  0.29249872497E+02 -0.76242382493E+02  0.82103230621E+02  0.00000000000E+00 0.  1.
          2    1    6    6  503    0 -0.38290920219E+02 -0.11031359176E+03  0.11072086960E+03  0.16091735165E+03  0.00000000000E+00 0. -1.
         -2    1    6    6    0  503 -0.11564861525E-01 -0.58317680454E+01 -0.18667907384E+02  0.19557617912E+02  0.00000000000E+00 0.  1.
<mgrwt>
<rscale>  0 0.16224639E+04</rscale>
<asrwt>0</asrwt>
<pdfrwt beam="1">  1        1 0.21615335E+00 0.16224639E+04</pdfrwt>
<pdfrwt beam="2">  1       -2 0.72061184E-01 0.16224639E+04</pdfrwt>
<totfact> 0.11170283E+01</totfact>
</mgrwt>
</event>
<event>
12    5  0.5264288E-008  0.1973751E+04  0.7818608E-02  0.8618992E-01
          1   -1    0    0  501    0  0.00000000000E+00  0.00000000000E+00  0.73908186607E+03  0.73908186607E+03  0.00000000000E+00 0. -1.
         -2   -1    0    0    0  501 -0.00000000000E+00 -0.00000000000E+00 -0.13177476368E+04  0.13177476368E+04  0.00000000000E+00 0.  1.
        -24    2    1    2    0    0  0.21396275975E+03 -0.65044851269E+03  0.16638292556E+03  0.70911717444E+03  0.79376060289E+02 0.  0.
        254    2    1    2    0    0 -0.21396275975E+03  0.65044851269E+03 -0.74504869633E+03  0.13477123285E+04  0.89015034133E+03 0.  0.
         23    2    4    4    0    0  0.94162122511E+02  0.18254069016E+03  0.16318097079E+03  0.27678424036E+03  0.88282940620E+02 0.  0.
         23    2    4    4    0    0 -0.30812488226E+03  0.46790782253E+03 -0.90822966712E+03  0.10709280881E+04  0.90150808115E+02 0.  0.
          3    1    3    3  502    0  0.18357928244E+03 -0.61775204738E+03  0.15099804002E+03  0.66190584910E+03  0.00000000000E+00 0. -1.
         -4    1    3    3    0  502  0.30383477304E+02 -0.32696465304E+02  0.15384885548E+02  0.47211325334E+02  0.00000000000E+00 0.  1.
         13    1    5    5    0    0  0.37152660537E+02  0.15904998229E+02  0.60992971672E+02  0.73167149371E+02  0.00000000000E+00 0.  1.
        -13    1    5    5    0    0  0.57009461974E+02  0.16663569193E+03  0.10218799912E+03  0.20361709099E+03  0.00000000000E+00 0. -1.
          2    1    6    6  503    0 -0.30951049843E+03  0.46042967586E+03 -0.86920359365E+03  0.10311678439E+04  0.00000000000E+00 0. -1.
         -2    1    6    6    0  503  0.13856161753E+01  0.74781466724E+01 -0.39026073471E+02  0.39760244219E+02  0.00000000000E+00 0.  1.
<mgrwt>
<rscale>  0 0.19737511E+04</rscale>
<asrwt>0</asrwt>
<pdfrwt beam="1">  1        1 0.11370490E+00 0.19737511E+04</pdfrwt>
<pdfrwt beam="2">  1       -2 0.20273040E+00 0.19737511E+04</pdfrwt>
<totfact> 0.26034878E+00</totfact>
</mgrwt>
</event>
<event>
12    5  0.5264288E-008  0.1701803E+04  0.7818608E-02  0.8760337E-01
          1   -1    0    0  501    0  0.00000000000E+00  0.00000000000E+00  0.10677276282E+04  0.10677276282E+04  0.00000000000E+00 0. -1.
         -2   -1    0    0    0  501 -0.00000000000E+00 -0.00000000000E+00 -0.67810645037E+03  0.67810645037E+03  0.00000000000E+00 0.  1.
        -24    2    1    2    0    0  0.27934858367E+03  0.32253967214E+03 -0.27865415272E+03  0.51573403941E+03  0.79158014594E+02 0.  0.
        254    2    1    2    0    0 -0.27934858367E+03 -0.32253967214E+03  0.66827533056E+03  0.12301000392E+04  0.94047154003E+03 0.  0.
         23    2    4    4    0    0  0.43475433552E+01  0.19124599265E+03  0.59365380216E+03  0.63121958024E+03  0.97053546197E+02 0.  0.
         23    2    4    4    0    0 -0.28369612703E+03 -0.51378566479E+03  0.74621528400E+02  0.59888045892E+03  0.92899029792E+02 0.  0.
          1    1    3    3  502    0  0.18892503925E+03  0.18073288766E+03 -0.13344775263E+03  0.29353934970E+03  0.00000000000E+00 0. -1.
         -2    1    3    3    0  502  0.90423544420E+02  0.14180678448E+03 -0.14520640009E+03  0.22219468971E+03  0.00000000000E+00 0.  1.
         13    1    5    5    0    0  0.28178444285E+01  0.10194583622E+03  0.16992373858E+03  0.19817913791E+03  0.00000000000E+00 0. -1.
        -13    1    5    5    0    0  0.15296989267E+01  0.89300156427E+02  0.42373006357E+03  0.43304044233E+03  0.00000000000E+00 0.  1.
          4    1    6    6  503    0 -0.12820213591E+03 -0.14439063421E+03  0.33673996126E+02  0.19600607367E+03  0.00000000000E+00 0. -1.
         -4    1    6    6    0  503 -0.15549399112E+03 -0.36939503058E+03  0.40947532274E+02  0.40287438525E+03  0.00000000000E+00 0.  1.
<mgrwt>
<rscale>  0 0.17018026E+04</rscale>
<asrwt>0</asrwt>
<pdfrwt beam="1">  1        1 0.16426579E+00 0.17018026E+04</pdfrwt>
<pdfrwt beam="2">  1       -2 0.10432407E+00 0.17018026E+04</pdfrwt>
<totfact> 0.83546633E+00</totfact>
</mgrwt>
</event>
